<LesHouchesEvents version="3.0">
<header>
<!--
#*********************************************************************
#                                                                    *
#                        MadGraph5_aMC@NLO                           *
#                                                                    *
#                           Going Beyond                             *
#                                                                    *
#                   http://madgraph.hep.uiuc.edu                     *
#                   http://madgraph.phys.ucl.ac.be                   *
#                   http://amcatnlo.cern.ch                          *
#                                                                    *
#                     The MadGraph5_aMC@NLO team                     *
#                                                                    *
#....................................................................*
#                                                                    *
# This file contains all the information necessary to reproduce      *
# the events generated:                                              *
#                                                                    *
# 1. software version                                                *
# 2. proc_card          : code generation info including model       *
# 3. param_card         : model primary parameters in the LH format  *
# 4. run_card           : running parameters (collider and cuts)     *
# 5. pythia_card        : present only if pythia has been run        *
# 6. pgs_card           : present only if pgs has been run           *
# 7. delphes_cards      : present only if delphes has been run       *
#                                                                    *
#                                                                    *
#*********************************************************************
-->
<MGVersion>
#5.2.2.3
</MGVersion>
<MG5ProcCard>
#************************************************************
#*                     MadGraph5_aMC@NLO                    *
#*                                                          *
#*                *                       *                 *
#*                  *        * *        *                   *
#*                    * * * * 5 * * * *                     *
#*                  *        * *        *                   *
#*                *                       *                 *
#*                                                          *
#*                                                          *
#*         VERSION 2.2.3                 2015-02-10         *
#*                                                          *
#*    The MadGraph5_aMC@NLO Development Team - Find us at   *
#*    https://server06.fynu.ucl.ac.be/projects/madgraph     *
#*                                                          *
#************************************************************
#*                                                          *
#*               Command File for MadGraph5_aMC@NLO         *
#*                                                          *
#*     run as ./bin/mg5_aMC  filename                       *
#*                                                          *
#************************************************************
set group_subprocesses Auto
set ignore_six_quark_processes False
set loop_optimized_output True
set gauge unitary
set complex_mass_scheme False
import model sm
define p = g u c d s u~ c~ d~ s~
define j = g u c d s u~ c~ d~ s~
define l+ = e+ mu+
define l- = e- mu-
define vl = ve vm vt
define vl~ = ve~ vm~ vt~
import model Zprime_UFO
generate p p > zph, zph > j j
add process p p > zph, zph > b b~
output Dijet_signal
</MG5ProcCard>
<MGProcCard>
#*********************************************************************
#                        MadGraph/MadEvent                           *
#                   http://madgraph.hep.uiuc.edu                     *
#                                                                    *
#                          proc_card.dat                             *
#*********************************************************************
#                                                                    *
#            This Files is generated by MADGRAPH 5                   *
#                                                                    *
# WARNING: This Files is generated for MADEVENT (compatibility issue)*
#          This files is NOT a valid MG4 proc_card.dat               *
#          Running this in MG4 will NEVER reproduce the result of MG5*
#                                                                    *
#*********************************************************************
#*********************************************************************
# Process(es) requested : mg2 input                                  *
#*********************************************************************
# Begin PROCESS # This is TAG. Do not modify this line
p p > zph , zph > j j           #Process
# Be carefull the coupling are here in MG5 convention
          
end_coup           # End the couplings input

done               # this tells MG there are no more procs
# End PROCESS  # This is TAG. Do not modify this line
#*********************************************************************
# Model information                                                  *
#*********************************************************************
# Begin MODEL  # This is TAG. Do not modify this line
Zprime_UFO
# End   MODEL  # This is TAG. Do not modify this line
#*********************************************************************
# Start multiparticle definitions                                    *
#*********************************************************************
# Begin MULTIPARTICLES # This is TAG. Do not modify this line

# End  MULTIPARTICLES # This is TAG. Do not modify this line
</MGProcCard>
<MGRunCard>
#*********************************************************************
#                       MadGraph5_aMC@NLO                            *
#                                                                    *
#                     run_card.dat MadEvent                          *
#                                                                    *
#  This file is used to set the parameters of the run.               *
#                                                                    *
#  Some notation/conventions:                                        *
#                                                                    *
#   Lines starting with a '# ' are info or comments                  *
#                                                                    *
#   mind the format:   value    = variable     ! comment             *
#*********************************************************************
#
#*******************                                                 
# Running parameters
#*******************                                                 
#                                                                    
#*********************************************************************
# Tag name for the run (one word)                                    *
#*********************************************************************
  tag_1     = run_tag ! name of the run 
#*********************************************************************
# Run to generate the grid pack                                      *
#*********************************************************************
  .false.     = gridpack  !True = setting up the grid pack
#*********************************************************************
# Number of events and rnd seed                                      *
# Warning: Do not generate more than 1M events in a single run       *
# If you want to run Pythia, avoid more than 50k events in a run.    *
#*********************************************************************
  2000 = nevents ! Number of unweighted events requested 
 606 = iseed   ! rnd seed (0=assigned automatically=default))
#*********************************************************************
# Collider type and energy                                           *
# lpp: 0=No PDF, 1=proton, -1=antiproton, 2=photon from proton,      *
#                                         3=photon from electron     *
#*********************************************************************
        1     = lpp1    ! beam 1 type 
        1     = lpp2    ! beam 2 type
     4000     = ebeam1  ! beam 1 total energy in GeV
     4000     = ebeam2  ! beam 2 total energy in GeV
#*********************************************************************
# Beam polarization from -100 (left-handed) to 100 (right-handed)    *
#*********************************************************************
        0     = polbeam1 ! beam polarization for beam 1
        0     = polbeam2 ! beam polarization for beam 2
#*********************************************************************
# PDF CHOICE: this automatically fixes also alpha_s and its evol.    *
#*********************************************************************
 'nn23lo1'    = pdlabel     ! PDF set                                     
 230000    = lhaid     ! if pdlabel=lhapdf, this is the lhapdf number
#*********************************************************************
# Renormalization and factorization scales                           *
#*********************************************************************
 F        = fixed_ren_scale  ! if .true. use fixed ren scale
 F        = fixed_fac_scale  ! if .true. use fixed fac scale
 91.1880  = scale            ! fixed ren scale
 91.1880  = dsqrt_q2fact1    ! fixed fact scale for pdf1
 91.1880  = dsqrt_q2fact2    ! fixed fact scale for pdf2
 1        = scalefact        ! scale factor for event-by-event scales
#*********************************************************************
# Matching - Warning! ickkw > 1 is still beta
#*********************************************************************
 0        = ickkw            ! 0 no matching, 1 MLM, 2 CKKW matching
 1        = highestmult      ! for ickkw=2, highest mult group
 1        = ktscheme         ! for ickkw=1, 1 Durham kT, 2 Pythia pTE
 1        = alpsfact         ! scale factor for QCD emission vx
 F        = chcluster        ! cluster only according to channel diag
 T        = pdfwgt           ! for ickkw=1, perform pdf reweighting
 5        = asrwgtflavor     ! highest quark flavor for a_s reweight
 T        = clusinfo         ! include clustering tag in output
 3.0      = lhe_version       ! Change the way clustering information pass to shower.        
#*********************************************************************
#**********************************************************
#
#**********************************************************
# Automatic ptj and mjj cuts if xqcut > 0
# (turn off for VBF and single top processes)
#**********************************************************
   T  = auto_ptj_mjj  ! Automatic setting of ptj and mjj
#**********************************************************
#                                                                    
#**********************************
# BW cutoff (M+/-bwcutoff*Gamma)
#**********************************
  15  = bwcutoff      ! (M+/-bwcutoff*Gamma)
#**********************************************************
# Apply pt/E/eta/dr/mij cuts on decay products or not
# (note that etmiss/ptll/ptheavy/ht/sorted cuts always apply)
#**********************************************************
   T  = cut_decays    ! Cut decay products 
#*************************************************************
# Number of helicities to sum per event (0 = all helicities)
# 0 gives more stable result, but longer run time (needed for
# long decay chains e.g.).
# Use >=2 if most helicities contribute, e.g. pure QCD.
#*************************************************************
   0  = nhel          ! Number of helicities used per event
#*******************                                                 
# Standard Cuts
#*******************                                                 
#                                                                    
#*********************************************************************
# Minimum and maximum pt's (for max, -1 means no cut)                *
#*********************************************************************
 20  = ptj       ! minimum pt for the jets 
  0  = ptb       ! minimum pt for the b 
 10  = pta       ! minimum pt for the photons 
 10  = ptl       ! minimum pt for the charged leptons 
  0  = misset    ! minimum missing Et (sum of neutrino's momenta)
  0  = ptheavy   ! minimum pt for one heavy final state
 1.0 = ptonium   ! minimum pt for the quarkonium states
 -1  = ptjmax    ! maximum pt for the jets
 -1  = ptbmax    ! maximum pt for the b
 -1  = ptamax    ! maximum pt for the photons
 -1  = ptlmax    ! maximum pt for the charged leptons
 -1  = missetmax ! maximum missing Et (sum of neutrino's momenta)
#*********************************************************************
# Minimum and maximum E's (in the center of mass frame)              *
#*********************************************************************
  0  = ej     ! minimum E for the jets 
  0  = eb     ! minimum E for the b 
  0  = ea     ! minimum E for the photons 
  0  = el     ! minimum E for the charged leptons 
 -1   = ejmax ! maximum E for the jets
 -1   = ebmax ! maximum E for the b
 -1   = eamax ! maximum E for the photons
 -1   = elmax ! maximum E for the charged leptons
#*********************************************************************
# Maximum and minimum absolute rapidity (for max, -1 means no cut)   *
#*********************************************************************
   5  = etaj    ! max rap for the jets 
  -1  = etab    ! max rap for the b
 2.5  = etaa    ! max rap for the photons 
 2.5  = etal    ! max rap for the charged leptons 
 0.6  = etaonium ! max rap for the quarkonium states
   0  = etajmin ! min rap for the jets
   0  = etabmin ! min rap for the b
   0  = etaamin ! min rap for the photons
   0  = etalmin ! main rap for the charged leptons
#*********************************************************************
# Minimum and maximum DeltaR distance                                *
#*********************************************************************
 0.4 = drjj    ! min distance between jets 
 0   = drbb    ! min distance between b's 
 0.4 = drll    ! min distance between leptons 
 0.4 = draa    ! min distance between gammas 
 0   = drbj    ! min distance between b and jet 
 0.4 = draj    ! min distance between gamma and jet 
 0.4 = drjl    ! min distance between jet and lepton 
 0   = drab    ! min distance between gamma and b 
 0   = drbl    ! min distance between b and lepton 
 0.4 = dral    ! min distance between gamma and lepton 
 -1  = drjjmax ! max distance between jets
 -1  = drbbmax ! max distance between b's
 -1  = drllmax ! max distance between leptons
 -1  = draamax ! max distance between gammas
 -1  = drbjmax ! max distance between b and jet
 -1  = drajmax ! max distance between gamma and jet
 -1  = drjlmax ! max distance between jet and lepton
 -1  = drabmax ! max distance between gamma and b
 -1  = drblmax ! max distance between b and lepton
 -1  = dralmax ! maxdistance between gamma and lepton
#*********************************************************************
# Minimum and maximum invariant mass for pairs                       *
# WARNING: for four lepton final state mmll cut require to have      *
#          different lepton masses for each flavor!                  *           
#*********************************************************************
 0   = mmjj    ! min invariant mass of a jet pair 
 0   = mmbb    ! min invariant mass of a b pair 
 0   = mmaa    ! min invariant mass of gamma gamma pair
 0   = mmll    ! min invariant mass of l+l- (same flavour) lepton pair
 -1  = mmjjmax ! max invariant mass of a jet pair
 -1  = mmbbmax ! max invariant mass of a b pair
 -1  = mmaamax ! max invariant mass of gamma gamma pair
 -1  = mmllmax ! max invariant mass of l+l- (same flavour) lepton pair
#*********************************************************************
# Minimum and maximum invariant mass for all letpons                 *
#*********************************************************************
 0   = mmnl    ! min invariant mass for all letpons (l+- and vl) 
 -1  = mmnlmax ! max invariant mass for all letpons (l+- and vl) 
#*********************************************************************
# Minimum and maximum pt for 4-momenta sum of leptons                *
#*********************************************************************
 0   = ptllmin  ! Minimum pt for 4-momenta sum of leptons(l and vl)
 -1  = ptllmax  ! Maximum pt for 4-momenta sum of leptons(l and vl)
#*********************************************************************
# Inclusive cuts                                                     *
#*********************************************************************
 0  = xptj ! minimum pt for at least one jet  
 0  = xptb ! minimum pt for at least one b 
 0  = xpta ! minimum pt for at least one photon 
 0  = xptl ! minimum pt for at least one charged lepton 
#*********************************************************************
# Control the pt's of the jets sorted by pt                          *
#*********************************************************************
 0   = ptj1min ! minimum pt for the leading jet in pt
 0   = ptj2min ! minimum pt for the second jet in pt
 0   = ptj3min ! minimum pt for the third jet in pt
 0   = ptj4min ! minimum pt for the fourth jet in pt
 -1  = ptj1max ! maximum pt for the leading jet in pt 
 -1  = ptj2max ! maximum pt for the second jet in pt
 -1  = ptj3max ! maximum pt for the third jet in pt
 -1  = ptj4max ! maximum pt for the fourth jet in pt
 0   = cutuse  ! reject event if fails any (0) / all (1) jet pt cuts
#*********************************************************************
# Control the pt's of leptons sorted by pt                           *
#*********************************************************************
 0   = ptl1min ! minimum pt for the leading lepton in pt
 0   = ptl2min ! minimum pt for the second lepton in pt
 0   = ptl3min ! minimum pt for the third lepton in pt
 0   = ptl4min ! minimum pt for the fourth lepton in pt
 -1  = ptl1max ! maximum pt for the leading lepton in pt 
 -1  = ptl2max ! maximum pt for the second lepton in pt
 -1  = ptl3max ! maximum pt for the third lepton in pt
 -1  = ptl4max ! maximum pt for the fourth lepton in pt
#*********************************************************************
# Control the Ht(k)=Sum of k leading jets                            *
#*********************************************************************
 0   = htjmin ! minimum jet HT=Sum(jet pt)
 -1  = htjmax ! maximum jet HT=Sum(jet pt)
 0   = ihtmin  !inclusive Ht for all partons (including b)
 -1  = ihtmax  !inclusive Ht for all partons (including b)
 0   = ht2min ! minimum Ht for the two leading jets
 0   = ht3min ! minimum Ht for the three leading jets
 0   = ht4min ! minimum Ht for the four leading jets
 -1  = ht2max ! maximum Ht for the two leading jets
 -1  = ht3max ! maximum Ht for the three leading jets
 -1  = ht4max ! maximum Ht for the four leading jets
#***********************************************************************
# Photon-isolation cuts, according to hep-ph/9801442                   *
# When ptgmin=0, all the other parameters are ignored                  *
# When ptgmin>0, pta and draj are not going to be used                 *
#***********************************************************************
   0 = ptgmin ! Min photon transverse momentum
 0.4 = R0gamma ! Radius of isolation code
 1.0 = xn ! n parameter of eq.(3.4) in hep-ph/9801442
 1.0 = epsgamma ! epsilon_gamma parameter of eq.(3.4) in hep-ph/9801442
 .true. = isoEM ! isolate photons from EM energy (photons and leptons)
#*********************************************************************
# WBF cuts                                                           *
#*********************************************************************
 0   = xetamin ! minimum rapidity for two jets in the WBF case  
 0   = deltaeta ! minimum rapidity for two jets in the WBF case 
#*********************************************************************
# KT DURHAM CUT                                                      *
#*********************************************************************
 -1    =  ktdurham        
 0.4  =  dparameter 
#*********************************************************************
# maximal pdg code for quark to be considered as a light jet         *
# (otherwise b cuts are applied)                                     *
#*********************************************************************
 4 = maxjetflavor    ! Maximum jet pdg code
#*********************************************************************
# Jet measure cuts                                                   *
#*********************************************************************
 0   = xqcut   ! minimum kt jet measure between partons
#*********************************************************************
#
#*********************************************************************
# Store info for systematics studies                                 *
# WARNING: If use_syst is T, matched Pythia output is                *
#          meaningful ONLY if plotted taking matchscale              *
#          reweighting into account!                                 *
#*********************************************************************
   F  = use_syst      ! Enable systematics studies
#
#**************************************
# Parameter of the systematics study
#  will be used by SysCalc (if installed)
#**************************************                                  
#
0.5 1 2 = sys_scalefact  # factorization/renormalization scale factor
0.5 1 2 = sys_alpsfact  # \alpha_s emission scale factors
30 50 = sys_matchscale # variation of merging scale
# PDF sets and number of members (0 or none for all members).
CT10nlo.LHgrid = sys_pdf # matching scales
# MSTW2008nlo68cl.LHgrid 1  = sys_pdf
</MGRunCard>
<slha>
######################################################################
## PARAM_CARD AUTOMATICALY GENERATED BY MG5 FOLLOWING UFO MODEL   ####
######################################################################
##                                                                  ##
##  Width set on Auto will be computed following the information    ##
##        present in the decay.py files of the model.               ##
##        See  arXiv:1402.1178 for more details.                    ##
##                                                                  ##
######################################################################

###################################
## INFORMATION FOR CKMBLOCK
###################################
Block ckmblock 
    1 2.277360e-01 # cabi 

###################################
## INFORMATION FOR FRBLOCK
###################################
Block frblock 
    1 2.000000e-01 # gz 

###################################
## INFORMATION FOR MASS
###################################
Block mass 
    1 5.040000e-03 # MD 
    2 2.550000e-03 # MU 
    3 1.010000e-01 # MS 
    4 1.270000e+00 # MC 
    5 4.700000e+00 # MB 
    6 1.720000e+02 # MT 
   11 5.110000e-04 # Me 
   13 1.056600e-01 # MM 
   15 1.777000e+00 # MTA 
   23 9.118760e+01 # MZ 
   25 1.200000e+02 # MH 
  10030 1.700000e+03 # MZph 
  10031 3.000000e+02 # MZpl 
## Dependent parameters, given by model restrictions.
## Those values should be edited following the 
## analytical expression. MG5 ignores those values 
## but they are important for interfacing the output of MG5
## to external program such as Pythia.
  12 0.000000 # ve : 0.0 
  14 0.000000 # vm : 0.0 
  16 0.000000 # vt : 0.0 
  21 0.000000 # g : 0.0 
  22 0.000000 # a : 0.0 
  24 79.824360 # w+ : cmath.sqrt(MZ__exp__2/2. + cmath.sqrt(MZ__exp__4/4. - (aEW*cmath.pi*MZ__exp__2)/(Gf*sqrt__2))) 

###################################
## INFORMATION FOR SMINPUTS
###################################
Block sminputs 
    1 1.279000e+02 # aEWM1 
    2 1.166370e-05 # Gf 
    3 1.184000e-01 # aS 

###################################
## INFORMATION FOR YUKAWA
###################################
Block yukawa 
    1 5.040000e-03 # ymdo 
    2 2.550000e-03 # ymup 
    3 1.010000e-01 # yms 
    4 1.270000e+00 # ymc 
    5 4.700000e+00 # ymb 
    6 1.720000e+02 # ymt 
   11 5.110000e-04 # yme 
   13 1.056600e-01 # ymm 
   15 1.777000e+00 # ymtau 

###################################
## INFORMATION FOR DECAY
###################################
DECAY   6 1.508336e+00 # WT 
DECAY  23 2.495200e+00 # WZ 
DECAY  24 2.085000e+00 # WW 
DECAY  25 5.753088e-03 # WH 
## Dependent parameters, given by model restrictions.
## Those values should be edited following the 
## analytical expression. MG5 ignores those values 
## but they are important for interfacing the output of MG5
## to external program such as Pythia.
DECAY  1 0.000000 # d : 0.0 
DECAY  2 0.000000 # u : 0.0 
DECAY  3 0.000000 # s : 0.0 
DECAY  4 0.000000 # c : 0.0 
DECAY  5 0.000000 # b : 0.0 
DECAY  11 0.000000 # e- : 0.0 
DECAY  12 0.000000 # ve : 0.0 
DECAY  13 0.000000 # mu- : 0.0 
DECAY  14 0.000000 # vm : 0.0 
DECAY  15 0.000000 # ta- : 0.0 
DECAY  16 0.000000 # vt : 0.0 
DECAY  21 0.000000 # g : 0.0 
DECAY  22 0.000000 # a : 0.0 
DECAY  10030 0.308725 # zph : (gz__exp__2*MZph*(5 + cmath.sqrt(1 - (4*MT__exp__2)/MZph__exp__2)))/(144.*cmath.pi) 
DECAY  10031 0.132629 # zpl : (5*gz__exp__2*MZpl)/(144.*cmath.pi) 
#===========================================================
# QUANTUM NUMBERS OF NEW STATE(S) (NON SM PDG CODE)
#===========================================================

Block QNUMBERS 10030  # zph 
        1 0  # 3 times electric charge
        2 3  # number of spin states (2S+1)
        3 1  # colour rep (1: singlet, 3: triplet, 8: octet)
        4 0  # Particle/Antiparticle distinction (0=own anti)
Block QNUMBERS 10031  # zpl 
        1 0  # 3 times electric charge
        2 3  # number of spin states (2S+1)
        3 1  # colour rep (1: singlet, 3: triplet, 8: octet)
        4 0  # Particle/Antiparticle distinction (0=own anti)
</slha>
## END BANNER##
<MGGenerationInfo>
#  Number of Events        :         3952
#  Integrated weight (pb)  :  0.41838E-02
#  Max wgt                 :  0.14418E-05
#  Average wgt             :  0.10587E-05
</MGGenerationInfo>
</header>
<init>
     2212     2212  0.40000000000E+04  0.40000000000E+04 0 0  247000  247000 2   1
  0.41866278352E-02  0.80507378275E-05  0.14417560000E-05   0
</init>
<event>
 5   0  0.1374441E-05  0.1699936E+04  0.7818609E-02  0.8761401E-01
        2   -1    0    0  501    0  0.00000000000E+00  0.00000000000E+00  0.16516699381E+04  0.16516699381E+04  0.25500000920E-02 0. -1.
       -2   -1    0    0    0  501  0.00000000000E+00  0.00000000000E+00 -0.43740289225E+03  0.43740289225E+03  0.25500000920E-02 0.  1.
    10030    2    1    2    0    0  0.00000000000E+00  0.00000000000E+00  0.12142670458E+04  0.20890728303E+04  0.16999355376E+04 0.  0.
        1    1    3    3  502    0 -0.71272651877E+03 -0.21622240351E+02  0.38638600670E+02  0.71410052046E+03  0.50400001928E-02 0.  1.
       -1    1    3    3    0  502  0.71272651877E+03  0.21622240351E+02  0.11756284452E+04  0.13749723099E+04  0.50400001928E-02 0. -1.
</event>
<event>
 5   0  0.1374441E-05  0.1700813E+04  0.7818609E-02  0.8760901E-01
        2   -1    0    0  501    0  0.00000000000E+00  0.00000000000E+00  0.68128945662E+03  0.68128945663E+03  0.25500000920E-02 0.  1.
       -2   -1    0    0    0  501  0.00000000000E+00  0.00000000000E+00 -0.10615041376E+04  0.10615041376E+04  0.25500000920E-02 0. -1.
    10030    2    1    2    0    0  0.00000000000E+00  0.00000000000E+00 -0.38021468101E+03  0.17427935943E+04  0.17008134256E+04 0.  0.
        1    1    3    3  502    0  0.31567397987E+03  0.77645958820E+03 -0.33736252160E+03  0.90352256457E+03  0.50400001928E-02 0. -1.
       -1    1    3    3    0  502 -0.31567397987E+03 -0.77645958820E+03 -0.42852159412E+02  0.83927102969E+03  0.50400001928E-02 0.  1.
</event>
<event>
 5   0  0.1423543E-05  0.1700224E+04  0.7818609E-02  0.8761237E-01
        2   -1    0    0  501    0  0.00000000000E+00  0.00000000000E+00  0.16884598784E+04  0.16884598784E+04  0.25500000920E-02 0.  1.
       -2   -1    0    0    0  501  0.00000000000E+00  0.00000000000E+00 -0.42801758127E+03  0.42801758128E+03  0.25500000920E-02 0. -1.
    10030    2    1    2    0    0  0.00000000000E+00  0.00000000000E+00  0.12604422972E+04  0.21164774597E+04  0.17002241185E+04 0.  0.
        3    1    3    3  502    0  0.45327590497E+03 -0.49042914162E+03  0.12850389279E+04  0.14482074593E+04  0.10100000352E+00 0.  1.
       -3    1    3    3    0  502 -0.45327590497E+03  0.49042914162E+03 -0.24596630694E+02  0.66827000038E+03  0.10100000352E+00 0. -1.
</event>
<event>
 5   0  0.1374441E-05  0.1699659E+04  0.7818609E-02  0.8761559E-01
       -2   -1    0    0    0  501  0.00000000000E+00  0.00000000000E+00  0.75945716205E+03  0.75945716205E+03  0.25500000920E-02 0.  1.
        2   -1    0    0  501    0  0.00000000000E+00  0.00000000000E+00 -0.95095594133E+03  0.95095594134E+03  0.25500000920E-02 0. -1.
    10030    2    1    2    0    0  0.00000000000E+00  0.00000000000E+00 -0.19149877928E+03  0.17104131034E+04  0.16996591428E+04 0.  0.
        1    1    3    3  502    0 -0.33144654241E+03 -0.56474224211E+03  0.44936018099E+03  0.79417578834E+03  0.50400001928E-02 0.  1.
       -1    1    3    3    0  502  0.33144654241E+03  0.56474224211E+03 -0.64085896027E+03  0.91623731505E+03  0.50400001928E-02 0. -1.
</event>
<event>
 5   0  0.1423543E-05  0.1699724E+04  0.7818609E-02  0.8761522E-01
       -2   -1    0    0    0  501  0.00000000000E+00  0.00000000000E+00  0.82897613430E+03  0.82897613431E+03  0.25500000920E-02 0. -1.
        2   -1    0    0  501    0  0.00000000000E+00  0.00000000000E+00 -0.87127441988E+03  0.87127441988E+03  0.25500000920E-02 0.  1.
    10030    2    1    2    0    0  0.00000000000E+00  0.00000000000E+00 -0.42298285572E+02  0.17002505542E+04  0.16997243312E+04 0.  0.
        3    1    3    3  502    0 -0.29034529320E+03 -0.14929236698E+03 -0.80604300059E+03  0.86965161364E+03  0.10100000352E+00 0.  1.
       -3    1    3    3    0  502  0.29034529320E+03  0.14929236698E+03  0.76374471501E+03  0.83059894054E+03  0.10100000352E+00 0. -1.
</event>
<event>
 5   0  0.7082527E-06  0.1699876E+04  0.7818609E-02  0.8761435E-01
       -1   -1    0    0    0  501  0.00000000000E+00  0.00000000000E+00  0.69500049596E+03  0.69500049597E+03  0.50400001928E-02 0. -1.
        1   -1    0    0  501    0  0.00000000000E+00  0.00000000000E+00 -0.10394164048E+04  0.10394164048E+04  0.50400001928E-02 0.  1.
    10030    2    1    2    0    0  0.00000000000E+00  0.00000000000E+00 -0.34441590883E+03  0.17344169008E+04  0.16998763683E+04 0.  0.
        1    1    3    3  502    0  0.69814778693E+03 -0.13564438663E+03 -0.64705149379E+03  0.96150162124E+03  0.50400001928E-02 0.  1.
       -1    1    3    3    0  502 -0.69814778693E+03  0.13564438663E+03  0.30263558496E+03  0.77291527953E+03  0.50400001928E-02 0. -1.
</event>
<event>
 5   0  0.7461128E-06  0.1700437E+04  0.7818609E-02  0.8761115E-01
       -1   -1    0    0    0  501  0.00000000000E+00  0.00000000000E+00  0.54375258184E+03  0.54375258187E+03  0.50400001928E-02 0.  1.
        1   -1    0    0  501    0  0.00000000000E+00  0.00000000000E+00 -0.13294132902E+04  0.13294132902E+04  0.50400001928E-02 0. -1.
    10030    2    1    2    0    0  0.00000000000E+00  0.00000000000E+00 -0.78566070833E+03  0.18731658720E+04  0.17004374836E+04 0.  0.
        3    1    3    3  502    0  0.26707953421E+03  0.68283558420E+03  0.81329885202E+02  0.73770622410E+03  0.10100000352E+00 0.  1.
       -3    1    3    3    0  502 -0.26707953421E+03 -0.68283558420E+03 -0.86699059353E+03  0.11354596479E+04  0.10100000352E+00 0. -1.
</event>
<event>
 5   0  0.1374441E-05  0.1700532E+04  0.7818609E-02  0.8761061E-01
       -2   -1    0    0    0  501  0.00000000000E+00  0.00000000000E+00  0.70510381496E+03  0.70510381497E+03  0.25500000920E-02 0. -1.
        2   -1    0    0  501    0  0.00000000000E+00  0.00000000000E+00 -0.10253136252E+04  0.10253136252E+04  0.25500000920E-02 0.  1.
    10030    2    1    2    0    0  0.00000000000E+00  0.00000000000E+00 -0.32020981023E+03  0.17304174402E+04  0.17005323269E+04 0.  0.
        1    1    3    3  502    0  0.26257650986E+02 -0.58892458497E+03  0.46338727196E+03  0.74983291129E+03  0.50400001928E-02 0. -1.
       -1    1    3    3    0  502 -0.26257650986E+02  0.58892458497E+03 -0.78359708219E+03  0.98058452887E+03  0.50400001928E-02 0.  1.
</event>
<event>
 5   0  0.7476457E-06  0.1699382E+04  0.7818609E-02  0.8761717E-01
        1   -1    0    0  501    0  0.00000000000E+00  0.00000000000E+00  0.79681681937E+03  0.79681681938E+03  0.50400001928E-02 0.  1.
       -1   -1    0    0    0  501  0.00000000000E+00  0.00000000000E+00 -0.90607401364E+03  0.90607401366E+03  0.50400001928E-02 0. -1.
    10030    2    1    2    0    0  0.00000000000E+00  0.00000000000E+00 -0.10925719428E+03  0.17028908330E+04  0.16993822568E+04 0.  0.
        2    1    3    3  502    0 -0.61407762916E+03 -0.45118500589E+03  0.32206743181E+03  0.82727666159E+03  0.25500000920E-02 0.  1.
       -2    1    3    3    0  502  0.61407762916E+03  0.45118500589E+03 -0.43132462608E+03  0.87561417145E+03  0.25500000920E-02 0. -1.
</event>
<event>
 5   0  0.1374441E-05  0.1700508E+04  0.7818609E-02  0.8761075E-01
        2   -1    0    0  501    0  0.00000000000E+00  0.00000000000E+00  0.63035370029E+03  0.63035370030E+03  0.25500000920E-02 0.  1.
       -2   -1    0    0    0  501  0.00000000000E+00  0.00000000000E+00 -0.11468669025E+04  0.11468669025E+04  0.25500000920E-02 0. -1.
    10030    2    1    2    0    0  0.00000000000E+00  0.00000000000E+00 -0.51651320218E+03  0.17772206028E+04  0.17005079191E+04 0.  0.
        1    1    3    3  502    0 -0.44507764175E+00 -0.23012543791E+03 -0.11137006637E+04  0.11372278064E+04  0.50400001928E-02 0. -1.
       -1    1    3    3    0  502  0.44507764175E+00  0.23012543791E+03  0.59718746149E+03  0.63999279641E+03  0.50400001928E-02 0.  1.
</event>
<event>
 5   0  0.5229750E-06  0.1702428E+04  0.7818609E-02  0.8759981E-01
       -4   -1    0    0    0  501  0.00000000000E+00  0.00000000000E+00  0.17470760097E+04  0.17470764713E+04  0.12699999809E+01 0.  1.
        4   -1    0    0  501    0  0.00000000000E+00  0.00000000000E+00 -0.41472868483E+03  0.41473062935E+03  0.12699999809E+01 0. -1.
    10030    2    1    2    0    0  0.00000000000E+00  0.00000000000E+00  0.13323473248E+04  0.21618071006E+04  0.17024278388E+04 0.  0.
        4    1    3    3  502    0 -0.71122145087E+03  0.40860840056E+03  0.95509103843E+03  0.12589667517E+04  0.12699999809E+01 0.  1.
       -4    1    3    3    0  502  0.71122145087E+03 -0.40860840056E+03  0.37725628639E+03  0.90284034895E+03  0.12699999809E+01 0. -1.
</event>
<event>
 5   0  0.1441756E-05  0.1698633E+04  0.7818609E-02  0.8762144E-01
       -2   -1    0    0    0  501  0.00000000000E+00  0.00000000000E+00  0.15632185746E+04  0.15632185746E+04  0.25500000920E-02 0.  1.
        2   -1    0    0  501    0  0.00000000000E+00  0.00000000000E+00 -0.46144436447E+03  0.46144436447E+03  0.25500000920E-02 0. -1.
    10030    2    1    2    0    0  0.00000000000E+00  0.00000000000E+00  0.11017742102E+04  0.20246629391E+04  0.16986328640E+04 0.  0.
        5    1    3    3  502    0 -0.65507061313E+02 -0.61182885258E+03 -0.14687005505E+03  0.63262834508E+03  0.46999998093E+01 0. -1.
       -5    1    3    3    0  502  0.65507061313E+02  0.61182885258E+03  0.12486442652E+04  0.13920345940E+04  0.46999998093E+01 0.  1.
</event>
<event>
 5   0  0.7583716E-06  0.1699218E+04  0.7818609E-02  0.8761810E-01
        1   -1    0    0  501    0  0.00000000000E+00  0.00000000000E+00  0.13306780334E+04  0.13306780335E+04  0.50400001928E-02 0. -1.
       -1   -1    0    0    0  501  0.00000000000E+00  0.00000000000E+00 -0.54245687286E+03  0.54245687288E+03  0.50400001928E-02 0.  1.
    10030    2    1    2    0    0  0.00000000000E+00  0.00000000000E+00  0.78822116059E+03  0.18731349063E+04  0.16992179905E+04 0.  0.
        5    1    3    3  502    0 -0.37833027489E+03  0.28214371030E+03  0.11728687991E+04  0.12642714028E+04  0.46999998093E+01 0. -1.
       -5    1    3    3    0  502  0.37833027489E+03 -0.28214371030E+03 -0.38464763847E+03  0.60886350353E+03  0.46999998093E+01 0.  1.
</event>
<event>
 5   0  0.7082527E-06  0.1700818E+04  0.7818609E-02  0.8760898E-01
        1   -1    0    0  501    0  0.00000000000E+00  0.00000000000E+00  0.80387851448E+03  0.80387851449E+03  0.50400001928E-02 0. -1.
       -1   -1    0    0    0  501  0.00000000000E+00  0.00000000000E+00 -0.89963317534E+03  0.89963317536E+03  0.50400001928E-02 0.  1.
    10030    2    1    2    0    0  0.00000000000E+00  0.00000000000E+00 -0.95754660865E+02  0.17035116899E+04  0.17008183684E+04 0.  0.
        1    1    3    3  502    0 -0.23899303630E+03 -0.65610490859E+03  0.43828234411E+03  0.82442873291E+03  0.50400001928E-02 0. -1.
       -1    1    3    3    0  502  0.23899303630E+03  0.65610490859E+03 -0.53403700497E+03  0.87908295694E+03  0.50400001928E-02 0.  1.
</event>
<event>
 5   0  0.7461128E-06  0.1699603E+04  0.7818609E-02  0.8761591E-01
       -1   -1    0    0    0  501  0.00000000000E+00  0.00000000000E+00  0.61410290178E+03  0.61410290180E+03  0.50400001928E-02 0. -1.
        1   -1    0    0  501    0  0.00000000000E+00  0.00000000000E+00 -0.11759639900E+04  0.11759639900E+04  0.50400001928E-02 0.  1.
    10030    2    1    2    0    0  0.00000000000E+00  0.00000000000E+00 -0.56186108823E+03  0.17900668918E+04  0.16996033640E+04 0.  0.
        3    1    3    3  502    0 -0.59083589080E+03  0.52446709412E+03  0.48798426819E+02  0.79153905737E+03  0.10100000352E+00 0. -1.
       -3    1    3    3    0  502  0.59083589080E+03 -0.52446709412E+03 -0.61065951505E+03  0.99852783446E+03  0.10100000352E+00 0.  1.
</event>
<event>
 5   0  0.7461128E-06  0.1701459E+04  0.7818609E-02  0.8760533E-01
       -1   -1    0    0    0  501  0.00000000000E+00  0.00000000000E+00  0.26545960684E+03  0.26545960689E+03  0.50400001928E-02 0. -1.
        1   -1    0    0  501    0  0.00000000000E+00  0.00000000000E+00 -0.27263691856E+04  0.27263691856E+04  0.50400001928E-02 0.  1.
    10030    2    1    2    0    0  0.00000000000E+00  0.00000000000E+00 -0.24609095788E+04  0.29918287925E+04  0.17014592469E+04 0.  0.
        3    1    3    3  502    0 -0.70983806165E+03 -0.43158941813E+03 -0.90812996226E+03  0.12307881776E+04  0.10100000352E+00 0.  1.
       -3    1    3    3    0  502  0.70983806165E+03  0.43158941813E+03 -0.15527796165E+04  0.17610406149E+04  0.10100000352E+00 0. -1.
</event>
<event>
 5   0  0.1374441E-05  0.1698714E+04  0.7818609E-02  0.8762098E-01
        2   -1    0    0  501    0  0.00000000000E+00  0.00000000000E+00  0.17652998922E+04  0.17652998922E+04  0.25500000920E-02 0.  1.
       -2   -1    0    0    0  501  0.00000000000E+00  0.00000000000E+00 -0.40865994638E+03  0.40865994639E+03  0.25500000920E-02 0. -1.
    10030    2    1    2    0    0  0.00000000000E+00  0.00000000000E+00  0.13566399458E+04  0.21739598386E+04  0.16987140540E+04 0.  0.
        1    1    3    3  502    0 -0.47095266893E+03 -0.47956934662E+03  0.13795990152E+02  0.67228974703E+03  0.50400001928E-02 0. -1.
       -1    1    3    3    0  502  0.47095266893E+03  0.47956934662E+03  0.13428439557E+04  0.15016700915E+04  0.50400001928E-02 0.  1.
</event>
<event>
 5   0  0.7455669E-06  0.1701504E+04  0.7818609E-02  0.8760507E-01
        1   -1    0    0  501    0  0.00000000000E+00  0.00000000000E+00  0.12547239997E+04  0.12547239998E+04  0.50400001928E-02 0. -1.
       -1   -1    0    0    0  501  0.00000000000E+00  0.00000000000E+00 -0.57684300114E+03  0.57684300116E+03  0.50400001928E-02 0.  1.
    10030    2    1    2    0    0  0.00000000000E+00  0.00000000000E+00  0.67788099861E+03  0.18315670009E+04  0.17015037557E+04 0.  0.
        4    1    3    3  502    0  0.73208744751E+02 -0.70592030481E+03  0.84394371745E+03  0.11026901687E+04  0.12699999809E+01 0. -1.
       -4    1    3    3    0  502 -0.73208744751E+02  0.70592030481E+03 -0.16606271884E+03  0.72887683221E+03  0.12699999809E+01 0.  1.
</event>
<event>
 5   0  0.7082527E-06  0.1701387E+04  0.7818609E-02  0.8760573E-01
        1   -1    0    0  501    0  0.00000000000E+00  0.00000000000E+00  0.15491634365E+04  0.15491634365E+04  0.50400001928E-02 0.  1.
       -1   -1    0    0    0  501  0.00000000000E+00  0.00000000000E+00 -0.46714231603E+03  0.46714231606E+03  0.50400001928E-02 0. -1.
    10030    2    1    2    0    0  0.00000000000E+00  0.00000000000E+00  0.10820211205E+04  0.20163057526E+04  0.17013874287E+04 0.  0.
        1    1    3    3  502    0  0.73218268591E+03  0.40020038863E+03  0.73727874951E+03  0.11134773420E+04  0.50400001928E-02 0. -1.
       -1    1    3    3    0  502 -0.73218268591E+03 -0.40020038863E+03  0.34474237096E+03  0.90282841059E+03  0.50400001928E-02 0.  1.
</event>
<event>
 5   0  0.1435301E-05  0.1699344E+04  0.7818609E-02  0.8761738E-01
        2   -1    0    0  501    0  0.00000000000E+00  0.00000000000E+00  0.53742073092E+03  0.53742073092E+03  0.25500000920E-02 0.  1.
       -2   -1    0    0    0  501  0.00000000000E+00  0.00000000000E+00 -0.13433474303E+04  0.13433474303E+04  0.25500000920E-02 0. -1.
    10030    2    1    2    0    0  0.00000000000E+00  0.00000000000E+00 -0.80592669934E+03  0.18807681612E+04  0.16993442945E+04 0.  0.
        2    1    3    3  502    0  0.22616047104E+03 -0.79672278115E+03 -0.61303526323E+03  0.10304018549E+04  0.25500000920E-02 0.  1.
       -2    1    3    3    0  502 -0.22616047104E+03  0.79672278115E+03 -0.19289143610E+03  0.85036630625E+03  0.25500000920E-02 0. -1.
</event>
<event>
 5   0  0.7461128E-06  0.1700390E+04  0.7818609E-02  0.8761142E-01
        1   -1    0    0  501    0  0.00000000000E+00  0.00000000000E+00  0.42333449927E+03  0.42333449930E+03  0.50400001928E-02 0. -1.
       -1   -1    0    0    0  501  0.00000000000E+00  0.00000000000E+00 -0.17074705887E+04  0.17074705887E+04  0.50400001928E-02 0.  1.
    10030    2    1    2    0    0  0.00000000000E+00  0.00000000000E+00 -0.12841360894E+04  0.21308050880E+04  0.17003896103E+04 0.  0.
        3    1    3    3  502    0 -0.57490879702E+03 -0.43742587849E+03 -0.12038406341E+04  0.14039564831E+04  0.10100000352E+00 0.  1.
       -3    1    3    3    0  502  0.57490879702E+03  0.43742587849E+03 -0.80295455354E+02  0.72684860488E+03  0.10100000352E+00 0. -1.
</event>
<event>
 5   0  0.1423543E-05  0.1701401E+04  0.7818609E-02  0.8760566E-01
       -2   -1    0    0    0  501  0.00000000000E+00  0.00000000000E+00  0.90635016542E+03  0.90635016543E+03  0.25500000920E-02 0. -1.
        2   -1    0    0  501    0  0.00000000000E+00  0.00000000000E+00 -0.79846759121E+03  0.79846759122E+03  0.25500000920E-02 0.  1.
    10030    2    1    2    0    0  0.00000000000E+00  0.00000000000E+00  0.10788257421E+03  0.17048177566E+04  0.17014008739E+04 0.  0.
        3    1    3    3  502    0 -0.48571732243E+02  0.83707343526E+03 -0.90013772466E+02  0.84329925805E+03  0.10100000352E+00 0. -1.
       -3    1    3    3    0  502  0.48571732243E+02 -0.83707343526E+03  0.19789634668E+03  0.86151849859E+03  0.10100000352E+00 0.  1.
</event>
<event>
 5   0  0.7082527E-06  0.1699782E+04  0.7818609E-02  0.8761489E-01
        1   -1    0    0  501    0  0.00000000000E+00  0.00000000000E+00  0.11159195764E+04  0.11159195764E+04  0.50400001928E-02 0.  1.
       -1   -1    0    0    0  501  0.00000000000E+00  0.00000000000E+00 -0.64728198205E+03  0.64728198206E+03  0.50400001928E-02 0. -1.
    10030    2    1    2    0    0  0.00000000000E+00  0.00000000000E+00  0.46863759434E+03  0.17632015585E+04  0.16997819098E+04 0.  0.
        1    1    3    3  502    0 -0.11177414359E+02  0.29066817954E+03  0.10626758017E+04  0.11017680267E+04  0.50400001928E-02 0.  1.
       -1    1    3    3    0  502  0.11177414359E+02 -0.29066817954E+03 -0.59403820731E+03  0.66143353178E+03  0.50400001928E-02 0. -1.
</event>
<event>
 5   0  0.1435301E-05  0.1706838E+04  0.7818609E-02  0.8757474E-01
        2   -1    0    0  501    0  0.00000000000E+00  0.00000000000E+00  0.11318753127E+04  0.11318753127E+04  0.25500000920E-02 0. -1.
       -2   -1    0    0    0  501  0.00000000000E+00  0.00000000000E+00 -0.64346671173E+03  0.64346671174E+03  0.25500000920E-02 0.  1.
    10030    2    1    2    0    0  0.00000000000E+00  0.00000000000E+00  0.48840860098E+03  0.17753420245E+04  0.17068381125E+04 0.  0.
        2    1    3    3  502    0 -0.73688277953E+03 -0.23199269111E+03  0.62139809850E+03  0.99143957775E+03  0.25500000920E-02 0. -1.
       -2    1    3    3    0  502  0.73688277953E+03  0.23199269111E+03 -0.13298949751E+03  0.78390244671E+03  0.25500000920E-02 0.  1.
</event>
<event>
 5   0  0.7476457E-06  0.1700559E+04  0.7818609E-02  0.8761046E-01
        1   -1    0    0  501    0  0.00000000000E+00  0.00000000000E+00  0.77239759374E+03  0.77239759376E+03  0.50400001928E-02 0. -1.
       -1   -1    0    0    0  501  0.00000000000E+00  0.00000000000E+00 -0.93601385905E+03  0.93601385906E+03  0.50400001928E-02 0.  1.
    10030    2    1    2    0    0  0.00000000000E+00  0.00000000000E+00 -0.16361626531E+03  0.17084114528E+04  0.17005585582E+04 0.  0.
        2    1    3    3  502    0 -0.81091583447E+03  0.10866307341E+03 -0.31435643474E+03  0.87647710877E+03  0.25500000920E-02 0. -1.
       -2    1    3    3    0  502  0.81091583447E+03 -0.10866307341E+03  0.15074016943E+03  0.83193434405E+03  0.25500000920E-02 0.  1.
</event>
<event>
 5   0  0.1423543E-05  0.1700076E+04  0.7818609E-02  0.8761321E-01
        2   -1    0    0  501    0  0.00000000000E+00  0.00000000000E+00  0.58428939361E+03  0.58428939362E+03  0.25500000920E-02 0.  1.
       -2   -1    0    0    0  501  0.00000000000E+00  0.00000000000E+00 -0.12366560642E+04  0.12366560642E+04  0.25500000920E-02 0. -1.
    10030    2    1    2    0    0  0.00000000000E+00  0.00000000000E+00 -0.65236667056E+03  0.18209454578E+04  0.17000764946E+04 0.  0.
        3    1    3    3  502    0 -0.42543205259E+03  0.59303293636E+03  0.14055476223E+03  0.74326048352E+03  0.10100000352E+00 0.  1.
       -3    1    3    3    0  502  0.42543205259E+03 -0.59303293636E+03 -0.79292143279E+03  0.10776849743E+04  0.10100000352E+00 0. -1.
</event>
<event>
 5   0  0.1441756E-05  0.1700195E+04  0.7818609E-02  0.8761253E-01
       -2   -1    0    0    0  501  0.00000000000E+00  0.00000000000E+00  0.70063036506E+03  0.70063036507E+03  0.25500000920E-02 0. -1.
        2   -1    0    0  501    0  0.00000000000E+00  0.00000000000E+00 -0.10314503138E+04  0.10314503138E+04  0.25500000920E-02 0.  1.
    10030    2    1    2    0    0  0.00000000000E+00  0.00000000000E+00 -0.33081994873E+03  0.17320806789E+04  0.17001945888E+04 0.  0.
        5    1    3    3  502    0  0.26590443838E+03  0.68597779805E+03 -0.59927569588E+03  0.94890682336E+03  0.46999998093E+01 0.  1.
       -5    1    3    3    0  502 -0.26590443838E+03 -0.68597779805E+03  0.26845574715E+03  0.78317385550E+03  0.46999998093E+01 0. -1.
</event>
<event>
 5   0  0.7476457E-06  0.1701960E+04  0.7818609E-02  0.8760247E-01
       -1   -1    0    0    0  501  0.00000000000E+00  0.00000000000E+00  0.40973881337E+03  0.40973881340E+03  0.50400001928E-02 0.  1.
        1   -1    0    0  501    0  0.00000000000E+00  0.00000000000E+00 -0.17673875464E+04  0.17673875464E+04  0.50400001928E-02 0. -1.
    10030    2    1    2    0    0  0.00000000000E+00  0.00000000000E+00 -0.13576487330E+04  0.21771263598E+04  0.17019603710E+04 0.  0.
        2    1    3    3  502    0 -0.55686234640E+03  0.43893665525E+03 -0.76917777961E+02  0.71321623981E+03  0.25500000920E-02 0.  1.
       -2    1    3    3    0  502  0.55686234640E+03 -0.43893665525E+03 -0.12807309551E+04  0.14639101200E+04  0.25500000920E-02 0. -1.
</event>
<event>
 5   0  0.1423543E-05  0.1700048E+04  0.7818609E-02  0.8761337E-01
        2   -1    0    0  501    0  0.00000000000E+00  0.00000000000E+00  0.97955337812E+03  0.97955337812E+03  0.25500000920E-02 0.  1.
       -2   -1    0    0    0  501  0.00000000000E+00  0.00000000000E+00 -0.73762298443E+03  0.73762298443E+03  0.25500000920E-02 0. -1.
    10030    2    1    2    0    0  0.00000000000E+00  0.00000000000E+00  0.24193039369E+03  0.17171763626E+04  0.17000483360E+04 0.  0.
        3    1    3    3  502    0  0.15849902279E+03 -0.27285401256E+03 -0.67627123594E+03  0.74626673995E+03  0.10100000352E+00 0. -1.
       -3    1    3    3    0  502 -0.15849902279E+03  0.27285401256E+03  0.91820162963E+03  0.97090962260E+03  0.10100000352E+00 0.  1.
</event>
<event>
 5   0  0.1374441E-05  0.1699134E+04  0.7818609E-02  0.8761858E-01
       -2   -1    0    0    0  501  0.00000000000E+00  0.00000000000E+00  0.12257074310E+04  0.12257074310E+04  0.25500000920E-02 0. -1.
        2   -1    0    0  501    0  0.00000000000E+00  0.00000000000E+00 -0.58885506753E+03  0.58885506753E+03  0.25500000920E-02 0.  1.
    10030    2    1    2    0    0  0.00000000000E+00  0.00000000000E+00  0.63685236346E+03  0.18145624985E+04  0.16991339347E+04 0.  0.
        1    1    3    3  502    0 -0.30375897834E+03  0.26279066381E+03 -0.48105301590E+03  0.62669007814E+03  0.50400001928E-02 0.  1.
       -1    1    3    3    0  502  0.30375897834E+03 -0.26279066381E+03  0.11179053794E+04  0.11878724204E+04  0.50400001928E-02 0. -1.
</event>
<event>
 5   0  0.7583716E-06  0.1698832E+04  0.7818609E-02  0.8762031E-01
        1   -1    0    0  501    0  0.00000000000E+00  0.00000000000E+00  0.11406867190E+04  0.11406867191E+04  0.50400001928E-02 0. -1.
       -1   -1    0    0    0  501  0.00000000000E+00  0.00000000000E+00 -0.63252048232E+03  0.63252048234E+03  0.50400001928E-02 0.  1.
    10030    2    1    2    0    0  0.00000000000E+00  0.00000000000E+00  0.50816623673E+03  0.17732072014E+04  0.16988322033E+04 0.  0.
        5    1    3    3  502    0  0.73958758700E+03 -0.34118046783E+03  0.25089220490E+01  0.81450739417E+03  0.46999998093E+01 0.  1.
       -5    1    3    3    0  502 -0.73958758700E+03  0.34118046783E+03  0.50565731468E+03  0.95869980722E+03  0.46999998093E+01 0. -1.
</event>
<event>
 5   0  0.1423543E-05  0.1699865E+04  0.7818609E-02  0.8761442E-01
        2   -1    0    0  501    0  0.00000000000E+00  0.00000000000E+00  0.68021641066E+03  0.68021641067E+03  0.25500000920E-02 0. -1.
       -2   -1    0    0    0  501  0.00000000000E+00  0.00000000000E+00 -0.10619929177E+04  0.10619929177E+04  0.25500000920E-02 0.  1.
    10030    2    1    2    0    0  0.00000000000E+00  0.00000000000E+00 -0.38177650704E+03  0.17422093284E+04  0.16998647130E+04 0.  0.
        3    1    3    3  502    0  0.31281081136E+03  0.64840573593E+03  0.27214497469E+03  0.76963855123E+03  0.10100000352E+00 0. -1.
       -3    1    3    3    0  502 -0.31281081136E+03 -0.64840573593E+03 -0.65392148173E+03  0.97257077715E+03  0.10100000352E+00 0.  1.
</event>
<event>
 5   0  0.7455669E-06  0.1699292E+04  0.7818609E-02  0.8761768E-01
        1   -1    0    0  501    0  0.00000000000E+00  0.00000000000E+00  0.16324007355E+04  0.16324007355E+04  0.50400001928E-02 0. -1.
       -1   -1    0    0    0  501  0.00000000000E+00  0.00000000000E+00 -0.44223109589E+03  0.44223109592E+03  0.50400001928E-02 0.  1.
    10030    2    1    2    0    0  0.00000000000E+00  0.00000000000E+00  0.11901696396E+04  0.20746318314E+04  0.16992920482E+04 0.  0.
        4    1    3    3  502    0  0.75310797536E+03 -0.36915840834E+03  0.42926431072E+03  0.94218841765E+03  0.12699999809E+01 0. -1.
       -4    1    3    3    0  502 -0.75310797536E+03  0.36915840834E+03  0.76090532891E+03  0.11324434138E+04  0.12699999809E+01 0.  1.
</event>
<event>
 5   0  0.7082527E-06  0.1700821E+04  0.7818609E-02  0.8760896E-01
       -1   -1    0    0    0  501  0.00000000000E+00  0.00000000000E+00  0.11748216179E+04  0.11748216179E+04  0.50400001928E-02 0. -1.
        1   -1    0    0  501    0  0.00000000000E+00  0.00000000000E+00 -0.61558109419E+03  0.61558109421E+03  0.50400001928E-02 0.  1.
    10030    2    1    2    0    0  0.00000000000E+00  0.00000000000E+00  0.55924052374E+03  0.17904027122E+04  0.17008209513E+04 0.  0.
        1    1    3    3  502    0  0.50206031619E+03  0.31771137350E+03  0.92010114574E+03  0.10952585066E+04  0.50400001928E-02 0. -1.
       -1    1    3    3    0  502 -0.50206031619E+03 -0.31771137350E+03 -0.36086062200E+03  0.69514420552E+03  0.50400001928E-02 0.  1.
</event>
<event>
 5   0  0.7461128E-06  0.1699577E+04  0.7818609E-02  0.8761606E-01
        1   -1    0    0  501    0  0.00000000000E+00  0.00000000000E+00  0.47921486463E+03  0.47921486466E+03  0.50400001928E-02 0. -1.
       -1   -1    0    0    0  501  0.00000000000E+00  0.00000000000E+00 -0.15069236515E+04  0.15069236515E+04  0.50400001928E-02 0.  1.
    10030    2    1    2    0    0  0.00000000000E+00  0.00000000000E+00 -0.10277087868E+04  0.19861385161E+04  0.16995766693E+04 0.  0.
        3    1    3    3  502    0  0.79228100241E+03  0.21325997611E+03 -0.25530088162E+03  0.85928316320E+03  0.10100000352E+00 0.  1.
       -3    1    3    3    0  502 -0.79228100241E+03 -0.21325997611E+03 -0.77240790523E+03  0.11268553529E+04  0.10100000352E+00 0. -1.
</event>
<event>
 5   0  0.1419012E-05  0.1699703E+04  0.7818609E-02  0.8761534E-01
        2   -1    0    0  501    0  0.00000000000E+00  0.00000000000E+00  0.41539750031E+03  0.41539750032E+03  0.25500000920E-02 0.  1.
       -2   -1    0    0    0  501  0.00000000000E+00  0.00000000000E+00 -0.17386898947E+04  0.17386898947E+04  0.25500000920E-02 0. -1.
    10030    2    1    2    0    0  0.00000000000E+00  0.00000000000E+00 -0.13232923943E+04  0.21540873950E+04  0.16997028400E+04 0.  0.
        4    1    3    3  502    0 -0.42158564931E+02  0.72278522505E+03 -0.12256444251E+04  0.14235173676E+04  0.12699999809E+01 0. -1.
       -4    1    3    3    0  502  0.42158564931E+02 -0.72278522505E+03 -0.97647969275E+02  0.73057002741E+03  0.12699999809E+01 0.  1.
</event>
<event>
 5   0  0.1419012E-05  0.1700479E+04  0.7818609E-02  0.8761091E-01
       -2   -1    0    0    0  501  0.00000000000E+00  0.00000000000E+00  0.12844323322E+04  0.12844323322E+04  0.25500000920E-02 0. -1.
        2   -1    0    0  501    0  0.00000000000E+00  0.00000000000E+00 -0.56282248790E+03  0.56282248791E+03  0.25500000920E-02 0.  1.
    10030    2    1    2    0    0  0.00000000000E+00  0.00000000000E+00  0.72160984426E+03  0.18472548201E+04  0.17004792274E+04 0.  0.
        4    1    3    3  502    0  0.32760296440E+02  0.16007361211E+03  0.12672161794E+04  0.12777070308E+04  0.12699999809E+01 0. -1.
       -4    1    3    3    0  502 -0.32760296440E+02 -0.16007361211E+03 -0.54560633519E+03  0.56954778923E+03  0.12699999809E+01 0.  1.
</event>
<event>
 5   0  0.5229750E-06  0.1700150E+04  0.7818609E-02  0.8761279E-01
       -4   -1    0    0    0  501  0.00000000000E+00  0.00000000000E+00  0.12426508322E+04  0.12426514811E+04  0.12699999809E+01 0. -1.
        4   -1    0    0  501    0  0.00000000000E+00  0.00000000000E+00 -0.58151923597E+03  0.58152062276E+03  0.12699999809E+01 0.  1.
    10030    2    1    2    0    0  0.00000000000E+00  0.00000000000E+00  0.66113159619E+03  0.18241721039E+04  0.17001496632E+04 0.  0.
        5    1    3    3  502    0  0.79213173479E+03 -0.20586395470E+03  0.84132107371E+02  0.82277150813E+03  0.46999998093E+01 0. -1.
       -5    1    3    3    0  502 -0.79213173479E+03  0.20586395470E+03  0.57699948882E+03  0.10014005958E+04  0.46999998093E+01 0.  1.
</event>
<event>
 5   0  0.7461128E-06  0.1700297E+04  0.7818609E-02  0.8761195E-01
       -1   -1    0    0    0  501  0.00000000000E+00  0.00000000000E+00  0.11342167802E+04  0.11342167802E+04  0.50400001928E-02 0. -1.
        1   -1    0    0  501    0  0.00000000000E+00  0.00000000000E+00 -0.63722605090E+03  0.63722605092E+03  0.50400001928E-02 0.  1.
    10030    2    1    2    0    0  0.00000000000E+00  0.00000000000E+00  0.49699072927E+03  0.17714428311E+04  0.17002970090E+04 0.  0.
        3    1    3    3  502    0  0.22277772338E+03 -0.71464899274E+03  0.66834571882E+03  0.10035133815E+04  0.10100000352E+00 0. -1.
       -3    1    3    3    0  502 -0.22277772338E+03  0.71464899274E+03 -0.17135498956E+03  0.76792944957E+03  0.10100000352E+00 0.  1.
</event>
<event>
 5   0  0.7583716E-06  0.1699882E+04  0.7818609E-02  0.8761431E-01
       -1   -1    0    0    0  501  0.00000000000E+00  0.00000000000E+00  0.57259001231E+03  0.57259001234E+03  0.50400001928E-02 0.  1.
        1   -1    0    0  501    0  0.00000000000E+00  0.00000000000E+00 -0.12616356621E+04  0.12616356622E+04  0.50400001928E-02 0. -1.
    10030    2    1    2    0    0  0.00000000000E+00  0.00000000000E+00 -0.68904564983E+03  0.18342256745E+04  0.16998823246E+04 0.  0.
        5    1    3    3  502    0 -0.41680923996E+03  0.26204500122E+01 -0.11437644081E+04  0.12173561191E+04  0.46999998093E+01 0. -1.
       -5    1    3    3    0  502  0.41680923996E+03 -0.26204500122E+01  0.45471875830E+03  0.61686955544E+03  0.46999998093E+01 0.  1.
</event>
<event>
 5   0  0.1435301E-05  0.1705579E+04  0.7818609E-02  0.8758189E-01
        2   -1    0    0  501    0  0.00000000000E+00  0.00000000000E+00  0.10638374319E+04  0.10638374319E+04  0.25500000920E-02 0. -1.
       -2   -1    0    0    0  501  0.00000000000E+00  0.00000000000E+00 -0.68360967124E+03  0.68360967125E+03  0.25500000920E-02 0.  1.
    10030    2    1    2    0    0  0.00000000000E+00  0.00000000000E+00  0.38022776068E+03  0.17474471032E+04  0.17055785612E+04 0.  0.
        2    1    3    3  502    0 -0.40103400351E+03 -0.16205228620E+03  0.94311159375E+03  0.10375686453E+04  0.25500000920E-02 0. -1.
       -2    1    3    3    0  502  0.40103400351E+03  0.16205228620E+03 -0.56288383306E+03  0.70987845788E+03  0.25500000920E-02 0.  1.
</event>
<event>
 5   0  0.1423543E-05  0.1696440E+04  0.7818609E-02  0.8763397E-01
        2   -1    0    0  501    0  0.00000000000E+00  0.00000000000E+00  0.90264271742E+03  0.90264271743E+03  0.25500000920E-02 0. -1.
       -2   -1    0    0    0  501  0.00000000000E+00  0.00000000000E+00 -0.79707876115E+03  0.79707876115E+03  0.25500000920E-02 0.  1.
    10030    2    1    2    0    0  0.00000000000E+00  0.00000000000E+00  0.10556395627E+03  0.16997214786E+04  0.16964402011E+04 0.  0.
        3    1    3    3  502    0 -0.33197622501E+03 -0.45298324151E+03 -0.58411671490E+03  0.81030511407E+03  0.10100000352E+00 0.  1.
       -3    1    3    3    0  502  0.33197622501E+03  0.45298324151E+03  0.68968067117E+03  0.88941636451E+03  0.10100000352E+00 0. -1.
</event>
<event>
 5   0  0.1374441E-05  0.1699272E+04  0.7818609E-02  0.8761779E-01
       -2   -1    0    0    0  501  0.00000000000E+00  0.00000000000E+00  0.76767745848E+03  0.76767745848E+03  0.25500000920E-02 0. -1.
        2   -1    0    0  501    0  0.00000000000E+00  0.00000000000E+00 -0.94034509515E+03  0.94034509516E+03  0.25500000920E-02 0.  1.
    10030    2    1    2    0    0  0.00000000000E+00  0.00000000000E+00 -0.17266763668E+03  0.17080225536E+04  0.16992724711E+04 0.  0.
        1    1    3    3  502    0  0.33464330168E+03  0.62748457621E+03  0.38098894837E+03  0.80676862331E+03  0.50400001928E-02 0.  1.
       -1    1    3    3    0  502 -0.33464330168E+03 -0.62748457621E+03 -0.55365658505E+03  0.90125393033E+03  0.50400001928E-02 0. -1.
</event>
<event>
 5   0  0.1435301E-05  0.1695487E+04  0.7818609E-02  0.8763942E-01
        2   -1    0    0  501    0  0.00000000000E+00  0.00000000000E+00  0.50031323844E+03  0.50031323845E+03  0.25500000920E-02 0. -1.
       -2   -1    0    0    0  501  0.00000000000E+00  0.00000000000E+00 -0.14364382626E+04  0.14364382626E+04  0.25500000920E-02 0.  1.
    10030    2    1    2    0    0  0.00000000000E+00  0.00000000000E+00 -0.93612502411E+03  0.19367515010E+04  0.16954870439E+04 0.  0.
        2    1    3    3  502    0  0.51593972408E+03 -0.25386634264E+03 -0.11796208114E+04  0.13123060532E+04  0.25500000920E-02 0.  1.
       -2    1    3    3    0  502 -0.51593972408E+03  0.25386634264E+03  0.24349578724E+03  0.62444544776E+03  0.25500000920E-02 0. -1.
</event>
<event>
 5   0  0.1423543E-05  0.1700237E+04  0.7818609E-02  0.8761229E-01
        2   -1    0    0  501    0  0.00000000000E+00  0.00000000000E+00  0.10705452065E+04  0.10705452065E+04  0.25500000920E-02 0.  1.
       -2   -1    0    0    0  501  0.00000000000E+00  0.00000000000E+00 -0.67507829719E+03  0.67507829720E+03  0.25500000920E-02 0. -1.
    10030    2    1    2    0    0  0.00000000000E+00  0.00000000000E+00  0.39546690926E+03  0.17456235037E+04  0.17002374364E+04 0.  0.
        3    1    3    3  502    0 -0.45187236694E+03  0.46806667542E+03  0.75953939063E+03  0.10000875685E+04  0.10100000352E+00 0.  1.
       -3    1    3    3    0  502  0.45187236694E+03 -0.46806667542E+03 -0.36407248137E+03  0.74553593511E+03  0.10100000352E+00 0. -1.
</event>
<event>
 5   0  0.7461128E-06  0.1699642E+04  0.7818609E-02  0.8761569E-01
        1   -1    0    0  501    0  0.00000000000E+00  0.00000000000E+00  0.11715411995E+04  0.11715411995E+04  0.50400001928E-02 0. -1.
       -1   -1    0    0    0  501  0.00000000000E+00  0.00000000000E+00 -0.61644896315E+03  0.61644896317E+03  0.50400001928E-02 0.  1.
    10030    2    1    2    0    0  0.00000000000E+00  0.00000000000E+00  0.55509223637E+03  0.17879901627E+04  0.16996415596E+04 0.  0.
        3    1    3    3  502    0  0.26501068056E+03  0.60866431606E+02  0.11245441158E+04  0.11569506739E+04  0.10100000352E+00 0. -1.
       -3    1    3    3    0  502 -0.26501068056E+03 -0.60866431606E+02 -0.56945187939E+03  0.63103948882E+03  0.10100000352E+00 0.  1.
</event>
<event>
 5   0  0.1441756E-05  0.1700316E+04  0.7818609E-02  0.8761184E-01
       -2   -1    0    0    0  501  0.00000000000E+00  0.00000000000E+00  0.82497695627E+03  0.82497695627E+03  0.25500000920E-02 0. -1.
        2   -1    0    0  501    0  0.00000000000E+00  0.00000000000E+00 -0.87610760531E+03  0.87610760532E+03  0.25500000920E-02 0.  1.
    10030    2    1    2    0    0  0.00000000000E+00  0.00000000000E+00 -0.51130649042E+02  0.17010845616E+04  0.17003159537E+04 0.  0.
        5    1    3    3  502    0  0.43027225549E+03  0.30339894592E+03  0.64224024149E+03  0.83046959729E+03  0.46999998093E+01 0. -1.
       -5    1    3    3    0  502 -0.43027225549E+03 -0.30339894592E+03 -0.69337089053E+03  0.87061496430E+03  0.46999998093E+01 0.  1.
</event>
<event>
 5   0  0.7583716E-06  0.1700439E+04  0.7818609E-02  0.8761114E-01
        1   -1    0    0  501    0  0.00000000000E+00  0.00000000000E+00  0.67887046367E+03  0.67887046368E+03  0.50400001928E-02 0. -1.
       -1   -1    0    0    0  501  0.00000000000E+00  0.00000000000E+00 -0.10648171939E+04  0.10648171939E+04  0.50400001928E-02 0.  1.
    10030    2    1    2    0    0  0.00000000000E+00  0.00000000000E+00 -0.38594673024E+03  0.17436876576E+04  0.17004386989E+04 0.  0.
        5    1    3    3  502    0 -0.43274866479E+02  0.28974049797E+03 -0.10114139793E+04  0.10529969599E+04  0.46999998093E+01 0.  1.
       -5    1    3    3    0  502  0.43274866479E+02 -0.28974049797E+03  0.62546724902E+03  0.69069069765E+03  0.46999998093E+01 0. -1.
</event>
<event>
 5   0  0.7461128E-06  0.1691306E+04  0.7818609E-02  0.8766338E-01
       -1   -1    0    0    0  501  0.00000000000E+00  0.00000000000E+00  0.33075372741E+03  0.33075372745E+03  0.50400001928E-02 0. -1.
        1   -1    0    0  501    0  0.00000000000E+00  0.00000000000E+00 -0.21621199528E+04  0.21621199528E+04  0.50400001928E-02 0.  1.
    10030    2    1    2    0    0  0.00000000000E+00  0.00000000000E+00 -0.18313662254E+04  0.24928736802E+04  0.16913062804E+04 0.  0.
        3    1    3    3  502    0  0.15706123444E+03  0.81635247641E+03 -0.68720136150E+03  0.10785848685E+04  0.10100000352E+00 0. -1.
       -3    1    3    3    0  502 -0.15706123444E+03 -0.81635247641E+03 -0.11441648639E+04  0.14142888117E+04  0.10100000352E+00 0.  1.
</event>
<event>
 5   0  0.1423543E-05  0.1699644E+04  0.7818609E-02  0.8761567E-01
       -2   -1    0    0    0  501  0.00000000000E+00  0.00000000000E+00  0.62188069109E+03  0.62188069109E+03  0.25500000920E-02 0.  1.
        2   -1    0    0  501    0  0.00000000000E+00  0.00000000000E+00 -0.11613122159E+04  0.11613122159E+04  0.25500000920E-02 0. -1.
    10030    2    1    2    0    0  0.00000000000E+00  0.00000000000E+00 -0.53943152478E+03  0.17831929070E+04  0.16996442491E+04 0.  0.
        3    1    3    3  502    0 -0.59060191235E+03 -0.58914177234E+03 -0.99574439955E+02  0.84012720827E+03  0.10100000352E+00 0. -1.
       -3    1    3    3    0  502  0.59060191235E+03  0.58914177234E+03 -0.43985708483E+03  0.94306569869E+03  0.10100000352E+00 0.  1.
</event>
<event>
 5   0  0.7082527E-06  0.1699788E+04  0.7818609E-02  0.8761485E-01
       -1   -1    0    0    0  501  0.00000000000E+00  0.00000000000E+00  0.54939971561E+03  0.54939971563E+03  0.50400001928E-02 0.  1.
        1   -1    0    0  501    0  0.00000000000E+00  0.00000000000E+00 -0.13147440041E+04  0.13147440041E+04  0.50400001928E-02 0. -1.
    10030    2    1    2    0    0  0.00000000000E+00  0.00000000000E+00 -0.76534428853E+03  0.18641437198E+04  0.16997882009E+04 0.  0.
        1    1    3    3  502    0 -0.24927904913E+03 -0.56980167497E+03 -0.10179075853E+04  0.11928746143E+04  0.50400001928E-02 0. -1.
       -1    1    3    3    0  502  0.24927904913E+03  0.56980167497E+03  0.25256329675E+03  0.67126910552E+03  0.50400001928E-02 0.  1.
</event>
<event>
 5   0  0.7461128E-06  0.1700045E+04  0.7818609E-02  0.8761339E-01
        1   -1    0    0  501    0  0.00000000000E+00  0.00000000000E+00  0.61623201785E+03  0.61623201787E+03  0.50400001928E-02 0.  1.
       -1   -1    0    0    0  501  0.00000000000E+00  0.00000000000E+00 -0.11725094432E+04  0.11725094432E+04  0.50400001928E-02 0. -1.
    10030    2    1    2    0    0  0.00000000000E+00  0.00000000000E+00 -0.55627742532E+03  0.17887414611E+04  0.17000445408E+04 0.  0.
        3    1    3    3  502    0 -0.35527525816E+03 -0.40325232137E+03 -0.97106085773E+03  0.11098613172E+04  0.10100000352E+00 0. -1.
       -3    1    3    3    0  502  0.35527525816E+03  0.40325232137E+03  0.41478343241E+03  0.67888014388E+03  0.10100000352E+00 0.  1.
</event>
<event>
 5   0  0.7476457E-06  0.1700081E+04  0.7818609E-02  0.8761318E-01
       -1   -1    0    0    0  501  0.00000000000E+00  0.00000000000E+00  0.53109375015E+03  0.53109375018E+03  0.50400001928E-02 0. -1.
        1   -1    0    0  501    0  0.00000000000E+00  0.00000000000E+00 -0.13605291274E+04  0.13605291274E+04  0.50400001928E-02 0.  1.
    10030    2    1    2    0    0  0.00000000000E+00  0.00000000000E+00 -0.82943537726E+03  0.18916228776E+04  0.17000806057E+04 0.  0.
        2    1    3    3  502    0 -0.82916317050E+03 -0.18204769165E+03 -0.36601909091E+03  0.92445816577E+03  0.25500000920E-02 0.  1.
       -2    1    3    3    0  502  0.82916317050E+03  0.18204769165E+03 -0.46341628635E+03  0.96716471183E+03  0.25500000920E-02 0. -1.
</event>
<event>
 5   0  0.7583716E-06  0.1698957E+04  0.7818609E-02  0.8761960E-01
       -1   -1    0    0    0  501  0.00000000000E+00  0.00000000000E+00  0.41667813800E+03  0.41667813803E+03  0.50400001928E-02 0. -1.
        1   -1    0    0  501    0  0.00000000000E+00  0.00000000000E+00 -0.17318246884E+04  0.17318246884E+04  0.50400001928E-02 0.  1.
    10030    2    1    2    0    0  0.00000000000E+00  0.00000000000E+00 -0.13151465504E+04  0.21485028264E+04  0.16989567229E+04 0.  0.
        5    1    3    3  502    0  0.33711404218E+03 -0.64790338298E+03 -0.10901215082E+03  0.73846490108E+03  0.46999998093E+01 0. -1.
       -5    1    3    3    0  502 -0.33711404218E+03  0.64790338298E+03 -0.12061343996E+04  0.14100379254E+04  0.46999998093E+01 0.  1.
</event>
<event>
 5   0  0.1419012E-05  0.1699826E+04  0.7818609E-02  0.8761464E-01
       -2   -1    0    0    0  501  0.00000000000E+00  0.00000000000E+00  0.64036196698E+03  0.64036196699E+03  0.25500000920E-02 0.  1.
        2   -1    0    0  501    0  0.00000000000E+00  0.00000000000E+00 -0.11280369326E+04  0.11280369326E+04  0.25500000920E-02 0. -1.
    10030    2    1    2    0    0  0.00000000000E+00  0.00000000000E+00 -0.48767496563E+03  0.17683988996E+04  0.16998258134E+04 0.  0.
        4    1    3    3  502    0  0.67118085722E+03  0.29319705121E+03  0.20471983158E+03  0.76049988579E+03  0.12699999809E+01 0.  1.
       -4    1    3    3    0  502 -0.67118085722E+03 -0.29319705121E+03 -0.69239479720E+03  0.10078990138E+04  0.12699999809E+01 0. -1.
</event>
<event>
 5   0  0.1374441E-05  0.1699305E+04  0.7818609E-02  0.8761761E-01
       -2   -1    0    0    0  501  0.00000000000E+00  0.00000000000E+00  0.29270511279E+03  0.29270511280E+03  0.25500000920E-02 0. -1.
        2   -1    0    0  501    0  0.00000000000E+00  0.00000000000E+00 -0.24663365481E+04  0.24663365481E+04  0.25500000920E-02 0.  1.
    10030    2    1    2    0    0  0.00000000000E+00  0.00000000000E+00 -0.21736314354E+04  0.27590416609E+04  0.16993049373E+04 0.  0.
        1    1    3    3  502    0 -0.74821116005E+03 -0.11109141908E+03 -0.45851499126E+03  0.88453221572E+03  0.50400001928E-02 0. -1.
       -1    1    3    3    0  502  0.74821116005E+03  0.11109141908E+03 -0.17151164441E+04  0.18745094452E+04  0.50400001928E-02 0.  1.
</event>
<event>
 5   0  0.7455669E-06  0.1701785E+04  0.7818609E-02  0.8760347E-01
       -1   -1    0    0    0  501  0.00000000000E+00  0.00000000000E+00  0.10357521682E+04  0.10357521682E+04  0.50400001928E-02 0.  1.
        1   -1    0    0  501    0  0.00000000000E+00  0.00000000000E+00 -0.69902603453E+03  0.69902603455E+03  0.50400001928E-02 0. -1.
    10030    2    1    2    0    0  0.00000000000E+00  0.00000000000E+00  0.33672613369E+03  0.17347782028E+04  0.17017846291E+04 0.  0.
        4    1    3    3  502    0  0.49164187846E+03  0.54304700054E+03 -0.27293210729E+03  0.78173226206E+03  0.12699999809E+01 0. -1.
       -4    1    3    3    0  502 -0.49164187846E+03 -0.54304700054E+03  0.60965824099E+03  0.95304594073E+03  0.12699999809E+01 0.  1.
</event>
<event>
 5   0  0.1435301E-05  0.1712068E+04  0.7818609E-02  0.8754512E-01
       -2   -1    0    0    0  501  0.00000000000E+00  0.00000000000E+00  0.51147051882E+03  0.51147051883E+03  0.25500000920E-02 0.  1.
        2   -1    0    0  501    0  0.00000000000E+00  0.00000000000E+00 -0.14327196284E+04  0.14327196284E+04  0.25500000920E-02 0. -1.
    10030    2    1    2    0    0  0.00000000000E+00  0.00000000000E+00 -0.92124910957E+03  0.19441901472E+04  0.17120675824E+04 0.  0.
        2    1    3    3  502    0  0.69537731472E+03  0.27204812945E+03 -0.93598943364E+03  0.11973454032E+04  0.25500000920E-02 0. -1.
       -2    1    3    3    0  502 -0.69537731472E+03 -0.27204812945E+03  0.14740324070E+02  0.74684474406E+03  0.25500000920E-02 0.  1.
</event>
<event>
 5   0  0.7583716E-06  0.1700729E+04  0.7818609E-02  0.8760949E-01
       -1   -1    0    0    0  501  0.00000000000E+00  0.00000000000E+00  0.55492445231E+03  0.55492445233E+03  0.50400001928E-02 0. -1.
        1   -1    0    0  501    0  0.00000000000E+00  0.00000000000E+00 -0.13030954118E+04  0.13030954118E+04  0.50400001928E-02 0.  1.
    10030    2    1    2    0    0  0.00000000000E+00  0.00000000000E+00 -0.74817095949E+03  0.18580198641E+04  0.17007286765E+04 0.  0.
        5    1    3    3  502    0  0.18377564819E+02 -0.82910623974E+03 -0.57946829929E+03  0.10117116642E+04  0.46999998093E+01 0.  1.
       -5    1    3    3    0  502 -0.18377564819E+02  0.82910623974E+03 -0.16870266020E+03  0.84630819990E+03  0.46999998093E+01 0. -1.
</event>
<event>
 5   0  0.1435301E-05  0.1699247E+04  0.7818609E-02  0.8761794E-01
       -2   -1    0    0    0  501  0.00000000000E+00  0.00000000000E+00  0.90998411764E+03  0.90998411764E+03  0.25500000920E-02 0.  1.
        2   -1    0    0  501    0  0.00000000000E+00  0.00000000000E+00 -0.79326643829E+03  0.79326643829E+03  0.25500000920E-02 0. -1.
    10030    2    1    2    0    0  0.00000000000E+00  0.00000000000E+00  0.11671767935E+03  0.17032505559E+04  0.16992467271E+04 0.  0.
        2    1    3    3  502    0  0.17351525747E+03  0.58033417444E+02 -0.77328546771E+03  0.79463566287E+03  0.25500000920E-02 0. -1.
       -2    1    3    3    0  502 -0.17351525747E+03 -0.58033417444E+02  0.89000314706E+03  0.90861489307E+03  0.25500000920E-02 0.  1.
</event>
<event>
 5   0  0.7455669E-06  0.1709417E+04  0.7818609E-02  0.8756011E-01
       -1   -1    0    0    0  501  0.00000000000E+00  0.00000000000E+00  0.37135195627E+03  0.37135195630E+03  0.50400001928E-02 0. -1.
        1   -1    0    0  501    0  0.00000000000E+00  0.00000000000E+00 -0.19672091587E+04  0.19672091587E+04  0.50400001928E-02 0.  1.
    10030    2    1    2    0    0  0.00000000000E+00  0.00000000000E+00 -0.15958572025E+04  0.23385611150E+04  0.17094174090E+04 0.  0.
        4    1    3    3  502    0 -0.16695949185E+03  0.19167344226E+03  0.31844293129E+03  0.40745759752E+03  0.12699999809E+01 0. -1.
       -4    1    3    3    0  502  0.16695949185E+03 -0.19167344226E+03 -0.19143001337E+04  0.19311035175E+04  0.12699999809E+01 0.  1.
</event>
<event>
 5   0  0.7476457E-06  0.1700539E+04  0.7818609E-02  0.8761057E-01
        1   -1    0    0  501    0  0.00000000000E+00  0.00000000000E+00  0.23938330182E+04  0.23938330182E+04  0.50400001928E-02 0. -1.
       -1   -1    0    0    0  501  0.00000000000E+00  0.00000000000E+00 -0.30200868233E+03  0.30200868237E+03  0.50400001928E-02 0.  1.
    10030    2    1    2    0    0  0.00000000000E+00  0.00000000000E+00  0.20918243358E+04  0.26958417006E+04  0.17005391564E+04 0.  0.
        2    1    3    3  502    0  0.44466706214E+03 -0.86934937601E+02 -0.94692215315E+02  0.46287481588E+03  0.25500000920E-02 0.  1.
       -2    1    3    3    0  502 -0.44466706214E+03  0.86934937601E+02  0.21865165512E+04  0.22329668847E+04  0.25500000920E-02 0. -1.
</event>
<event>
 5   0  0.7476457E-06  0.1699754E+04  0.7818609E-02  0.8761505E-01
        1   -1    0    0  501    0  0.00000000000E+00  0.00000000000E+00  0.88545906777E+03  0.88545906779E+03  0.50400001928E-02 0. -1.
       -1   -1    0    0    0  501  0.00000000000E+00  0.00000000000E+00 -0.81572439110E+03  0.81572439112E+03  0.50400001928E-02 0.  1.
    10030    2    1    2    0    0  0.00000000000E+00  0.00000000000E+00  0.69734676673E+02  0.17011834589E+04  0.16997535809E+04 0.  0.
        2    1    3    3  502    0 -0.20206378056E+03  0.42699198794E+03  0.74195910070E+03  0.87957673702E+03  0.25500000920E-02 0. -1.
       -2    1    3    3    0  502  0.20206378056E+03 -0.42699198794E+03 -0.67222442403E+03  0.82160672189E+03  0.25500000920E-02 0.  1.
</event>
<event>
 5   0  0.1435301E-05  0.1700195E+04  0.7818609E-02  0.8761253E-01
        2   -1    0    0  501    0  0.00000000000E+00  0.00000000000E+00  0.18072543409E+04  0.18072543409E+04  0.25500000920E-02 0. -1.
       -2   -1    0    0    0  501  0.00000000000E+00  0.00000000000E+00 -0.39986941847E+03  0.39986941848E+03  0.25500000920E-02 0.  1.
    10030    2    1    2    0    0  0.00000000000E+00  0.00000000000E+00  0.14073849225E+04  0.22071237594E+04  0.17001949798E+04 0.  0.
        2    1    3    3  502    0 -0.21781866109E+03  0.75667243816E+03  0.28773908875E+03  0.83832686405E+03  0.25500000920E-02 0.  1.
       -2    1    3    3    0  502  0.21781866109E+03 -0.75667243816E+03  0.11196458337E+04  0.13687968954E+04  0.25500000920E-02 0. -1.
</event>
<event>
 5   0  0.5229750E-06  0.1700320E+04  0.7818609E-02  0.8761182E-01
        3   -1    0    0  501    0  0.00000000000E+00  0.00000000000E+00  0.10477868566E+04  0.10477868615E+04  0.10100000352E+00 0. -1.
       -3   -1    0    0    0  501  0.00000000000E+00  0.00000000000E+00 -0.68980837210E+03  0.68980837950E+03  0.10100000352E+00 0.  1.
    10030    2    1    2    0    0  0.00000000000E+00  0.00000000000E+00  0.35797848454E+03  0.17375952410E+04  0.17003201540E+04 0.  0.
        2    1    3    3  502    0  0.25936148802E+02 -0.31979529816E+03 -0.62556321617E+03  0.70304413373E+03  0.25500000920E-02 0.  1.
       -2    1    3    3    0  502 -0.25936148802E+02  0.31979529816E+03  0.98354170071E+03  0.10345511073E+04  0.25500000920E-02 0. -1.
</event>
<event>
 5   0  0.1441756E-05  0.1698247E+04  0.7818609E-02  0.8762365E-01
        2   -1    0    0  501    0  0.00000000000E+00  0.00000000000E+00  0.63158078125E+03  0.63158078126E+03  0.25500000920E-02 0. -1.
       -2   -1    0    0    0  501  0.00000000000E+00  0.00000000000E+00 -0.11415970851E+04  0.11415970851E+04  0.25500000920E-02 0.  1.
    10030    2    1    2    0    0  0.00000000000E+00  0.00000000000E+00 -0.51001630387E+03  0.17731778664E+04  0.16982470714E+04 0.  0.
        5    1    3    3  502    0 -0.54017788981E+03  0.52589932011E+03  0.15290369291E+03  0.76926190393E+03  0.46999998093E+01 0.  1.
       -5    1    3    3    0  502  0.54017788981E+03 -0.52589932011E+03 -0.66291999677E+03  0.10039159624E+04  0.46999998093E+01 0. -1.
</event>
<event>
 5   0  0.1441756E-05  0.1695957E+04  0.7818609E-02  0.8763673E-01
        2   -1    0    0  501    0  0.00000000000E+00  0.00000000000E+00  0.42750098762E+03  0.42750098762E+03  0.25500000920E-02 0. -1.
       -2   -1    0    0    0  501  0.00000000000E+00  0.00000000000E+00 -0.16820262233E+04  0.16820262233E+04  0.25500000920E-02 0.  1.
    10030    2    1    2    0    0  0.00000000000E+00  0.00000000000E+00 -0.12545252356E+04  0.21095272109E+04  0.16959573953E+04 0.  0.
        5    1    3    3  502    0  0.42077742409E+03  0.73545223964E+03 -0.66855685125E+03  0.10793210786E+04  0.46999998093E+01 0.  1.
       -5    1    3    3    0  502 -0.42077742409E+03 -0.73545223964E+03 -0.58596838439E+03  0.10302061322E+04  0.46999998093E+01 0. -1.
</event>
<event>
 5   0  0.1419012E-05  0.1699965E+04  0.7818609E-02  0.8761385E-01
        2   -1    0    0  501    0  0.00000000000E+00  0.00000000000E+00  0.24577451806E+04  0.24577451806E+04  0.25500000920E-02 0.  1.
       -2   -1    0    0    0  501  0.00000000000E+00  0.00000000000E+00 -0.29395638957E+03  0.29395638958E+03  0.25500000920E-02 0. -1.
    10030    2    1    2    0    0  0.00000000000E+00  0.00000000000E+00  0.21637887911E+04  0.27517015702E+04  0.16999645876E+04 0.  0.
        4    1    3    3  502    0 -0.17106560908E+03  0.81252543624E+03  0.78781391958E+03  0.11446018574E+04  0.12699999809E+01 0. -1.
       -4    1    3    3    0  502  0.17106560908E+03 -0.81252543624E+03  0.13759748715E+04  0.16070997128E+04  0.12699999809E+01 0.  1.
</event>
<event>
 5   0  0.7455669E-06  0.1696482E+04  0.7818609E-02  0.8763373E-01
       -1   -1    0    0    0  501  0.00000000000E+00  0.00000000000E+00  0.58018374812E+03  0.58018374814E+03  0.50400001928E-02 0. -1.
        1   -1    0    0  501    0  0.00000000000E+00  0.00000000000E+00 -0.12401467654E+04  0.12401467655E+04  0.50400001928E-02 0.  1.
    10030    2    1    2    0    0  0.00000000000E+00  0.00000000000E+00 -0.65996301733E+03  0.18203305136E+04  0.16964822411E+04 0.  0.
        4    1    3    3  502    0 -0.52934933835E+02  0.54758911676E+03 -0.10227588373E+04  0.11613325106E+04  0.12699999809E+01 0.  1.
       -4    1    3    3    0  502  0.52934933835E+02 -0.54758911676E+03  0.36279582000E+03  0.65899800297E+03  0.12699999809E+01 0. -1.
</event>
<event>
 5   0  0.7476457E-06  0.1700036E+04  0.7818609E-02  0.8761344E-01
        1   -1    0    0  501    0  0.00000000000E+00  0.00000000000E+00  0.10882105613E+04  0.10882105613E+04  0.50400001928E-02 0.  1.
       -1   -1    0    0    0  501  0.00000000000E+00  0.00000000000E+00 -0.66396184820E+03  0.66396184822E+03  0.50400001928E-02 0. -1.
    10030    2    1    2    0    0  0.00000000000E+00  0.00000000000E+00  0.42424871310E+03  0.17521724095E+04  0.17000356414E+04 0.  0.
        2    1    3    3  502    0  0.63892251817E+03 -0.34070176627E+03 -0.24676097779E+03  0.76497755387E+03  0.25500000920E-02 0. -1.
       -2    1    3    3    0  502 -0.63892251817E+03  0.34070176627E+03  0.67100969088E+03  0.98719485566E+03  0.25500000920E-02 0.  1.
</event>
<event>
 5   0  0.1435301E-05  0.1699165E+04  0.7818609E-02  0.8761841E-01
       -2   -1    0    0    0  501  0.00000000000E+00  0.00000000000E+00  0.83908022201E+03  0.83908022201E+03  0.25500000920E-02 0. -1.
        2   -1    0    0  501    0  0.00000000000E+00  0.00000000000E+00 -0.86021591674E+03  0.86021591674E+03  0.25500000920E-02 0.  1.
    10030    2    1    2    0    0  0.00000000000E+00  0.00000000000E+00 -0.21135694727E+02  0.16992961388E+04  0.16991646917E+04 0.  0.
        2    1    3    3  502    0  0.13140756293E+03  0.17363054857E+03  0.81069885134E+03  0.83943322699E+03  0.25500000920E-02 0. -1.
       -2    1    3    3    0  502 -0.13140756293E+03 -0.17363054857E+03 -0.83183454607E+03  0.85986291177E+03  0.25500000920E-02 0.  1.
</event>
<event>
 5   0  0.7476457E-06  0.1700544E+04  0.7818609E-02  0.8761054E-01
        1   -1    0    0  501    0  0.00000000000E+00  0.00000000000E+00  0.11778899093E+04  0.11778899093E+04  0.50400001928E-02 0. -1.
       -1   -1    0    0    0  501  0.00000000000E+00  0.00000000000E+00 -0.61377790431E+03  0.61377790433E+03  0.50400001928E-02 0.  1.
    10030    2    1    2    0    0  0.00000000000E+00  0.00000000000E+00  0.56411200495E+03  0.17916678136E+04  0.17005443835E+04 0.  0.
        2    1    3    3  502    0  0.20509415275E+03 -0.21138676210E+03  0.11224276913E+04  0.11604274630E+04  0.25500000920E-02 0. -1.
       -2    1    3    3    0  502 -0.20509415275E+03  0.21138676210E+03 -0.55831568631E+03  0.63124035064E+03  0.25500000920E-02 0.  1.
</event>
<event>
 5   0  0.1423543E-05  0.1699125E+04  0.7818609E-02  0.8761863E-01
        2   -1    0    0  501    0  0.00000000000E+00  0.00000000000E+00  0.13803661168E+04  0.13803661168E+04  0.25500000920E-02 0.  1.
       -2   -1    0    0    0  501  0.00000000000E+00  0.00000000000E+00 -0.52287344387E+03  0.52287344387E+03  0.25500000920E-02 0. -1.
    10030    2    1    2    0    0  0.00000000000E+00  0.00000000000E+00  0.85749267289E+03  0.19032395606E+04  0.16991254048E+04 0.  0.
        3    1    3    3  502    0  0.40468504144E+03  0.64800700753E+03  0.84496688853E+03  0.11391453452E+04  0.10100000352E+00 0.  1.
       -3    1    3    3    0  502 -0.40468504144E+03 -0.64800700753E+03  0.12525784362E+02  0.76409421543E+03  0.10100000352E+00 0. -1.
</event>
<event>
 5   0  0.1441756E-05  0.1700397E+04  0.7818609E-02  0.8761138E-01
       -2   -1    0    0    0  501  0.00000000000E+00  0.00000000000E+00  0.39075784264E+03  0.39075784265E+03  0.25500000920E-02 0. -1.
        2   -1    0    0  501    0  0.00000000000E+00  0.00000000000E+00 -0.18498347547E+04  0.18498347547E+04  0.25500000920E-02 0.  1.
    10030    2    1    2    0    0  0.00000000000E+00  0.00000000000E+00 -0.14590769121E+04  0.22405925974E+04  0.17003969396E+04 0.  0.
        5    1    3    3  502    0 -0.33157099172E+03 -0.60937859275E+03 -0.81946419210E+02  0.69858349356E+03  0.46999998093E+01 0. -1.
       -5    1    3    3    0  502  0.33157099172E+03  0.60937859275E+03 -0.13771304929E+04  0.15420091038E+04  0.46999998093E+01 0.  1.
</event>
<event>
 5   0  0.7583716E-06  0.1700103E+04  0.7818609E-02  0.8761305E-01
        1   -1    0    0  501    0  0.00000000000E+00  0.00000000000E+00  0.10826606806E+04  0.10826606806E+04  0.50400001928E-02 0.  1.
       -1   -1    0    0    0  501  0.00000000000E+00  0.00000000000E+00 -0.66741852724E+03  0.66741852726E+03  0.50400001928E-02 0. -1.
    10030    2    1    2    0    0  0.00000000000E+00  0.00000000000E+00  0.41524215331E+03  0.17500792078E+04  0.17001032874E+04 0.  0.
        5    1    3    3  502    0 -0.44664710678E+03  0.13486557227E+02 -0.53674683219E+03  0.69842306454E+03  0.46999998093E+01 0. -1.
       -5    1    3    3    0  502  0.44664710678E+03 -0.13486557227E+02  0.95198898550E+03  0.10516561433E+04  0.46999998093E+01 0.  1.
</event>
<event>
 5   0  0.7461128E-06  0.1699781E+04  0.7818609E-02  0.8761489E-01
       -1   -1    0    0    0  501  0.00000000000E+00  0.00000000000E+00  0.46812184331E+03  0.46812184334E+03  0.50400001928E-02 0. -1.
        1   -1    0    0  501    0  0.00000000000E+00  0.00000000000E+00 -0.15430047017E+04  0.15430047017E+04  0.50400001928E-02 0.  1.
    10030    2    1    2    0    0  0.00000000000E+00  0.00000000000E+00 -0.10748828584E+04  0.20111265451E+04  0.16997814039E+04 0.  0.
        3    1    3    3  502    0 -0.20747262690E+03  0.80565969244E+03 -0.74299197530E+03  0.11154234696E+04  0.10100000352E+00 0.  1.
       -3    1    3    3    0  502  0.20747262690E+03 -0.80565969244E+03 -0.33189088309E+03  0.89570307547E+03  0.10100000352E+00 0. -1.
</event>
<event>
 5   0  0.1423543E-05  0.1701101E+04  0.7818609E-02  0.8760736E-01
        2   -1    0    0  501    0  0.00000000000E+00  0.00000000000E+00  0.16877572738E+04  0.16877572738E+04  0.25500000920E-02 0.  1.
       -2   -1    0    0    0  501  0.00000000000E+00  0.00000000000E+00 -0.42863775557E+03  0.42863775558E+03  0.25500000920E-02 0. -1.
    10030    2    1    2    0    0  0.00000000000E+00  0.00000000000E+00  0.12591195182E+04  0.21163950294E+04  0.17011013959E+04 0.  0.
        3    1    3    3  502    0  0.44216154809E+02 -0.84854721855E+03  0.67691903921E+03  0.10863732537E+04  0.10100000352E+00 0.  1.
       -3    1    3    3    0  502 -0.44216154809E+02  0.84854721855E+03  0.58220047902E+03  0.10300217757E+04  0.10100000352E+00 0. -1.
</event>
<event>
 5   0  0.1374441E-05  0.1699959E+04  0.7818609E-02  0.8761388E-01
       -2   -1    0    0    0  501  0.00000000000E+00  0.00000000000E+00  0.13048454687E+04  0.13048454687E+04  0.25500000920E-02 0.  1.
        2   -1    0    0  501    0  0.00000000000E+00  0.00000000000E+00 -0.55367888371E+03  0.55367888372E+03  0.25500000920E-02 0. -1.
    10030    2    1    2    0    0  0.00000000000E+00  0.00000000000E+00  0.75116658500E+03  0.18585243524E+04  0.16999592731E+04 0.  0.
        1    1    3    3  502    0  0.31285233500E+03  0.29239003793E+03  0.11783015524E+04  0.12536997512E+04  0.50400001928E-02 0.  1.
       -1    1    3    3    0  502 -0.31285233500E+03 -0.29239003793E+03 -0.42713496742E+03  0.60482460120E+03  0.50400001928E-02 0. -1.
</event>
<event>
 5   0  0.1374441E-05  0.1699630E+04  0.7818609E-02  0.8761576E-01
        2   -1    0    0  501    0  0.00000000000E+00  0.00000000000E+00  0.84586192673E+03  0.84586192673E+03  0.25500000920E-02 0.  1.
       -2   -1    0    0    0  501  0.00000000000E+00  0.00000000000E+00 -0.85378605673E+03  0.85378605673E+03  0.25500000920E-02 0. -1.
    10030    2    1    2    0    0  0.00000000000E+00  0.00000000000E+00 -0.79241299967E+01  0.16996479835E+04  0.16996295113E+04 0.  0.
        1    1    3    3  502    0 -0.57573200421E+03 -0.56587039455E+03  0.26157514044E+03  0.84858599930E+03  0.50400001928E-02 0.  1.
       -1    1    3    3    0  502  0.57573200421E+03  0.56587039455E+03 -0.26949927044E+03  0.85106198416E+03  0.50400001928E-02 0. -1.
</event>
<event>
 5   0  0.1435301E-05  0.1699610E+04  0.7818609E-02  0.8761587E-01
       -2   -1    0    0    0  501  0.00000000000E+00  0.00000000000E+00  0.68073156666E+03  0.68073156667E+03  0.25500000920E-02 0.  1.
        2   -1    0    0  501    0  0.00000000000E+00  0.00000000000E+00 -0.10608717956E+04  0.10608717956E+04  0.25500000920E-02 0. -1.
    10030    2    1    2    0    0  0.00000000000E+00  0.00000000000E+00 -0.38014022893E+03  0.17416033623E+04  0.16996104488E+04 0.  0.
        2    1    3    3  502    0 -0.37240768939E+03 -0.25431007413E+03 -0.92814957233E+03  0.10319024806E+04  0.25500000920E-02 0. -1.
       -2    1    3    3    0  502  0.37240768939E+03  0.25431007413E+03  0.54800934340E+03  0.70970088163E+03  0.25500000920E-02 0.  1.
</event>
<event>
 5   0  0.7082527E-06  0.1697363E+04  0.7818609E-02  0.8762870E-01
        1   -1    0    0  501    0  0.00000000000E+00  0.00000000000E+00  0.69601999241E+03  0.69601999243E+03  0.50400001928E-02 0.  1.
       -1   -1    0    0    0  501  0.00000000000E+00  0.00000000000E+00 -0.10348270621E+04  0.10348270622E+04  0.50400001928E-02 0. -1.
    10030    2    1    2    0    0  0.00000000000E+00  0.00000000000E+00 -0.33880706973E+03  0.17308470546E+04  0.16973630419E+04 0.  0.
        1    1    3    3  502    0  0.44956255939E+03 -0.77810086914E+02 -0.89913167399E+03  0.10082651792E+04  0.50400001928E-02 0. -1.
       -1    1    3    3    0  502 -0.44956255939E+03  0.77810086914E+02  0.56032460426E+03  0.72258187536E+03  0.50400001928E-02 0.  1.
</event>
<event>
 5   0  0.1374441E-05  0.1697304E+04  0.7818609E-02  0.8762904E-01
       -2   -1    0    0    0  501  0.00000000000E+00  0.00000000000E+00  0.51841461486E+03  0.51841461487E+03  0.25500000920E-02 0.  1.
        2   -1    0    0  501    0  0.00000000000E+00  0.00000000000E+00 -0.13892549827E+04  0.13892549827E+04  0.25500000920E-02 0. -1.
    10030    2    1    2    0    0  0.00000000000E+00  0.00000000000E+00 -0.87084036783E+03  0.19076695976E+04  0.16973038465E+04 0.  0.
        1    1    3    3  502    0  0.45760936712E+03  0.56198124479E+03 -0.93171475589E+03  0.11803904603E+04  0.50400001928E-02 0. -1.
       -1    1    3    3    0  502 -0.45760936712E+03 -0.56198124479E+03  0.60874388061E+02  0.72727913728E+03  0.50400001928E-02 0.  1.
</event>
<event>
 5   0  0.1419012E-05  0.1700449E+04  0.7818609E-02  0.8761108E-01
        2   -1    0    0  501    0  0.00000000000E+00  0.00000000000E+00  0.98782499132E+03  0.98782499132E+03  0.25500000920E-02 0.  1.
       -2   -1    0    0    0  501  0.00000000000E+00  0.00000000000E+00 -0.73179132375E+03  0.73179132375E+03  0.25500000920E-02 0. -1.
    10030    2    1    2    0    0  0.00000000000E+00  0.00000000000E+00  0.25603366757E+03  0.17196163151E+04  0.17004490678E+04 0.  0.
        4    1    3    3  502    0  0.44142638091E+03 -0.54874665952E+03 -0.35369262652E+03  0.78808643756E+03  0.12699999809E+01 0. -1.
       -4    1    3    3    0  502 -0.44142638091E+03  0.54874665952E+03  0.60972629409E+03  0.93152987752E+03  0.12699999809E+01 0.  1.
</event>
<event>
 5   0  0.1423543E-05  0.1702810E+04  0.7818609E-02  0.8759763E-01
        2   -1    0    0  501    0  0.00000000000E+00  0.00000000000E+00  0.57202349247E+03  0.57202349247E+03  0.25500000920E-02 0. -1.
       -2   -1    0    0    0  501  0.00000000000E+00  0.00000000000E+00 -0.12672393339E+04  0.12672393339E+04  0.25500000920E-02 0.  1.
    10030    2    1    2    0    0  0.00000000000E+00  0.00000000000E+00 -0.69521584143E+03  0.18392628264E+04  0.17028102297E+04 0.  0.
        3    1    3    3  502    0  0.28838512475E+03  0.28651755500E+03  0.46042481595E+03  0.61420624455E+03  0.10100000352E+00 0. -1.
       -3    1    3    3    0  502 -0.28838512475E+03 -0.28651755500E+03 -0.11556406574E+04  0.12250565818E+04  0.10100000352E+00 0.  1.
</event>
<event>
 5   0  0.7583716E-06  0.1700437E+04  0.7818609E-02  0.8761115E-01
       -1   -1    0    0    0  501  0.00000000000E+00  0.00000000000E+00  0.12654374470E+04  0.12654374470E+04  0.50400001928E-02 0. -1.
        1   -1    0    0  501    0  0.00000000000E+00  0.00000000000E+00 -0.57124269317E+03  0.57124269320E+03  0.50400001928E-02 0.  1.
    10030    2    1    2    0    0  0.00000000000E+00  0.00000000000E+00  0.69419475379E+03  0.18366801402E+04  0.17004374676E+04 0.  0.
        5    1    3    3  502    0 -0.20675415019E+03  0.82465052989E+03  0.33915791224E+03  0.91533925650E+03  0.46999998093E+01 0. -1.
       -5    1    3    3    0  502  0.20675415019E+03 -0.82465052989E+03  0.35503684155E+03  0.92134088367E+03  0.46999998093E+01 0.  1.
</event>
<event>
 5   0  0.7476457E-06  0.1699737E+04  0.7818609E-02  0.8761514E-01
       -1   -1    0    0    0  501  0.00000000000E+00  0.00000000000E+00  0.67518179568E+03  0.67518179570E+03  0.50400001928E-02 0.  1.
        1   -1    0    0  501    0  0.00000000000E+00  0.00000000000E+00 -0.10697511104E+04  0.10697511104E+04  0.50400001928E-02 0. -1.
    10030    2    1    2    0    0  0.00000000000E+00  0.00000000000E+00 -0.39456931474E+03  0.17449329061E+04  0.16997370099E+04 0.  0.
        2    1    3    3  502    0  0.80300197749E+03  0.27284260781E+03 -0.25371173311E+03  0.88522590790E+03  0.25500000920E-02 0.  1.
       -2    1    3    3    0  502 -0.80300197749E+03 -0.27284260781E+03 -0.14085758163E+03  0.85970699823E+03  0.25500000920E-02 0. -1.
</event>
<event>
 5   0  0.1374441E-05  0.1700002E+04  0.7818609E-02  0.8761363E-01
        2   -1    0    0  501    0  0.00000000000E+00  0.00000000000E+00  0.11394538058E+04  0.11394538058E+04  0.25500000920E-02 0.  1.
       -2   -1    0    0    0  501  0.00000000000E+00  0.00000000000E+00 -0.63407750805E+03  0.63407750805E+03  0.25500000920E-02 0. -1.
    10030    2    1    2    0    0  0.00000000000E+00  0.00000000000E+00  0.50537629777E+03  0.17735313139E+04  0.17000023879E+04 0.  0.
        1    1    3    3  502    0 -0.45670549705E+03  0.26980682785E+02 -0.49467242402E+03  0.67380165879E+03  0.50400001928E-02 0. -1.
       -1    1    3    3    0  502  0.45670549705E+03 -0.26980682785E+02  0.10000487218E+04  0.10997296551E+04  0.50400001928E-02 0.  1.
</event>
<event>
 5   0  0.1419012E-05  0.1701439E+04  0.7818609E-02  0.8760544E-01
        2   -1    0    0  501    0  0.00000000000E+00  0.00000000000E+00  0.20674585420E+04  0.20674585420E+04  0.25500000920E-02 0. -1.
       -2   -1    0    0    0  501  0.00000000000E+00  0.00000000000E+00 -0.35005484488E+03  0.35005484489E+03  0.25500000920E-02 0.  1.
    10030    2    1    2    0    0  0.00000000000E+00  0.00000000000E+00  0.17174036972E+04  0.24175133869E+04  0.17014392487E+04 0.  0.
        4    1    3    3  502    0  0.36049874674E+03 -0.77392212451E+02 -0.23062295374E+03  0.43489936840E+03  0.12699999809E+01 0.  1.
       -4    1    3    3    0  502 -0.36049874674E+03  0.77392212451E+02  0.19480266509E+04  0.19826140185E+04  0.12699999809E+01 0. -1.
</event>
<event>
 5   0  0.1423543E-05  0.1703551E+04  0.7818609E-02  0.8759341E-01
       -2   -1    0    0    0  501  0.00000000000E+00  0.00000000000E+00  0.58895001105E+03  0.58895001106E+03  0.25500000920E-02 0. -1.
        2   -1    0    0  501    0  0.00000000000E+00  0.00000000000E+00 -0.12318905041E+04  0.12318905041E+04  0.25500000920E-02 0.  1.
    10030    2    1    2    0    0  0.00000000000E+00  0.00000000000E+00 -0.64294049308E+03  0.18208405152E+04  0.17035514974E+04 0.  0.
        3    1    3    3  502    0 -0.81253787381E+03  0.15385101137E+03 -0.53956269908E+03  0.98742890706E+03  0.10100000352E+00 0.  1.
       -3    1    3    3    0  502  0.81253787381E+03 -0.15385101137E+03 -0.10337779400E+03  0.83341160813E+03  0.10100000352E+00 0. -1.
</event>
<event>
 5   0  0.7082527E-06  0.1699326E+04  0.7818609E-02  0.8761749E-01
       -1   -1    0    0    0  501  0.00000000000E+00  0.00000000000E+00  0.70148585426E+03  0.70148585428E+03  0.50400001928E-02 0. -1.
        1   -1    0    0  501    0  0.00000000000E+00  0.00000000000E+00 -0.10291400622E+04  0.10291400622E+04  0.50400001928E-02 0.  1.
    10030    2    1    2    0    0  0.00000000000E+00  0.00000000000E+00 -0.32765420795E+03  0.17306259165E+04  0.16993259790E+04 0.  0.
        1    1    3    3  502    0  0.63753457876E+02 -0.69868047042E+03 -0.65193388714E+03  0.95772474979E+03  0.50400001928E-02 0.  1.
       -1    1    3    3    0  502 -0.63753457876E+02  0.69868047042E+03  0.32427967919E+03  0.77290116671E+03  0.50400001928E-02 0. -1.
</event>
<event>
 5   0  0.1435301E-05  0.1706509E+04  0.7818609E-02  0.8757661E-01
        2   -1    0    0  501    0  0.00000000000E+00  0.00000000000E+00  0.10792782532E+04  0.10792782532E+04  0.25500000920E-02 0. -1.
       -2   -1    0    0    0  501  0.00000000000E+00  0.00000000000E+00 -0.67456516873E+03  0.67456516874E+03  0.25500000920E-02 0.  1.
    10030    2    1    2    0    0  0.00000000000E+00  0.00000000000E+00  0.40471308446E+03  0.17538434219E+04  0.17065093225E+04 0.  0.
        2    1    3    3  502    0  0.70089595446E+03  0.40139174951E+03  0.48507407862E+03  0.94216099331E+03  0.25500000920E-02 0. -1.
       -2    1    3    3    0  502 -0.70089595446E+03 -0.40139174951E+03 -0.80360994163E+02  0.81168242863E+03  0.25500000920E-02 0.  1.
</event>
<event>
 5   0  0.7082527E-06  0.1699316E+04  0.7818609E-02  0.8761754E-01
        1   -1    0    0  501    0  0.00000000000E+00  0.00000000000E+00  0.14763396344E+04  0.14763396344E+04  0.50400001928E-02 0. -1.
       -1   -1    0    0    0  501  0.00000000000E+00  0.00000000000E+00 -0.48899241794E+03  0.48899241797E+03  0.50400001928E-02 0.  1.
    10030    2    1    2    0    0  0.00000000000E+00  0.00000000000E+00  0.98734721643E+03  0.19653320524E+04  0.16993162008E+04 0.  0.
        1    1    3    3  502    0 -0.40542107961E+03  0.70852534949E+03  0.76624616796E+03  0.11196015419E+04  0.50400001928E-02 0. -1.
       -1    1    3    3    0  502  0.40542107961E+03 -0.70852534949E+03  0.22110104847E+03  0.84573051046E+03  0.50400001928E-02 0.  1.
</event>
<event>
 5   0  0.7476457E-06  0.1700697E+04  0.7818609E-02  0.8760967E-01
       -1   -1    0    0    0  501  0.00000000000E+00  0.00000000000E+00  0.12189311914E+04  0.12189311914E+04  0.50400001928E-02 0. -1.
        1   -1    0    0  501    0  0.00000000000E+00  0.00000000000E+00 -0.59321868033E+03  0.59321868035E+03  0.50400001928E-02 0.  1.
    10030    2    1    2    0    0  0.00000000000E+00  0.00000000000E+00  0.62571251110E+03  0.18121498718E+04  0.17006972133E+04 0.  0.
        2    1    3    3  502    0  0.17984557469E+03 -0.57310036693E+03  0.95421918126E+03  0.11275294707E+04  0.25500000920E-02 0. -1.
       -2    1    3    3    0  502 -0.17984557469E+03  0.57310036693E+03 -0.32850667016E+03  0.68462040114E+03  0.25500000920E-02 0.  1.
</event>
<event>
 5   0  0.1441756E-05  0.1700505E+04  0.7818609E-02  0.8761076E-01
        2   -1    0    0  501    0  0.00000000000E+00  0.00000000000E+00  0.13129715503E+04  0.13129715503E+04  0.25500000920E-02 0.  1.
       -2   -1    0    0    0  501  0.00000000000E+00  0.00000000000E+00 -0.55060552087E+03  0.55060552088E+03  0.25500000920E-02 0. -1.
    10030    2    1    2    0    0  0.00000000000E+00  0.00000000000E+00  0.76236602945E+03  0.18635770712E+04  0.17005050830E+04 0.  0.
        5    1    3    3  502    0 -0.39611139294E+03 -0.55282942138E+03  0.94039372201E+03  0.11605546291E+04  0.46999998093E+01 0.  1.
       -5    1    3    3    0  502  0.39611139294E+03  0.55282942138E+03 -0.17802769256E+03  0.70302244209E+03  0.46999998093E+01 0. -1.
</event>
<event>
 5   0  0.7082527E-06  0.1699427E+04  0.7818609E-02  0.8761691E-01
        1   -1    0    0  501    0  0.00000000000E+00  0.00000000000E+00  0.46362886823E+03  0.46362886826E+03  0.50400001928E-02 0.  1.
       -1   -1    0    0    0  501  0.00000000000E+00  0.00000000000E+00 -0.15573084819E+04  0.15573084819E+04  0.50400001928E-02 0. -1.
    10030    2    1    2    0    0  0.00000000000E+00  0.00000000000E+00 -0.10936796137E+04  0.20209373502E+04  0.16994271611E+04 0.  0.
        1    1    3    3  502    0  0.60200325208E+03  0.59963195994E+03 -0.53870746345E+03  0.10060676588E+04  0.50400001928E-02 0.  1.
       -1    1    3    3    0  502 -0.60200325208E+03 -0.59963195994E+03 -0.55497215023E+03  0.10148696914E+04  0.50400001928E-02 0. -1.
</event>
<event>
 5   0  0.1419012E-05  0.1701121E+04  0.7818609E-02  0.8760725E-01
        2   -1    0    0  501    0  0.00000000000E+00  0.00000000000E+00  0.14649431304E+04  0.14649431304E+04  0.25500000920E-02 0. -1.
       -2   -1    0    0    0  501  0.00000000000E+00  0.00000000000E+00 -0.49384374903E+03  0.49384374903E+03  0.25500000920E-02 0.  1.
    10030    2    1    2    0    0  0.00000000000E+00  0.00000000000E+00  0.97109938138E+03  0.19587868794E+04  0.17011208160E+04 0.  0.
        4    1    3    3  502    0 -0.77033881926E+02 -0.55178470380E+03 -0.25448788177E+03  0.61250818214E+03  0.12699999809E+01 0.  1.
       -4    1    3    3    0  502  0.77033881926E+02  0.55178470380E+03  0.12255872632E+04  0.13462786973E+04  0.12699999809E+01 0. -1.
</event>
<event>
 5   0  0.5229750E-06  0.1700746E+04  0.7818609E-02  0.8760939E-01
       -3   -1    0    0    0  501  0.00000000000E+00  0.00000000000E+00  0.13894779805E+04  0.13894779842E+04  0.10100000352E+00 0. -1.
        3   -1    0    0  501    0  0.00000000000E+00  0.00000000000E+00 -0.52043613082E+03  0.52043614062E+03  0.10100000352E+00 0.  1.
    10030    2    1    2    0    0  0.00000000000E+00  0.00000000000E+00  0.86904184972E+03  0.19099141248E+04  0.17007463737E+04 0.  0.
        4    1    3    3  502    0  0.44329593549E+03  0.62229608285E+03  0.85375614163E+03  0.11457158738E+04  0.12699999809E+01 0. -1.
       -4    1    3    3    0  502 -0.44329593549E+03 -0.62229608285E+03  0.15285708094E+02  0.76419825105E+03  0.12699999809E+01 0.  1.
</event>
<event>
 5   0  0.1423543E-05  0.1699785E+04  0.7818609E-02  0.8761487E-01
        2   -1    0    0  501    0  0.00000000000E+00  0.00000000000E+00  0.52683490987E+03  0.52683490988E+03  0.25500000920E-02 0.  1.
       -2   -1    0    0    0  501  0.00000000000E+00  0.00000000000E+00 -0.13710512478E+04  0.13710512478E+04  0.25500000920E-02 0. -1.
    10030    2    1    2    0    0  0.00000000000E+00  0.00000000000E+00 -0.84421633796E+03  0.18978861577E+04  0.16997854695E+04 0.  0.
        3    1    3    3  502    0  0.30872704560E+03  0.45921879899E+03  0.29814817508E+03  0.62855917664E+03  0.10100000352E+00 0.  1.
       -3    1    3    3    0  502 -0.30872704560E+03 -0.45921879899E+03 -0.11423645130E+04  0.12693269811E+04  0.10100000352E+00 0. -1.
</event>
<event>
 5   0  0.1423543E-05  0.1699833E+04  0.7818609E-02  0.8761459E-01
        2   -1    0    0  501    0  0.00000000000E+00  0.00000000000E+00  0.12717619447E+04  0.12717619447E+04  0.25500000920E-02 0. -1.
       -2   -1    0    0    0  501  0.00000000000E+00  0.00000000000E+00 -0.56799817252E+03  0.56799817253E+03  0.25500000920E-02 0.  1.
    10030    2    1    2    0    0  0.00000000000E+00  0.00000000000E+00  0.70376377213E+03  0.18397601172E+04  0.16998334747E+04 0.  0.
        3    1    3    3  502    0  0.27652229172E+03  0.20993745618E+03 -0.48774856320E+03  0.59869607017E+03  0.10100000352E+00 0.  1.
       -3    1    3    3    0  502 -0.27652229172E+03 -0.20993745618E+03  0.11915123353E+04  0.12410640470E+04  0.10100000352E+00 0. -1.
</event>
<event>
 5   0  0.7461128E-06  0.1698570E+04  0.7818609E-02  0.8762180E-01
       -1   -1    0    0    0  501  0.00000000000E+00  0.00000000000E+00  0.83248825162E+03  0.83248825163E+03  0.50400001928E-02 0.  1.
        1   -1    0    0  501    0  0.00000000000E+00  0.00000000000E+00 -0.86642075515E+03  0.86642075517E+03  0.50400001928E-02 0. -1.
    10030    2    1    2    0    0  0.00000000000E+00  0.00000000000E+00 -0.33932503536E+02  0.16989090068E+04  0.16985701041E+04 0.  0.
        3    1    3    3  502    0 -0.80000465820E+03  0.94726694456E+02  0.25198234045E+03  0.84408276247E+03  0.10100000352E+00 0.  1.
       -3    1    3    3    0  502  0.80000465820E+03 -0.94726694456E+02 -0.28591484399E+03  0.85482624434E+03  0.10100000352E+00 0. -1.
</event>
<event>
 5   0  0.1435301E-05  0.1692131E+04  0.7818609E-02  0.8765865E-01
        2   -1    0    0  501    0  0.00000000000E+00  0.00000000000E+00  0.96587202183E+03  0.96587202183E+03  0.25500000920E-02 0.  1.
       -2   -1    0    0    0  501  0.00000000000E+00  0.00000000000E+00 -0.74112017484E+03  0.74112017485E+03  0.25500000920E-02 0. -1.
    10030    2    1    2    0    0  0.00000000000E+00  0.00000000000E+00  0.22475184699E+03  0.17069921967E+04  0.16921314863E+04 0.  0.
        2    1    3    3  502    0 -0.25315202058E+03  0.17093855556E+03 -0.68355346235E+03  0.74869972031E+03  0.25500000920E-02 0. -1.
       -2    1    3    3    0  502  0.25315202058E+03 -0.17093855556E+03  0.90830530933E+03  0.95829247637E+03  0.25500000920E-02 0.  1.
</event>
<event>
 5   0  0.1419012E-05  0.1699106E+04  0.7818609E-02  0.8761874E-01
        2   -1    0    0  501    0  0.00000000000E+00  0.00000000000E+00  0.18477707073E+04  0.18477707073E+04  0.25500000920E-02 0.  1.
       -2   -1    0    0    0  501  0.00000000000E+00  0.00000000000E+00 -0.39060052793E+03  0.39060052794E+03  0.25500000920E-02 0. -1.
    10030    2    1    2    0    0  0.00000000000E+00  0.00000000000E+00  0.14571701793E+04  0.22383712352E+04  0.16991058987E+04 0.  0.
        4    1    3    3  502    0  0.14055895379E+03 -0.71460994313E+03  0.13048013514E+04  0.14942999598E+04  0.12699999809E+01 0.  1.
       -4    1    3    3    0  502 -0.14055895379E+03  0.71460994313E+03  0.15236882797E+03  0.74407127544E+03  0.12699999809E+01 0. -1.
</event>
<event>
 5   0  0.1419012E-05  0.1699726E+04  0.7818609E-02  0.8761521E-01
       -2   -1    0    0    0  501  0.00000000000E+00  0.00000000000E+00  0.66295897026E+03  0.66295897026E+03  0.25500000920E-02 0. -1.
        2   -1    0    0  501    0  0.00000000000E+00  0.00000000000E+00 -0.10894597448E+04  0.10894597448E+04  0.25500000920E-02 0.  1.
    10030    2    1    2    0    0  0.00000000000E+00  0.00000000000E+00 -0.42650077454E+03  0.17524187151E+04  0.16997259903E+04 0.  0.
        4    1    3    3  502    0  0.12263224666E+03  0.50253069045E+03  0.48196046399E+03  0.70701008798E+03  0.12699999809E+01 0. -1.
       -4    1    3    3    0  502 -0.12263224666E+03 -0.50253069045E+03 -0.90846123853E+03  0.10454086271E+04  0.12699999809E+01 0.  1.
</event>
<event>
 5   0  0.7455669E-06  0.1700015E+04  0.7818609E-02  0.8761356E-01
        1   -1    0    0  501    0  0.00000000000E+00  0.00000000000E+00  0.78197441722E+03  0.78197441724E+03  0.50400001928E-02 0.  1.
       -1   -1    0    0    0  501  0.00000000000E+00  0.00000000000E+00 -0.92395903623E+03  0.92395903625E+03  0.50400001928E-02 0. -1.
    10030    2    1    2    0    0  0.00000000000E+00  0.00000000000E+00 -0.14198461901E+03  0.17059334535E+04  0.17000145045E+04 0.  0.
        4    1    3    3  502    0 -0.11645984401E+03  0.74849876355E+03  0.31596332796E+03  0.82076045946E+03  0.12699999809E+01 0. -1.
       -4    1    3    3    0  502  0.11645984401E+03 -0.74849876355E+03 -0.45794794697E+03  0.88517299402E+03  0.12699999809E+01 0.  1.
</event>
<event>
 5   0  0.7461128E-06  0.1699058E+04  0.7818609E-02  0.8761902E-01
        1   -1    0    0  501    0  0.00000000000E+00  0.00000000000E+00  0.46021733774E+03  0.46021733777E+03  0.50400001928E-02 0.  1.
       -1   -1    0    0    0  501  0.00000000000E+00  0.00000000000E+00 -0.15681702085E+04  0.15681702085E+04  0.50400001928E-02 0. -1.
    10030    2    1    2    0    0  0.00000000000E+00  0.00000000000E+00 -0.11079528708E+04  0.20283875463E+04  0.16990575253E+04 0.  0.
        3    1    3    3  502    0 -0.24887127630E+02 -0.54485753963E+03  0.22358247719E+03  0.58947285088E+03  0.10100000352E+00 0.  1.
       -3    1    3    3    0  502  0.24887127630E+02  0.54485753963E+03 -0.13315353480E+04  0.14389146954E+04  0.10100000352E+00 0. -1.
</event>
<event>
 5   0  0.7082527E-06  0.1699693E+04  0.7818609E-02  0.8761539E-01
        1   -1    0    0  501    0  0.00000000000E+00  0.00000000000E+00  0.10418427188E+04  0.10418427188E+04  0.50400001928E-02 0.  1.
       -1   -1    0    0    0  501  0.00000000000E+00  0.00000000000E+00 -0.69323242990E+03  0.69323242992E+03  0.50400001928E-02 0. -1.
    10030    2    1    2    0    0  0.00000000000E+00  0.00000000000E+00  0.34861028889E+03  0.17350751487E+04  0.16996931012E+04 0.  0.
        1    1    3    3  502    0  0.54544261077E+03 -0.43528131474E+03  0.66943987291E+03  0.96701975579E+03  0.50400001928E-02 0.  1.
       -1    1    3    3    0  502 -0.54544261077E+03  0.43528131474E+03 -0.32082958403E+03  0.76805539294E+03  0.50400001928E-02 0. -1.
</event>
<event>
 5   0  0.7455669E-06  0.1700915E+04  0.7818609E-02  0.8760843E-01
        1   -1    0    0  501    0  0.00000000000E+00  0.00000000000E+00  0.84723185674E+03  0.84723185675E+03  0.50400001928E-02 0. -1.
       -1   -1    0    0    0  501  0.00000000000E+00  0.00000000000E+00 -0.85369564946E+03  0.85369564947E+03  0.50400001928E-02 0.  1.
    10030    2    1    2    0    0  0.00000000000E+00  0.00000000000E+00 -0.64637927224E+01  0.17009275062E+04  0.17009152245E+04 0.  0.
        4    1    3    3  502    0  0.36688259206E+03 -0.47619989944E+03 -0.60482360439E+03  0.85274989646E+03  0.12699999809E+01 0.  1.
       -4    1    3    3    0  502 -0.36688259206E+03  0.47619989944E+03  0.59835981167E+03  0.84817760976E+03  0.12699999809E+01 0. -1.
</event>
<event>
 5   0  0.7082527E-06  0.1699585E+04  0.7818609E-02  0.8761601E-01
        1   -1    0    0  501    0  0.00000000000E+00  0.00000000000E+00  0.14825479313E+04  0.14825479313E+04  0.50400001928E-02 0.  1.
       -1   -1    0    0    0  501  0.00000000000E+00  0.00000000000E+00 -0.48709863027E+03  0.48709863030E+03  0.50400001928E-02 0. -1.
    10030    2    1    2    0    0  0.00000000000E+00  0.00000000000E+00  0.99544930098E+03  0.19696465616E+04  0.16995847336E+04 0.  0.
        1    1    3    3  502    0 -0.51899925288E+03 -0.31979141858E+03  0.11838477841E+04  0.13315864042E+04  0.50400001928E-02 0.  1.
       -1    1    3    3    0  502  0.51899925288E+03  0.31979141858E+03 -0.18839848316E+03  0.63806015733E+03  0.50400001928E-02 0. -1.
</event>
<event>
 5   0  0.1435301E-05  0.1701180E+04  0.7818609E-02  0.8760692E-01
        2   -1    0    0  501    0  0.00000000000E+00  0.00000000000E+00  0.14518263896E+04  0.14518263896E+04  0.25500000920E-02 0. -1.
       -2   -1    0    0    0  501  0.00000000000E+00  0.00000000000E+00 -0.49833994838E+03  0.49833994839E+03  0.25500000920E-02 0.  1.
    10030    2    1    2    0    0  0.00000000000E+00  0.00000000000E+00  0.95348644124E+03  0.19501663380E+04  0.17011796943E+04 0.  0.
        2    1    3    3  502    0  0.26828383303E+03 -0.55621090539E+03 -0.19381074785E+03  0.64723210082E+03  0.25500000920E-02 0.  1.
       -2    1    3    3    0  502 -0.26828383303E+03  0.55621090539E+03  0.11472971891E+04  0.13029342372E+04  0.25500000920E-02 0. -1.
</event>
<event>
 5   0  0.7455669E-06  0.1700536E+04  0.7818609E-02  0.8761059E-01
        1   -1    0    0  501    0  0.00000000000E+00  0.00000000000E+00  0.66633402678E+03  0.66633402680E+03  0.50400001928E-02 0.  1.
       -1   -1    0    0    0  501  0.00000000000E+00  0.00000000000E+00 -0.10849750102E+04  0.10849750102E+04  0.50400001928E-02 0. -1.
    10030    2    1    2    0    0  0.00000000000E+00  0.00000000000E+00 -0.41864098342E+03  0.17513090370E+04  0.17005361126E+04 0.  0.
        4    1    3    3  502    0 -0.55738236222E+03  0.50926015272E+03 -0.61206326097E+03  0.97192800618E+03  0.12699999809E+01 0. -1.
       -4    1    3    3    0  502  0.55738236222E+03 -0.50926015272E+03  0.19342227755E+03  0.77938103083E+03  0.12699999809E+01 0.  1.
</event>
<event>
 5   0  0.1435301E-05  0.1695720E+04  0.7818609E-02  0.8763809E-01
        2   -1    0    0  501    0  0.00000000000E+00  0.00000000000E+00  0.11820119325E+04  0.11820119325E+04  0.25500000920E-02 0.  1.
       -2   -1    0    0    0  501  0.00000000000E+00  0.00000000000E+00 -0.60817210751E+03  0.60817210752E+03  0.25500000920E-02 0. -1.
    10030    2    1    2    0    0  0.00000000000E+00  0.00000000000E+00  0.57383982496E+03  0.17901840400E+04  0.16957201279E+04 0.  0.
        2    1    3    3  502    0 -0.80318929050E+03  0.22514253676E+03  0.44725014861E+03  0.94648554858E+03  0.25500000920E-02 0. -1.
       -2    1    3    3    0  502  0.80318929050E+03 -0.22514253676E+03  0.12658967635E+03  0.84369849141E+03  0.25500000920E-02 0.  1.
</event>
<event>
 5   0  0.7082527E-06  0.1700388E+04  0.7818609E-02  0.8761143E-01
       -1   -1    0    0    0  501  0.00000000000E+00  0.00000000000E+00  0.12655652306E+04  0.12655652307E+04  0.50400001928E-02 0.  1.
        1   -1    0    0  501    0  0.00000000000E+00  0.00000000000E+00 -0.57115164603E+03  0.57115164605E+03  0.50400001928E-02 0. -1.
    10030    2    1    2    0    0  0.00000000000E+00  0.00000000000E+00  0.69441358462E+03  0.18367168767E+04  0.17003877966E+04 0.  0.
        1    1    3    3  502    0  0.83519329569E+03 -0.13473983624E+03  0.43839687656E+03  0.95283497314E+03  0.50400001928E-02 0.  1.
       -1    1    3    3    0  502 -0.83519329569E+03  0.13473983624E+03  0.25601670807E+03  0.88388190357E+03  0.50400001928E-02 0. -1.
</event>
<event>
 5   0  0.7461128E-06  0.1698862E+04  0.7818609E-02  0.8762014E-01
       -1   -1    0    0    0  501  0.00000000000E+00  0.00000000000E+00  0.83755188290E+03  0.83755188291E+03  0.50400001928E-02 0.  1.
        1   -1    0    0  501    0  0.00000000000E+00  0.00000000000E+00 -0.86147867191E+03  0.86147867193E+03  0.50400001928E-02 0. -1.
    10030    2    1    2    0    0  0.00000000000E+00  0.00000000000E+00 -0.23926789015E+02  0.16990305548E+04  0.16988620706E+04 0.  0.
        3    1    3    3  502    0 -0.40562635096E+03  0.58572180712E+03  0.45060847742E+03  0.84300105697E+03  0.10100000352E+00 0.  1.
       -3    1    3    3    0  502  0.40562635096E+03 -0.58572180712E+03 -0.47453526643E+03  0.85602949787E+03  0.10100000352E+00 0. -1.
</event>
<event>
 5   0  0.1435301E-05  0.1699247E+04  0.7818609E-02  0.8761794E-01
       -2   -1    0    0    0  501  0.00000000000E+00  0.00000000000E+00  0.45087352951E+03  0.45087352952E+03  0.25500000920E-02 0. -1.
        2   -1    0    0  501    0  0.00000000000E+00  0.00000000000E+00 -0.16010254525E+04  0.16010254525E+04  0.25500000920E-02 0.  1.
    10030    2    1    2    0    0  0.00000000000E+00  0.00000000000E+00 -0.11501519230E+04  0.20518989821E+04  0.16992468880E+04 0.  0.
        2    1    3    3  502    0 -0.63104249959E+03  0.56777071223E+03 -0.61830802983E+03  0.10501823831E+04  0.25500000920E-02 0.  1.
       -2    1    3    3    0  502  0.63104249959E+03 -0.56777071223E+03 -0.53184389319E+03  0.10017165990E+04  0.25500000920E-02 0. -1.
</event>
<event>
 5   0  0.1374441E-05  0.1699630E+04  0.7818609E-02  0.8761575E-01
       -2   -1    0    0    0  501  0.00000000000E+00  0.00000000000E+00  0.53255225280E+03  0.53255225280E+03  0.25500000920E-02 0.  1.
        2   -1    0    0  501    0  0.00000000000E+00  0.00000000000E+00 -0.13560846080E+04  0.13560846080E+04  0.25500000920E-02 0. -1.
    10030    2    1    2    0    0  0.00000000000E+00  0.00000000000E+00 -0.82353235516E+03  0.18886368608E+04  0.16996304457E+04 0.  0.
        1    1    3    3  502    0 -0.17563617549E+03  0.75311282410E+03 -0.80331229728E+03  0.11150505096E+04  0.50400001928E-02 0. -1.
       -1    1    3    3    0  502  0.17563617549E+03 -0.75311282410E+03 -0.20220057889E+02  0.77358635118E+03  0.50400001928E-02 0.  1.
</event>
<event>
 5   0  0.1441756E-05  0.1700262E+04  0.7818609E-02  0.8761215E-01
        2   -1    0    0  501    0  0.00000000000E+00  0.00000000000E+00  0.18830727595E+04  0.18830727595E+04  0.25500000920E-02 0. -1.
       -2   -1    0    0    0  501  0.00000000000E+00  0.00000000000E+00 -0.38379955926E+03  0.38379955927E+03  0.25500000920E-02 0.  1.
    10030    2    1    2    0    0  0.00000000000E+00  0.00000000000E+00  0.14992732002E+04  0.22668723188E+04  0.17002617389E+04 0.  0.
        5    1    3    3  502    0 -0.44883073378E+03 -0.57306442768E+02 -0.20990204258E+03  0.49881260354E+03  0.46999998093E+01 0.  1.
       -5    1    3    3    0  502  0.44883073378E+03  0.57306442768E+02  0.17091752428E+04  0.17680597152E+04  0.46999998093E+01 0. -1.
</event>
<event>
 5   0  0.7455669E-06  0.1697297E+04  0.7818609E-02  0.8762907E-01
       -1   -1    0    0    0  501  0.00000000000E+00  0.00000000000E+00  0.61430755831E+03  0.61430755833E+03  0.50400001928E-02 0.  1.
        1   -1    0    0  501    0  0.00000000000E+00  0.00000000000E+00 -0.11723845110E+04  0.11723845110E+04  0.50400001928E-02 0. -1.
    10030    2    1    2    0    0  0.00000000000E+00  0.00000000000E+00 -0.55807695268E+03  0.17866920693E+04  0.16972974593E+04 0.  0.
        4    1    3    3  502    0  0.73693029347E+03 -0.57304935574E+02 -0.71795584683E+03  0.10304427805E+04  0.12699999809E+01 0. -1.
       -4    1    3    3    0  502 -0.73693029347E+03  0.57304935574E+02  0.15987889416E+03  0.75624928877E+03  0.12699999809E+01 0.  1.
</event>
<event>
 5   0  0.7082527E-06  0.1699463E+04  0.7818609E-02  0.8761671E-01
        1   -1    0    0  501    0  0.00000000000E+00  0.00000000000E+00  0.92990464089E+03  0.92990464090E+03  0.50400001928E-02 0. -1.
       -1   -1    0    0    0  501  0.00000000000E+00  0.00000000000E+00 -0.77647083308E+03  0.77647083310E+03  0.50400001928E-02 0.  1.
    10030    2    1    2    0    0  0.00000000000E+00  0.00000000000E+00  0.15343380780E+03  0.17063754740E+04  0.16994632461E+04 0.  0.
        1    1    3    3  502    0 -0.53342133907E+03  0.13248151740E+03 -0.57395756202E+03  0.79468041404E+03  0.50400001928E-02 0.  1.
       -1    1    3    3    0  502  0.53342133907E+03 -0.13248151740E+03  0.72739136983E+03  0.91169505996E+03  0.50400001928E-02 0. -1.
</event>
<event>
 5   0  0.7461128E-06  0.1698959E+04  0.7818609E-02  0.8761958E-01
        1   -1    0    0  501    0  0.00000000000E+00  0.00000000000E+00  0.15766614228E+04  0.15766614228E+04  0.50400001928E-02 0.  1.
       -1   -1    0    0    0  501  0.00000000000E+00  0.00000000000E+00 -0.45768589335E+03  0.45768589338E+03  0.50400001928E-02 0. -1.
    10030    2    1    2    0    0  0.00000000000E+00  0.00000000000E+00  0.11189755294E+04  0.20343473161E+04  0.16989593189E+04 0.  0.
        3    1    3    3  502    0  0.35551395882E+03  0.64194118403E+03  0.10719126298E+04  0.12990286197E+04  0.10100000352E+00 0.  1.
       -3    1    3    3    0  502 -0.35551395882E+03 -0.64194118403E+03  0.47062899663E+02  0.73531869649E+03  0.10100000352E+00 0. -1.
</event>
<event>
 5   0  0.1423543E-05  0.1700181E+04  0.7818609E-02  0.8761261E-01
        2   -1    0    0  501    0  0.00000000000E+00  0.00000000000E+00  0.67298817404E+03  0.67298817405E+03  0.25500000920E-02 0. -1.
       -2   -1    0    0    0  501  0.00000000000E+00  0.00000000000E+00 -0.10737986882E+04  0.10737986882E+04  0.25500000920E-02 0.  1.
    10030    2    1    2    0    0  0.00000000000E+00  0.00000000000E+00 -0.40081051413E+03  0.17467868622E+04  0.17001809533E+04 0.  0.
        3    1    3    3  502    0 -0.16194137593E+03  0.48529522403E+00  0.65699391116E+03  0.67665815169E+03  0.10100000352E+00 0. -1.
       -3    1    3    3    0  502  0.16194137593E+03 -0.48529522403E+00 -0.10578044253E+04  0.10701287105E+04  0.10100000352E+00 0.  1.
</event>
<event>
 5   0  0.1435301E-05  0.1700118E+04  0.7818609E-02  0.8761297E-01
        2   -1    0    0  501    0  0.00000000000E+00  0.00000000000E+00  0.87780793390E+03  0.87780793390E+03  0.25500000920E-02 0. -1.
       -2   -1    0    0    0  501  0.00000000000E+00  0.00000000000E+00 -0.82318717909E+03  0.82318717910E+03  0.25500000920E-02 0.  1.
    10030    2    1    2    0    0  0.00000000000E+00  0.00000000000E+00  0.54620754803E+02  0.17009951130E+04  0.17001179217E+04 0.  0.
        2    1    3    3  502    0 -0.44102822598E+03  0.35429036225E+03  0.66212390061E+03  0.87088209113E+03  0.25500000920E-02 0. -1.
       -2    1    3    3    0  502  0.44102822598E+03 -0.35429036225E+03 -0.60750314581E+03  0.83011302186E+03  0.25500000920E-02 0.  1.
</event>
<event>
 5   0  0.7476457E-06  0.1697503E+04  0.7818609E-02  0.8762790E-01
        1   -1    0    0  501    0  0.00000000000E+00  0.00000000000E+00  0.10567130446E+04  0.10567130447E+04  0.50400001928E-02 0.  1.
       -1   -1    0    0    0  501  0.00000000000E+00  0.00000000000E+00 -0.68171712988E+03  0.68171712989E+03  0.50400001928E-02 0. -1.
    10030    2    1    2    0    0  0.00000000000E+00  0.00000000000E+00  0.37499591477E+03  0.17384301746E+04  0.16975033242E+04 0.  0.
        2    1    3    3  502    0 -0.19561028816E+03  0.46922500524E+03  0.88354923253E+03  0.10193599642E+04  0.25500000920E-02 0.  1.
       -2    1    3    3    0  502  0.19561028816E+03 -0.46922500524E+03 -0.50855331775E+03  0.71907021032E+03  0.25500000920E-02 0. -1.
</event>
<event>
 5   0  0.7476457E-06  0.1699694E+04  0.7818609E-02  0.8761539E-01
        1   -1    0    0  501    0  0.00000000000E+00  0.00000000000E+00  0.15167132754E+04  0.15167132754E+04  0.50400001928E-02 0.  1.
       -1   -1    0    0    0  501  0.00000000000E+00  0.00000000000E+00 -0.47618757995E+03  0.47618757997E+03  0.50400001928E-02 0. -1.
    10030    2    1    2    0    0  0.00000000000E+00  0.00000000000E+00  0.10405256954E+04  0.19929008553E+04  0.16996941185E+04 0.  0.
        2    1    3    3  502    0 -0.75390327174E+02 -0.44123761589E+03  0.13672840745E+04  0.14386938783E+04  0.25500000920E-02 0.  1.
       -2    1    3    3    0  502  0.75390327174E+02  0.44123761589E+03 -0.32675837907E+03  0.55420697705E+03  0.25500000920E-02 0. -1.
</event>
<event>
 5   0  0.1374441E-05  0.1699870E+04  0.7818609E-02  0.8761439E-01
       -2   -1    0    0    0  501  0.00000000000E+00  0.00000000000E+00  0.31159447796E+03  0.31159447797E+03  0.25500000920E-02 0. -1.
        2   -1    0    0  501    0  0.00000000000E+00  0.00000000000E+00 -0.23183632498E+04  0.23183632498E+04  0.25500000920E-02 0.  1.
    10030    2    1    2    0    0  0.00000000000E+00  0.00000000000E+00 -0.20067687719E+04  0.26299577278E+04  0.16998696262E+04 0.  0.
        1    1    3    3  502    0 -0.43629678384E+03  0.25809290248E+02 -0.21311813665E+04  0.21755355708E+04  0.50400001928E-02 0.  1.
       -1    1    3    3    0  502  0.43629678384E+03 -0.25809290248E+02  0.12441259459E+03  0.45442215699E+03  0.50400001928E-02 0. -1.
</event>
<event>
 5   0  0.7461128E-06  0.1698028E+04  0.7818609E-02  0.8762490E-01
       -1   -1    0    0    0  501  0.00000000000E+00  0.00000000000E+00  0.54899767840E+03  0.54899767842E+03  0.50400001928E-02 0.  1.
        1   -1    0    0  501    0  0.00000000000E+00  0.00000000000E+00 -0.13129832031E+04  0.13129832031E+04  0.50400001928E-02 0. -1.
    10030    2    1    2    0    0  0.00000000000E+00  0.00000000000E+00 -0.76398552468E+03  0.18619808815E+04  0.16980279506E+04 0.  0.
        3    1    3    3  502    0 -0.17386341957E+03 -0.81736736439E+03 -0.54650093602E+03  0.99848944927E+03  0.10100000352E+00 0. -1.
       -3    1    3    3    0  502  0.17386341957E+03  0.81736736439E+03 -0.21748458866E+03  0.86349143223E+03  0.10100000352E+00 0.  1.
</event>
<event>
 5   0  0.1374441E-05  0.1700910E+04  0.7818609E-02  0.8760846E-01
       -2   -1    0    0    0  501  0.00000000000E+00  0.00000000000E+00  0.26839672426E+03  0.26839672427E+03  0.25500000920E-02 0.  1.
        2   -1    0    0  501    0  0.00000000000E+00  0.00000000000E+00 -0.26947918620E+04  0.26947918620E+04  0.25500000920E-02 0. -1.
    10030    2    1    2    0    0  0.00000000000E+00  0.00000000000E+00 -0.24263951378E+04  0.29631885863E+04  0.17009095312E+04 0.  0.
        1    1    3    3  502    0 -0.12659033377E+03 -0.54630811872E+03 -0.99336044867E+02  0.56951323340E+03  0.50400001928E-02 0.  1.
       -1    1    3    3    0  502  0.12659033377E+03  0.54630811872E+03 -0.23270590929E+04  0.23936753529E+04  0.50400001928E-02 0. -1.
</event>
<event>
 5   0  0.7476457E-06  0.1705529E+04  0.7818609E-02  0.8758217E-01
        1   -1    0    0  501    0  0.00000000000E+00  0.00000000000E+00  0.10749762805E+04  0.10749762805E+04  0.50400001928E-02 0.  1.
       -1   -1    0    0    0  501  0.00000000000E+00  0.00000000000E+00 -0.67648717506E+03  0.67648717508E+03  0.50400001928E-02 0. -1.
    10030    2    1    2    0    0  0.00000000000E+00  0.00000000000E+00  0.39848910547E+03  0.17514634556E+04  0.17055294396E+04 0.  0.
        2    1    3    3  502    0  0.14207204061E+03 -0.35027365271E+03  0.98424794883E+03  0.10543339705E+04  0.25500000920E-02 0.  1.
       -2    1    3    3    0  502 -0.14207204061E+03  0.35027365271E+03 -0.58575884335E+03  0.69712948516E+03  0.25500000920E-02 0. -1.
</event>
<event>
 5   0  0.7455669E-06  0.1700092E+04  0.7818609E-02  0.8761312E-01
       -1   -1    0    0    0  501  0.00000000000E+00  0.00000000000E+00  0.78750116406E+03  0.78750116407E+03  0.50400001928E-02 0. -1.
        1   -1    0    0  501    0  0.00000000000E+00  0.00000000000E+00 -0.91755795550E+03  0.91755795552E+03  0.50400001928E-02 0.  1.
    10030    2    1    2    0    0  0.00000000000E+00  0.00000000000E+00 -0.13005679145E+03  0.17050591196E+04  0.17000917129E+04 0.  0.
        4    1    3    3  502    0  0.50015568582E+02 -0.62389482254E+03  0.51183045347E+03  0.80852849838E+03  0.12699999809E+01 0. -1.
       -4    1    3    3    0  502 -0.50015568582E+02  0.62389482254E+03 -0.64188724491E+03  0.89653062121E+03  0.12699999809E+01 0.  1.
</event>
<event>
 5   0  0.1419012E-05  0.1700377E+04  0.7818609E-02  0.8761150E-01
        2   -1    0    0  501    0  0.00000000000E+00  0.00000000000E+00  0.12111867305E+04  0.12111867305E+04  0.25500000920E-02 0.  1.
       -2   -1    0    0    0  501  0.00000000000E+00  0.00000000000E+00 -0.59678672894E+03  0.59678672895E+03  0.25500000920E-02 0. -1.
    10030    2    1    2    0    0  0.00000000000E+00  0.00000000000E+00  0.61440000158E+03  0.18079734595E+04  0.17003766254E+04 0.  0.
        4    1    3    3  502    0  0.32117051023E+03  0.39026671831E+03  0.10340966543E+04  0.11510065644E+04  0.12699999809E+01 0.  1.
       -4    1    3    3    0  502 -0.32117051023E+03 -0.39026671831E+03 -0.41969665267E+03  0.65696689507E+03  0.12699999809E+01 0. -1.
</event>
<event>
 5   0  0.1435301E-05  0.1702265E+04  0.7818609E-02  0.8760074E-01
        2   -1    0    0  501    0  0.00000000000E+00  0.00000000000E+00  0.62829883664E+03  0.62829883665E+03  0.25500000920E-02 0.  1.
       -2   -1    0    0    0  501  0.00000000000E+00  0.00000000000E+00 -0.11529964349E+04  0.11529964349E+04  0.25500000920E-02 0. -1.
    10030    2    1    2    0    0  0.00000000000E+00  0.00000000000E+00 -0.52469759824E+03  0.17812952715E+04  0.17022647487E+04 0.  0.
        2    1    3    3  502    0 -0.15124854642E+03  0.28135144905E+03  0.56319601966E+03  0.64747549548E+03  0.25500000920E-02 0.  1.
       -2    1    3    3    0  502  0.15124854642E+03 -0.28135144905E+03 -0.10878936179E+04  0.11338197760E+04  0.25500000920E-02 0. -1.
</event>
<event>
 5   0  0.7583716E-06  0.1700764E+04  0.7818609E-02  0.8760929E-01
       -1   -1    0    0    0  501  0.00000000000E+00  0.00000000000E+00  0.53246545500E+03  0.53246545502E+03  0.50400001928E-02 0. -1.
        1   -1    0    0  501    0  0.00000000000E+00  0.00000000000E+00 -0.13581147122E+04  0.13581147122E+04  0.50400001928E-02 0.  1.
    10030    2    1    2    0    0  0.00000000000E+00  0.00000000000E+00 -0.82564925722E+03  0.18905801672E+04  0.17007635558E+04 0.  0.
        5    1    3    3  502    0  0.50745218464E+03 -0.34383941233E+03  0.24235773556E+03  0.65916054429E+03  0.46999998093E+01 0. -1.
       -5    1    3    3    0  502 -0.50745218464E+03  0.34383941233E+03 -0.10680069928E+04  0.12314196230E+04  0.46999998093E+01 0.  1.
</event>
<event>
 5   0  0.1441756E-05  0.1699719E+04  0.7818609E-02  0.8761525E-01
       -2   -1    0    0    0  501  0.00000000000E+00  0.00000000000E+00  0.59239487900E+03  0.59239487901E+03  0.25500000920E-02 0. -1.
        2   -1    0    0  501    0  0.00000000000E+00  0.00000000000E+00 -0.12192221522E+04  0.12192221522E+04  0.25500000920E-02 0.  1.
    10030    2    1    2    0    0  0.00000000000E+00  0.00000000000E+00 -0.62682727321E+03  0.18116170312E+04  0.16997187524E+04 0.  0.
        5    1    3    3  502    0 -0.33636764023E+02  0.55188137951E+03 -0.10012969203E+04  0.11438190861E+04  0.46999998093E+01 0.  1.
       -5    1    3    3    0  502  0.33636764023E+02 -0.55188137951E+03  0.37446964713E+03  0.66779794516E+03  0.46999998093E+01 0. -1.
</event>
<event>
 5   0  0.1435301E-05  0.1700224E+04  0.7818609E-02  0.8761236E-01
       -2   -1    0    0    0  501  0.00000000000E+00  0.00000000000E+00  0.54753548381E+03  0.54753548382E+03  0.25500000920E-02 0. -1.
        2   -1    0    0  501    0  0.00000000000E+00  0.00000000000E+00 -0.13198975172E+04  0.13198975172E+04  0.25500000920E-02 0.  1.
    10030    2    1    2    0    0  0.00000000000E+00  0.00000000000E+00 -0.77236203335E+03  0.18674330010E+04  0.17002243683E+04 0.  0.
        2    1    3    3  502    0 -0.23039762220E+02  0.78691711166E+02  0.54318213737E+03  0.54933600866E+03  0.25500000920E-02 0. -1.
       -2    1    3    3    0  502  0.23039762220E+02 -0.78691711166E+02 -0.13155441707E+04  0.13180969923E+04  0.25500000920E-02 0.  1.
</event>
<event>
 5   0  0.5229750E-06  0.1700038E+04  0.7818609E-02  0.8761342E-01
        4   -1    0    0  501    0  0.00000000000E+00  0.00000000000E+00  0.10687146975E+04  0.10687154521E+04  0.12699999809E+01 0. -1.
       -4   -1    0    0    0  501  0.00000000000E+00  0.00000000000E+00 -0.67607465694E+03  0.67607584978E+03  0.12699999809E+01 0.  1.
    10030    2    1    2    0    0  0.00000000000E+00  0.00000000000E+00  0.39264004053E+03  0.17447913019E+04  0.17000383777E+04 0.  0.
        2    1    3    3  502    0 -0.10919151400E+03  0.81906175488E+03  0.40093651216E+03  0.91844163223E+03  0.25500000920E-02 0.  1.
       -2    1    3    3    0  502  0.10919151400E+03 -0.81906175488E+03 -0.82964716289E+01  0.82634966962E+03  0.25500000920E-02 0. -1.
</event>
<event>
 5   0  0.7461128E-06  0.1699017E+04  0.7818609E-02  0.8761925E-01
       -1   -1    0    0    0  501  0.00000000000E+00  0.00000000000E+00  0.44352484263E+03  0.44352484266E+03  0.50400001928E-02 0.  1.
        1   -1    0    0  501    0  0.00000000000E+00  0.00000000000E+00 -0.16271118130E+04  0.16271118130E+04  0.50400001928E-02 0. -1.
    10030    2    1    2    0    0  0.00000000000E+00  0.00000000000E+00 -0.11835869703E+04  0.20706366556E+04  0.16990167872E+04 0.  0.
        3    1    3    3  502    0  0.21595309091E+03 -0.56973975753E+03  0.12965279641E+03  0.62293578048E+03  0.10100000352E+00 0.  1.
       -3    1    3    3    0  502 -0.21595309091E+03  0.56973975753E+03 -0.13132397667E+04  0.14477008752E+04  0.10100000352E+00 0. -1.
</event>
<event>
 5   0  0.1374441E-05  0.1700086E+04  0.7818609E-02  0.8761315E-01
       -2   -1    0    0    0  501  0.00000000000E+00  0.00000000000E+00  0.76536620075E+03  0.76536620075E+03  0.25500000920E-02 0. -1.
        2   -1    0    0  501    0  0.00000000000E+00  0.00000000000E+00 -0.94408819461E+03  0.94408819461E+03  0.25500000920E-02 0.  1.
    10030    2    1    2    0    0  0.00000000000E+00  0.00000000000E+00 -0.17872199386E+03  0.17094543954E+04  0.17000861092E+04 0.  0.
        1    1    3    3  502    0  0.57044962974E+03  0.19005734943E+03 -0.69353694143E+03  0.91789327555E+03  0.50400001928E-02 0.  1.
       -1    1    3    3    0  502 -0.57044962974E+03 -0.19005734943E+03  0.51481494757E+03  0.79156111982E+03  0.50400001928E-02 0. -1.
</event>
<event>
 5   0  0.7461128E-06  0.1701521E+04  0.7818609E-02  0.8760497E-01
       -1   -1    0    0    0  501  0.00000000000E+00  0.00000000000E+00  0.87916755681E+03  0.87916755683E+03  0.50400001928E-02 0.  1.
        1   -1    0    0  501    0  0.00000000000E+00  0.00000000000E+00 -0.82327136536E+03  0.82327136538E+03  0.50400001928E-02 0. -1.
    10030    2    1    2    0    0  0.00000000000E+00  0.00000000000E+00  0.55896191451E+02  0.17024389222E+04  0.17015210547E+04 0.  0.
        3    1    3    3  502    0 -0.28533933324E+03  0.26262880378E+03  0.78558906486E+03  0.87609509341E+03  0.10100000352E+00 0.  1.
       -3    1    3    3    0  502  0.28533933324E+03 -0.26262880378E+03 -0.72969287341E+03  0.82634382879E+03  0.10100000352E+00 0. -1.
</event>
<event>
 5   0  0.1435301E-05  0.1698778E+04  0.7818609E-02  0.8762062E-01
       -2   -1    0    0    0  501  0.00000000000E+00  0.00000000000E+00  0.51598713759E+03  0.51598713759E+03  0.25500000920E-02 0.  1.
        2   -1    0    0  501    0  0.00000000000E+00  0.00000000000E+00 -0.13982166360E+04  0.13982166360E+04  0.25500000920E-02 0. -1.
    10030    2    1    2    0    0  0.00000000000E+00  0.00000000000E+00 -0.88222949837E+03  0.19142037736E+04  0.16987781488E+04 0.  0.
        2    1    3    3  502    0 -0.57075009318E+03  0.59877225306E+02 -0.11467194557E+04  0.12823051357E+04  0.25500000920E-02 0. -1.
       -2    1    3    3    0  502  0.57075009318E+03 -0.59877225306E+02  0.26448995733E+03  0.63189863784E+03  0.25500000920E-02 0.  1.
</event>
<event>
 5   0  0.1423543E-05  0.1699708E+04  0.7818609E-02  0.8761531E-01
       -2   -1    0    0    0  501  0.00000000000E+00  0.00000000000E+00  0.66632510797E+03  0.66632510797E+03  0.25500000920E-02 0. -1.
        2   -1    0    0  501    0  0.00000000000E+00  0.00000000000E+00 -0.10839334733E+04  0.10839334733E+04  0.25500000920E-02 0.  1.
    10030    2    1    2    0    0  0.00000000000E+00  0.00000000000E+00 -0.41760836529E+03  0.17502585812E+04  0.16997083145E+04 0.  0.
        3    1    3    3  502    0 -0.55672017790E+02 -0.11552742541E+03  0.65630421203E+03  0.66871607467E+03  0.10100000352E+00 0. -1.
       -3    1    3    3    0  502  0.55672017790E+02  0.11552742541E+03 -0.10739125773E+04  0.10815425066E+04  0.10100000352E+00 0.  1.
</event>
<event>
 5   0  0.1374441E-05  0.1694306E+04  0.7818609E-02  0.8764619E-01
        2   -1    0    0  501    0  0.00000000000E+00  0.00000000000E+00  0.46697446110E+03  0.46697446111E+03  0.25500000920E-02 0.  1.
       -2   -1    0    0    0  501  0.00000000000E+00  0.00000000000E+00 -0.15368460527E+04  0.15368460527E+04  0.25500000920E-02 0. -1.
    10030    2    1    2    0    0  0.00000000000E+00  0.00000000000E+00 -0.10698715916E+04  0.20038205138E+04  0.16943055890E+04 0.  0.
        1    1    3    3  502    0 -0.61157678829E+03  0.17669675083E+03 -0.11959890574E+04  0.13548570904E+04  0.50400001928E-02 0. -1.
       -1    1    3    3    0  502  0.61157678829E+03 -0.17669675083E+03  0.12611746587E+03  0.64896342343E+03  0.50400001928E-02 0.  1.
</event>
<event>
 5   0  0.1441756E-05  0.1700166E+04  0.7818609E-02  0.8761270E-01
        2   -1    0    0  501    0  0.00000000000E+00  0.00000000000E+00  0.19086558250E+04  0.19086558250E+04  0.25500000920E-02 0. -1.
       -2   -1    0    0    0  501  0.00000000000E+00  0.00000000000E+00 -0.37861270068E+03  0.37861270069E+03  0.25500000920E-02 0.  1.
    10030    2    1    2    0    0  0.00000000000E+00  0.00000000000E+00  0.15300431243E+04  0.22872685257E+04  0.17001662702E+04 0.  0.
        5    1    3    3  502    0 -0.76539797273E+03  0.33722046236E+03  0.96934890642E+03  0.12803167925E+04  0.46999998093E+01 0. -1.
       -5    1    3    3    0  502  0.76539797273E+03 -0.33722046236E+03  0.56069421788E+03  0.10069517331E+04  0.46999998093E+01 0.  1.
</event>
<event>
 5   0  0.7455669E-06  0.1700080E+04  0.7818609E-02  0.8761319E-01
        1   -1    0    0  501    0  0.00000000000E+00  0.00000000000E+00  0.24766392944E+04  0.24766392945E+04  0.50400001928E-02 0.  1.
       -1   -1    0    0    0  501  0.00000000000E+00  0.00000000000E+00 -0.29175343523E+03  0.29175343528E+03  0.50400001928E-02 0. -1.
    10030    2    1    2    0    0  0.00000000000E+00  0.00000000000E+00  0.21848858592E+04  0.27683927297E+04  0.17000800241E+04 0.  0.
        4    1    3    3  502    0  0.12636957418E+03 -0.35972885307E+03 -0.14469635263E+03  0.40781462010E+03  0.12699999809E+01 0. -1.
       -4    1    3    3    0  502 -0.12636957418E+03  0.35972885307E+03  0.23295822118E+04  0.23605781096E+04  0.12699999809E+01 0.  1.
</event>
<event>
 5   0  0.7583716E-06  0.1700075E+04  0.7818609E-02  0.8761321E-01
        1   -1    0    0  501    0  0.00000000000E+00  0.00000000000E+00  0.15001688898E+04  0.15001688898E+04  0.50400001928E-02 0.  1.
       -1   -1    0    0    0  501  0.00000000000E+00  0.00000000000E+00 -0.48165513332E+03  0.48165513335E+03  0.50400001928E-02 0. -1.
    10030    2    1    2    0    0  0.00000000000E+00  0.00000000000E+00  0.10185137565E+04  0.19818240232E+04  0.17000753473E+04 0.  0.
        5    1    3    3  502    0  0.79409235220E+03 -0.30316041122E+03  0.50076562174E+03  0.98654812182E+03  0.46999998093E+01 0. -1.
       -5    1    3    3    0  502 -0.79409235220E+03  0.30316041122E+03  0.51774813473E+03  0.99527590133E+03  0.46999998093E+01 0.  1.
</event>
<event>
 5   0  0.1419012E-05  0.1702675E+04  0.7818609E-02  0.8759840E-01
        2   -1    0    0  501    0  0.00000000000E+00  0.00000000000E+00  0.15041492066E+04  0.15041492066E+04  0.25500000920E-02 0. -1.
       -2   -1    0    0    0  501  0.00000000000E+00  0.00000000000E+00 -0.48185068420E+03  0.48185068421E+03  0.25500000920E-02 0.  1.
    10030    2    1    2    0    0  0.00000000000E+00  0.00000000000E+00  0.10222985224E+04  0.19859998908E+04  0.17026747480E+04 0.  0.
        4    1    3    3  502    0  0.91787762011E+00 -0.32792891906E+03  0.14275237090E+04  0.14647060358E+04  0.12699999809E+01 0. -1.
       -4    1    3    3    0  502 -0.91787762011E+00  0.32792891906E+03 -0.40522518667E+03  0.52129385501E+03  0.12699999809E+01 0.  1.
</event>
<event>
 5   0  0.7455669E-06  0.1700338E+04  0.7818609E-02  0.8761172E-01
        1   -1    0    0  501    0  0.00000000000E+00  0.00000000000E+00  0.11400239856E+04  0.11400239857E+04  0.50400001928E-02 0. -1.
       -1   -1    0    0    0  501  0.00000000000E+00  0.00000000000E+00 -0.63401076967E+03  0.63401076969E+03  0.50400001928E-02 0.  1.
    10030    2    1    2    0    0  0.00000000000E+00  0.00000000000E+00  0.50601321598E+03  0.17740347554E+04  0.17003381836E+04 0.  0.
        4    1    3    3  502    0  0.45986616133E+03  0.70769732099E+03  0.35978231859E+03  0.91747333157E+03  0.12699999809E+01 0. -1.
       -4    1    3    3    0  502 -0.45986616133E+03 -0.70769732099E+03  0.14623089739E+03  0.85656142379E+03  0.12699999809E+01 0.  1.
</event>
<event>
 5   0  0.7082527E-06  0.1702001E+04  0.7818609E-02  0.8760224E-01
       -1   -1    0    0    0  501  0.00000000000E+00  0.00000000000E+00  0.69004759978E+03  0.69004759980E+03  0.50400001928E-02 0.  1.
        1   -1    0    0  501    0  0.00000000000E+00  0.00000000000E+00 -0.10494958919E+04  0.10494958920E+04  0.50400001928E-02 0. -1.
    10030    2    1    2    0    0  0.00000000000E+00  0.00000000000E+00 -0.35944829216E+03  0.17395434918E+04  0.17020013176E+04 0.  0.
        1    1    3    3  502    0  0.12519606256E+02  0.18085801924E+03  0.67008208181E+03  0.69417314847E+03  0.50400001928E-02 0.  1.
       -1    1    3    3    0  502 -0.12519606256E+02 -0.18085801924E+03 -0.10295303740E+04  0.10453703433E+04  0.50400001928E-02 0. -1.
</event>
<event>
 5   0  0.1374441E-05  0.1700733E+04  0.7818609E-02  0.8760946E-01
       -2   -1    0    0    0  501  0.00000000000E+00  0.00000000000E+00  0.30302613861E+03  0.30302613862E+03  0.25500000920E-02 0.  1.
        2   -1    0    0  501    0  0.00000000000E+00  0.00000000000E+00 -0.23863391087E+04  0.23863391087E+04  0.25500000920E-02 0. -1.
    10030    2    1    2    0    0  0.00000000000E+00  0.00000000000E+00 -0.20833129701E+04  0.26893652473E+04  0.17007329309E+04 0.  0.
        1    1    3    3  502    0  0.82168402848E+03 -0.21184303703E+03 -0.11294293467E+04  0.14126757463E+04  0.50400001928E-02 0.  1.
       -1    1    3    3    0  502 -0.82168402848E+03  0.21184303703E+03 -0.95388362339E+03  0.12766895010E+04  0.50400001928E-02 0. -1.
</event>
<event>
 5   0  0.7583716E-06  0.1699870E+04  0.7818609E-02  0.8761439E-01
        1   -1    0    0  501    0  0.00000000000E+00  0.00000000000E+00  0.63631991086E+03  0.63631991088E+03  0.50400001928E-02 0.  1.
       -1   -1    0    0    0  501  0.00000000000E+00  0.00000000000E+00 -0.11352611219E+04  0.11352611219E+04  0.50400001928E-02 0. -1.
    10030    2    1    2    0    0  0.00000000000E+00  0.00000000000E+00 -0.49894121102E+03  0.17715810328E+04  0.16998697078E+04 0.  0.
        5    1    3    3  502    0 -0.45828423915E+03 -0.70295453402E+03 -0.39006013691E+03  0.92538560674E+03  0.46999998093E+01 0. -1.
       -5    1    3    3    0  502  0.45828423915E+03  0.70295453402E+03 -0.10888107412E+03  0.84619542604E+03  0.46999998093E+01 0.  1.
</event>
<event>
 5   0  0.1419012E-05  0.1701392E+04  0.7818609E-02  0.8760571E-01
        2   -1    0    0  501    0  0.00000000000E+00  0.00000000000E+00  0.10238831453E+04  0.10238831453E+04  0.25500000920E-02 0. -1.
       -2   -1    0    0    0  501  0.00000000000E+00  0.00000000000E+00 -0.70680263304E+03  0.70680263304E+03  0.25500000920E-02 0.  1.
    10030    2    1    2    0    0  0.00000000000E+00  0.00000000000E+00  0.31708051229E+03  0.17306857784E+04  0.17013915517E+04 0.  0.
        4    1    3    3  502    0 -0.37075904943E+03  0.28916414011E+03  0.87969209428E+03  0.99746577200E+03  0.12699999809E+01 0. -1.
       -4    1    3    3    0  502  0.37075904943E+03 -0.28916414011E+03 -0.56261158199E+03  0.73322000638E+03  0.12699999809E+01 0.  1.
</event>
<event>
 5   0  0.1374441E-05  0.1699997E+04  0.7818609E-02  0.8761366E-01
       -2   -1    0    0    0  501  0.00000000000E+00  0.00000000000E+00  0.10304162248E+04  0.10304162248E+04  0.25500000920E-02 0.  1.
        2   -1    0    0  501    0  0.00000000000E+00  0.00000000000E+00 -0.70117077609E+03  0.70117077610E+03  0.25500000920E-02 0. -1.
    10030    2    1    2    0    0  0.00000000000E+00  0.00000000000E+00  0.32924544874E+03  0.17315870009E+04  0.16999973460E+04 0.  0.
        1    1    3    3  502    0 -0.84201421160E+03  0.13771082826E+02  0.28218038562E+03  0.88814601577E+03  0.50400001928E-02 0.  1.
       -1    1    3    3    0  502  0.84201421160E+03 -0.13771082826E+02  0.47065063114E+02  0.84344098517E+03  0.50400001928E-02 0. -1.
</event>
<event>
 5   0  0.1423543E-05  0.1700466E+04  0.7818609E-02  0.8761099E-01
       -2   -1    0    0    0  501  0.00000000000E+00  0.00000000000E+00  0.14085379329E+04  0.14085379330E+04  0.25500000920E-02 0.  1.
        2   -1    0    0  501    0  0.00000000000E+00  0.00000000000E+00 -0.51322430577E+03  0.51322430578E+03  0.25500000920E-02 0. -1.
    10030    2    1    2    0    0  0.00000000000E+00  0.00000000000E+00  0.89531362717E+03  0.19217622387E+04  0.17004657042E+04 0.  0.
        3    1    3    3  502    0  0.77809530935E+02 -0.42188054964E+03 -0.38194385870E+03  0.57438544782E+03  0.10100000352E+00 0. -1.
       -3    1    3    3    0  502 -0.77809530935E+02  0.42188054964E+03  0.12772574859E+04  0.13473767909E+04  0.10100000352E+00 0.  1.
</event>
<event>
 5   0  0.1435301E-05  0.1701833E+04  0.7818609E-02  0.8760320E-01
        2   -1    0    0  501    0  0.00000000000E+00  0.00000000000E+00  0.17829290616E+04  0.17829290616E+04  0.25500000920E-02 0. -1.
       -2   -1    0    0    0  501  0.00000000000E+00  0.00000000000E+00 -0.40610644574E+03  0.40610644575E+03  0.25500000920E-02 0.  1.
    10030    2    1    2    0    0  0.00000000000E+00  0.00000000000E+00  0.13768226158E+04  0.21890355073E+04  0.17018331108E+04 0.  0.
        2    1    3    3  502    0 -0.36157309665E+03  0.67043102321E+03  0.20056287101E+03  0.78767907573E+03  0.25500000920E-02 0.  1.
       -2    1    3    3    0  502  0.36157309665E+03 -0.67043102321E+03  0.11762597448E+04  0.14013564316E+04  0.25500000920E-02 0. -1.
</event>
<event>
 5   0  0.1374441E-05  0.1699363E+04  0.7818609E-02  0.8761728E-01
        2   -1    0    0  501    0  0.00000000000E+00  0.00000000000E+00  0.22000112275E+04  0.22000112275E+04  0.25500000920E-02 0.  1.
       -2   -1    0    0    0  501  0.00000000000E+00  0.00000000000E+00 -0.32816149210E+03  0.32816149211E+03  0.25500000920E-02 0. -1.
    10030    2    1    2    0    0  0.00000000000E+00  0.00000000000E+00  0.18718497354E+04  0.25281727196E+04  0.16993633715E+04 0.  0.
        1    1    3    3  502    0 -0.57949751667E+03 -0.62066281960E+03  0.89081832191E+03  0.12306896401E+04  0.50400001928E-02 0. -1.
       -1    1    3    3    0  502  0.57949751667E+03  0.62066281960E+03  0.98103141347E+03  0.12974830795E+04  0.50400001928E-02 0.  1.
</event>
<event>
 5   0  0.1441756E-05  0.1699875E+04  0.7818609E-02  0.8761436E-01
       -2   -1    0    0    0  501  0.00000000000E+00  0.00000000000E+00  0.86562455483E+03  0.86562455483E+03  0.25500000920E-02 0. -1.
        2   -1    0    0  501    0  0.00000000000E+00  0.00000000000E+00 -0.83453488132E+03  0.83453488132E+03  0.25500000920E-02 0.  1.
    10030    2    1    2    0    0  0.00000000000E+00  0.00000000000E+00  0.31089673510E+02  0.17001594362E+04  0.16998751544E+04 0.  0.
        5    1    3    3  502    0  0.20214853245E+03  0.38798628349E+03  0.74434660789E+03  0.86340682648E+03  0.46999998093E+01 0. -1.
       -5    1    3    3    0  502 -0.20214853245E+03 -0.38798628349E+03 -0.71325693438E+03  0.83675260967E+03  0.46999998093E+01 0.  1.
</event>
<event>
 5   0  0.1435301E-05  0.1700195E+04  0.7818609E-02  0.8761253E-01
        2   -1    0    0  501    0  0.00000000000E+00  0.00000000000E+00  0.11103016194E+04  0.11103016195E+04  0.25500000920E-02 0.  1.
       -2   -1    0    0    0  501  0.00000000000E+00  0.00000000000E+00 -0.65087354217E+03  0.65087354217E+03  0.25500000920E-02 0. -1.
    10030    2    1    2    0    0  0.00000000000E+00  0.00000000000E+00  0.45942807728E+03  0.17611751616E+04  0.17001952216E+04 0.  0.
        2    1    3    3  502    0 -0.65573668729E+02  0.71562381454E+03  0.70014864610E+03  0.10033072693E+04  0.25500000920E-02 0.  1.
       -2    1    3    3    0  502  0.65573668729E+02 -0.71562381454E+03 -0.24072056881E+03  0.75786789233E+03  0.25500000920E-02 0. -1.
</event>
<event>
 5   0  0.7461128E-06  0.1699800E+04  0.7818609E-02  0.8761479E-01
       -1   -1    0    0    0  501  0.00000000000E+00  0.00000000000E+00  0.80814862559E+03  0.80814862561E+03  0.50400001928E-02 0.  1.
        1   -1    0    0  501    0  0.00000000000E+00  0.00000000000E+00 -0.89380818211E+03  0.89380818212E+03  0.50400001928E-02 0. -1.
    10030    2    1    2    0    0  0.00000000000E+00  0.00000000000E+00 -0.85659556515E+02  0.17019568077E+04  0.16997998164E+04 0.  0.
        3    1    3    3  502    0  0.50873488850E+03 -0.67103122948E+03 -0.15802248118E+03  0.85677605737E+03  0.10100000352E+00 0.  1.
       -3    1    3    3    0  502 -0.50873488850E+03  0.67103122948E+03  0.72362924668E+02  0.84518075036E+03  0.10100000352E+00 0. -1.
</event>
<event>
 5   0  0.7082527E-06  0.1697888E+04  0.7818609E-02  0.8762570E-01
        1   -1    0    0  501    0  0.00000000000E+00  0.00000000000E+00  0.21565822606E+04  0.21565822606E+04  0.50400001928E-02 0.  1.
       -1   -1    0    0    0  501  0.00000000000E+00  0.00000000000E+00 -0.33418889436E+03  0.33418889439E+03  0.50400001928E-02 0. -1.
    10030    2    1    2    0    0  0.00000000000E+00  0.00000000000E+00  0.18223933662E+04  0.24907711550E+04  0.16978879130E+04 0.  0.
        1    1    3    3  502    0  0.59724749782E+02 -0.61301517212E+03  0.17682848995E+04  0.18724812770E+04  0.50400001928E-02 0.  1.
       -1    1    3    3    0  502 -0.59724749782E+02  0.61301517212E+03  0.54108466729E+02  0.61828987796E+03  0.50400001928E-02 0. -1.
</event>
<event>
 5   0  0.1435301E-05  0.1700748E+04  0.7818609E-02  0.8760938E-01
       -2   -1    0    0    0  501  0.00000000000E+00  0.00000000000E+00  0.93888708553E+03  0.93888708554E+03  0.25500000920E-02 0. -1.
        2   -1    0    0  501    0  0.00000000000E+00  0.00000000000E+00 -0.77020537167E+03  0.77020537168E+03  0.25500000920E-02 0.  1.
    10030    2    1    2    0    0  0.00000000000E+00  0.00000000000E+00  0.16868171386E+03  0.17090924572E+04  0.17007479257E+04 0.  0.
        2    1    3    3  502    0 -0.16046854256E+03 -0.64305141827E+03  0.61975003677E+03  0.90738932536E+03  0.25500000920E-02 0. -1.
       -2    1    3    3    0  502  0.16046854256E+03  0.64305141827E+03 -0.45106832291E+03  0.80170313186E+03  0.25500000920E-02 0.  1.
</event>
<event>
 5   0  0.1441756E-05  0.1699860E+04  0.7818609E-02  0.8761444E-01
       -2   -1    0    0    0  501  0.00000000000E+00  0.00000000000E+00  0.69068533896E+03  0.69068533896E+03  0.25500000920E-02 0.  1.
        2   -1    0    0  501    0  0.00000000000E+00  0.00000000000E+00 -0.10458904077E+04  0.10458904077E+04  0.25500000920E-02 0. -1.
    10030    2    1    2    0    0  0.00000000000E+00  0.00000000000E+00 -0.35520506872E+03  0.17365757466E+04  0.16998601951E+04 0.  0.
        5    1    3    3  502    0 -0.21120798589E+03 -0.79693502052E+03 -0.38856916859E+03  0.91143970125E+03  0.46999998093E+01 0. -1.
       -5    1    3    3    0  502  0.21120798589E+03  0.79693502052E+03  0.33364099870E+02  0.82513604539E+03  0.46999998093E+01 0.  1.
</event>
<event>
 5   0  0.1441756E-05  0.1699232E+04  0.7818609E-02  0.8761803E-01
        2   -1    0    0  501    0  0.00000000000E+00  0.00000000000E+00  0.71614037055E+03  0.71614037056E+03  0.25500000920E-02 0.  1.
       -2   -1    0    0    0  501  0.00000000000E+00  0.00000000000E+00 -0.10079688143E+04  0.10079688143E+04  0.25500000920E-02 0. -1.
    10030    2    1    2    0    0  0.00000000000E+00  0.00000000000E+00 -0.29182844371E+03  0.17241091848E+04  0.16992317795E+04 0.  0.
        5    1    3    3  502    0 -0.40879768613E+03 -0.62885900792E+03  0.25898433866E+03  0.79352011802E+03  0.46999998093E+01 0.  1.
       -5    1    3    3    0  502  0.40879768613E+03  0.62885900792E+03 -0.55081278237E+03  0.93058906680E+03  0.46999998093E+01 0. -1.
</event>
<event>
 5   0  0.7455669E-06  0.1698884E+04  0.7818609E-02  0.8762001E-01
       -1   -1    0    0    0  501  0.00000000000E+00  0.00000000000E+00  0.36621645369E+03  0.36621645372E+03  0.50400001928E-02 0.  1.
        1   -1    0    0  501    0  0.00000000000E+00  0.00000000000E+00 -0.19702874506E+04  0.19702874507E+04  0.50400001928E-02 0. -1.
    10030    2    1    2    0    0  0.00000000000E+00  0.00000000000E+00 -0.16040709970E+04  0.23365039044E+04  0.16988839666E+04 0.  0.
        4    1    3    3  502    0 -0.30832782346E+03 -0.50863888876E+03 -0.16360838744E+04  0.17408479608E+04  0.12699999809E+01 0. -1.
       -4    1    3    3    0  502  0.30832782346E+03  0.50863888876E+03  0.32012877392E+02  0.59565594356E+03  0.12699999809E+01 0.  1.
</event>
<event>
 5   0  0.7583716E-06  0.1703514E+04  0.7818609E-02  0.8759363E-01
       -1   -1    0    0    0  501  0.00000000000E+00  0.00000000000E+00  0.12177838807E+04  0.12177838807E+04  0.50400001928E-02 0.  1.
        1   -1    0    0  501    0  0.00000000000E+00  0.00000000000E+00 -0.59574606116E+03  0.59574606118E+03  0.50400001928E-02 0. -1.
    10030    2    1    2    0    0  0.00000000000E+00  0.00000000000E+00  0.62203781955E+03  0.18135299419E+04  0.17035139569E+04 0.  0.
        5    1    3    3  502    0 -0.59520677938E+03  0.79851140929E+02  0.95403031822E+03  0.11273168379E+04  0.46999998093E+01 0.  1.
       -5    1    3    3    0  502  0.59520677938E+03 -0.79851140929E+02 -0.33199249867E+03  0.68621310400E+03  0.46999998093E+01 0. -1.
</event>
<event>
 5   0  0.1374441E-05  0.1700873E+04  0.7818609E-02  0.8760867E-01
       -2   -1    0    0    0  501  0.00000000000E+00  0.00000000000E+00  0.71530408779E+03  0.71530408779E+03  0.25500000920E-02 0.  1.
        2   -1    0    0  501    0  0.00000000000E+00  0.00000000000E+00 -0.10110975662E+04  0.10110975662E+04  0.25500000920E-02 0. -1.
    10030    2    1    2    0    0  0.00000000000E+00  0.00000000000E+00 -0.29579347838E+03  0.17264016540E+04  0.17008729785E+04 0.  0.
        1    1    3    3  502    0 -0.21685301241E+03  0.17749743566E+03 -0.96288756873E+03  0.10028374937E+04  0.50400001928E-02 0. -1.
       -1    1    3    3    0  502  0.21685301241E+03 -0.17749743566E+03  0.66709409035E+03  0.72356416030E+03  0.50400001928E-02 0.  1.
</event>
<event>
 5   0  0.1419012E-05  0.1700011E+04  0.7818609E-02  0.8761358E-01
        2   -1    0    0  501    0  0.00000000000E+00  0.00000000000E+00  0.69957606662E+03  0.69957606663E+03  0.25500000920E-02 0. -1.
       -2   -1    0    0    0  501  0.00000000000E+00  0.00000000000E+00 -0.10327815436E+04  0.10327815436E+04  0.25500000920E-02 0.  1.
    10030    2    1    2    0    0  0.00000000000E+00  0.00000000000E+00 -0.33320547699E+03  0.17323576102E+04  0.17000108823E+04 0.  0.
        4    1    3    3  502    0  0.34781465346E+03 -0.18008958509E+03 -0.93534414036E+03  0.10140402189E+04  0.12699999809E+01 0.  1.
       -4    1    3    3    0  502 -0.34781465346E+03  0.18008958509E+03  0.60213866337E+03  0.71831739130E+03  0.12699999809E+01 0. -1.
</event>
<event>
 5   0  0.1435301E-05  0.1700313E+04  0.7818609E-02  0.8761186E-01
       -2   -1    0    0    0  501  0.00000000000E+00  0.00000000000E+00  0.55803582051E+03  0.55803582051E+03  0.25500000920E-02 0. -1.
        2   -1    0    0  501    0  0.00000000000E+00  0.00000000000E+00 -0.12951966228E+04  0.12951966228E+04  0.25500000920E-02 0.  1.
    10030    2    1    2    0    0  0.00000000000E+00  0.00000000000E+00 -0.73716080232E+03  0.18532324433E+04  0.17003130419E+04 0.  0.
        2    1    3    3  502    0  0.73417989791E+03 -0.29030650627E+03 -0.71233060428E+03  0.10633498389E+04  0.25500000920E-02 0.  1.
       -2    1    3    3    0  502 -0.73417989791E+03  0.29030650627E+03 -0.24830198040E+02  0.78988260445E+03  0.25500000920E-02 0. -1.
</event>
<event>
 5   0  0.1435301E-05  0.1699334E+04  0.7818609E-02  0.8761744E-01
       -2   -1    0    0    0  501  0.00000000000E+00  0.00000000000E+00  0.48858055704E+03  0.48858055705E+03  0.25500000920E-02 0. -1.
        2   -1    0    0  501    0  0.00000000000E+00  0.00000000000E+00 -0.14776153709E+04  0.14776153709E+04  0.25500000920E-02 0.  1.
    10030    2    1    2    0    0  0.00000000000E+00  0.00000000000E+00 -0.98903481384E+03  0.19661959279E+04  0.16993341531E+04 0.  0.
        2    1    3    3  502    0 -0.71750875260E+03 -0.25584363849E+03 -0.92999984891E+03  0.12021541068E+04  0.25500000920E-02 0.  1.
       -2    1    3    3    0  502  0.71750875260E+03  0.25584363849E+03 -0.59034964932E+02  0.76404182118E+03  0.25500000920E-02 0. -1.
</event>
<event>
 5   0  0.5229750E-06  0.1700680E+04  0.7818609E-02  0.8760976E-01
       -4   -1    0    0    0  501  0.00000000000E+00  0.00000000000E+00  0.39610629231E+03  0.39610832825E+03  0.12699999809E+01 0. -1.
        4   -1    0    0  501    0  0.00000000000E+00  0.00000000000E+00 -0.18254589656E+04  0.18254594073E+04  0.12699999809E+01 0.  1.
    10030    2    1    2    0    0  0.00000000000E+00  0.00000000000E+00 -0.14293526733E+04  0.22215677356E+04  0.17006804930E+04 0.  0.
        5    1    3    3  502    0  0.79544805813E+03 -0.28238031476E+03 -0.84904053075E+03  0.11972335479E+04  0.46999998093E+01 0. -1.
       -5    1    3    3    0  502 -0.79544805813E+03  0.28238031476E+03 -0.58031214250E+03  0.10243341877E+04  0.46999998093E+01 0.  1.
</event>
<event>
 5   0  0.7461128E-06  0.1699492E+04  0.7818609E-02  0.8761654E-01
       -1   -1    0    0    0  501  0.00000000000E+00  0.00000000000E+00  0.42059184844E+03  0.42059184847E+03  0.50400001928E-02 0. -1.
        1   -1    0    0  501    0  0.00000000000E+00  0.00000000000E+00 -0.17167901442E+04  0.17167901442E+04  0.50400001928E-02 0.  1.
    10030    2    1    2    0    0  0.00000000000E+00  0.00000000000E+00 -0.12961982957E+04  0.21373819926E+04  0.16994916183E+04 0.  0.
        3    1    3    3  502    0  0.53128134390E+03  0.96492640325E+02  0.17708010812E+03  0.56826760501E+03  0.10100000352E+00 0. -1.
       -3    1    3    3    0  502 -0.53128134390E+03 -0.96492640325E+02 -0.14732784038E+04  0.15691143876E+04  0.10100000352E+00 0.  1.
</event>
<event>
 5   0  0.1441756E-05  0.1701304E+04  0.7818609E-02  0.8760621E-01
        2   -1    0    0  501    0  0.00000000000E+00  0.00000000000E+00  0.17449837209E+04  0.17449837209E+04  0.25500000920E-02 0.  1.
       -2   -1    0    0    0  501  0.00000000000E+00  0.00000000000E+00 -0.41467921588E+03  0.41467921589E+03  0.25500000920E-02 0. -1.
    10030    2    1    2    0    0  0.00000000000E+00  0.00000000000E+00  0.13303045051E+04  0.21596629368E+04  0.17013035956E+04 0.  0.
        5    1    3    3  502    0 -0.61690174642E+03  0.15865401089E+03 -0.50519006577E+02  0.63899383403E+03  0.46999998093E+01 0. -1.
       -5    1    3    3    0  502  0.61690174642E+03 -0.15865401089E+03  0.13808235116E+04  0.15206691028E+04  0.46999998093E+01 0.  1.
</event>
<event>
 5   0  0.1374441E-05  0.1702836E+04  0.7818609E-02  0.8759749E-01
        2   -1    0    0  501    0  0.00000000000E+00  0.00000000000E+00  0.19527825798E+04  0.19527825798E+04  0.25500000920E-02 0. -1.
       -2   -1    0    0    0  501  0.00000000000E+00  0.00000000000E+00 -0.37122017890E+03  0.37122017891E+03  0.25500000920E-02 0.  1.
    10030    2    1    2    0    0  0.00000000000E+00  0.00000000000E+00  0.15815624009E+04  0.23240027587E+04  0.17028356335E+04 0.  0.
        1    1    3    3  502    0 -0.14598963519E+03  0.73713794946E+03  0.13370818509E+04  0.15337774304E+04  0.50400001928E-02 0. -1.
       -1    1    3    3    0  502  0.14598963519E+03 -0.73713794946E+03  0.24448055004E+03  0.79022532830E+03  0.50400001928E-02 0.  1.
</event>
<event>
 5   0  0.7455669E-06  0.1703711E+04  0.7818609E-02  0.8759251E-01
       -1   -1    0    0    0  501  0.00000000000E+00  0.00000000000E+00  0.37802568856E+03  0.37802568860E+03  0.50400001928E-02 0. -1.
        1   -1    0    0  501    0  0.00000000000E+00  0.00000000000E+00 -0.19195994496E+04  0.19195994496E+04  0.50400001928E-02 0.  1.
    10030    2    1    2    0    0  0.00000000000E+00  0.00000000000E+00 -0.15415737610E+04  0.22976251382E+04  0.17037111301E+04 0.  0.
        4    1    3    3  502    0  0.65720809353E+03  0.38281442877E+03 -0.12881766426E+04  0.14959512159E+04  0.12699999809E+01 0.  1.
       -4    1    3    3    0  502 -0.65720809353E+03 -0.38281442877E+03 -0.25339711844E+03  0.80167392224E+03  0.12699999809E+01 0. -1.
</event>
<event>
 5   0  0.7461128E-06  0.1700609E+04  0.7818609E-02  0.8761017E-01
        1   -1    0    0  501    0  0.00000000000E+00  0.00000000000E+00  0.17097800390E+04  0.17097800390E+04  0.50400001928E-02 0. -1.
       -1   -1    0    0    0  501  0.00000000000E+00  0.00000000000E+00 -0.42287159955E+03  0.42287159958E+03  0.50400001928E-02 0.  1.
    10030    2    1    2    0    0  0.00000000000E+00  0.00000000000E+00  0.12869084395E+04  0.21326516386E+04  0.17006086205E+04 0.  0.
        3    1    3    3  502    0  0.73908128207E+02  0.13457808795E+03  0.16922524292E+04  0.16992033332E+04  0.10100000352E+00 0. -1.
       -3    1    3    3    0  502 -0.73908128207E+02 -0.13457808795E+03 -0.40534398978E+03  0.43344830537E+03  0.10100000352E+00 0.  1.
</event>
<event>
 5   0  0.1441756E-05  0.1699650E+04  0.7818609E-02  0.8761564E-01
        2   -1    0    0  501    0  0.00000000000E+00  0.00000000000E+00  0.19342054045E+04  0.19342054045E+04  0.25500000920E-02 0.  1.
       -2   -1    0    0    0  501  0.00000000000E+00  0.00000000000E+00 -0.37338478991E+03  0.37338478991E+03  0.25500000920E-02 0. -1.
    10030    2    1    2    0    0  0.00000000000E+00  0.00000000000E+00  0.15608206146E+04  0.23075901945E+04  0.16996504095E+04 0.  0.
        5    1    3    3  502    0  0.10499459654E+03  0.81630831244E+03  0.49305001438E+03  0.95942875345E+03  0.46999998093E+01 0.  1.
       -5    1    3    3    0  502 -0.10499459654E+03 -0.81630831244E+03  0.10677706002E+04  0.13481614410E+04  0.46999998093E+01 0. -1.
</event>
<event>
 5   0  0.1441756E-05  0.1699954E+04  0.7818609E-02  0.8761391E-01
        2   -1    0    0  501    0  0.00000000000E+00  0.00000000000E+00  0.71615354021E+03  0.71615354021E+03  0.25500000920E-02 0.  1.
       -2   -1    0    0    0  501  0.00000000000E+00  0.00000000000E+00 -0.10088068283E+04  0.10088068283E+04  0.25500000920E-02 0. -1.
    10030    2    1    2    0    0  0.00000000000E+00  0.00000000000E+00 -0.29265328808E+03  0.17249603685E+04  0.16999536246E+04 0.  0.
        5    1    3    3  502    0  0.49907527190E+03  0.28934072192E+03 -0.77972395833E+03  0.96994109180E+03  0.46999998093E+01 0. -1.
       -5    1    3    3    0  502 -0.49907527190E+03 -0.28934072192E+03  0.48707067024E+03  0.75501927670E+03  0.46999998093E+01 0.  1.
</event>
<event>
 5   0  0.1435301E-05  0.1700190E+04  0.7818609E-02  0.8761256E-01
        2   -1    0    0  501    0  0.00000000000E+00  0.00000000000E+00  0.11155498675E+04  0.11155498675E+04  0.25500000920E-02 0. -1.
       -2   -1    0    0    0  501  0.00000000000E+00  0.00000000000E+00 -0.64780713757E+03  0.64780713758E+03  0.25500000920E-02 0.  1.
    10030    2    1    2    0    0  0.00000000000E+00  0.00000000000E+00  0.46774272995E+03  0.17633570051E+04  0.17001895971E+04 0.  0.
        2    1    3    3  502    0 -0.73435226668E+03 -0.18815432962E+03  0.63285309384E+03  0.98751118562E+03  0.25500000920E-02 0. -1.
       -2    1    3    3    0  502  0.73435226668E+03  0.18815432962E+03 -0.16511036389E+03  0.77584581948E+03  0.25500000920E-02 0.  1.
</event>
<event>
 5   0  0.1419012E-05  0.1699508E+04  0.7818609E-02  0.8761645E-01
       -2   -1    0    0    0  501  0.00000000000E+00  0.00000000000E+00  0.74980786154E+03  0.74980786154E+03  0.25500000920E-02 0. -1.
        2   -1    0    0  501    0  0.00000000000E+00  0.00000000000E+00 -0.96302221505E+03  0.96302221506E+03  0.25500000920E-02 0.  1.
    10030    2    1    2    0    0  0.00000000000E+00  0.00000000000E+00 -0.21321435351E+03  0.17128300766E+04  0.16995077260E+04 0.  0.
        4    1    3    3  502    0 -0.46427591744E+03 -0.49806059997E+03 -0.61898552527E+03  0.92019627371E+03  0.12699999809E+01 0.  1.
       -4    1    3    3    0  502  0.46427591744E+03  0.49806059997E+03  0.40577117175E+03  0.79263380289E+03  0.12699999809E+01 0. -1.
</event>
<event>
 5   0  0.7082527E-06  0.1699580E+04  0.7818609E-02  0.8761604E-01
        1   -1    0    0  501    0  0.00000000000E+00  0.00000000000E+00  0.17241924371E+04  0.17241924371E+04  0.50400001928E-02 0.  1.
       -1   -1    0    0    0  501  0.00000000000E+00  0.00000000000E+00 -0.41882968922E+03  0.41882968925E+03  0.50400001928E-02 0. -1.
    10030    2    1    2    0    0  0.00000000000E+00  0.00000000000E+00  0.13053627479E+04  0.21430221263E+04  0.16995799276E+04 0.  0.
        1    1    3    3  502    0  0.72812577966E+03  0.34734501794E+03  0.31592729639E+03  0.86638661643E+03  0.50400001928E-02 0. -1.
       -1    1    3    3    0  502 -0.72812577966E+03 -0.34734501794E+03  0.98943545147E+03  0.12766355099E+04  0.50400001928E-02 0.  1.
</event>
<event>
 5   0  0.7082527E-06  0.1700046E+04  0.7818609E-02  0.8761338E-01
        1   -1    0    0  501    0  0.00000000000E+00  0.00000000000E+00  0.13450230271E+04  0.13450230271E+04  0.50400001928E-02 0. -1.
       -1   -1    0    0    0  501  0.00000000000E+00  0.00000000000E+00 -0.53719468319E+03  0.53719468322E+03  0.50400001928E-02 0.  1.
    10030    2    1    2    0    0  0.00000000000E+00  0.00000000000E+00  0.80782834391E+03  0.18822177103E+04  0.17000461393E+04 0.  0.
        1    1    3    3  502    0  0.24750113328E+03 -0.31399905901E+03 -0.42659147081E+03  0.58466443626E+03  0.50400001928E-02 0.  1.
       -1    1    3    3    0  502 -0.24750113328E+03  0.31399905901E+03  0.12344198147E+04  0.12975532741E+04  0.50400001928E-02 0. -1.
</event>
<event>
 5   0  0.7461128E-06  0.1700106E+04  0.7818609E-02  0.8761304E-01
       -1   -1    0    0    0  501  0.00000000000E+00  0.00000000000E+00  0.72748170195E+03  0.72748170197E+03  0.50400001928E-02 0. -1.
        1   -1    0    0  501    0  0.00000000000E+00  0.00000000000E+00 -0.99327627733E+03  0.99327627735E+03  0.50400001928E-02 0.  1.
    10030    2    1    2    0    0  0.00000000000E+00  0.00000000000E+00 -0.26579457539E+03  0.17207579793E+04  0.17001062517E+04 0.  0.
        3    1    3    3  502    0 -0.11698052730E+03 -0.31518250129E+03 -0.92312825233E+03  0.98244095667E+03  0.10100000352E+00 0.  1.
       -3    1    3    3    0  502  0.11698052730E+03  0.31518250129E+03  0.65733367694E+03  0.73831702265E+03  0.10100000352E+00 0. -1.
</event>
<event>
 5   0  0.1374441E-05  0.1701883E+04  0.7818609E-02  0.8760291E-01
       -2   -1    0    0    0  501  0.00000000000E+00  0.00000000000E+00  0.52118911715E+03  0.52118911715E+03  0.25500000920E-02 0.  1.
        2   -1    0    0  501    0  0.00000000000E+00  0.00000000000E+00 -0.13893263773E+04  0.13893263773E+04  0.25500000920E-02 0. -1.
    10030    2    1    2    0    0  0.00000000000E+00  0.00000000000E+00 -0.86813726017E+03  0.19105154945E+04  0.17018834132E+04 0.  0.
        1    1    3    3  502    0 -0.53172794989E+03 -0.42034809733E+03  0.14346454227E+03  0.69282697012E+03  0.50400001928E-02 0.  1.
       -1    1    3    3    0  502  0.53172794989E+03  0.42034809733E+03 -0.10116018024E+04  0.12176885243E+04  0.50400001928E-02 0. -1.
</event>
<event>
 5   0  0.5229750E-06  0.1699063E+04  0.7818609E-02  0.8761899E-01
        3   -1    0    0  501    0  0.00000000000E+00  0.00000000000E+00  0.65810939761E+03  0.65810940536E+03  0.10100000352E+00 0. -1.
       -3   -1    0    0    0  501  0.00000000000E+00  0.00000000000E+00 -0.10966312762E+04  0.10966312808E+04  0.10100000352E+00 0.  1.
    10030    2    1    2    0    0  0.00000000000E+00  0.00000000000E+00 -0.43852187857E+03  0.17547406862E+04  0.16990625173E+04 0.  0.
        5    1    3    3  502    0  0.39936856902E+03  0.27469985327E+03  0.50125876583E+03  0.69730746707E+03  0.46999998093E+01 0. -1.
       -5    1    3    3    0  502 -0.39936856902E+03 -0.27469985327E+03 -0.93978064440E+03  0.10574332191E+04  0.46999998093E+01 0.  1.
</event>
<event>
 5   0  0.1419012E-05  0.1700029E+04  0.7818609E-02  0.8761348E-01
       -2   -1    0    0    0  501  0.00000000000E+00  0.00000000000E+00  0.61668535453E+03  0.61668535454E+03  0.25500000920E-02 0. -1.
        2   -1    0    0  501    0  0.00000000000E+00  0.00000000000E+00 -0.11716257337E+04  0.11716257337E+04  0.25500000920E-02 0.  1.
    10030    2    1    2    0    0  0.00000000000E+00  0.00000000000E+00 -0.55494037921E+03  0.17883110883E+04  0.17000287421E+04 0.  0.
        4    1    3    3  502    0 -0.89481452137E+02  0.68149119022E+03  0.24858485265E+03  0.73091259019E+03  0.12699999809E+01 0. -1.
       -4    1    3    3    0  502  0.89481452137E+02 -0.68149119022E+03 -0.80352523186E+03  0.10573984981E+04  0.12699999809E+01 0.  1.
</event>
<event>
 5   0  0.7455669E-06  0.1699691E+04  0.7818609E-02  0.8761540E-01
       -1   -1    0    0    0  501  0.00000000000E+00  0.00000000000E+00  0.13881087484E+04  0.13881087484E+04  0.50400001928E-02 0. -1.
        1   -1    0    0  501    0  0.00000000000E+00  0.00000000000E+00 -0.52030340705E+03  0.52030340708E+03  0.50400001928E-02 0.  1.
    10030    2    1    2    0    0  0.00000000000E+00  0.00000000000E+00  0.86780534132E+03  0.19084121555E+04  0.16996913969E+04 0.  0.
        4    1    3    3  502    0 -0.65953831214E+03  0.39880835128E+03  0.83591686564E+03  0.11370125353E+04  0.12699999809E+01 0. -1.
       -4    1    3    3    0  502  0.65953831214E+03 -0.39880835128E+03  0.31888475677E+02  0.77139962018E+03  0.12699999809E+01 0.  1.
</event>
<event>
 5   0  0.7583716E-06  0.1699687E+04  0.7818609E-02  0.8761543E-01
        1   -1    0    0  501    0  0.00000000000E+00  0.00000000000E+00  0.25698217079E+04  0.25698217079E+04  0.50400001928E-02 0.  1.
       -1   -1    0    0    0  501  0.00000000000E+00  0.00000000000E+00 -0.28104447502E+03  0.28104447507E+03  0.50400001928E-02 0. -1.
    10030    2    1    2    0    0  0.00000000000E+00  0.00000000000E+00  0.22887772328E+04  0.28508661829E+04  0.16996872569E+04 0.  0.
        5    1    3    3  502    0  0.59695416436E+03  0.43021349274E+03  0.18575306139E+04  0.19979689675E+04  0.46999998093E+01 0.  1.
       -5    1    3    3    0  502 -0.59695416436E+03 -0.43021349274E+03  0.43124661894E+03  0.85289721539E+03  0.46999998093E+01 0. -1.
</event>
<event>
 5   0  0.1374441E-05  0.1703084E+04  0.7818609E-02  0.8759607E-01
       -2   -1    0    0    0  501  0.00000000000E+00  0.00000000000E+00  0.51275430513E+03  0.51275430514E+03  0.25500000920E-02 0. -1.
        2   -1    0    0  501    0  0.00000000000E+00  0.00000000000E+00 -0.14141737288E+04  0.14141737288E+04  0.25500000920E-02 0.  1.
    10030    2    1    2    0    0  0.00000000000E+00  0.00000000000E+00 -0.90141942365E+03  0.19269280339E+04  0.17030838707E+04 0.  0.
        1    1    3    3  502    0  0.47559333236E+03  0.68249477828E+03 -0.65666663882E+03  0.10598109335E+04  0.50400001928E-02 0.  1.
       -1    1    3    3    0  502 -0.47559333236E+03 -0.68249477828E+03 -0.24475278482E+03  0.86711710044E+03  0.50400001928E-02 0. -1.
</event>
<event>
 5   0  0.7461128E-06  0.1700086E+04  0.7818609E-02  0.8761315E-01
       -1   -1    0    0    0  501  0.00000000000E+00  0.00000000000E+00  0.11785537079E+04  0.11785537079E+04  0.50400001928E-02 0.  1.
        1   -1    0    0  501    0  0.00000000000E+00  0.00000000000E+00 -0.61310180959E+03  0.61310180961E+03  0.50400001928E-02 0. -1.
    10030    2    1    2    0    0  0.00000000000E+00  0.00000000000E+00  0.56545189831E+03  0.17916555175E+04  0.17000863637E+04 0.  0.
        3    1    3    3  502    0 -0.31675324304E+03 -0.32556118989E+03  0.10399316104E+04  0.11348041548E+04  0.10100000352E+00 0.  1.
       -3    1    3    3    0  502  0.31675324304E+03  0.32556118989E+03 -0.47447971205E+03  0.65685136271E+03  0.10100000352E+00 0. -1.
</event>
<event>
 5   0  0.1435301E-05  0.1699827E+04  0.7818609E-02  0.8761463E-01
        2   -1    0    0  501    0  0.00000000000E+00  0.00000000000E+00  0.12487390897E+04  0.12487390897E+04  0.25500000920E-02 0. -1.
       -2   -1    0    0    0  501  0.00000000000E+00  0.00000000000E+00 -0.57846586618E+03  0.57846586618E+03  0.25500000920E-02 0.  1.
    10030    2    1    2    0    0  0.00000000000E+00  0.00000000000E+00  0.67027322351E+03  0.18272049559E+04  0.16998269784E+04 0.  0.
        2    1    3    3  502    0  0.76288831525E+03  0.15377579621E+03  0.70236113290E+03  0.10483113746E+04  0.25500000920E-02 0. -1.
       -2    1    3    3    0  502 -0.76288831525E+03 -0.15377579621E+03 -0.32087909387E+02  0.77889358130E+03  0.25500000920E-02 0.  1.
</event>
<event>
 5   0  0.1435301E-05  0.1700064E+04  0.7818609E-02  0.8761328E-01
       -2   -1    0    0    0  501  0.00000000000E+00  0.00000000000E+00  0.47916819911E+03  0.47916819911E+03  0.25500000920E-02 0. -1.
        2   -1    0    0  501    0  0.00000000000E+00  0.00000000000E+00 -0.15079343616E+04  0.15079343616E+04  0.25500000920E-02 0.  1.
    10030    2    1    2    0    0  0.00000000000E+00  0.00000000000E+00 -0.10287661625E+04  0.19871025607E+04  0.17000637546E+04 0.  0.
        2    1    3    3  502    0 -0.31169998774E+03  0.45616942983E+03  0.24067921662E+03  0.60263912616E+03  0.25500000920E-02 0. -1.
       -2    1    3    3    0  502  0.31169998774E+03 -0.45616942983E+03 -0.12694453791E+04  0.13844634346E+04  0.25500000920E-02 0.  1.
</event>
<event>
 5   0  0.1419012E-05  0.1700302E+04  0.7818609E-02  0.8761192E-01
       -2   -1    0    0    0  501  0.00000000000E+00  0.00000000000E+00  0.81165048929E+03  0.81165048930E+03  0.25500000920E-02 0.  1.
        2   -1    0    0  501    0  0.00000000000E+00  0.00000000000E+00 -0.89047752021E+03  0.89047752022E+03  0.25500000920E-02 0. -1.
    10030    2    1    2    0    0  0.00000000000E+00  0.00000000000E+00 -0.78827030921E+02  0.17021280095E+04  0.17003017556E+04 0.  0.
        4    1    3    3  502    0  0.43762958348E+03 -0.72597857871E+03  0.25388948753E+02  0.84806294619E+03  0.12699999809E+01 0.  1.
       -4    1    3    3    0  502 -0.43762958348E+03  0.72597857871E+03 -0.10421597967E+03  0.85406506333E+03  0.12699999809E+01 0. -1.
</event>
<event>
 5   0  0.1423543E-05  0.1699397E+04  0.7818609E-02  0.8761708E-01
        2   -1    0    0  501    0  0.00000000000E+00  0.00000000000E+00  0.11882453928E+04  0.11882453928E+04  0.25500000920E-02 0.  1.
       -2   -1    0    0    0  501  0.00000000000E+00  0.00000000000E+00 -0.60760807872E+03  0.60760807872E+03  0.25500000920E-02 0. -1.
    10030    2    1    2    0    0  0.00000000000E+00  0.00000000000E+00  0.58063731411E+03  0.17958534715E+04  0.16993969521E+04 0.  0.
        3    1    3    3  502    0 -0.62353901539E+03 -0.25804234844E+03  0.83595932620E+03  0.10743438754E+04  0.10100000352E+00 0.  1.
       -3    1    3    3    0  502  0.62353901539E+03  0.25804234844E+03 -0.25532201209E+03  0.72150959617E+03  0.10100000352E+00 0. -1.
</event>
<event>
 5   0  0.1374441E-05  0.1700470E+04  0.7818609E-02  0.8761097E-01
       -2   -1    0    0    0  501  0.00000000000E+00  0.00000000000E+00  0.53167089856E+03  0.53167089856E+03  0.25500000920E-02 0. -1.
        2   -1    0    0  501    0  0.00000000000E+00  0.00000000000E+00 -0.13596742734E+04  0.13596742734E+04  0.25500000920E-02 0.  1.
    10030    2    1    2    0    0  0.00000000000E+00  0.00000000000E+00 -0.82800337480E+03  0.18913451719E+04  0.17004696324E+04 0.  0.
        1    1    3    3  502    0  0.56138928652E+03 -0.62165273685E+03 -0.25171554135E+03  0.87462607441E+03  0.50400001928E-02 0. -1.
       -1    1    3    3    0  502 -0.56138928652E+03  0.62165273685E+03 -0.57628783345E+03  0.10167190975E+04  0.50400001928E-02 0.  1.
</event>
<event>
 5   0  0.1441756E-05  0.1701677E+04  0.7818609E-02  0.8760408E-01
       -2   -1    0    0    0  501  0.00000000000E+00  0.00000000000E+00  0.11971246993E+04  0.11971246993E+04  0.25500000920E-02 0. -1.
        2   -1    0    0  501    0  0.00000000000E+00  0.00000000000E+00 -0.60472085672E+03  0.60472085672E+03  0.25500000920E-02 0.  1.
    10030    2    1    2    0    0  0.00000000000E+00  0.00000000000E+00  0.59240384256E+03  0.18018455560E+04  0.17016771418E+04 0.  0.
        5    1    3    3  502    0  0.68233825902E+03 -0.34514648797E+03 -0.98844788814E+02  0.77104084207E+03  0.46999998093E+01 0.  1.
       -5    1    3    3    0  502 -0.68233825902E+03  0.34514648797E+03  0.69124863137E+03  0.10308047139E+04  0.46999998093E+01 0. -1.
</event>
<event>
 5   0  0.7455669E-06  0.1705789E+04  0.7818609E-02  0.8758070E-01
        1   -1    0    0  501    0  0.00000000000E+00  0.00000000000E+00  0.12650467360E+04  0.12650467360E+04  0.50400001928E-02 0. -1.
       -1   -1    0    0    0  501  0.00000000000E+00  0.00000000000E+00 -0.57502136719E+03  0.57502136721E+03  0.50400001928E-02 0.  1.
    10030    2    1    2    0    0  0.00000000000E+00  0.00000000000E+00  0.69002536879E+03  0.18400681032E+04  0.17057888541E+04 0.  0.
        4    1    3    3  502    0 -0.48200556864E+03 -0.13297016551E+03 -0.40033258557E+03  0.64052964419E+03  0.12699999809E+01 0.  1.
       -4    1    3    3    0  502  0.48200556864E+03  0.13297016551E+03  0.10903579544E+04  0.11995384590E+04  0.12699999809E+01 0. -1.
</event>
<event>
 5   0  0.7583716E-06  0.1699960E+04  0.7818609E-02  0.8761387E-01
        1   -1    0    0  501    0  0.00000000000E+00  0.00000000000E+00  0.52993788188E+03  0.52993788190E+03  0.50400001928E-02 0.  1.
       -1   -1    0    0    0  501  0.00000000000E+00  0.00000000000E+00 -0.13633032572E+04  0.13633032572E+04  0.50400001928E-02 0. -1.
    10030    2    1    2    0    0  0.00000000000E+00  0.00000000000E+00 -0.83336537528E+03  0.18932411391E+04  0.16999600472E+04 0.  0.
        5    1    3    3  502    0  0.58389774317E+03 -0.13808071086E+03  0.25379747678E+03  0.65148914527E+03  0.46999998093E+01 0.  1.
       -5    1    3    3    0  502 -0.58389774317E+03  0.13808071086E+03 -0.10871628521E+04  0.12417519938E+04  0.46999998093E+01 0. -1.
</event>
<event>
 5   0  0.1419012E-05  0.1699950E+04  0.7818609E-02  0.8761393E-01
        2   -1    0    0  501    0  0.00000000000E+00  0.00000000000E+00  0.14864163497E+04  0.14864163497E+04  0.25500000920E-02 0.  1.
       -2   -1    0    0    0  501  0.00000000000E+00  0.00000000000E+00 -0.48603990177E+03  0.48603990177E+03  0.25500000920E-02 0. -1.
    10030    2    1    2    0    0  0.00000000000E+00  0.00000000000E+00  0.10003764480E+04  0.19724562515E+04  0.16999501835E+04 0.  0.
        4    1    3    3  502    0  0.21388797863E+03 -0.10228009082E+03  0.14472727470E+04  0.14665637734E+04  0.12699999809E+01 0.  1.
       -4    1    3    3    0  502 -0.21388797863E+03  0.10228009082E+03 -0.44689629905E+03  0.50589247808E+03  0.12699999809E+01 0. -1.
</event>
<event>
 5   0  0.1435301E-05  0.1699848E+04  0.7818609E-02  0.8761451E-01
        2   -1    0    0  501    0  0.00000000000E+00  0.00000000000E+00  0.10001267989E+04  0.10001267989E+04  0.25500000920E-02 0.  1.
       -2   -1    0    0    0  501  0.00000000000E+00  0.00000000000E+00 -0.72227880076E+03  0.72227880076E+03  0.25500000920E-02 0. -1.
    10030    2    1    2    0    0  0.00000000000E+00  0.00000000000E+00  0.27784799811E+03  0.17224055996E+04  0.16998475048E+04 0.  0.
        2    1    3    3  502    0  0.28633882505E+03 -0.61933320477E+03  0.65241018343E+03  0.94403526879E+03  0.25500000920E-02 0.  1.
       -2    1    3    3    0  502 -0.28633882505E+03  0.61933320477E+03 -0.37456218532E+03  0.77837033085E+03  0.25500000920E-02 0. -1.
</event>
<event>
 5   0  0.7583716E-06  0.1700006E+04  0.7818609E-02  0.8761361E-01
        1   -1    0    0  501    0  0.00000000000E+00  0.00000000000E+00  0.77531239858E+03  0.77531239859E+03  0.50400001928E-02 0.  1.
       -1   -1    0    0    0  501  0.00000000000E+00  0.00000000000E+00 -0.93188950430E+03  0.93188950431E+03  0.50400001928E-02 0. -1.
    10030    2    1    2    0    0  0.00000000000E+00  0.00000000000E+00 -0.15657710572E+03  0.17072019029E+04  0.17000064551E+04 0.  0.
        5    1    3    3  502    0 -0.75598733967E+02 -0.40188850260E+03 -0.82659607143E+03  0.92223245031E+03  0.46999998093E+01 0. -1.
       -5    1    3    3    0  502  0.75598733967E+02  0.40188850260E+03  0.67001896571E+03  0.78496945260E+03  0.46999998093E+01 0.  1.
</event>
<event>
 5   0  0.7476457E-06  0.1699832E+04  0.7818609E-02  0.8761460E-01
        1   -1    0    0  501    0  0.00000000000E+00  0.00000000000E+00  0.55173950733E+03  0.55173950735E+03  0.50400001928E-02 0. -1.
       -1   -1    0    0    0  501  0.00000000000E+00  0.00000000000E+00 -0.13092355429E+04  0.13092355429E+04  0.50400001928E-02 0.  1.
    10030    2    1    2    0    0  0.00000000000E+00  0.00000000000E+00 -0.75749603552E+03  0.18609750502E+04  0.16998317251E+04 0.  0.
        2    1    3    3  502    0 -0.30861046524E+02 -0.23559245297E+03 -0.12721345005E+04  0.12941338399E+04  0.25500000920E-02 0.  1.
       -2    1    3    3    0  502  0.30861046524E+02  0.23559245297E+03  0.51463846499E+03  0.56684121034E+03  0.25500000920E-02 0. -1.
</event>
<event>
 5   0  0.1441756E-05  0.1701296E+04  0.7818609E-02  0.8760626E-01
       -2   -1    0    0    0  501  0.00000000000E+00  0.00000000000E+00  0.82477106598E+03  0.82477106598E+03  0.25500000920E-02 0. -1.
        2   -1    0    0  501    0  0.00000000000E+00  0.00000000000E+00 -0.87733636520E+03  0.87733636520E+03  0.25500000920E-02 0.  1.
    10030    2    1    2    0    0  0.00000000000E+00  0.00000000000E+00 -0.52565299223E+02  0.17021074312E+04  0.17012955642E+04 0.  0.
        5    1    3    3  502    0  0.82849323577E+03 -0.50328471875E+02  0.15993935858E+03  0.84530271809E+03  0.46999998093E+01 0.  1.
       -5    1    3    3    0  502 -0.82849323577E+03  0.50328471875E+02 -0.21250465781E+03  0.85680471309E+03  0.46999998093E+01 0. -1.
</event>
<event>
 5   0  0.7476457E-06  0.1699823E+04  0.7818609E-02  0.8761465E-01
        1   -1    0    0  501    0  0.00000000000E+00  0.00000000000E+00  0.11180317763E+04  0.11180317763E+04  0.50400001928E-02 0.  1.
       -1   -1    0    0    0  501  0.00000000000E+00  0.00000000000E+00 -0.64609060151E+03  0.64609060153E+03  0.50400001928E-02 0. -1.
    10030    2    1    2    0    0  0.00000000000E+00  0.00000000000E+00  0.47194117482E+03  0.17641223779E+04  0.16998233119E+04 0.  0.
        2    1    3    3  502    0  0.13457008601E+03 -0.72873361368E+03  0.66787125027E+03  0.99760402701E+03  0.25500000920E-02 0.  1.
       -2    1    3    3    0  502 -0.13457008601E+03  0.72873361368E+03 -0.19593007544E+03  0.76651835087E+03  0.25500000920E-02 0. -1.
</event>
<event>
 5   0  0.7461128E-06  0.1699728E+04  0.7818609E-02  0.8761520E-01
       -1   -1    0    0    0  501  0.00000000000E+00  0.00000000000E+00  0.76168685190E+03  0.76168685192E+03  0.50400001928E-02 0. -1.
        1   -1    0    0  501    0  0.00000000000E+00  0.00000000000E+00 -0.94824889859E+03  0.94824889860E+03  0.50400001928E-02 0.  1.
    10030    2    1    2    0    0  0.00000000000E+00  0.00000000000E+00 -0.18656204669E+03  0.17099357505E+04  0.16997278822E+04 0.  0.
        3    1    3    3  502    0  0.83553448891E+03  0.14457366879E+03 -0.15062581585E+03  0.86122446230E+03  0.10100000352E+00 0.  1.
       -3    1    3    3    0  502 -0.83553448891E+03 -0.14457366879E+03 -0.35936230837E+02  0.84871128822E+03  0.10100000352E+00 0. -1.
</event>
<event>
 5   0  0.7082527E-06  0.1700336E+04  0.7818609E-02  0.8761173E-01
        1   -1    0    0  501    0  0.00000000000E+00  0.00000000000E+00  0.85368444249E+03  0.85368444251E+03  0.50400001928E-02 0. -1.
       -1   -1    0    0    0  501  0.00000000000E+00  0.00000000000E+00 -0.84666643507E+03  0.84666643508E+03  0.50400001928E-02 0.  1.
    10030    2    1    2    0    0  0.00000000000E+00  0.00000000000E+00  0.70180074268E+01  0.17003508776E+04  0.17003363945E+04 0.  0.
        1    1    3    3  502    0 -0.29552401119E+03  0.67717087433E+03  0.42409685758E+03  0.85191136796E+03  0.50400001928E-02 0.  1.
       -1    1    3    3    0  502  0.29552401119E+03 -0.67717087433E+03 -0.41707885015E+03  0.84843950963E+03  0.50400001928E-02 0. -1.
</event>
<event>
 5   0  0.1374441E-05  0.1699612E+04  0.7818609E-02  0.8761586E-01
        2   -1    0    0  501    0  0.00000000000E+00  0.00000000000E+00  0.50170224239E+03  0.50170224239E+03  0.25500000920E-02 0. -1.
       -2   -1    0    0    0  501  0.00000000000E+00  0.00000000000E+00 -0.14394394132E+04  0.14394394132E+04  0.25500000920E-02 0.  1.
    10030    2    1    2    0    0  0.00000000000E+00  0.00000000000E+00 -0.93773717086E+03  0.19411416556E+04  0.16996116985E+04 0.  0.
        1    1    3    3  502    0  0.67185135199E+03  0.21025886132E+03 -0.10125135680E+04  0.12331977754E+04  0.50400001928E-02 0.  1.
       -1    1    3    3    0  502 -0.67185135199E+03 -0.21025886132E+03  0.74776397132E+02  0.70794388021E+03  0.50400001928E-02 0. -1.
</event>
<event>
 5   0  0.1423543E-05  0.1699478E+04  0.7818609E-02  0.8761662E-01
       -2   -1    0    0    0  501  0.00000000000E+00  0.00000000000E+00  0.71471713823E+03  0.71471713823E+03  0.25500000920E-02 0.  1.
        2   -1    0    0  501    0  0.00000000000E+00  0.00000000000E+00 -0.10102691653E+04  0.10102691653E+04  0.25500000920E-02 0. -1.
    10030    2    1    2    0    0  0.00000000000E+00  0.00000000000E+00 -0.29555202709E+03  0.17249863036E+04  0.16994783749E+04 0.  0.
        3    1    3    3  502    0 -0.81286739252E+03 -0.91729853312E+02  0.85651652486E+02  0.82249861980E+03  0.10100000352E+00 0.  1.
       -3    1    3    3    0  502  0.81286739252E+03  0.91729853312E+02 -0.38120367958E+03  0.90248768375E+03  0.10100000352E+00 0. -1.
</event>
<event>
 5   0  0.1441756E-05  0.1699494E+04  0.7818609E-02  0.8761653E-01
        2   -1    0    0  501    0  0.00000000000E+00  0.00000000000E+00  0.62366027860E+03  0.62366027860E+03  0.25500000920E-02 0.  1.
       -2   -1    0    0    0  501  0.00000000000E+00  0.00000000000E+00 -0.11577941544E+04  0.11577941544E+04  0.25500000920E-02 0. -1.
    10030    2    1    2    0    0  0.00000000000E+00  0.00000000000E+00 -0.53413387584E+03  0.17814544330E+04  0.16994943071E+04 0.  0.
        5    1    3    3  502    0  0.28332702353E+03 -0.13815070855E+03 -0.10942285328E+04  0.11387352601E+04  0.46999998093E+01 0. -1.
       -5    1    3    3    0  502 -0.28332702353E+03  0.13815070855E+03  0.56009465697E+03  0.64271917297E+03  0.46999998093E+01 0.  1.
</event>
<event>
 5   0  0.1419012E-05  0.1701039E+04  0.7818609E-02  0.8760772E-01
       -2   -1    0    0    0  501  0.00000000000E+00  0.00000000000E+00  0.36079582283E+03  0.36079582284E+03  0.25500000920E-02 0.  1.
        2   -1    0    0  501    0  0.00000000000E+00  0.00000000000E+00 -0.20049655127E+04  0.20049655127E+04  0.25500000920E-02 0. -1.
    10030    2    1    2    0    0  0.00000000000E+00  0.00000000000E+00 -0.16441696899E+04  0.23657613356E+04  0.17010387202E+04 0.  0.
        4    1    3    3  502    0 -0.60102005574E+03 -0.11290961899E+03 -0.16441818718E+04  0.17542261342E+04  0.12699999809E+01 0. -1.
       -4    1    3    3    0  502  0.60102005574E+03  0.11290961899E+03  0.12181898585E-01  0.61153520137E+03  0.12699999809E+01 0.  1.
</event>
<event>
 5   0  0.1374441E-05  0.1688816E+04  0.7818609E-02  0.8767769E-01
       -2   -1    0    0    0  501  0.00000000000E+00  0.00000000000E+00  0.87107848984E+03  0.87107848984E+03  0.25500000920E-02 0. -1.
        2   -1    0    0  501    0  0.00000000000E+00  0.00000000000E+00 -0.81855408263E+03  0.81855408263E+03  0.25500000920E-02 0.  1.
    10030    2    1    2    0    0  0.00000000000E+00  0.00000000000E+00  0.52524407211E+02  0.16896325725E+04  0.16888159807E+04 0.  0.
        1    1    3    3  502    0  0.18557976000E+03 -0.21787260958E+03 -0.76855035723E+03  0.82010851291E+03  0.50400001928E-02 0.  1.
       -1    1    3    3    0  502 -0.18557976000E+03  0.21787260958E+03  0.82107476444E+03  0.86952405956E+03  0.50400001928E-02 0. -1.
</event>
<event>
 5   0  0.7476457E-06  0.1698567E+04  0.7818609E-02  0.8762182E-01
        1   -1    0    0  501    0  0.00000000000E+00  0.00000000000E+00  0.26104772307E+04  0.26104772307E+04  0.50400001928E-02 0.  1.
       -1   -1    0    0    0  501  0.00000000000E+00  0.00000000000E+00 -0.27630285447E+03  0.27630285452E+03  0.50400001928E-02 0. -1.
    10030    2    1    2    0    0  0.00000000000E+00  0.00000000000E+00  0.23341743762E+04  0.28867800852E+04  0.16985668200E+04 0.  0.
        2    1    3    3  502    0  0.15765892059E+03 -0.83146763028E+03  0.12883103544E+04  0.15414079034E+04  0.25500000920E-02 0. -1.
       -2    1    3    3    0  502 -0.15765892059E+03  0.83146763028E+03  0.10458640218E+04  0.13453721818E+04  0.25500000920E-02 0.  1.
</event>
<event>
 5   0  0.7461128E-06  0.1699853E+04  0.7818609E-02  0.8761448E-01
        1   -1    0    0  501    0  0.00000000000E+00  0.00000000000E+00  0.61880097707E+03  0.61880097709E+03  0.50400001928E-02 0. -1.
       -1   -1    0    0    0  501  0.00000000000E+00  0.00000000000E+00 -0.11673793148E+04  0.11673793148E+04  0.50400001928E-02 0.  1.
    10030    2    1    2    0    0  0.00000000000E+00  0.00000000000E+00 -0.54857833776E+03  0.17861802919E+04  0.16998534768E+04 0.  0.
        3    1    3    3  502    0 -0.47189665339E+03  0.38133213659E+03  0.35114835895E+03  0.70100344512E+03  0.10100000352E+00 0. -1.
       -3    1    3    3    0  502  0.47189665339E+03 -0.38133213659E+03 -0.89972669671E+03  0.10851768468E+04  0.10100000352E+00 0.  1.
</event>
<event>
 5   0  0.1423543E-05  0.1700018E+04  0.7818609E-02  0.8761354E-01
       -2   -1    0    0    0  501  0.00000000000E+00  0.00000000000E+00  0.34091957313E+03  0.34091957313E+03  0.25500000920E-02 0.  1.
        2   -1    0    0  501    0  0.00000000000E+00  0.00000000000E+00 -0.21193137860E+04  0.21193137860E+04  0.25500000920E-02 0. -1.
    10030    2    1    2    0    0  0.00000000000E+00  0.00000000000E+00 -0.17783942129E+04  0.24602333591E+04  0.17000182955E+04 0.  0.
        3    1    3    3  502    0  0.86398332262E+02 -0.49078230221E+03  0.10734573305E+03  0.50975980283E+03  0.10100000352E+00 0.  1.
       -3    1    3    3    0  502 -0.86398332262E+02  0.49078230221E+03 -0.18857399459E+04  0.19504735563E+04  0.10100000352E+00 0. -1.
</event>
<event>
 5   0  0.1423543E-05  0.1699958E+04  0.7818609E-02  0.8761389E-01
        2   -1    0    0  501    0  0.00000000000E+00  0.00000000000E+00  0.15909349651E+04  0.15909349651E+04  0.25500000920E-02 0. -1.
       -2   -1    0    0    0  501  0.00000000000E+00  0.00000000000E+00 -0.45411285238E+03  0.45411285238E+03  0.25500000920E-02 0.  1.
    10030    2    1    2    0    0  0.00000000000E+00  0.00000000000E+00  0.11368221127E+04  0.20450478175E+04  0.16999576641E+04 0.  0.
        3    1    3    3  502    0  0.33128902751E+01 -0.27856113029E+03 -0.39763310141E+03  0.48550939444E+03  0.10100000352E+00 0.  1.
       -3    1    3    3    0  502 -0.33128902751E+01  0.27856113029E+03  0.15344552141E+04  0.15595384230E+04  0.10100000352E+00 0. -1.
</event>
<event>
 5   0  0.7476457E-06  0.1700713E+04  0.7818609E-02  0.8760958E-01
       -1   -1    0    0    0  501  0.00000000000E+00  0.00000000000E+00  0.33681430616E+03  0.33681430620E+03  0.50400001928E-02 0.  1.
        1   -1    0    0  501    0  0.00000000000E+00  0.00000000000E+00 -0.21468975749E+04  0.21468975749E+04  0.50400001928E-02 0. -1.
    10030    2    1    2    0    0  0.00000000000E+00  0.00000000000E+00 -0.18100832687E+04  0.24837118811E+04  0.17007125767E+04 0.  0.
        2    1    3    3  502    0  0.59270302954E+03  0.59555050269E+03 -0.10961723108E+04  0.13811484415E+04  0.25500000920E-02 0.  1.
       -2    1    3    3    0  502 -0.59270302954E+03 -0.59555050269E+03 -0.71391095788E+03  0.11025634396E+04  0.25500000920E-02 0. -1.
</event>
<event>
 5   0  0.7082527E-06  0.1699702E+04  0.7818609E-02  0.8761534E-01
       -1   -1    0    0    0  501  0.00000000000E+00  0.00000000000E+00  0.55948253578E+03  0.55948253580E+03  0.50400001928E-02 0. -1.
        1   -1    0    0  501    0  0.00000000000E+00  0.00000000000E+00 -0.12909194763E+04  0.12909194763E+04  0.50400001928E-02 0.  1.
    10030    2    1    2    0    0  0.00000000000E+00  0.00000000000E+00 -0.73143694056E+03  0.18504020121E+04  0.16997022117E+04 0.  0.
        1    1    3    3  502    0 -0.83931574146E+03 -0.10411847948E+03 -0.27492551818E+03  0.88931187567E+03  0.50400001928E-02 0.  1.
       -1    1    3    3    0  502  0.83931574146E+03  0.10411847948E+03 -0.45651142237E+03  0.96109013647E+03  0.50400001928E-02 0. -1.
</event>
<event>
 5   0  0.1441756E-05  0.1699332E+04  0.7818609E-02  0.8761745E-01
        2   -1    0    0  501    0  0.00000000000E+00  0.00000000000E+00  0.11290190455E+04  0.11290190455E+04  0.25500000920E-02 0. -1.
       -2   -1    0    0    0  501  0.00000000000E+00  0.00000000000E+00 -0.63943331694E+03  0.63943331694E+03  0.25500000920E-02 0.  1.
    10030    2    1    2    0    0  0.00000000000E+00  0.00000000000E+00  0.48958572856E+03  0.17684523624E+04  0.16993320960E+04 0.  0.
        5    1    3    3  502    0  0.28759134911E+03  0.72586522520E+03 -0.10398262842E+03  0.78766971902E+03  0.46999998093E+01 0.  1.
       -5    1    3    3    0  502 -0.28759134911E+03 -0.72586522520E+03  0.59356835698E+03  0.98078264343E+03  0.46999998093E+01 0. -1.
</event>
<event>
 5   0  0.7455669E-06  0.1700384E+04  0.7818609E-02  0.8761146E-01
        1   -1    0    0  501    0  0.00000000000E+00  0.00000000000E+00  0.14175632705E+04  0.14175632705E+04  0.50400001928E-02 0. -1.
       -1   -1    0    0    0  501  0.00000000000E+00  0.00000000000E+00 -0.50990743518E+03  0.50990743521E+03  0.50400001928E-02 0.  1.
    10030    2    1    2    0    0  0.00000000000E+00  0.00000000000E+00  0.90765583530E+03  0.19274707057E+04  0.17003835467E+04 0.  0.
        4    1    3    3  502    0  0.24202716579E+03  0.26739319120E+03  0.13265500774E+04  0.13747046913E+04  0.12699999809E+01 0. -1.
       -4    1    3    3    0  502 -0.24202716579E+03 -0.26739319120E+03 -0.41889424208E+03  0.55276601436E+03  0.12699999809E+01 0.  1.
</event>
<event>
 5   0  0.7082527E-06  0.1699772E+04  0.7818609E-02  0.8761494E-01
       -1   -1    0    0    0  501  0.00000000000E+00  0.00000000000E+00  0.75260317108E+03  0.75260317109E+03  0.50400001928E-02 0.  1.
        1   -1    0    0  501    0  0.00000000000E+00  0.00000000000E+00 -0.95974367142E+03  0.95974367143E+03  0.50400001928E-02 0. -1.
    10030    2    1    2    0    0  0.00000000000E+00  0.00000000000E+00 -0.20714050034E+03  0.17123468425E+04  0.16997719030E+04 0.  0.
        1    1    3    3  502    0  0.21059451619E+03  0.21079463268E+03 -0.90539939868E+03  0.95316971132E+03  0.50400001928E-02 0. -1.
       -1    1    3    3    0  502 -0.21059451619E+03 -0.21079463268E+03  0.69825889834E+03  0.75917713121E+03  0.50400001928E-02 0.  1.
</event>
<event>
 5   0  0.1419012E-05  0.1699905E+04  0.7818609E-02  0.8761419E-01
        2   -1    0    0  501    0  0.00000000000E+00  0.00000000000E+00  0.11119783927E+04  0.11119783927E+04  0.25500000920E-02 0. -1.
       -2   -1    0    0    0  501  0.00000000000E+00  0.00000000000E+00 -0.64967003217E+03  0.64967003217E+03  0.25500000920E-02 0.  1.
    10030    2    1    2    0    0  0.00000000000E+00  0.00000000000E+00  0.46230836052E+03  0.17616484249E+04  0.16999047481E+04 0.  0.
        4    1    3    3  502    0 -0.26438222749E+03 -0.19675806654E+03  0.10430683497E+04  0.10938943706E+04  0.12699999809E+01 0. -1.
       -4    1    3    3    0  502  0.26438222749E+03  0.19675806654E+03 -0.58075998922E+03  0.66775405424E+03  0.12699999809E+01 0.  1.
</event>
<event>
 5   0  0.7082527E-06  0.1699855E+04  0.7818609E-02  0.8761447E-01
        1   -1    0    0  501    0  0.00000000000E+00  0.00000000000E+00  0.14481980641E+04  0.14481980641E+04  0.50400001928E-02 0. -1.
       -1   -1    0    0    0  501  0.00000000000E+00  0.00000000000E+00 -0.49881073798E+03  0.49881073801E+03  0.50400001928E-02 0.  1.
    10030    2    1    2    0    0  0.00000000000E+00  0.00000000000E+00  0.94938732615E+03  0.19470088021E+04  0.16998549881E+04 0.  0.
        1    1    3    3  502    0 -0.74895432138E+03 -0.24894293407E+03  0.83594175376E+03  0.11496537634E+04  0.50400001928E-02 0.  1.
       -1    1    3    3    0  502  0.74895432138E+03  0.24894293407E+03  0.11344557239E+03  0.79735503877E+03  0.50400001928E-02 0. -1.
</event>
<event>
 5   0  0.7082527E-06  0.1699738E+04  0.7818609E-02  0.8761514E-01
        1   -1    0    0  501    0  0.00000000000E+00  0.00000000000E+00  0.21011960394E+04  0.21011960394E+04  0.50400001928E-02 0. -1.
       -1   -1    0    0    0  501  0.00000000000E+00  0.00000000000E+00 -0.34374591317E+03  0.34374591321E+03  0.50400001928E-02 0.  1.
    10030    2    1    2    0    0  0.00000000000E+00  0.00000000000E+00  0.17574501263E+04  0.24449419526E+04  0.16997382756E+04 0.  0.
        1    1    3    3  502    0 -0.29737741015E+02 -0.66597618600E+03  0.12048539914E+03  0.67744028888E+03  0.50400001928E-02 0.  1.
       -1    1    3    3    0  502  0.29737741015E+02  0.66597618600E+03  0.16369647271E+04  0.17675016638E+04  0.50400001928E-02 0. -1.
</event>
<event>
 5   0  0.7082527E-06  0.1700390E+04  0.7818609E-02  0.8761142E-01
        1   -1    0    0  501    0  0.00000000000E+00  0.00000000000E+00  0.81813282432E+03  0.81813282434E+03  0.50400001928E-02 0. -1.
       -1   -1    0    0    0  501  0.00000000000E+00  0.00000000000E+00 -0.88351342813E+03  0.88351342815E+03  0.50400001928E-02 0.  1.
    10030    2    1    2    0    0  0.00000000000E+00  0.00000000000E+00 -0.65380603811E+02  0.17016462525E+04  0.17003897627E+04 0.  0.
        1    1    3    3  502    0 -0.77823715050E+03  0.27798137898E+01  0.30986447474E+03  0.83766149638E+03  0.50400001928E-02 0. -1.
       -1    1    3    3    0  502  0.77823715050E+03 -0.27798137898E+01 -0.37524507855E+03  0.86398475611E+03  0.50400001928E-02 0.  1.
</event>
<event>
 5   0  0.7583716E-06  0.1700316E+04  0.7818609E-02  0.8761184E-01
       -1   -1    0    0    0  501  0.00000000000E+00  0.00000000000E+00  0.96784746883E+03  0.96784746884E+03  0.50400001928E-02 0.  1.
        1   -1    0    0  501    0  0.00000000000E+00  0.00000000000E+00 -0.74677990266E+03  0.74677990267E+03  0.50400001928E-02 0. -1.
    10030    2    1    2    0    0  0.00000000000E+00  0.00000000000E+00  0.22106756617E+03  0.17146273715E+04  0.17003164865E+04 0.  0.
        5    1    3    3  502    0 -0.48116057577E+02 -0.19896768351E+03 -0.72154353503E+03  0.75003363725E+03  0.46999998093E+01 0. -1.
       -5    1    3    3    0  502  0.48116057577E+02  0.19896768351E+03  0.94261110120E+03  0.96459373426E+03  0.46999998093E+01 0.  1.
</event>
<event>
 5   0  0.7583716E-06  0.1699049E+04  0.7818609E-02  0.8761907E-01
       -1   -1    0    0    0  501  0.00000000000E+00  0.00000000000E+00  0.50787648033E+03  0.50787648035E+03  0.50400001928E-02 0.  1.
        1   -1    0    0  501    0  0.00000000000E+00  0.00000000000E+00 -0.14209991552E+04  0.14209991552E+04  0.50400001928E-02 0. -1.
    10030    2    1    2    0    0  0.00000000000E+00  0.00000000000E+00 -0.91312267483E+03  0.19288756355E+04  0.16990492041E+04 0.  0.
        5    1    3    3  502    0 -0.65873371047E+02 -0.44689777316E+03 -0.12733334013E+04  0.13510947271E+04  0.46999998093E+01 0. -1.
       -5    1    3    3    0  502  0.65873371047E+02  0.44689777316E+03  0.36021072649E+03  0.57778090843E+03  0.46999998093E+01 0.  1.
</event>
<event>
 5   0  0.7476457E-06  0.1701079E+04  0.7818609E-02  0.8760749E-01
        1   -1    0    0  501    0  0.00000000000E+00  0.00000000000E+00  0.85721679012E+03  0.85721679014E+03  0.50400001928E-02 0. -1.
       -1   -1    0    0    0  501  0.00000000000E+00  0.00000000000E+00 -0.84391381676E+03  0.84391381677E+03  0.50400001928E-02 0.  1.
    10030    2    1    2    0    0  0.00000000000E+00  0.00000000000E+00  0.13302973365E+02  0.17011306069E+04  0.17010785910E+04 0.  0.
        2    1    3    3  502    0 -0.76588204581E+03  0.14014543263E+03 -0.33570536002E+03  0.84788804634E+03  0.25500000920E-02 0.  1.
       -2    1    3    3    0  502  0.76588204581E+03 -0.14014543263E+03  0.34900833339E+03  0.85324256057E+03  0.25500000920E-02 0. -1.
</event>
<event>
 5   0  0.7476457E-06  0.1699859E+04  0.7818609E-02  0.8761445E-01
        1   -1    0    0  501    0  0.00000000000E+00  0.00000000000E+00  0.16689221402E+04  0.16689221402E+04  0.50400001928E-02 0.  1.
       -1   -1    0    0    0  501  0.00000000000E+00  0.00000000000E+00 -0.43284241452E+03  0.43284241455E+03  0.50400001928E-02 0. -1.
    10030    2    1    2    0    0  0.00000000000E+00  0.00000000000E+00  0.12360797256E+04  0.21017645547E+04  0.16998591575E+04 0.  0.
        2    1    3    3  502    0 -0.31364565348E+03 -0.77597243317E+03  0.80090462471E+03  0.11584278272E+04  0.25500000920E-02 0. -1.
       -2    1    3    3    0  502  0.31364565348E+03  0.77597243317E+03  0.43517510093E+03  0.94333672751E+03  0.25500000920E-02 0.  1.
</event>
<event>
 5   0  0.7476457E-06  0.1698667E+04  0.7818609E-02  0.8762125E-01
        1   -1    0    0  501    0  0.00000000000E+00  0.00000000000E+00  0.22116001129E+04  0.22116001129E+04  0.50400001928E-02 0. -1.
       -1   -1    0    0    0  501  0.00000000000E+00  0.00000000000E+00 -0.32617429748E+03  0.32617429752E+03  0.50400001928E-02 0.  1.
    10030    2    1    2    0    0  0.00000000000E+00  0.00000000000E+00  0.18854258154E+04  0.25377744104E+04  0.16986666691E+04 0.  0.
        2    1    3    3  502    0  0.26372672560E+03  0.44544320747E+03 -0.63253632559E+02  0.52150978794E+03  0.25500000920E-02 0.  1.
       -2    1    3    3    0  502 -0.26372672560E+03 -0.44544320747E+03  0.19486794480E+04  0.20162646225E+04  0.25500000920E-02 0. -1.
</event>
<event>
 5   0  0.1441756E-05  0.1700552E+04  0.7818609E-02  0.8761049E-01
       -2   -1    0    0    0  501  0.00000000000E+00  0.00000000000E+00  0.32800871904E+04  0.32800871904E+04  0.25500000920E-02 0. -1.
        2   -1    0    0  501    0  0.00000000000E+00  0.00000000000E+00 -0.22041166595E+03  0.22041166597E+03  0.25500000920E-02 0.  1.
    10030    2    1    2    0    0  0.00000000000E+00  0.00000000000E+00  0.30596755244E+04  0.35004988563E+04  0.17005522422E+04 0.  0.
        5    1    3    3  502    0  0.28692890753E+03  0.63111888274E+03  0.25431049346E+04  0.26359142703E+04  0.46999998093E+01 0. -1.
       -5    1    3    3    0  502 -0.28692890753E+03 -0.63111888274E+03  0.51657058984E+03  0.86458458603E+03  0.46999998093E+01 0.  1.
</event>
<event>
 5   0  0.7082527E-06  0.1698260E+04  0.7818609E-02  0.8762357E-01
        1   -1    0    0  501    0  0.00000000000E+00  0.00000000000E+00  0.72513497322E+03  0.72513497324E+03  0.50400001928E-02 0. -1.
       -1   -1    0    0    0  501  0.00000000000E+00  0.00000000000E+00 -0.99432816191E+03  0.99432816192E+03  0.50400001928E-02 0.  1.
    10030    2    1    2    0    0  0.00000000000E+00  0.00000000000E+00 -0.26919318869E+03  0.17194631352E+04  0.16982604336E+04 0.  0.
        1    1    3    3  502    0 -0.71742844708E+03 -0.42262683560E+03 -0.30312320530E+03  0.88611550967E+03  0.50400001928E-02 0.  1.
       -1    1    3    3    0  502  0.71742844708E+03  0.42262683560E+03  0.33930016619E+02  0.83334762549E+03  0.50400001928E-02 0. -1.
</event>
<event>
 5   0  0.5229750E-06  0.1699495E+04  0.7818609E-02  0.8761652E-01
        3   -1    0    0  501    0  0.00000000000E+00  0.00000000000E+00  0.56021543773E+03  0.56021544683E+03  0.10100000352E+00 0. -1.
       -3   -1    0    0    0  501  0.00000000000E+00  0.00000000000E+00 -0.12889163438E+04  0.12889163478E+04  0.10100000352E+00 0.  1.
    10030    2    1    2    0    0  0.00000000000E+00  0.00000000000E+00 -0.72870090612E+03  0.18491317946E+04  0.16994950378E+04 0.  0.
        1    1    3    3  502    0  0.79877317955E+02  0.83020335846E+03 -0.18738677082E+03  0.85482852329E+03  0.50400001928E-02 0.  1.
       -1    1    3    3    0  502 -0.79877317955E+02 -0.83020335846E+03 -0.54131413530E+03  0.99430327135E+03  0.50400001928E-02 0. -1.
</event>
<event>
 5   0  0.1423543E-05  0.1701715E+04  0.7818609E-02  0.8760387E-01
        2   -1    0    0  501    0  0.00000000000E+00  0.00000000000E+00  0.18387623208E+04  0.18387623208E+04  0.25500000920E-02 0.  1.
       -2   -1    0    0    0  501  0.00000000000E+00  0.00000000000E+00 -0.39372067703E+03  0.39372067704E+03  0.25500000920E-02 0. -1.
    10030    2    1    2    0    0  0.00000000000E+00  0.00000000000E+00  0.14450416437E+04  0.22324829978E+04  0.17017153062E+04 0.  0.
        3    1    3    3  502    0 -0.79864437443E+03 -0.28059669285E+03  0.83530922681E+03  0.11892471801E+04  0.10100000352E+00 0.  1.
       -3    1    3    3    0  502  0.79864437443E+03  0.28059669285E+03  0.60973241693E+03  0.10432358177E+04  0.10100000352E+00 0. -1.
</event>
<event>
 5   0  0.7455669E-06  0.1699861E+04  0.7818609E-02  0.8761444E-01
       -1   -1    0    0    0  501  0.00000000000E+00  0.00000000000E+00  0.54736013110E+03  0.54736013112E+03  0.50400001928E-02 0.  1.
        1   -1    0    0  501    0  0.00000000000E+00  0.00000000000E+00 -0.13197557050E+04  0.13197557050E+04  0.50400001928E-02 0. -1.
    10030    2    1    2    0    0  0.00000000000E+00  0.00000000000E+00 -0.77239557386E+03  0.18671158361E+04  0.16998607657E+04 0.  0.
        4    1    3    3  502    0  0.99005460571E+01 -0.21057727166E+03  0.51818710091E+03  0.55942854110E+03  0.12699999809E+01 0.  1.
       -4    1    3    3    0  502 -0.99005460571E+01  0.21057727166E+03 -0.12905826748E+04  0.13076872950E+04  0.12699999809E+01 0. -1.
</event>
<event>
 5   0  0.1419012E-05  0.1699921E+04  0.7818609E-02  0.8761410E-01
       -2   -1    0    0    0  501  0.00000000000E+00  0.00000000000E+00  0.31393555288E+03  0.31393555289E+03  0.25500000920E-02 0.  1.
        2   -1    0    0  501    0  0.00000000000E+00  0.00000000000E+00 -0.23012129921E+04  0.23012129921E+04  0.25500000920E-02 0. -1.
    10030    2    1    2    0    0  0.00000000000E+00  0.00000000000E+00 -0.19872774392E+04  0.26151485450E+04  0.16999206723E+04 0.  0.
        4    1    3    3  502    0 -0.33542529146E+03 -0.67005395338E+03 -0.16108178317E+04  0.17765748299E+04  0.12699999809E+01 0. -1.
       -4    1    3    3    0  502  0.33542529146E+03  0.67005395338E+03 -0.37645960755E+03  0.83857371508E+03  0.12699999809E+01 0.  1.
</event>
<event>
 5   0  0.1374441E-05  0.1698441E+04  0.7818609E-02  0.8762254E-01
        2   -1    0    0  501    0  0.00000000000E+00  0.00000000000E+00  0.11532054239E+04  0.11532054239E+04  0.25500000920E-02 0.  1.
       -2   -1    0    0    0  501  0.00000000000E+00  0.00000000000E+00 -0.62536606573E+03  0.62536606573E+03  0.25500000920E-02 0. -1.
    10030    2    1    2    0    0  0.00000000000E+00  0.00000000000E+00  0.52783935821E+03  0.17785714897E+04  0.16984410958E+04 0.  0.
        1    1    3    3  502    0 -0.65912429333E+03  0.21772063675E+03 -0.24837280221E+03  0.73724904790E+03  0.50400001928E-02 0. -1.
       -1    1    3    3    0  502  0.65912429333E+03 -0.21772063675E+03  0.77621216041E+03  0.10413224418E+04  0.50400001928E-02 0.  1.
</event>
<event>
 5   0  0.7461128E-06  0.1699969E+04  0.7818609E-02  0.8761382E-01
       -1   -1    0    0    0  501  0.00000000000E+00  0.00000000000E+00  0.91140833662E+03  0.91140833663E+03  0.50400001928E-02 0. -1.
        1   -1    0    0  501    0  0.00000000000E+00  0.00000000000E+00 -0.79270033652E+03  0.79270033653E+03  0.50400001928E-02 0.  1.
    10030    2    1    2    0    0  0.00000000000E+00  0.00000000000E+00  0.11870800010E+03  0.17041086732E+04  0.16999690529E+04 0.  0.
        3    1    3    3  502    0 -0.23743464129E+02  0.53083135971E+02  0.90941195204E+03  0.91126926873E+03  0.10100000352E+00 0. -1.
       -3    1    3    3    0  502  0.23743464129E+02 -0.53083135971E+02 -0.79070395194E+03  0.79283940444E+03  0.10100000352E+00 0.  1.
</event>
<event>
 5   0  0.1423543E-05  0.1699572E+04  0.7818609E-02  0.8761609E-01
       -2   -1    0    0    0  501  0.00000000000E+00  0.00000000000E+00  0.34167992131E+03  0.34167992132E+03  0.25500000920E-02 0.  1.
        2   -1    0    0  501    0  0.00000000000E+00  0.00000000000E+00 -0.21134870263E+04  0.21134870263E+04  0.25500000920E-02 0. -1.
    10030    2    1    2    0    0  0.00000000000E+00  0.00000000000E+00 -0.17718071050E+04  0.24551669477E+04  0.16995718059E+04 0.  0.
        3    1    3    3  502    0 -0.64263697838E+02  0.16387844777E+00  0.33816464412E+03  0.34421677247E+03  0.10100000352E+00 0.  1.
       -3    1    3    3    0  502  0.64263697838E+02 -0.16387844777E+00 -0.21099717492E+04  0.21109501752E+04  0.10100000352E+00 0. -1.
</event>
<event>
 5   0  0.7455669E-06  0.1699449E+04  0.7818609E-02  0.8761678E-01
       -1   -1    0    0    0  501  0.00000000000E+00  0.00000000000E+00  0.91027723476E+03  0.91027723477E+03  0.50400001928E-02 0. -1.
        1   -1    0    0  501    0  0.00000000000E+00  0.00000000000E+00 -0.79320013611E+03  0.79320013613E+03  0.50400001928E-02 0.  1.
    10030    2    1    2    0    0  0.00000000000E+00  0.00000000000E+00  0.11707709865E+03  0.17034773709E+04  0.16994493538E+04 0.  0.
        4    1    3    3  502    0  0.80894039902E+02 -0.54742219078E+03  0.70490452315E+03  0.89616231806E+03  0.12699999809E+01 0. -1.
       -4    1    3    3    0  502 -0.80894039902E+02  0.54742219078E+03 -0.58782742450E+03  0.80731505284E+03  0.12699999809E+01 0.  1.
</event>
<event>
 5   0  0.1435301E-05  0.1699270E+04  0.7818609E-02  0.8761781E-01
       -2   -1    0    0    0  501  0.00000000000E+00  0.00000000000E+00  0.50049559498E+03  0.50049559499E+03  0.25500000920E-02 0.  1.
        2   -1    0    0  501    0  0.00000000000E+00  0.00000000000E+00 -0.14423292043E+04  0.14423292043E+04  0.25500000920E-02 0. -1.
    10030    2    1    2    0    0  0.00000000000E+00  0.00000000000E+00 -0.94183360927E+03  0.19428247992E+04  0.16992697411E+04 0.  0.
        2    1    3    3  502    0 -0.33513061994E+03 -0.42520891166E+03  0.27773625558E+03  0.60848383598E+03  0.25500000920E-02 0.  1.
       -2    1    3    3    0  502  0.33513061994E+03  0.42520891166E+03 -0.12195698649E+04  0.13343409633E+04  0.25500000920E-02 0. -1.
</event>
<event>
 5   0  0.7455669E-06  0.1700962E+04  0.7818609E-02  0.8760816E-01
        1   -1    0    0  501    0  0.00000000000E+00  0.00000000000E+00  0.44068132689E+03  0.44068132692E+03  0.50400001928E-02 0. -1.
       -1   -1    0    0    0  501  0.00000000000E+00  0.00000000000E+00 -0.16413632307E+04  0.16413632308E+04  0.50400001928E-02 0.  1.
    10030    2    1    2    0    0  0.00000000000E+00  0.00000000000E+00 -0.12006819039E+04  0.20820445577E+04  0.17009622294E+04 0.  0.
        4    1    3    3  502    0  0.72965734424E+03 -0.36933315392E+03 -0.88612121093E+03  0.12058271982E+04  0.12699999809E+01 0.  1.
       -4    1    3    3    0  502 -0.72965734424E+03  0.36933315392E+03 -0.31456069293E+03  0.87621735946E+03  0.12699999809E+01 0. -1.
</event>
<event>
 5   0  0.7455669E-06  0.1702264E+04  0.7818609E-02  0.8760074E-01
        1   -1    0    0  501    0  0.00000000000E+00  0.00000000000E+00  0.48415710278E+03  0.48415710281E+03  0.50400001928E-02 0.  1.
       -1   -1    0    0    0  501  0.00000000000E+00  0.00000000000E+00 -0.14962614032E+04  0.14962614032E+04  0.50400001928E-02 0. -1.
    10030    2    1    2    0    0  0.00000000000E+00  0.00000000000E+00 -0.10121043004E+04  0.19804185060E+04  0.17022638879E+04 0.  0.
        4    1    3    3  502    0  0.59704179666E+03 -0.76964744578E+02  0.19396594132E+03  0.63246096967E+03  0.12699999809E+01 0.  1.
       -4    1    3    3    0  502 -0.59704179666E+03  0.76964744578E+02 -0.12060702418E+04  0.13479575364E+04  0.12699999809E+01 0. -1.
</event>
<event>
 5   0  0.7476457E-06  0.1699834E+04  0.7818609E-02  0.8761459E-01
        1   -1    0    0  501    0  0.00000000000E+00  0.00000000000E+00  0.12147912678E+04  0.12147912678E+04  0.50400001928E-02 0.  1.
       -1   -1    0    0    0  501  0.00000000000E+00  0.00000000000E+00 -0.59463612211E+03  0.59463612213E+03  0.50400001928E-02 0. -1.
    10030    2    1    2    0    0  0.00000000000E+00  0.00000000000E+00  0.62015514565E+03  0.18094273899E+04  0.16998338374E+04 0.  0.
        2    1    3    3  502    0  0.16414741120E+03  0.64473985631E+03  0.87306703272E+03  0.10976702139E+04  0.25500000920E-02 0.  1.
       -2    1    3    3    0  502 -0.16414741120E+03 -0.64473985631E+03 -0.25291188707E+03  0.71175717597E+03  0.25500000920E-02 0. -1.
</event>
<event>
 5   0  0.1435301E-05  0.1700387E+04  0.7818609E-02  0.8761144E-01
        2   -1    0    0  501    0  0.00000000000E+00  0.00000000000E+00  0.15148502173E+04  0.15148502173E+04  0.25500000920E-02 0.  1.
       -2   -1    0    0    0  501  0.00000000000E+00  0.00000000000E+00 -0.47716174364E+03  0.47716174365E+03  0.25500000920E-02 0. -1.
    10030    2    1    2    0    0  0.00000000000E+00  0.00000000000E+00  0.10376884737E+04  0.19920119610E+04  0.17003865103E+04 0.  0.
        2    1    3    3  502    0  0.57818566725E+02  0.49716812216E+02 -0.47314750115E+03  0.47925286220E+03  0.25500000920E-02 0. -1.
       -2    1    3    3    0  502 -0.57818566725E+02 -0.49716812216E+02  0.15108359748E+04  0.15127590988E+04  0.25500000920E-02 0.  1.
</event>
<event>
 5   0  0.1374441E-05  0.1700806E+04  0.7818609E-02  0.8760905E-01
       -2   -1    0    0    0  501  0.00000000000E+00  0.00000000000E+00  0.14132748689E+04  0.14132748690E+04  0.25500000920E-02 0.  1.
        2   -1    0    0  501    0  0.00000000000E+00  0.00000000000E+00 -0.51170906380E+03  0.51170906381E+03  0.25500000920E-02 0. -1.
    10030    2    1    2    0    0  0.00000000000E+00  0.00000000000E+00  0.90156580515E+03  0.19249839328E+04  0.17008063500E+04 0.  0.
        1    1    3    3  502    0  0.39823116137E+03 -0.22550364354E+03 -0.36045139156E+03  0.58255056162E+03  0.50400001928E-02 0. -1.
       -1    1    3    3    0  502 -0.39823116137E+03  0.22550364354E+03  0.12620171967E+04  0.13424333711E+04  0.50400001928E-02 0.  1.
</event>
<event>
 5   0  0.1441756E-05  0.1700885E+04  0.7818609E-02  0.8760860E-01
       -2   -1    0    0    0  501  0.00000000000E+00  0.00000000000E+00  0.53979455189E+03  0.53979455190E+03  0.25500000920E-02 0.  1.
        2   -1    0    0  501    0  0.00000000000E+00  0.00000000000E+00 -0.13398660956E+04  0.13398660956E+04  0.25500000920E-02 0. -1.
    10030    2    1    2    0    0  0.00000000000E+00  0.00000000000E+00 -0.80007154366E+03  0.18796606475E+04  0.17008849681E+04 0.  0.
        5    1    3    3  502    0 -0.79595827804E+03  0.17616027094E+03 -0.13240734153E+03  0.82591513821E+03  0.46999998093E+01 0.  1.
       -5    1    3    3    0  502  0.79595827804E+03 -0.17616027094E+03 -0.66766420213E+03  0.10537455092E+04  0.46999998093E+01 0. -1.
</event>
<event>
 5   0  0.1374441E-05  0.1699314E+04  0.7818609E-02  0.8761756E-01
       -2   -1    0    0    0  501  0.00000000000E+00  0.00000000000E+00  0.38539979690E+03  0.38539979691E+03  0.25500000920E-02 0. -1.
        2   -1    0    0  501    0  0.00000000000E+00  0.00000000000E+00 -0.18731628867E+04  0.18731628867E+04  0.25500000920E-02 0.  1.
    10030    2    1    2    0    0  0.00000000000E+00  0.00000000000E+00 -0.14877630898E+04  0.22585626836E+04  0.16993135039E+04 0.  0.
        1    1    3    3  502    0 -0.30645655931E+03  0.15294409847E+03 -0.17773470155E+04  0.18100469424E+04  0.50400001928E-02 0.  1.
       -1    1    3    3    0  502  0.30645655931E+03 -0.15294409847E+03  0.28958392578E+03  0.44851574119E+03  0.50400001928E-02 0. -1.
</event>
<event>
 5   0  0.7082527E-06  0.1698853E+04  0.7818609E-02  0.8762019E-01
        1   -1    0    0  501    0  0.00000000000E+00  0.00000000000E+00  0.77870242586E+03  0.77870242587E+03  0.50400001928E-02 0. -1.
       -1   -1    0    0    0  501  0.00000000000E+00  0.00000000000E+00 -0.92657403807E+03  0.92657403808E+03  0.50400001928E-02 0.  1.
    10030    2    1    2    0    0  0.00000000000E+00  0.00000000000E+00 -0.14787161221E+03  0.17052764640E+04  0.16988530851E+04 0.  0.
        1    1    3    3  502    0 -0.31973256977E+03  0.55319969230E+03 -0.63575431938E+03  0.90135585113E+03  0.50400001928E-02 0.  1.
       -1    1    3    3    0  502  0.31973256977E+03 -0.55319969230E+03  0.48788270717E+03  0.80392061282E+03  0.50400001928E-02 0. -1.
</event>
<event>
 5   0  0.1441756E-05  0.1700490E+04  0.7818609E-02  0.8761085E-01
       -2   -1    0    0    0  501  0.00000000000E+00  0.00000000000E+00  0.10489803130E+04  0.10489803131E+04  0.25500000920E-02 0. -1.
        2   -1    0    0  501    0  0.00000000000E+00  0.00000000000E+00 -0.68916151078E+03  0.68916151079E+03  0.25500000920E-02 0.  1.
    10030    2    1    2    0    0  0.00000000000E+00  0.00000000000E+00  0.35981880227E+03  0.17381418238E+04  0.17004903497E+04 0.  0.
        5    1    3    3  502    0  0.66276582228E+03 -0.44163430752E+03 -0.12433076722E+03  0.80608909336E+03  0.46999998093E+01 0.  1.
       -5    1    3    3    0  502 -0.66276582228E+03  0.44163430752E+03  0.48414956949E+03  0.93205273048E+03  0.46999998093E+01 0. -1.
</event>
<event>
 5   0  0.5229750E-06  0.1709294E+04  0.7818609E-02  0.8756082E-01
        3   -1    0    0  501    0  0.00000000000E+00  0.00000000000E+00  0.71759327654E+03  0.71759328365E+03  0.10100000352E+00 0.  1.
       -3   -1    0    0    0  501  0.00000000000E+00  0.00000000000E+00 -0.10178762328E+04  0.10178762378E+04  0.10100000352E+00 0. -1.
    10030    2    1    2    0    0  0.00000000000E+00  0.00000000000E+00 -0.30028295628E+03  0.17354695215E+04  0.17092935986E+04 0.  0.
        3    1    3    3  502    0 -0.42010024652E+03 -0.65563243746E+03  0.20750711567E+03  0.80585192400E+03  0.10100000352E+00 0.  1.
       -3    1    3    3    0  502  0.42010024652E+03  0.65563243746E+03 -0.50779007196E+03  0.92961759748E+03  0.10100000352E+00 0. -1.
</event>
<event>
 5   0  0.1419012E-05  0.1699992E+04  0.7818609E-02  0.8761369E-01
       -2   -1    0    0    0  501  0.00000000000E+00  0.00000000000E+00  0.66443669516E+03  0.66443669517E+03  0.25500000920E-02 0. -1.
        2   -1    0    0  501    0  0.00000000000E+00  0.00000000000E+00 -0.10873771422E+04  0.10873771422E+04  0.25500000920E-02 0.  1.
    10030    2    1    2    0    0  0.00000000000E+00  0.00000000000E+00 -0.42294044702E+03  0.17518138373E+04  0.16999920879E+04 0.  0.
        4    1    3    3  502    0 -0.20441936629E+03  0.70654970544E+03 -0.65047543304E+03  0.98189595450E+03  0.12699999809E+01 0.  1.
       -4    1    3    3    0  502  0.20441936629E+03 -0.70654970544E+03  0.22753498602E+03  0.76991788285E+03  0.12699999809E+01 0. -1.
</event>
<event>
 5   0  0.1419012E-05  0.1700171E+04  0.7818609E-02  0.8761267E-01
       -2   -1    0    0    0  501  0.00000000000E+00  0.00000000000E+00  0.81769951250E+03  0.81769951251E+03  0.25500000920E-02 0. -1.
        2   -1    0    0  501    0  0.00000000000E+00  0.00000000000E+00 -0.88375412804E+03  0.88375412804E+03  0.25500000920E-02 0.  1.
    10030    2    1    2    0    0  0.00000000000E+00  0.00000000000E+00 -0.66054615531E+02  0.17014536405E+04  0.17001709557E+04 0.  0.
        4    1    3    3  502    0 -0.47897219142E+03 -0.80481961941E+02  0.66517519318E+03  0.82362088176E+03  0.12699999809E+01 0. -1.
       -4    1    3    3    0  502  0.47897219142E+03  0.80481961941E+02 -0.73122980871E+03  0.87783275879E+03  0.12699999809E+01 0.  1.
</event>
<event>
 5   0  0.7476457E-06  0.1699650E+04  0.7818609E-02  0.8761564E-01
       -1   -1    0    0    0  501  0.00000000000E+00  0.00000000000E+00  0.67004772210E+03  0.67004772212E+03  0.50400001928E-02 0. -1.
        1   -1    0    0  501    0  0.00000000000E+00  0.00000000000E+00 -0.10778380071E+04  0.10778380071E+04  0.50400001928E-02 0.  1.
    10030    2    1    2    0    0  0.00000000000E+00  0.00000000000E+00 -0.40779028504E+03  0.17478857293E+04  0.16996504364E+04 0.  0.
        2    1    3    3  502    0  0.33421788586E+03 -0.42980323178E+03 -0.87492401062E+03  0.10304971798E+04  0.25500000920E-02 0.  1.
       -2    1    3    3    0  502 -0.33421788586E+03  0.42980323178E+03  0.46713372558E+03  0.71738854943E+03  0.25500000920E-02 0. -1.
</event>
<event>
 5   0  0.7082527E-06  0.1698657E+04  0.7818609E-02  0.8762131E-01
        1   -1    0    0  501    0  0.00000000000E+00  0.00000000000E+00  0.14031029032E+04  0.14031029032E+04  0.50400001928E-02 0.  1.
       -1   -1    0    0    0  501  0.00000000000E+00  0.00000000000E+00 -0.51411705374E+03  0.51411705377E+03  0.50400001928E-02 0. -1.
    10030    2    1    2    0    0  0.00000000000E+00  0.00000000000E+00  0.88898584944E+03  0.19172199570E+04  0.16986572706E+04 0.  0.
        1    1    3    3  502    0 -0.37832608771E+03  0.17442546818E+03  0.12798629360E+04  0.13459583974E+04  0.50400001928E-02 0.  1.
       -1    1    3    3    0  502  0.37832608771E+03 -0.17442546818E+03 -0.39087708656E+03  0.57126155955E+03  0.50400001928E-02 0. -1.
</event>
<event>
 5   0  0.7583716E-06  0.1699888E+04  0.7818609E-02  0.8761428E-01
       -1   -1    0    0    0  501  0.00000000000E+00  0.00000000000E+00  0.82844029668E+03  0.82844029670E+03  0.50400001928E-02 0.  1.
        1   -1    0    0  501    0  0.00000000000E+00  0.00000000000E+00 -0.87200552069E+03  0.87200552071E+03  0.50400001928E-02 0. -1.
    10030    2    1    2    0    0  0.00000000000E+00  0.00000000000E+00 -0.43565224007E+02  0.17004458174E+04  0.16998876578E+04 0.  0.
        5    1    3    3  502    0  0.50564121335E+03 -0.66447737309E+03 -0.18051428574E+03  0.85428959572E+03  0.46999998093E+01 0. -1.
       -5    1    3    3    0  502 -0.50564121335E+03  0.66447737309E+03  0.13694906174E+03  0.84615622169E+03  0.46999998093E+01 0.  1.
</event>
<event>
 5   0  0.1419012E-05  0.1699327E+04  0.7818609E-02  0.8761748E-01
       -2   -1    0    0    0  501  0.00000000000E+00  0.00000000000E+00  0.39042175640E+03  0.39042175641E+03  0.25500000920E-02 0.  1.
        2   -1    0    0  501    0  0.00000000000E+00  0.00000000000E+00 -0.18490986927E+04  0.18490986928E+04  0.25500000920E-02 0. -1.
    10030    2    1    2    0    0  0.00000000000E+00  0.00000000000E+00 -0.14586769363E+04  0.22395204492E+04  0.16993273486E+04 0.  0.
        4    1    3    3  502    0  0.64781943065E+03 -0.18852249466E+03 -0.14099550424E+04  0.15630692820E+04  0.12699999809E+01 0. -1.
       -4    1    3    3    0  502 -0.64781943065E+03  0.18852249466E+03 -0.48721893904E+02  0.67645116717E+03  0.12699999809E+01 0.  1.
</event>
<event>
 5   0  0.1441756E-05  0.1700011E+04  0.7818609E-02  0.8761358E-01
       -2   -1    0    0    0  501  0.00000000000E+00  0.00000000000E+00  0.23938291841E+03  0.23938291843E+03  0.25500000920E-02 0.  1.
        2   -1    0    0  501    0  0.00000000000E+00  0.00000000000E+00 -0.30182175476E+04  0.30182175476E+04  0.25500000920E-02 0. -1.
    10030    2    1    2    0    0  0.00000000000E+00  0.00000000000E+00 -0.27788346292E+04  0.32576004661E+04  0.17000114411E+04 0.  0.
        5    1    3    3  502    0 -0.68268921025E+03  0.40515064111E+03 -0.19715077152E+04  0.21253414692E+04  0.46999998093E+01 0. -1.
       -5    1    3    3    0  502  0.68268921025E+03 -0.40515064111E+03 -0.80732691404E+03  0.11322589968E+04  0.46999998093E+01 0.  1.
</event>
<event>
 5   0  0.1374441E-05  0.1700536E+04  0.7818609E-02  0.8761059E-01
        2   -1    0    0  501    0  0.00000000000E+00  0.00000000000E+00  0.24853911151E+04  0.24853911151E+04  0.25500000920E-02 0. -1.
       -2   -1    0    0    0  501  0.00000000000E+00  0.00000000000E+00 -0.29088195146E+03  0.29088195147E+03  0.25500000920E-02 0.  1.
    10030    2    1    2    0    0  0.00000000000E+00  0.00000000000E+00  0.21945091637E+04  0.27762730666E+04  0.17005357012E+04 0.  0.
        1    1    3    3  502    0  0.35255472997E+03  0.65968211632E+03  0.17573532462E+04  0.19099125017E+04  0.50400001928E-02 0. -1.
       -1    1    3    3    0  502 -0.35255472997E+03 -0.65968211632E+03  0.43715591750E+03  0.86636056492E+03  0.50400001928E-02 0.  1.
</event>
<event>
 5   0  0.1374441E-05  0.1697997E+04  0.7818609E-02  0.8762507E-01
        2   -1    0    0  501    0  0.00000000000E+00  0.00000000000E+00  0.22455180081E+04  0.22455180081E+04  0.25500000920E-02 0.  1.
       -2   -1    0    0    0  501  0.00000000000E+00  0.00000000000E+00 -0.32099434253E+03  0.32099434254E+03  0.25500000920E-02 0. -1.
    10030    2    1    2    0    0  0.00000000000E+00  0.00000000000E+00  0.19245236655E+04  0.25665123506E+04  0.16979971456E+04 0.  0.
        1    1    3    3  502    0 -0.71758154723E+03 -0.99985828701E+02  0.29330301689E+03  0.78163105274E+03  0.50400001928E-02 0. -1.
       -1    1    3    3    0  502  0.71758154723E+03  0.99985828701E+02  0.16312206486E+04  0.17848812979E+04  0.50400001928E-02 0.  1.
</event>
<event>
 5   0  0.7583716E-06  0.1699969E+04  0.7818609E-02  0.8761382E-01
       -1   -1    0    0    0  501  0.00000000000E+00  0.00000000000E+00  0.63356437457E+03  0.63356437459E+03  0.50400001928E-02 0. -1.
        1   -1    0    0  501    0  0.00000000000E+00  0.00000000000E+00 -0.11403322257E+04  0.11403322257E+04  0.50400001928E-02 0.  1.
    10030    2    1    2    0    0  0.00000000000E+00  0.00000000000E+00 -0.50676785112E+03  0.17738966003E+04  0.16999692625E+04 0.  0.
        5    1    3    3  502    0  0.41741131305E+03 -0.18516838869E+03 -0.10014503571E+04  0.11006563697E+04  0.46999998093E+01 0.  1.
       -5    1    3    3    0  502 -0.41741131305E+03  0.18516838869E+03  0.49468250594E+03  0.67324023061E+03  0.46999998093E+01 0. -1.
</event>
<event>
 5   0  0.5229750E-06  0.1698813E+04  0.7818609E-02  0.8762042E-01
       -3   -1    0    0    0  501  0.00000000000E+00  0.00000000000E+00  0.10233767508E+04  0.10233767557E+04  0.10100000352E+00 0. -1.
        3   -1    0    0  501    0  0.00000000000E+00  0.00000000000E+00 -0.70501015463E+03  0.70501016187E+03  0.10100000352E+00 0.  1.
    10030    2    1    2    0    0  0.00000000000E+00  0.00000000000E+00  0.31836659613E+03  0.17283869176E+04  0.16988125404E+04 0.  0.
        2    1    3    3  502    0  0.24861305512E+03 -0.64287717906E+03 -0.34583645713E+03  0.77116948437E+03  0.25500000920E-02 0.  1.
       -2    1    3    3    0  502 -0.24861305512E+03  0.64287717906E+03  0.66420305326E+03  0.95721743324E+03  0.25500000920E-02 0. -1.
</event>
<event>
 5   0  0.1419012E-05  0.1699043E+04  0.7818609E-02  0.8761911E-01
        2   -1    0    0  501    0  0.00000000000E+00  0.00000000000E+00  0.13252960102E+04  0.13252960102E+04  0.25500000920E-02 0.  1.
       -2   -1    0    0    0  501  0.00000000000E+00  0.00000000000E+00 -0.54454733634E+03  0.54454733635E+03  0.25500000920E-02 0. -1.
    10030    2    1    2    0    0  0.00000000000E+00  0.00000000000E+00  0.78074867387E+03  0.18698433466E+04  0.16990425683E+04 0.  0.
        4    1    3    3  502    0  0.88375228798E+02  0.65502898669E+03  0.97770115860E+03  0.11801586007E+04  0.12699999809E+01 0.  1.
       -4    1    3    3    0  502 -0.88375228798E+02 -0.65502898669E+03 -0.19695248473E+03  0.68968474582E+03  0.12699999809E+01 0. -1.
</event>
<event>
 5   0  0.7455669E-06  0.1699645E+04  0.7818609E-02  0.8761567E-01
        1   -1    0    0  501    0  0.00000000000E+00  0.00000000000E+00  0.89788952365E+03  0.89788952366E+03  0.50400001928E-02 0.  1.
       -1   -1    0    0    0  501  0.00000000000E+00  0.00000000000E+00 -0.80432858698E+03  0.80432858700E+03  0.50400001928E-02 0. -1.
    10030    2    1    2    0    0  0.00000000000E+00  0.00000000000E+00  0.93560936666E+02  0.17022181107E+04  0.16996449180E+04 0.  0.
        4    1    3    3  502    0  0.46691121538E+03 -0.19532354440E+03  0.73048466286E+03  0.88868826122E+03  0.12699999809E+01 0.  1.
       -4    1    3    3    0  502 -0.46691121538E+03  0.19532354440E+03 -0.63692372620E+03  0.81352984945E+03  0.12699999809E+01 0. -1.
</event>
<event>
 5   0  0.1419012E-05  0.1700035E+04  0.7818609E-02  0.8761345E-01
       -2   -1    0    0    0  501  0.00000000000E+00  0.00000000000E+00  0.51684195377E+03  0.51684195378E+03  0.25500000920E-02 0.  1.
        2   -1    0    0  501    0  0.00000000000E+00  0.00000000000E+00 -0.13979699521E+04  0.13979699521E+04  0.25500000920E-02 0. -1.
    10030    2    1    2    0    0  0.00000000000E+00  0.00000000000E+00 -0.88112799835E+03  0.19148119059E+04  0.17000347307E+04 0.  0.
        4    1    3    3  502    0 -0.52092693137E+03  0.44972894415E+03  0.12137193975E+03  0.69882311903E+03  0.12699999809E+01 0.  1.
       -4    1    3    3    0  502  0.52092693137E+03 -0.44972894415E+03 -0.10024999381E+04  0.12159887869E+04  0.12699999809E+01 0. -1.
</event>
<event>
 5   0  0.7461128E-06  0.1700588E+04  0.7818609E-02  0.8761029E-01
       -1   -1    0    0    0  501  0.00000000000E+00  0.00000000000E+00  0.55541856960E+03  0.55541856962E+03  0.50400001928E-02 0. -1.
        1   -1    0    0  501    0  0.00000000000E+00  0.00000000000E+00 -0.13017205932E+04  0.13017205932E+04  0.50400001928E-02 0.  1.
    10030    2    1    2    0    0  0.00000000000E+00  0.00000000000E+00 -0.74630202358E+03  0.18571391628E+04  0.17005878865E+04 0.  0.
        3    1    3    3  502    0  0.14029439891E+03 -0.11425778141E+03 -0.12804542946E+04  0.12931746091E+04  0.10100000352E+00 0.  1.
       -3    1    3    3    0  502 -0.14029439891E+03  0.11425778141E+03  0.53415227101E+03  0.56396455368E+03  0.10100000352E+00 0. -1.
</event>
<event>
 5   0  0.7455669E-06  0.1700422E+04  0.7818609E-02  0.8761124E-01
        1   -1    0    0  501    0  0.00000000000E+00  0.00000000000E+00  0.93832457987E+03  0.93832457988E+03  0.50400001928E-02 0. -1.
       -1   -1    0    0    0  501  0.00000000000E+00  0.00000000000E+00 -0.77037186478E+03  0.77037186480E+03  0.50400001928E-02 0.  1.
    10030    2    1    2    0    0  0.00000000000E+00  0.00000000000E+00  0.16795271508E+03  0.17086964447E+04  0.17004221316E+04 0.  0.
        4    1    3    3  502    0  0.64163906347E+03 -0.44731798854E+03 -0.25090672226E+03  0.82143159595E+03  0.12699999809E+01 0.  1.
       -4    1    3    3    0  502 -0.64163906347E+03  0.44731798854E+03  0.41885943735E+03  0.88726484873E+03  0.12699999809E+01 0. -1.
</event>
<event>
 5   0  0.7476457E-06  0.1699792E+04  0.7818609E-02  0.8761483E-01
       -1   -1    0    0    0  501  0.00000000000E+00  0.00000000000E+00  0.53982479802E+03  0.53982479805E+03  0.50400001928E-02 0. -1.
        1   -1    0    0  501    0  0.00000000000E+00  0.00000000000E+00 -0.13380696705E+04  0.13380696705E+04  0.50400001928E-02 0.  1.
    10030    2    1    2    0    0  0.00000000000E+00  0.00000000000E+00 -0.79824487243E+03  0.18778944685E+04  0.16997919751E+04 0.  0.
        2    1    3    3  502    0  0.14161824027E+03 -0.83784792119E+02  0.52205893900E+03  0.54737660999E+03  0.25500000920E-02 0. -1.
       -2    1    3    3    0  502 -0.14161824027E+03  0.83784792119E+02 -0.13203038114E+04  0.13305178585E+04  0.25500000920E-02 0.  1.
</event>
<event>
 5   0  0.1374441E-05  0.1699909E+04  0.7818609E-02  0.8761417E-01
        2   -1    0    0  501    0  0.00000000000E+00  0.00000000000E+00  0.12180116800E+04  0.12180116800E+04  0.25500000920E-02 0. -1.
       -2   -1    0    0    0  501  0.00000000000E+00  0.00000000000E+00 -0.59311601350E+03  0.59311601351E+03  0.25500000920E-02 0.  1.
    10030    2    1    2    0    0  0.00000000000E+00  0.00000000000E+00  0.62489566650E+03  0.18111276935E+04  0.16999085058E+04 0.  0.
        1    1    3    3  502    0  0.40404511215E+03  0.25628115815E+03  0.10608974864E+04  0.11638023721E+04  0.50400001928E-02 0. -1.
       -1    1    3    3    0  502 -0.40404511215E+03 -0.25628115815E+03 -0.43600181992E+03  0.64732532137E+03  0.50400001928E-02 0.  1.
</event>
<event>
 5   0  0.7082527E-06  0.1700061E+04  0.7818609E-02  0.8761329E-01
       -1   -1    0    0    0  501  0.00000000000E+00  0.00000000000E+00  0.11757818013E+04  0.11757818014E+04  0.50400001928E-02 0.  1.
        1   -1    0    0  501    0  0.00000000000E+00  0.00000000000E+00 -0.61452895134E+03  0.61452895136E+03  0.50400001928E-02 0. -1.
    10030    2    1    2    0    0  0.00000000000E+00  0.00000000000E+00  0.56125285000E+03  0.17903107527E+04  0.17000611253E+04 0.  0.
        1    1    3    3  502    0  0.22495654878E+03  0.50480871545E+03 -0.39950307956E+03  0.68193841264E+03  0.50400001928E-02 0. -1.
       -1    1    3    3    0  502 -0.22495654878E+03 -0.50480871545E+03  0.96075592956E+03  0.11083723401E+04  0.50400001928E-02 0.  1.
</event>
<event>
 5   0  0.1374441E-05  0.1712673E+04  0.7818609E-02  0.8754169E-01
       -2   -1    0    0    0  501  0.00000000000E+00  0.00000000000E+00  0.71924873606E+03  0.71924873607E+03  0.25500000920E-02 0. -1.
        2   -1    0    0  501    0  0.00000000000E+00  0.00000000000E+00 -0.10195535790E+04  0.10195535790E+04  0.25500000920E-02 0.  1.
    10030    2    1    2    0    0  0.00000000000E+00  0.00000000000E+00 -0.30030484298E+03  0.17388023151E+04  0.17126734926E+04 0.  0.
        1    1    3    3  502    0 -0.78208838320E+03  0.31586336459E+03  0.25616559508E-01  0.84346422859E+03  0.50400001928E-02 0. -1.
       -1    1    3    3    0  502  0.78208838320E+03 -0.31586336459E+03 -0.30033045954E+03  0.89533808652E+03  0.50400001928E-02 0.  1.
</event>
<event>
 5   0  0.1435301E-05  0.1700074E+04  0.7818609E-02  0.8761322E-01
        2   -1    0    0  501    0  0.00000000000E+00  0.00000000000E+00  0.51806928290E+03  0.51806928291E+03  0.25500000920E-02 0. -1.
       -2   -1    0    0    0  501  0.00000000000E+00  0.00000000000E+00 -0.13947230337E+04  0.13947230337E+04  0.25500000920E-02 0.  1.
    10030    2    1    2    0    0  0.00000000000E+00  0.00000000000E+00 -0.87665375081E+03  0.19127923166E+04  0.17000743065E+04 0.  0.
        2    1    3    3  502    0 -0.15345564983E+03  0.53990185517E+03 -0.11565752495E+04  0.12855772856E+04  0.25500000920E-02 0.  1.
       -2    1    3    3    0  502  0.15345564983E+03 -0.53990185517E+03  0.27992149865E+03  0.62721503098E+03  0.25500000920E-02 0. -1.
</event>
<event>
 5   0  0.1419012E-05  0.1693689E+04  0.7818609E-02  0.8764972E-01
       -2   -1    0    0    0  501  0.00000000000E+00  0.00000000000E+00  0.44376330912E+03  0.44376330913E+03  0.25500000920E-02 0. -1.
        2   -1    0    0  501    0  0.00000000000E+00  0.00000000000E+00 -0.16160548936E+04  0.16160548936E+04  0.25500000920E-02 0.  1.
    10030    2    1    2    0    0  0.00000000000E+00  0.00000000000E+00 -0.11722915845E+04  0.20598182027E+04  0.16936893072E+04 0.  0.
        4    1    3    3  502    0  0.34944840124E+03 -0.29805056873E+03 -0.14514214168E+04  0.15223580620E+04  0.12699999809E+01 0.  1.
       -4    1    3    3    0  502 -0.34944840124E+03  0.29805056873E+03  0.27912983240E+03  0.53746014074E+03  0.12699999809E+01 0. -1.
</event>
<event>
 5   0  0.7455669E-06  0.1698670E+04  0.7818609E-02  0.8762123E-01
        1   -1    0    0  501    0  0.00000000000E+00  0.00000000000E+00  0.15545090823E+04  0.15545090823E+04  0.50400001928E-02 0.  1.
       -1   -1    0    0    0  501  0.00000000000E+00  0.00000000000E+00 -0.46405016231E+03  0.46405016233E+03  0.50400001928E-02 0. -1.
    10030    2    1    2    0    0  0.00000000000E+00  0.00000000000E+00  0.10904589200E+04  0.20185592447E+04  0.16986702941E+04 0.  0.
        4    1    3    3  502    0  0.63988020806E+03 -0.55106288190E+03  0.43728472723E+03  0.95096610142E+03  0.12699999809E+01 0.  1.
       -4    1    3    3    0  502 -0.63988020806E+03  0.55106288190E+03  0.65317419277E+03  0.10675931432E+04  0.12699999809E+01 0. -1.
</event>
<event>
 5   0  0.7082527E-06  0.1699939E+04  0.7818609E-02  0.8761399E-01
        1   -1    0    0  501    0  0.00000000000E+00  0.00000000000E+00  0.70304503145E+03  0.70304503147E+03  0.50400001928E-02 0. -1.
       -1   -1    0    0    0  501  0.00000000000E+00  0.00000000000E+00 -0.10275983978E+04  0.10275983978E+04  0.50400001928E-02 0.  1.
    10030    2    1    2    0    0  0.00000000000E+00  0.00000000000E+00 -0.32455336632E+03  0.17306434292E+04  0.16999387611E+04 0.  0.
        1    1    3    3  502    0  0.38736508724E+03  0.73412562149E+03  0.23936356295E+02  0.83040055883E+03  0.50400001928E-02 0. -1.
       -1    1    3    3    0  502 -0.38736508724E+03 -0.73412562149E+03 -0.34848972262E+03  0.90024287041E+03  0.50400001928E-02 0.  1.
</event>
<event>
 5   0  0.1419012E-05  0.1700099E+04  0.7818609E-02  0.8761308E-01
        2   -1    0    0  501    0  0.00000000000E+00  0.00000000000E+00  0.29570453041E+04  0.29570453041E+04  0.25500000920E-02 0.  1.
       -2   -1    0    0    0  501  0.00000000000E+00  0.00000000000E+00 -0.24436030937E+03  0.24436030938E+03  0.25500000920E-02 0. -1.
    10030    2    1    2    0    0  0.00000000000E+00  0.00000000000E+00  0.27126849947E+04  0.32014056134E+04  0.17000994151E+04 0.  0.
        4    1    3    3  502    0  0.10409704245E+03 -0.76661771733E+03  0.69312768198E+03  0.10387331299E+04  0.12699999809E+01 0. -1.
       -4    1    3    3    0  502 -0.10409704245E+03  0.76661771733E+03  0.20195573127E+04  0.21626724835E+04  0.12699999809E+01 0.  1.
</event>
<event>
 5   0  0.1441756E-05  0.1700361E+04  0.7818609E-02  0.8761159E-01
       -2   -1    0    0    0  501  0.00000000000E+00  0.00000000000E+00  0.79967385987E+03  0.79967385987E+03  0.25500000920E-02 0. -1.
        2   -1    0    0  501    0  0.00000000000E+00  0.00000000000E+00 -0.90387700863E+03  0.90387700864E+03  0.25500000920E-02 0.  1.
    10030    2    1    2    0    0  0.00000000000E+00  0.00000000000E+00 -0.10420314877E+03  0.17035508685E+04  0.17003609221E+04 0.  0.
        5    1    3    3  502    0 -0.12591121948E+03  0.77602306158E+02 -0.89087526718E+03  0.90308171545E+03  0.46999998093E+01 0.  1.
       -5    1    3    3    0  502  0.12591121948E+03 -0.77602306158E+02  0.78667211841E+03  0.80046915306E+03  0.46999998093E+01 0. -1.
</event>
<event>
 5   0  0.7476457E-06  0.1699448E+04  0.7818609E-02  0.8761679E-01
       -1   -1    0    0    0  501  0.00000000000E+00  0.00000000000E+00  0.74802376186E+03  0.74802376188E+03  0.50400001928E-02 0.  1.
        1   -1    0    0  501    0  0.00000000000E+00  0.00000000000E+00 -0.96525158702E+03  0.96525158703E+03  0.50400001928E-02 0. -1.
    10030    2    1    2    0    0  0.00000000000E+00  0.00000000000E+00 -0.21722782515E+03  0.17132753489E+04  0.16994482908E+04 0.  0.
        2    1    3    3  502    0 -0.93049078476E+02 -0.22801344456E+03 -0.92848520451E+03  0.96058994212E+03  0.25500000920E-02 0. -1.
       -2    1    3    3    0  502  0.93049078476E+02  0.22801344456E+03  0.71125737936E+03  0.75268540679E+03  0.25500000920E-02 0.  1.
</event>
<event>
 5   0  0.7461128E-06  0.1698298E+04  0.7818609E-02  0.8762336E-01
       -1   -1    0    0    0  501  0.00000000000E+00  0.00000000000E+00  0.46049162276E+03  0.46049162279E+03  0.50400001928E-02 0.  1.
        1   -1    0    0  501    0  0.00000000000E+00  0.00000000000E+00 -0.15658355687E+04  0.15658355687E+04  0.50400001928E-02 0. -1.
    10030    2    1    2    0    0  0.00000000000E+00  0.00000000000E+00 -0.11053439459E+04  0.20263271915E+04  0.16982981623E+04 0.  0.
        3    1    3    3  502    0  0.83711933271E+03 -0.13461648176E+03 -0.49717082962E+03  0.98288820238E+03  0.10100000352E+00 0. -1.
       -3    1    3    3    0  502 -0.83711933271E+03  0.13461648176E+03 -0.60817311629E+03  0.10434389891E+04  0.10100000352E+00 0.  1.
</event>
<event>
 5   0  0.1435301E-05  0.1700536E+04  0.7818609E-02  0.8761059E-01
       -2   -1    0    0    0  501  0.00000000000E+00  0.00000000000E+00  0.53293073067E+03  0.53293073068E+03  0.25500000920E-02 0. -1.
        2   -1    0    0  501    0  0.00000000000E+00  0.00000000000E+00 -0.13565651639E+04  0.13565651639E+04  0.25500000920E-02 0.  1.
    10030    2    1    2    0    0  0.00000000000E+00  0.00000000000E+00 -0.82363443323E+03  0.18894958946E+04  0.17005355204E+04 0.  0.
        2    1    3    3  502    0  0.57389938530E+03 -0.50899506774E+03 -0.81933982343E+03  0.11223877359E+04  0.25500000920E-02 0.  1.
       -2    1    3    3    0  502 -0.57389938530E+03  0.50899506774E+03 -0.42946097939E+01  0.76710815868E+03  0.25500000920E-02 0. -1.
</event>
<event>
 5   0  0.1419012E-05  0.1688840E+04  0.7818609E-02  0.8767755E-01
        2   -1    0    0  501    0  0.00000000000E+00  0.00000000000E+00  0.12335247977E+04  0.12335247977E+04  0.25500000920E-02 0. -1.
       -2   -1    0    0    0  501  0.00000000000E+00  0.00000000000E+00 -0.57805469704E+03  0.57805469705E+03  0.25500000920E-02 0.  1.
    10030    2    1    2    0    0  0.00000000000E+00  0.00000000000E+00  0.65547010068E+03  0.18115794948E+04  0.16888396055E+04 0.  0.
        4    1    3    3  502    0  0.23150536156E+03  0.56206411893E+03  0.95644861837E+03  0.11332724203E+04  0.12699999809E+01 0. -1.
       -4    1    3    3    0  502 -0.23150536156E+03 -0.56206411893E+03 -0.30097851769E+03  0.67830707444E+03  0.12699999809E+01 0.  1.
</event>
<event>
 5   0  0.7082527E-06  0.1705901E+04  0.7818609E-02  0.8758006E-01
       -1   -1    0    0    0  501  0.00000000000E+00  0.00000000000E+00  0.68872991988E+03  0.68872991989E+03  0.50400001928E-02 0.  1.
        1   -1    0    0  501    0  0.00000000000E+00  0.00000000000E+00 -0.10563279186E+04  0.10563279186E+04  0.50400001928E-02 0. -1.
    10030    2    1    2    0    0  0.00000000000E+00  0.00000000000E+00 -0.36759799875E+03  0.17450578385E+04  0.17059011024E+04 0.  0.
        1    1    3    3  502    0 -0.83374259529E+03  0.97498010051E+02 -0.33857316334E+03  0.90513223571E+03  0.50400001928E-02 0.  1.
       -1    1    3    3    0  502  0.83374259529E+03 -0.97498010051E+02 -0.29024835415E+02  0.83992560282E+03  0.50400001928E-02 0. -1.
</event>
<event>
 5   0  0.7082527E-06  0.1699760E+04  0.7818609E-02  0.8761501E-01
        1   -1    0    0  501    0  0.00000000000E+00  0.00000000000E+00  0.11933616642E+04  0.11933616642E+04  0.50400001928E-02 0. -1.
       -1   -1    0    0    0  501  0.00000000000E+00  0.00000000000E+00 -0.60526136793E+03  0.60526136795E+03  0.50400001928E-02 0.  1.
    10030    2    1    2    0    0  0.00000000000E+00  0.00000000000E+00  0.58810029629E+03  0.17986230322E+04  0.16997596458E+04 0.  0.
        1    1    3    3  502    0  0.13814428894E+03 -0.58992116997E+03 -0.33660522339E+03  0.69310454318E+03  0.50400001928E-02 0.  1.
       -1    1    3    3    0  502 -0.13814428894E+03  0.58992116997E+03  0.92470551968E+03  0.11055184890E+04  0.50400001928E-02 0. -1.
</event>
<event>
 5   0  0.1423543E-05  0.1699748E+04  0.7818609E-02  0.8761508E-01
        2   -1    0    0  501    0  0.00000000000E+00  0.00000000000E+00  0.14742041803E+04  0.14742041803E+04  0.25500000920E-02 0. -1.
       -2   -1    0    0    0  501  0.00000000000E+00  0.00000000000E+00 -0.48994951838E+03  0.48994951839E+03  0.25500000920E-02 0.  1.
    10030    2    1    2    0    0  0.00000000000E+00  0.00000000000E+00  0.98425466188E+03  0.19641536987E+04  0.16997477791E+04 0.  0.
        3    1    3    3  502    0  0.34411697258E+03  0.14244708194E+03 -0.39062815662E+03  0.53972032472E+03  0.10100000352E+00 0.  1.
       -3    1    3    3    0  502 -0.34411697258E+03 -0.14244708194E+03  0.13748828185E+04  0.14244333739E+04  0.10100000352E+00 0. -1.
</event>
<event>
 5   0  0.7455669E-06  0.1700719E+04  0.7818609E-02  0.8760955E-01
        1   -1    0    0  501    0  0.00000000000E+00  0.00000000000E+00  0.78263700950E+03  0.78263700952E+03  0.50400001928E-02 0. -1.
       -1   -1    0    0    0  501  0.00000000000E+00  0.00000000000E+00 -0.92394187495E+03  0.92394187496E+03  0.50400001928E-02 0.  1.
    10030    2    1    2    0    0  0.00000000000E+00  0.00000000000E+00 -0.14130486544E+03  0.17065788845E+04  0.17007187963E+04 0.  0.
        4    1    3    3  502    0 -0.48916802240E+03  0.55189332078E+03  0.35417131068E+03  0.81811400298E+03  0.12699999809E+01 0. -1.
       -4    1    3    3    0  502  0.48916802240E+03 -0.55189332078E+03 -0.49547617612E+03  0.88846488150E+03  0.12699999809E+01 0.  1.
</event>
<event>
 5   0  0.7082527E-06  0.1699968E+04  0.7818609E-02  0.8761383E-01
        1   -1    0    0  501    0  0.00000000000E+00  0.00000000000E+00  0.15376061694E+04  0.15376061694E+04  0.50400001928E-02 0.  1.
       -1   -1    0    0    0  501  0.00000000000E+00  0.00000000000E+00 -0.46986835420E+03  0.46986835423E+03  0.50400001928E-02 0. -1.
    10030    2    1    2    0    0  0.00000000000E+00  0.00000000000E+00  0.10677378152E+04  0.20074745237E+04  0.16999676235E+04 0.  0.
        1    1    3    3  502    0  0.75037685882E+03 -0.15879567676E+03  0.96645351258E+03  0.12338208497E+04  0.50400001928E-02 0. -1.
       -1    1    3    3    0  502 -0.75037685882E+03  0.15879567676E+03  0.10128430265E+03  0.77365367394E+03  0.50400001928E-02 0.  1.
</event>
<event>
 5   0  0.7082527E-06  0.1699629E+04  0.7818609E-02  0.8761576E-01
       -1   -1    0    0    0  501  0.00000000000E+00  0.00000000000E+00  0.81236203340E+03  0.81236203342E+03  0.50400001928E-02 0.  1.
        1   -1    0    0  501    0  0.00000000000E+00  0.00000000000E+00 -0.88899402973E+03  0.88899402974E+03  0.50400001928E-02 0. -1.
    10030    2    1    2    0    0  0.00000000000E+00  0.00000000000E+00 -0.76631996328E+02  0.17013560632E+04  0.16996293687E+04 0.  0.
        1    1    3    3  502    0  0.75052155746E+03  0.34570152862E+03  0.16036194098E+03  0.84172923630E+03  0.50400001928E-02 0. -1.
       -1    1    3    3    0  502 -0.75052155746E+03 -0.34570152862E+03 -0.23699393731E+03  0.85962682686E+03  0.50400001928E-02 0.  1.
</event>
<event>
 5   0  0.7461128E-06  0.1700232E+04  0.7818609E-02  0.8761232E-01
       -1   -1    0    0    0  501  0.00000000000E+00  0.00000000000E+00  0.67273501439E+03  0.67273501441E+03  0.50400001928E-02 0. -1.
        1   -1    0    0  501    0  0.00000000000E+00  0.00000000000E+00 -0.10742671976E+04  0.10742671976E+04  0.50400001928E-02 0.  1.
    10030    2    1    2    0    0  0.00000000000E+00  0.00000000000E+00 -0.40153218319E+03  0.17470022120E+04  0.17002319355E+04 0.  0.
        3    1    3    3  502    0 -0.23107456631E+03  0.61704777505E+03 -0.75271469250E+03  0.10003613499E+04  0.10100000352E+00 0.  1.
       -3    1    3    3    0  502  0.23107456631E+03 -0.61704777505E+03  0.35118250931E+03  0.74664086209E+03  0.10100000352E+00 0. -1.
</event>
<event>
 5   0  0.1441756E-05  0.1699843E+04  0.7818609E-02  0.8761454E-01
       -2   -1    0    0    0  501  0.00000000000E+00  0.00000000000E+00  0.44202950934E+03  0.44202950935E+03  0.25500000920E-02 0.  1.
        2   -1    0    0  501    0  0.00000000000E+00  0.00000000000E+00 -0.16342046617E+04  0.16342046617E+04  0.25500000920E-02 0. -1.
    10030    2    1    2    0    0  0.00000000000E+00  0.00000000000E+00 -0.11921751523E+04  0.20762341710E+04  0.16998431513E+04 0.  0.
        5    1    3    3  502    0 -0.47001620932E+03  0.64803477502E+03 -0.24743429023E+03  0.83792011830E+03  0.46999998093E+01 0.  1.
       -5    1    3    3    0  502  0.47001620932E+03 -0.64803477502E+03 -0.94474086209E+03  0.12383140527E+04  0.46999998093E+01 0. -1.
</event>
<event>
 5   0  0.7455669E-06  0.1700274E+04  0.7818609E-02  0.8761208E-01
        1   -1    0    0  501    0  0.00000000000E+00  0.00000000000E+00  0.12968682781E+04  0.12968682782E+04  0.50400001928E-02 0. -1.
       -1   -1    0    0    0  501  0.00000000000E+00  0.00000000000E+00 -0.55729065766E+03  0.55729065769E+03  0.50400001928E-02 0.  1.
    10030    2    1    2    0    0  0.00000000000E+00  0.00000000000E+00  0.73957762048E+03  0.18541589358E+04  0.17002735964E+04 0.  0.
        4    1    3    3  502    0  0.35046409147E+03 -0.18708064861E+02  0.12141786235E+04  0.12638854433E+04  0.12699999809E+01 0. -1.
       -4    1    3    3    0  502 -0.35046409147E+03  0.18708064861E+02 -0.47460100299E+03  0.59027349258E+03  0.12699999809E+01 0.  1.
</event>
<event>
 5   0  0.7082527E-06  0.1699941E+04  0.7818609E-02  0.8761398E-01
        1   -1    0    0  501    0  0.00000000000E+00  0.00000000000E+00  0.11647442925E+04  0.11647442925E+04  0.50400001928E-02 0.  1.
       -1   -1    0    0    0  501  0.00000000000E+00  0.00000000000E+00 -0.62026478710E+03  0.62026478712E+03  0.50400001928E-02 0. -1.
    10030    2    1    2    0    0  0.00000000000E+00  0.00000000000E+00  0.54447950537E+03  0.17850090796E+04  0.16999410232E+04 0.  0.
        1    1    3    3  502    0 -0.88151412913E+01 -0.19339200455E+02  0.11644652299E+04  0.11646591703E+04  0.50400001928E-02 0.  1.
       -1    1    3    3    0  502  0.88151412913E+01  0.19339200455E+02 -0.61998572448E+03  0.62034990931E+03  0.50400001928E-02 0. -1.
</event>
<event>
 5   0  0.7082527E-06  0.1700200E+04  0.7818609E-02  0.8761250E-01
       -1   -1    0    0    0  501  0.00000000000E+00  0.00000000000E+00  0.10161450329E+04  0.10161450329E+04  0.50400001928E-02 0. -1.
        1   -1    0    0  501    0  0.00000000000E+00  0.00000000000E+00 -0.71118824866E+03  0.71118824868E+03  0.50400001928E-02 0.  1.
    10030    2    1    2    0    0  0.00000000000E+00  0.00000000000E+00  0.30495678427E+03  0.17273332816E+04  0.17002004663E+04 0.  0.
        1    1    3    3  502    0 -0.28205258019E+03  0.69497498801E+02 -0.65919994869E+03  0.72036666546E+03  0.50400001928E-02 0.  1.
       -1    1    3    3    0  502  0.28205258019E+03 -0.69497498801E+02  0.96415673296E+03  0.10069666162E+04  0.50400001928E-02 0. -1.
</event>
<event>
 5   0  0.1441756E-05  0.1700440E+04  0.7818609E-02  0.8761113E-01
        2   -1    0    0  501    0  0.00000000000E+00  0.00000000000E+00  0.47456206702E+03  0.47456206703E+03  0.25500000920E-02 0. -1.
       -2   -1    0    0    0  501  0.00000000000E+00  0.00000000000E+00 -0.15232449161E+04  0.15232449161E+04  0.25500000920E-02 0.  1.
    10030    2    1    2    0    0  0.00000000000E+00  0.00000000000E+00 -0.10486828491E+04  0.19978069832E+04  0.17004402442E+04 0.  0.
        5    1    3    3  502    0  0.57797895934E+03 -0.40106146986E+03  0.36583200626E+02  0.70446461984E+03  0.46999998093E+01 0.  1.
       -5    1    3    3    0  502 -0.57797895934E+03  0.40106146986E+03 -0.10852660497E+04  0.12933423633E+04  0.46999998093E+01 0. -1.
</event>
<event>
 5   0  0.1419012E-05  0.1697101E+04  0.7818609E-02  0.8763020E-01
       -2   -1    0    0    0  501  0.00000000000E+00  0.00000000000E+00  0.13405654477E+04  0.13405654477E+04  0.25500000920E-02 0. -1.
        2   -1    0    0  501    0  0.00000000000E+00  0.00000000000E+00 -0.53711480132E+03  0.53711480132E+03  0.25500000920E-02 0.  1.
    10030    2    1    2    0    0  0.00000000000E+00  0.00000000000E+00  0.80345064643E+03  0.18776802491E+04  0.16971005204E+04 0.  0.
        4    1    3    3  502    0  0.74315491895E+02 -0.75940514418E+03  0.81246382404E+03  0.11145932189E+04  0.12699999809E+01 0. -1.
       -4    1    3    3    0  502 -0.74315491895E+02  0.75940514418E+03 -0.90131776137E+01  0.76308703017E+03  0.12699999809E+01 0.  1.
</event>
<event>
 5   0  0.7583716E-06  0.1699324E+04  0.7818609E-02  0.8761750E-01
        1   -1    0    0  501    0  0.00000000000E+00  0.00000000000E+00  0.79941691933E+03  0.79941691935E+03  0.50400001928E-02 0. -1.
       -1   -1    0    0    0  501  0.00000000000E+00  0.00000000000E+00 -0.90306537737E+03  0.90306537738E+03  0.50400001928E-02 0.  1.
    10030    2    1    2    0    0  0.00000000000E+00  0.00000000000E+00 -0.10364845804E+03  0.17024822967E+04  0.16993242680E+04 0.  0.
        5    1    3    3  502    0 -0.55116492152E+03  0.63792949588E+03 -0.15769388032E+03  0.85768657580E+03  0.46999998093E+01 0.  1.
       -5    1    3    3    0  502  0.55116492152E+03 -0.63792949588E+03  0.54045422284E+02  0.84479572092E+03  0.46999998093E+01 0. -1.
</event>
<event>
 5   0  0.1419012E-05  0.1699731E+04  0.7818609E-02  0.8761518E-01
        2   -1    0    0  501    0  0.00000000000E+00  0.00000000000E+00  0.67084551145E+03  0.67084551145E+03  0.25500000920E-02 0. -1.
       -2   -1    0    0    0  501  0.00000000000E+00  0.00000000000E+00 -0.10766583922E+04  0.10766583922E+04  0.25500000920E-02 0.  1.
    10030    2    1    2    0    0  0.00000000000E+00  0.00000000000E+00 -0.40581288074E+03  0.17475039036E+04  0.16997310961E+04 0.  0.
        4    1    3    3  502    0  0.49891985886E+03  0.55540360943E+03 -0.62036770512E+03  0.97069660419E+03  0.12699999809E+01 0.  1.
       -4    1    3    3    0  502 -0.49891985886E+03 -0.55540360943E+03  0.21455482438E+03  0.77680729946E+03  0.12699999809E+01 0. -1.
</event>
<event>
 5   0  0.7461128E-06  0.1699486E+04  0.7818609E-02  0.8761657E-01
        1   -1    0    0  501    0  0.00000000000E+00  0.00000000000E+00  0.80755558671E+03  0.80755558672E+03  0.50400001928E-02 0. -1.
       -1   -1    0    0    0  501  0.00000000000E+00  0.00000000000E+00 -0.89413462807E+03  0.89413462808E+03  0.50400001928E-02 0.  1.
    10030    2    1    2    0    0  0.00000000000E+00  0.00000000000E+00 -0.86579041359E+02  0.17016902148E+04  0.16994862920E+04 0.  0.
        3    1    3    3  502    0  0.10437844080E+03  0.49959986861E+03  0.63697986158E+03  0.81623418323E+03  0.10100000352E+00 0. -1.
       -3    1    3    3    0  502 -0.10437844080E+03 -0.49959986861E+03 -0.72355890294E+03  0.88545603157E+03  0.10100000352E+00 0.  1.
</event>
<event>
 5   0  0.1435301E-05  0.1700559E+04  0.7818609E-02  0.8761046E-01
       -2   -1    0    0    0  501  0.00000000000E+00  0.00000000000E+00  0.35129734217E+03  0.35129734218E+03  0.25500000920E-02 0. -1.
        2   -1    0    0  501    0  0.00000000000E+00  0.00000000000E+00 -0.20580145319E+04  0.20580145319E+04  0.25500000920E-02 0.  1.
    10030    2    1    2    0    0  0.00000000000E+00  0.00000000000E+00 -0.17067171897E+04  0.24093118741E+04  0.17005587731E+04 0.  0.
        2    1    3    3  502    0  0.27418656961E+03  0.40595137799E+03  0.13127590271E+03  0.50715693714E+03  0.25500000920E-02 0. -1.
       -2    1    3    3    0  502 -0.27418656961E+03 -0.40595137799E+03 -0.18379930925E+04  0.19021549370E+04  0.25500000920E-02 0.  1.
</event>
<event>
 5   0  0.1374441E-05  0.1698880E+04  0.7818609E-02  0.8762003E-01
       -2   -1    0    0    0  501  0.00000000000E+00  0.00000000000E+00  0.75535245383E+03  0.75535245383E+03  0.25500000920E-02 0. -1.
        2   -1    0    0  501    0  0.00000000000E+00  0.00000000000E+00 -0.95524761435E+03  0.95524761435E+03  0.25500000920E-02 0.  1.
    10030    2    1    2    0    0  0.00000000000E+00  0.00000000000E+00 -0.19989516052E+03  0.17106000682E+04  0.16988803719E+04 0.  0.
        1    1    3    3  502    0  0.31927973240E+03  0.30887761298E+03 -0.82896134454E+03  0.94049021158E+03  0.50400001928E-02 0.  1.
       -1    1    3    3    0  502 -0.31927973240E+03 -0.30887761298E+03  0.62906618402E+03  0.77010985660E+03  0.50400001928E-02 0. -1.
</event>
<event>
 5   0  0.7455669E-06  0.1697854E+04  0.7818609E-02  0.8762589E-01
        1   -1    0    0  501    0  0.00000000000E+00  0.00000000000E+00  0.10906680659E+04  0.10906680660E+04  0.50400001928E-02 0. -1.
       -1   -1    0    0    0  501  0.00000000000E+00  0.00000000000E+00 -0.66076633059E+03  0.66076633061E+03  0.50400001928E-02 0.  1.
    10030    2    1    2    0    0  0.00000000000E+00  0.00000000000E+00  0.42990173535E+03  0.17514343966E+04  0.16978536284E+04 0.  0.
        4    1    3    3  502    0 -0.37376815666E+03 -0.66476209663E+03  0.59963187162E+03  0.97013982209E+03  0.12699999809E+01 0. -1.
       -4    1    3    3    0  502  0.37376815666E+03  0.66476209663E+03 -0.16973013628E+03  0.78129457447E+03  0.12699999809E+01 0.  1.
</event>
<event>
 5   0  0.1374441E-05  0.1699923E+04  0.7818609E-02  0.8761408E-01
       -2   -1    0    0    0  501  0.00000000000E+00  0.00000000000E+00  0.44416915304E+03  0.44416915305E+03  0.25500000920E-02 0. -1.
        2   -1    0    0  501    0  0.00000000000E+00  0.00000000000E+00 -0.16264857630E+04  0.16264857630E+04  0.25500000920E-02 0.  1.
    10030    2    1    2    0    0  0.00000000000E+00  0.00000000000E+00 -0.11823166099E+04  0.20706549160E+04  0.16999232968E+04 0.  0.
        1    1    3    3  502    0 -0.68014859214E+03 -0.24829277845E+03 -0.11334238757E+04  0.13449539372E+04  0.50400001928E-02 0.  1.
       -1    1    3    3    0  502  0.68014859214E+03  0.24829277845E+03 -0.48892734283E+02  0.72570097885E+03  0.50400001928E-02 0. -1.
</event>
<event>
 5   0  0.7476457E-06  0.1707603E+04  0.7818609E-02  0.8757040E-01
       -1   -1    0    0    0  501  0.00000000000E+00  0.00000000000E+00  0.37098653970E+03  0.37098653973E+03  0.50400001928E-02 0. -1.
        1   -1    0    0  501    0  0.00000000000E+00  0.00000000000E+00 -0.19649684799E+04  0.19649684799E+04  0.50400001928E-02 0.  1.
    10030    2    1    2    0    0  0.00000000000E+00  0.00000000000E+00 -0.15939819402E+04  0.23359550196E+04  0.17076028309E+04 0.  0.
        2    1    3    3  502    0  0.10835292923E+03  0.63757272359E+03 -0.34430200898E+02  0.64763012119E+03  0.25500000920E-02 0. -1.
       -2    1    3    3    0  502 -0.10835292923E+03 -0.63757272359E+03 -0.15595517393E+04  0.16883248984E+04  0.25500000920E-02 0.  1.
</event>
<event>
 5   0  0.1419012E-05  0.1703209E+04  0.7818609E-02  0.8759536E-01
        2   -1    0    0  501    0  0.00000000000E+00  0.00000000000E+00  0.24859597143E+04  0.24859597143E+04  0.25500000920E-02 0.  1.
       -2   -1    0    0    0  501  0.00000000000E+00  0.00000000000E+00 -0.29173034845E+03  0.29173034847E+03  0.25500000920E-02 0. -1.
    10030    2    1    2    0    0  0.00000000000E+00  0.00000000000E+00  0.21942293658E+04  0.27776900627E+04  0.17032086117E+04 0.  0.
        4    1    3    3  502    0  0.42458004183E+03 -0.28538164436E+03  0.22074367087E+04  0.22659411578E+04  0.12699999809E+01 0.  1.
       -4    1    3    3    0  502 -0.42458004183E+03  0.28538164436E+03 -0.13207342903E+02  0.51174890490E+03  0.12699999809E+01 0. -1.
</event>
<event>
 5   0  0.1423543E-05  0.1700196E+04  0.7818609E-02  0.8761253E-01
        2   -1    0    0  501    0  0.00000000000E+00  0.00000000000E+00  0.19451765748E+04  0.19451765748E+04  0.25500000920E-02 0.  1.
       -2   -1    0    0    0  501  0.00000000000E+00  0.00000000000E+00 -0.37151710242E+03  0.37151710243E+03  0.25500000920E-02 0. -1.
    10030    2    1    2    0    0  0.00000000000E+00  0.00000000000E+00  0.15736594724E+04  0.23166936773E+04  0.17001957120E+04 0.  0.
        3    1    3    3  502    0 -0.90488066810E+02  0.74996174499E+03  0.25552656524E+03  0.79744877260E+03  0.10100000352E+00 0. -1.
       -3    1    3    3    0  502  0.90488066810E+02 -0.74996174499E+03  0.13181329072E+04  0.15192449047E+04  0.10100000352E+00 0.  1.
</event>
<event>
 5   0  0.7476457E-06  0.1703648E+04  0.7818609E-02  0.8759286E-01
        1   -1    0    0  501    0  0.00000000000E+00  0.00000000000E+00  0.95794188692E+03  0.95794188693E+03  0.50400001928E-02 0. -1.
       -1   -1    0    0    0  501  0.00000000000E+00  0.00000000000E+00 -0.75746169169E+03  0.75746169171E+03  0.50400001928E-02 0.  1.
    10030    2    1    2    0    0  0.00000000000E+00  0.00000000000E+00  0.20048019522E+03  0.17154035786E+04  0.17036481823E+04 0.  0.
        2    1    3    3  502    0  0.23295617002E+03  0.20817998384E+03 -0.69769048858E+03  0.76444718633E+03  0.25500000920E-02 0.  1.
       -2    1    3    3    0  502 -0.23295617002E+03 -0.20817998384E+03  0.89817068381E+03  0.95095639231E+03  0.25500000920E-02 0. -1.
</event>
<event>
 5   0  0.7455669E-06  0.1699482E+04  0.7818609E-02  0.8761660E-01
       -1   -1    0    0    0  501  0.00000000000E+00  0.00000000000E+00  0.55350123254E+03  0.55350123256E+03  0.50400001928E-02 0.  1.
        1   -1    0    0  501    0  0.00000000000E+00  0.00000000000E+00 -0.13045313548E+04  0.13045313548E+04  0.50400001928E-02 0. -1.
    10030    2    1    2    0    0  0.00000000000E+00  0.00000000000E+00 -0.75103012223E+03  0.18580325873E+04  0.16994819361E+04 0.  0.
        4    1    3    3  502    0 -0.32344967315E+03 -0.65283426295E+03  0.10260037529E+03  0.73575859890E+03  0.12699999809E+01 0.  1.
       -4    1    3    3    0  502  0.32344967315E+03  0.65283426295E+03 -0.85363049752E+03  0.11222739884E+04  0.12699999809E+01 0. -1.
</event>
<event>
 5   0  0.7461128E-06  0.1700760E+04  0.7818609E-02  0.8760931E-01
       -1   -1    0    0    0  501  0.00000000000E+00  0.00000000000E+00  0.44062838174E+03  0.44062838177E+03  0.50400001928E-02 0.  1.
        1   -1    0    0  501    0  0.00000000000E+00  0.00000000000E+00 -0.16411699265E+04  0.16411699265E+04  0.50400001928E-02 0. -1.
    10030    2    1    2    0    0  0.00000000000E+00  0.00000000000E+00 -0.12005415447E+04  0.20817983083E+04  0.17007598877E+04 0.  0.
        3    1    3    3  502    0  0.98815807454E+02 -0.36151051979E+03 -0.15346324818E+04  0.15797313962E+04  0.10100000352E+00 0. -1.
       -3    1    3    3    0  502 -0.98815807454E+02  0.36151051979E+03  0.33409093709E+03  0.50206691204E+03  0.10100000352E+00 0.  1.
</event>
<event>
 5   0  0.7461128E-06  0.1700112E+04  0.7818609E-02  0.8761301E-01
        1   -1    0    0  501    0  0.00000000000E+00  0.00000000000E+00  0.61306013099E+03  0.61306013101E+03  0.50400001928E-02 0. -1.
       -1   -1    0    0    0  501  0.00000000000E+00  0.00000000000E+00 -0.11786688619E+04  0.11786688619E+04  0.50400001928E-02 0.  1.
    10030    2    1    2    0    0  0.00000000000E+00  0.00000000000E+00 -0.56560873092E+03  0.17917289929E+04  0.17001116280E+04 0.  0.
        3    1    3    3  502    0  0.58779885411E+03 -0.15004686631E+03 -0.91035375512E+03  0.10939677896E+04  0.10100000352E+00 0.  1.
       -3    1    3    3    0  502 -0.58779885411E+03  0.15004686631E+03  0.34474502420E+03  0.69776120335E+03  0.10100000352E+00 0. -1.
</event>
<event>
 5   0  0.1374441E-05  0.1700496E+04  0.7818609E-02  0.8761081E-01
        2   -1    0    0  501    0  0.00000000000E+00  0.00000000000E+00  0.10964524813E+04  0.10964524813E+04  0.25500000920E-02 0. -1.
       -2   -1    0    0    0  501  0.00000000000E+00  0.00000000000E+00 -0.65932820574E+03  0.65932820574E+03  0.25500000920E-02 0.  1.
    10030    2    1    2    0    0  0.00000000000E+00  0.00000000000E+00  0.43712427552E+03  0.17557806870E+04  0.17004964536E+04 0.  0.
        1    1    3    3  502    0  0.12975110611E+03  0.78732337713E+03 -0.84596416143E+02  0.80241510664E+03  0.50400001928E-02 0.  1.
       -1    1    3    3    0  502 -0.12975110611E+03 -0.78732337713E+03  0.52172069167E+03  0.95336558038E+03  0.50400001928E-02 0. -1.
</event>
<event>
 5   0  0.1441756E-05  0.1700002E+04  0.7818609E-02  0.8761363E-01
       -2   -1    0    0    0  501  0.00000000000E+00  0.00000000000E+00  0.61345538303E+03  0.61345538303E+03  0.25500000920E-02 0.  1.
        2   -1    0    0  501    0  0.00000000000E+00  0.00000000000E+00 -0.11777576790E+04  0.11777576790E+04  0.25500000920E-02 0. -1.
    10030    2    1    2    0    0  0.00000000000E+00  0.00000000000E+00 -0.56430229600E+03  0.17912130621E+04  0.17000021037E+04 0.  0.
        5    1    3    3  502    0  0.73073297588E+03 -0.41420863977E+03 -0.41928898540E+03  0.93881032300E+03  0.46999998093E+01 0.  1.
       -5    1    3    3    0  502 -0.73073297588E+03  0.41420863977E+03 -0.14501331060E+03  0.85240273906E+03  0.46999998093E+01 0. -1.
</event>
<event>
 5   0  0.1435301E-05  0.1699151E+04  0.7818609E-02  0.8761849E-01
       -2   -1    0    0    0  501  0.00000000000E+00  0.00000000000E+00  0.75972538689E+03  0.75972538689E+03  0.25500000920E-02 0. -1.
        2   -1    0    0  501    0  0.00000000000E+00  0.00000000000E+00 -0.95005144397E+03  0.95005144397E+03  0.25500000920E-02 0.  1.
    10030    2    1    2    0    0  0.00000000000E+00  0.00000000000E+00 -0.19032605708E+03  0.17097768309E+04  0.16991506123E+04 0.  0.
        2    1    3    3  502    0 -0.19665981796E+03 -0.68941783911E+03 -0.55387149905E+03  0.90595015224E+03  0.25500000920E-02 0.  1.
       -2    1    3    3    0  502  0.19665981796E+03  0.68941783911E+03  0.36354544197E+03  0.80382667862E+03  0.25500000920E-02 0. -1.
</event>
<event>
 5   0  0.7082527E-06  0.1700025E+04  0.7818609E-02  0.8761350E-01
        1   -1    0    0  501    0  0.00000000000E+00  0.00000000000E+00  0.24870792421E+04  0.24870792421E+04  0.50400001928E-02 0.  1.
       -1   -1    0    0    0  501  0.00000000000E+00  0.00000000000E+00 -0.29050991790E+03  0.29050991795E+03  0.50400001928E-02 0. -1.
    10030    2    1    2    0    0  0.00000000000E+00  0.00000000000E+00  0.21965693242E+04  0.27775891600E+04  0.17000249251E+04 0.  0.
        1    1    3    3  502    0 -0.39055836453E+03 -0.11692687265E+03  0.23169164498E+04  0.23525113315E+04  0.50400001928E-02 0.  1.
       -1    1    3    3    0  502  0.39055836453E+03  0.11692687265E+03 -0.12034712558E+03  0.42507782854E+03  0.50400001928E-02 0. -1.
</event>
<event>
 5   0  0.1435301E-05  0.1700096E+04  0.7818609E-02  0.8761309E-01
        2   -1    0    0  501    0  0.00000000000E+00  0.00000000000E+00  0.29846460758E+04  0.29846460758E+04  0.25500000920E-02 0.  1.
       -2   -1    0    0    0  501  0.00000000000E+00  0.00000000000E+00 -0.24209967619E+03  0.24209967620E+03  0.25500000920E-02 0. -1.
    10030    2    1    2    0    0  0.00000000000E+00  0.00000000000E+00  0.27425463997E+04  0.32267457520E+04  0.17000962896E+04 0.  0.
        2    1    3    3  502    0 -0.33008953203E+03  0.78006449759E+03  0.15071096994E+04  0.17288260079E+04  0.25500000920E-02 0.  1.
       -2    1    3    3    0  502  0.33008953203E+03 -0.78006449759E+03  0.12354367002E+04  0.14979197441E+04  0.25500000920E-02 0. -1.
</event>
<event>
 5   0  0.7082527E-06  0.1701762E+04  0.7818609E-02  0.8760360E-01
       -1   -1    0    0    0  501  0.00000000000E+00  0.00000000000E+00  0.36161053635E+03  0.36161053639E+03  0.50400001928E-02 0.  1.
        1   -1    0    0  501    0  0.00000000000E+00  0.00000000000E+00 -0.20021503764E+04  0.20021503764E+04  0.50400001928E-02 0. -1.
    10030    2    1    2    0    0  0.00000000000E+00  0.00000000000E+00 -0.16405398400E+04  0.23637609128E+04  0.17017622296E+04 0.  0.
        1    1    3    3  502    0  0.37527293069E+02  0.63710080430E+03 -0.38599177784E+02  0.63937127642E+03  0.50400001928E-02 0.  1.
       -1    1    3    3    0  502 -0.37527293069E+02 -0.63710080430E+03 -0.16019406622E+04  0.17243896363E+04  0.50400001928E-02 0. -1.
</event>
<event>
 5   0  0.7583716E-06  0.1698934E+04  0.7818609E-02  0.8761973E-01
       -1   -1    0    0    0  501  0.00000000000E+00  0.00000000000E+00  0.88369338286E+03  0.88369338288E+03  0.50400001928E-02 0. -1.
        1   -1    0    0  501    0  0.00000000000E+00  0.00000000000E+00 -0.81656631807E+03  0.81656631808E+03  0.50400001928E-02 0.  1.
    10030    2    1    2    0    0  0.00000000000E+00  0.00000000000E+00  0.67127064795E+02  0.17002597010E+04  0.16989340799E+04 0.  0.
        5    1    3    3  502    0 -0.48408344783E+02  0.27559346546E+03 -0.76910780905E+03  0.81844000268E+03  0.46999998093E+01 0.  1.
       -5    1    3    3    0  502  0.48408344783E+02 -0.27559346546E+03  0.83623487384E+03  0.88181969828E+03  0.46999998093E+01 0. -1.
</event>
<event>
 5   0  0.1419012E-05  0.1700127E+04  0.7818609E-02  0.8761292E-01
       -2   -1    0    0    0  501  0.00000000000E+00  0.00000000000E+00  0.59985226156E+03  0.59985226157E+03  0.25500000920E-02 0.  1.
        2   -1    0    0  501    0  0.00000000000E+00  0.00000000000E+00 -0.12046437735E+04  0.12046437735E+04  0.25500000920E-02 0. -1.
    10030    2    1    2    0    0  0.00000000000E+00  0.00000000000E+00 -0.60479151196E+03  0.18044960351E+04  0.17001273975E+04 0.  0.
        4    1    3    3  502    0  0.14018391517E+03 -0.65520503068E+03 -0.85763650436E+03  0.10883414670E+04  0.12699999809E+01 0. -1.
       -4    1    3    3    0  502 -0.14018391517E+03  0.65520503068E+03  0.25284499240E+03  0.71615456808E+03  0.12699999809E+01 0.  1.
</event>
<event>
 5   0  0.7461128E-06  0.1699718E+04  0.7818609E-02  0.8761525E-01
        1   -1    0    0  501    0  0.00000000000E+00  0.00000000000E+00  0.11424379098E+04  0.11424379098E+04  0.50400001928E-02 0.  1.
       -1   -1    0    0    0  501  0.00000000000E+00  0.00000000000E+00 -0.63220947914E+03  0.63220947916E+03  0.50400001928E-02 0. -1.
    10030    2    1    2    0    0  0.00000000000E+00  0.00000000000E+00  0.51022843067E+03  0.17746473890E+04  0.16997177130E+04 0.  0.
        3    1    3    3  502    0  0.61071561926E+02  0.66845378721E+03  0.79934109125E+03  0.10437942286E+04  0.10100000352E+00 0. -1.
       -3    1    3    3    0  502 -0.61071561926E+02 -0.66845378721E+03 -0.28911266058E+03  0.73085316037E+03  0.10100000352E+00 0.  1.
</event>
<event>
 5   0  0.5229750E-06  0.1699841E+04  0.7818609E-02  0.8761455E-01
        3   -1    0    0  501    0  0.00000000000E+00  0.00000000000E+00  0.61034977786E+03  0.61034978622E+03  0.10100000352E+00 0.  1.
       -3   -1    0    0    0  501  0.00000000000E+00  0.00000000000E+00 -0.11835254563E+04  0.11835254607E+04  0.10100000352E+00 0. -1.
    10030    2    1    2    0    0  0.00000000000E+00  0.00000000000E+00 -0.57317567849E+03  0.17938752469E+04  0.16998405934E+04 0.  0.
        1    1    3    3  502    0  0.17565112890E+03 -0.56064788230E+03  0.36154097607E+03  0.68984871125E+03  0.50400001928E-02 0.  1.
       -1    1    3    3    0  502 -0.17565112890E+03  0.56064788230E+03 -0.93471665456E+03  0.11040265356E+04  0.50400001928E-02 0. -1.
</event>
<event>
 5   0  0.7082527E-06  0.1703161E+04  0.7818609E-02  0.8759564E-01
       -1   -1    0    0    0  501  0.00000000000E+00  0.00000000000E+00  0.49014947982E+03  0.49014947984E+03  0.50400001928E-02 0. -1.
        1   -1    0    0  501    0  0.00000000000E+00  0.00000000000E+00 -0.14795261953E+04  0.14795261953E+04  0.50400001928E-02 0.  1.
    10030    2    1    2    0    0  0.00000000000E+00  0.00000000000E+00 -0.98937671547E+03  0.19696756751E+04  0.17031605855E+04 0.  0.
        1    1    3    3  502    0 -0.69160156798E+03 -0.13004214206E+02  0.79732230471E+02  0.69630386112E+03  0.50400001928E-02 0. -1.
       -1    1    3    3    0  502  0.69160156798E+03  0.13004214206E+02 -0.10691089459E+04  0.12733718140E+04  0.50400001928E-02 0.  1.
</event>
<event>
 5   0  0.7476457E-06  0.1699467E+04  0.7818609E-02  0.8761668E-01
       -1   -1    0    0    0  501  0.00000000000E+00  0.00000000000E+00  0.55900382760E+03  0.55900382762E+03  0.50400001928E-02 0. -1.
        1   -1    0    0  501    0  0.00000000000E+00  0.00000000000E+00 -0.12916677708E+04  0.12916677708E+04  0.50400001928E-02 0.  1.
    10030    2    1    2    0    0  0.00000000000E+00  0.00000000000E+00 -0.73266394316E+03  0.18506715984E+04  0.16994672434E+04 0.  0.
        2    1    3    3  502    0  0.89459151510E+02 -0.48565983243E+03  0.38669707357E+03  0.62721849410E+03  0.25500000920E-02 0. -1.
       -2    1    3    3    0  502 -0.89459151510E+02  0.48565983243E+03 -0.11193610167E+04  0.12234531043E+04  0.25500000920E-02 0.  1.
</event>
<event>
 5   0  0.7455669E-06  0.1698647E+04  0.7818609E-02  0.8762136E-01
        1   -1    0    0  501    0  0.00000000000E+00  0.00000000000E+00  0.81044583412E+03  0.81044583414E+03  0.50400001928E-02 0. -1.
       -1   -1    0    0    0  501  0.00000000000E+00  0.00000000000E+00 -0.89006625814E+03  0.89006625815E+03  0.50400001928E-02 0.  1.
    10030    2    1    2    0    0  0.00000000000E+00  0.00000000000E+00 -0.79620424018E+02  0.17005120923E+04  0.16986470982E+04 0.  0.
        4    1    3    3  502    0 -0.27331475541E+03  0.30394836900E+03 -0.78511623197E+03  0.88515234686E+03  0.12699999809E+01 0.  1.
       -4    1    3    3    0  502  0.27331475541E+03 -0.30394836900E+03  0.70549580795E+03  0.81535974544E+03  0.12699999809E+01 0. -1.
</event>
<event>
 5   0  0.7583716E-06  0.1700002E+04  0.7818609E-02  0.8761363E-01
       -1   -1    0    0    0  501  0.00000000000E+00  0.00000000000E+00  0.61896787659E+03  0.61896787661E+03  0.50400001928E-02 0. -1.
        1   -1    0    0  501    0  0.00000000000E+00  0.00000000000E+00 -0.11672688599E+04  0.11672688599E+04  0.50400001928E-02 0.  1.
    10030    2    1    2    0    0  0.00000000000E+00  0.00000000000E+00 -0.54830098334E+03  0.17862367366E+04  0.17000022678E+04 0.  0.
        5    1    3    3  502    0 -0.82066034662E+03  0.86094933161E+02 -0.48841643475E+03  0.95888917283E+03  0.46999998093E+01 0.  1.
       -5    1    3    3    0  502  0.82066034662E+03 -0.86094933161E+02 -0.59884548584E+02  0.82734756372E+03  0.46999998093E+01 0. -1.
</event>
<event>
 5   0  0.1374441E-05  0.1698465E+04  0.7818609E-02  0.8762240E-01
        2   -1    0    0  501    0  0.00000000000E+00  0.00000000000E+00  0.23815413138E+04  0.23815413138E+04  0.25500000920E-02 0. -1.
       -2   -1    0    0    0  501  0.00000000000E+00  0.00000000000E+00 -0.30282726478E+03  0.30282726479E+03  0.25500000920E-02 0.  1.
    10030    2    1    2    0    0  0.00000000000E+00  0.00000000000E+00  0.20787140490E+04  0.26843685785E+04  0.16984647680E+04 0.  0.
        1    1    3    3  502    0 -0.29175360175E+03  0.59337975208E+03  0.18815786391E+04  0.19943815756E+04  0.50400001928E-02 0. -1.
       -1    1    3    3    0  502  0.29175360175E+03 -0.59337975208E+03  0.19713540992E+03  0.68998700290E+03  0.50400001928E-02 0.  1.
</event>
<event>
 5   0  0.7476457E-06  0.1700010E+04  0.7818609E-02  0.8761359E-01
       -1   -1    0    0    0  501  0.00000000000E+00  0.00000000000E+00  0.94509842985E+03  0.94509842986E+03  0.50400001928E-02 0.  1.
        1   -1    0    0  501    0  0.00000000000E+00  0.00000000000E+00 -0.76447922108E+03  0.76447922110E+03  0.50400001928E-02 0. -1.
    10030    2    1    2    0    0  0.00000000000E+00  0.00000000000E+00  0.18061920877E+03  0.17095776510E+04  0.17000095429E+04 0.  0.
        2    1    3    3  502    0  0.48670675105E+03  0.19581084193E+03  0.76286576322E+03  0.92584530027E+03  0.25500000920E-02 0.  1.
       -2    1    3    3    0  502 -0.48670675105E+03 -0.19581084193E+03 -0.58224655446E+03  0.78373235069E+03  0.25500000920E-02 0. -1.
</event>
<event>
 5   0  0.1423543E-05  0.1700000E+04  0.7818609E-02  0.8761364E-01
        2   -1    0    0  501    0  0.00000000000E+00  0.00000000000E+00  0.82438215674E+03  0.82438215674E+03  0.25500000920E-02 0.  1.
       -2   -1    0    0    0  501  0.00000000000E+00  0.00000000000E+00 -0.87641400025E+03  0.87641400025E+03  0.25500000920E-02 0. -1.
    10030    2    1    2    0    0  0.00000000000E+00  0.00000000000E+00 -0.52031843509E+02  0.17007961570E+04  0.17000000750E+04 0.  0.
        3    1    3    3  502    0 -0.73279690139E+03 -0.31694692334E+03  0.26575981318E+03  0.84147188866E+03  0.10100000352E+00 0.  1.
       -3    1    3    3    0  502  0.73279690139E+03  0.31694692334E+03 -0.31779165669E+03  0.85932426834E+03  0.10100000352E+00 0. -1.
</event>
<event>
 5   0  0.7455669E-06  0.1700995E+04  0.7818609E-02  0.8760797E-01
       -1   -1    0    0    0  501  0.00000000000E+00  0.00000000000E+00  0.74402903285E+03  0.74402903287E+03  0.50400001928E-02 0.  1.
        1   -1    0    0  501    0  0.00000000000E+00  0.00000000000E+00 -0.97220159446E+03  0.97220159448E+03  0.50400001928E-02 0. -1.
    10030    2    1    2    0    0  0.00000000000E+00  0.00000000000E+00 -0.22817256161E+03  0.17162306273E+04  0.17009952523E+04 0.  0.
        4    1    3    3  502    0 -0.45846979586E+03  0.65421612784E+03 -0.40850688322E+03  0.89725848125E+03  0.12699999809E+01 0.  1.
       -4    1    3    3    0  502  0.45846979586E+03 -0.65421612784E+03  0.18033432161E+03  0.81897214610E+03  0.12699999809E+01 0. -1.
</event>
<event>
 5   0  0.1374441E-05  0.1699538E+04  0.7818609E-02  0.8761628E-01
       -2   -1    0    0    0  501  0.00000000000E+00  0.00000000000E+00  0.45130210484E+03  0.45130210485E+03  0.25500000920E-02 0.  1.
        2   -1    0    0  501    0  0.00000000000E+00  0.00000000000E+00 -0.16000530761E+04  0.16000530761E+04  0.25500000920E-02 0. -1.
    10030    2    1    2    0    0  0.00000000000E+00  0.00000000000E+00 -0.11487509713E+04  0.20513551810E+04  0.16995379621E+04 0.  0.
        1    1    3    3  502    0 -0.61856451738E+03 -0.70429303350E+02  0.12373516607E+03  0.63473832426E+03  0.50400001928E-02 0.  1.
       -1    1    3    3    0  502  0.61856451738E+03  0.70429303350E+02 -0.12724861374E+04  0.14166168567E+04  0.50400001928E-02 0. -1.
</event>
<event>
 5   0  0.7461128E-06  0.1707728E+04  0.7818609E-02  0.8756969E-01
       -1   -1    0    0    0  501  0.00000000000E+00  0.00000000000E+00  0.79483737211E+03  0.79483737213E+03  0.50400001928E-02 0. -1.
        1   -1    0    0  501    0  0.00000000000E+00  0.00000000000E+00 -0.91727398958E+03  0.91727398960E+03  0.50400001928E-02 0.  1.
    10030    2    1    2    0    0  0.00000000000E+00  0.00000000000E+00 -0.12243661747E+03  0.17121113617E+04  0.17077279027E+04 0.  0.
        3    1    3    3  502    0  0.66397151753E+03  0.32414662305E+03  0.36784566053E+03  0.82537243078E+03  0.10100000352E+00 0. -1.
       -3    1    3    3    0  502 -0.66397151753E+03 -0.32414662305E+03 -0.49028227800E+03  0.88673893094E+03  0.10100000352E+00 0.  1.
</event>
<event>
 5   0  0.1419012E-05  0.1698591E+04  0.7818609E-02  0.8762168E-01
        2   -1    0    0  501    0  0.00000000000E+00  0.00000000000E+00  0.22807213053E+04  0.22807213053E+04  0.25500000920E-02 0. -1.
       -2   -1    0    0    0  501  0.00000000000E+00  0.00000000000E+00 -0.31626088130E+03  0.31626088131E+03  0.25500000920E-02 0.  1.
    10030    2    1    2    0    0  0.00000000000E+00  0.00000000000E+00  0.19644604240E+04  0.25969821866E+04  0.16985910986E+04 0.  0.
        4    1    3    3  502    0  0.56374598245E+03 -0.40794841982E+03  0.17266506853E+04  0.18616002922E+04  0.12699999809E+01 0. -1.
       -4    1    3    3    0  502 -0.56374598245E+03  0.40794841982E+03  0.23780973873E+03  0.73538189446E+03  0.12699999809E+01 0.  1.
</event>
<event>
 5   0  0.1419012E-05  0.1702095E+04  0.7818609E-02  0.8760170E-01
        2   -1    0    0  501    0  0.00000000000E+00  0.00000000000E+00  0.87445571386E+03  0.87445571386E+03  0.25500000920E-02 0. -1.
       -2   -1    0    0    0  501  0.00000000000E+00  0.00000000000E+00 -0.82826613121E+03  0.82826613121E+03  0.25500000920E-02 0.  1.
    10030    2    1    2    0    0  0.00000000000E+00  0.00000000000E+00  0.46189582646E+02  0.17027218451E+04  0.17020952394E+04 0.  0.
        4    1    3    3  502    0 -0.82580812221E+03 -0.12439767619E+03 -0.14081485366E+03  0.84691456031E+03  0.12699999809E+01 0. -1.
       -4    1    3    3    0  502  0.82580812221E+03  0.12439767619E+03  0.18700443630E+03  0.85580728476E+03  0.12699999809E+01 0.  1.
</event>
<event>
 5   0  0.1441756E-05  0.1699823E+04  0.7818609E-02  0.8761465E-01
        2   -1    0    0  501    0  0.00000000000E+00  0.00000000000E+00  0.15677815387E+04  0.15677815387E+04  0.25500000920E-02 0. -1.
       -2   -1    0    0    0  501  0.00000000000E+00  0.00000000000E+00 -0.46074642516E+03  0.46074642517E+03  0.25500000920E-02 0.  1.
    10030    2    1    2    0    0  0.00000000000E+00  0.00000000000E+00  0.11070351135E+04  0.20285279638E+04  0.16998232136E+04 0.  0.
        5    1    3    3  502    0  0.31944278691E+03  0.10492052214E+03  0.14850203255E+04  0.15226159947E+04  0.46999998093E+01 0. -1.
       -5    1    3    3    0  502 -0.31944278691E+03 -0.10492052214E+03 -0.37798521199E+03  0.50591196917E+03  0.46999998093E+01 0.  1.
</event>
<event>
 5   0  0.1435301E-05  0.1700001E+04  0.7818609E-02  0.8761364E-01
       -2   -1    0    0    0  501  0.00000000000E+00  0.00000000000E+00  0.77737410292E+03  0.77737410292E+03  0.25500000920E-02 0. -1.
        2   -1    0    0  501    0  0.00000000000E+00  0.00000000000E+00 -0.92941157424E+03  0.92941157424E+03  0.25500000920E-02 0.  1.
    10030    2    1    2    0    0  0.00000000000E+00  0.00000000000E+00 -0.15203747132E+03  0.17067856772E+04  0.17000005750E+04 0.  0.
        2    1    3    3  502    0 -0.37456201647E+03 -0.65783718891E+03 -0.46415455021E+03  0.88796729545E+03  0.25500000920E-02 0.  1.
       -2    1    3    3    0  502  0.37456201647E+03  0.65783718891E+03  0.31211707889E+03  0.81881838172E+03  0.25500000920E-02 0. -1.
</event>
<event>
 5   0  0.1423543E-05  0.1699891E+04  0.7818609E-02  0.8761426E-01
        2   -1    0    0  501    0  0.00000000000E+00  0.00000000000E+00  0.12883103493E+04  0.12883103493E+04  0.25500000920E-02 0.  1.
       -2   -1    0    0    0  501  0.00000000000E+00  0.00000000000E+00 -0.56074025656E+03  0.56074025657E+03  0.25500000920E-02 0. -1.
    10030    2    1    2    0    0  0.00000000000E+00  0.00000000000E+00  0.72757009277E+03  0.18490506059E+04  0.16998911445E+04 0.  0.
        3    1    3    3  502    0 -0.54166264797E+03  0.35838039257E+03  0.96013657033E+03  0.11591795262E+04  0.10100000352E+00 0.  1.
       -3    1    3    3    0  502  0.54166264797E+03 -0.35838039257E+03 -0.23256647756E+03  0.68987107974E+03  0.10100000352E+00 0. -1.
</event>
<event>
 5   0  0.1423543E-05  0.1700063E+04  0.7818609E-02  0.8761328E-01
        2   -1    0    0  501    0  0.00000000000E+00  0.00000000000E+00  0.46644442327E+03  0.46644442328E+03  0.25500000920E-02 0. -1.
       -2   -1    0    0    0  501  0.00000000000E+00  0.00000000000E+00 -0.15490668670E+04  0.15490668670E+04  0.25500000920E-02 0.  1.
    10030    2    1    2    0    0  0.00000000000E+00  0.00000000000E+00 -0.10826224437E+04  0.20155112903E+04  0.17000630593E+04 0.  0.
        3    1    3    3  502    0  0.80100230096E+03  0.48720891710E+02 -0.20898631153E+03  0.82924887702E+03  0.10100000352E+00 0. -1.
       -3    1    3    3    0  502 -0.80100230096E+03 -0.48720891710E+02 -0.87363613217E+03  0.11862624132E+04  0.10100000352E+00 0.  1.
</event>
<event>
 5   0  0.1435301E-05  0.1699932E+04  0.7818609E-02  0.8761403E-01
       -2   -1    0    0    0  501  0.00000000000E+00  0.00000000000E+00  0.49526560971E+03  0.49526560971E+03  0.25500000920E-02 0.  1.
        2   -1    0    0  501    0  0.00000000000E+00  0.00000000000E+00 -0.14586957319E+04  0.14586957320E+04  0.25500000920E-02 0. -1.
    10030    2    1    2    0    0  0.00000000000E+00  0.00000000000E+00 -0.96343012224E+03  0.19539613417E+04  0.16999315646E+04 0.  0.
        2    1    3    3  502    0 -0.11807599171E+03  0.76667902936E+03 -0.82374113582E+02  0.78007959111E+03  0.25500000920E-02 0.  1.
       -2    1    3    3    0  502  0.11807599171E+03 -0.76667902936E+03 -0.88105600866E+03  0.11738817506E+04  0.25500000920E-02 0. -1.
</event>
<event>
 5   0  0.5229750E-06  0.1699690E+04  0.7818609E-02  0.8761541E-01
       -3   -1    0    0    0  501  0.00000000000E+00  0.00000000000E+00  0.51104623382E+03  0.51104624380E+03  0.10100000352E+00 0. -1.
        3   -1    0    0  501    0  0.00000000000E+00  0.00000000000E+00 -0.14132515356E+04  0.14132515392E+04  0.10100000352E+00 0.  1.
    10030    2    1    2    0    0  0.00000000000E+00  0.00000000000E+00 -0.90220530179E+03  0.19242977830E+04  0.16996904280E+04 0.  0.
        3    1    3    3  502    0  0.84358594489E+03  0.49552424173E+02 -0.55327334814E+03  0.10100515319E+04  0.10100000352E+00 0.  1.
       -3    1    3    3    0  502 -0.84358594489E+03 -0.49552424173E+02 -0.34893195364E+03  0.91424625109E+03  0.10100000352E+00 0. -1.
</event>
<event>
 5   0  0.1441756E-05  0.1700676E+04  0.7818609E-02  0.8760979E-01
       -2   -1    0    0    0  501  0.00000000000E+00  0.00000000000E+00  0.64634322331E+03  0.64634322332E+03  0.25500000920E-02 0. -1.
        2   -1    0    0  501    0  0.00000000000E+00  0.00000000000E+00 -0.11187159763E+04  0.11187159763E+04  0.25500000920E-02 0.  1.
    10030    2    1    2    0    0  0.00000000000E+00  0.00000000000E+00 -0.47237275297E+03  0.17650591996E+04  0.17006757364E+04 0.  0.
        5    1    3    3  502    0  0.73422577034E+03  0.11300834351E+03 -0.66560618255E+03  0.99745277973E+03  0.46999998093E+01 0.  1.
       -5    1    3    3    0  502 -0.73422577034E+03 -0.11300834351E+03  0.19323342958E+03  0.76760641988E+03  0.46999998093E+01 0. -1.
</event>
<event>
 5   0  0.1423543E-05  0.1699684E+04  0.7818609E-02  0.8761544E-01
       -2   -1    0    0    0  501  0.00000000000E+00  0.00000000000E+00  0.50577470063E+03  0.50577470063E+03  0.25500000920E-02 0. -1.
        2   -1    0    0  501    0  0.00000000000E+00  0.00000000000E+00 -0.14279712553E+04  0.14279712553E+04  0.25500000920E-02 0.  1.
    10030    2    1    2    0    0  0.00000000000E+00  0.00000000000E+00 -0.92219655467E+03  0.19337459559E+04  0.16996843638E+04 0.  0.
        3    1    3    3  502    0 -0.36470098978E+03 -0.40942270475E+03  0.27762262915E+03  0.61457961040E+03  0.10100000352E+00 0. -1.
       -3    1    3    3    0  502  0.36470098978E+03  0.40942270475E+03 -0.11998191838E+04  0.13191663455E+04  0.10100000352E+00 0.  1.
</event>
<event>
 5   0  0.7455669E-06  0.1692784E+04  0.7818609E-02  0.8765491E-01
        1   -1    0    0  501    0  0.00000000000E+00  0.00000000000E+00  0.77087849460E+03  0.77087849462E+03  0.50400001928E-02 0. -1.
       -1   -1    0    0    0  501  0.00000000000E+00  0.00000000000E+00 -0.92930210473E+03  0.92930210474E+03  0.50400001928E-02 0.  1.
    10030    2    1    2    0    0  0.00000000000E+00  0.00000000000E+00 -0.15842361013E+03  0.17001805994E+04  0.16927835155E+04 0.  0.
        4    1    3    3  502    0  0.17731790312E+03  0.17823571084E+03  0.73250776020E+03  0.77445389730E+03  0.12699999809E+01 0. -1.
       -4    1    3    3    0  502 -0.17731790312E+03 -0.17823571084E+03 -0.89093137033E+03  0.92572670207E+03  0.12699999809E+01 0.  1.
</event>
<event>
 5   0  0.1374441E-05  0.1700097E+04  0.7818609E-02  0.8761309E-01
       -2   -1    0    0    0  501  0.00000000000E+00  0.00000000000E+00  0.71470463643E+03  0.71470463644E+03  0.25500000920E-02 0.  1.
        2   -1    0    0  501    0  0.00000000000E+00  0.00000000000E+00 -0.10110219178E+04  0.10110219178E+04  0.25500000920E-02 0. -1.
    10030    2    1    2    0    0  0.00000000000E+00  0.00000000000E+00 -0.29631728134E+03  0.17257265542E+04  0.17000965292E+04 0.  0.
        1    1    3    3  502    0  0.34516285269E+03 -0.68173121503E+03 -0.52618022956E+03  0.92777178143E+03  0.50400001928E-02 0.  1.
       -1    1    3    3    0  502 -0.34516285269E+03  0.68173121503E+03  0.22986294822E+03  0.79795477278E+03  0.50400001928E-02 0. -1.
</event>
<event>
 5   0  0.1435301E-05  0.1699773E+04  0.7818609E-02  0.8761494E-01
        2   -1    0    0  501    0  0.00000000000E+00  0.00000000000E+00  0.14163287963E+04  0.14163287963E+04  0.25500000920E-02 0. -1.
       -2   -1    0    0    0  501  0.00000000000E+00  0.00000000000E+00 -0.50998523515E+03  0.50998523515E+03  0.25500000920E-02 0.  1.
    10030    2    1    2    0    0  0.00000000000E+00  0.00000000000E+00  0.90634356115E+03  0.19263140315E+04  0.16997726604E+04 0.  0.
        2    1    3    3  502    0 -0.13818578942E+03 -0.41111509537E+03  0.12814695644E+04  0.13528766309E+04  0.25500000920E-02 0. -1.
       -2    1    3    3    0  502  0.13818578942E+03  0.41111509537E+03 -0.37512600322E+03  0.57343740054E+03  0.25500000920E-02 0.  1.
</event>
<event>
 5   0  0.7476457E-06  0.1698897E+04  0.7818609E-02  0.8761994E-01
        1   -1    0    0  501    0  0.00000000000E+00  0.00000000000E+00  0.41032329553E+03  0.41032329557E+03  0.50400001928E-02 0. -1.
       -1   -1    0    0    0  501  0.00000000000E+00  0.00000000000E+00 -0.17585227648E+04  0.17585227648E+04  0.50400001928E-02 0.  1.
    10030    2    1    2    0    0  0.00000000000E+00  0.00000000000E+00 -0.13481994693E+04  0.21688460604E+04  0.16988971201E+04 0.  0.
        2    1    3    3  502    0  0.42091779464E+03 -0.11413993309E+03  0.25648807877E+03  0.50595044098E+03  0.25500000920E-02 0. -1.
       -2    1    3    3    0  502 -0.42091779464E+03  0.11413993309E+03 -0.16046875480E+04  0.16628956194E+04  0.25500000920E-02 0.  1.
</event>
<event>
 5   0  0.1441756E-05  0.1703855E+04  0.7818609E-02  0.8759169E-01
       -2   -1    0    0    0  501  0.00000000000E+00  0.00000000000E+00  0.59263967064E+03  0.59263967064E+03  0.25500000920E-02 0. -1.
        2   -1    0    0  501    0  0.00000000000E+00  0.00000000000E+00 -0.12246576450E+04  0.12246576450E+04  0.25500000920E-02 0.  1.
    10030    2    1    2    0    0  0.00000000000E+00  0.00000000000E+00 -0.63201797433E+03  0.18172973156E+04  0.17038552795E+04 0.  0.
        5    1    3    3  502    0 -0.33636984439E+03 -0.60809116384E+03  0.20958763814E+03  0.72585715111E+03  0.46999998093E+01 0. -1.
       -5    1    3    3    0  502  0.33636984439E+03  0.60809116384E+03 -0.84160561246E+03  0.10914401645E+04  0.46999998093E+01 0.  1.
</event>
<event>
 5   0  0.7461128E-06  0.1700180E+04  0.7818609E-02  0.8761262E-01
        1   -1    0    0  501    0  0.00000000000E+00  0.00000000000E+00  0.12506346658E+04  0.12506346658E+04  0.50400001928E-02 0. -1.
       -1   -1    0    0    0  501  0.00000000000E+00  0.00000000000E+00 -0.57782882255E+03  0.57782882257E+03  0.50400001928E-02 0.  1.
    10030    2    1    2    0    0  0.00000000000E+00  0.00000000000E+00  0.67280584326E+03  0.18284634884E+04  0.17001797039E+04 0.  0.
        3    1    3    3  502    0  0.84107546963E+03  0.12120317345E+03  0.31107625663E+03  0.90491248335E+03  0.10100000352E+00 0.  1.
       -3    1    3    3    0  502 -0.84107546963E+03 -0.12120317345E+03  0.36172958662E+03  0.92355100504E+03  0.10100000352E+00 0. -1.
</event>
<event>
 5   0  0.7461128E-06  0.1699717E+04  0.7818609E-02  0.8761526E-01
        1   -1    0    0  501    0  0.00000000000E+00  0.00000000000E+00  0.12863381442E+04  0.12863381442E+04  0.50400001928E-02 0. -1.
       -1   -1    0    0    0  501  0.00000000000E+00  0.00000000000E+00 -0.56148469001E+03  0.56148469003E+03  0.50400001928E-02 0.  1.
    10030    2    1    2    0    0  0.00000000000E+00  0.00000000000E+00  0.72485345419E+03  0.18478228342E+04  0.16997166519E+04 0.  0.
        3    1    3    3  502    0 -0.15219308827E+03  0.45075665405E+03 -0.40314760535E+03  0.62359626296E+03  0.10100000352E+00 0.  1.
       -3    1    3    3    0  502  0.15219308827E+03 -0.45075665405E+03  0.11280010595E+04  0.12242265713E+04  0.10100000352E+00 0. -1.
</event>
<event>
 5   0  0.7455669E-06  0.1699861E+04  0.7818609E-02  0.8761444E-01
       -1   -1    0    0    0  501  0.00000000000E+00  0.00000000000E+00  0.15196019013E+04  0.15196019014E+04  0.50400001928E-02 0.  1.
        1   -1    0    0  501    0  0.00000000000E+00  0.00000000000E+00 -0.47537549195E+03  0.47537549198E+03  0.50400001928E-02 0. -1.
    10030    2    1    2    0    0  0.00000000000E+00  0.00000000000E+00  0.10442264094E+04  0.19949773933E+04  0.16998605842E+04 0.  0.
        4    1    3    3  502    0 -0.19832182083E+03 -0.66767560823E+03  0.10937692037E+04  0.12967092759E+04  0.12699999809E+01 0.  1.
       -4    1    3    3    0  502  0.19832182083E+03  0.66767560823E+03 -0.49542794268E+02  0.69826811742E+03  0.12699999809E+01 0. -1.
</event>
<event>
 5   0  0.1419012E-05  0.1701043E+04  0.7818609E-02  0.8760770E-01
        2   -1    0    0  501    0  0.00000000000E+00  0.00000000000E+00  0.12405155417E+04  0.12405155417E+04  0.25500000920E-02 0.  1.
       -2   -1    0    0    0  501  0.00000000000E+00  0.00000000000E+00 -0.58313369399E+03  0.58313369399E+03  0.25500000920E-02 0. -1.
    10030    2    1    2    0    0  0.00000000000E+00  0.00000000000E+00  0.65738184771E+03  0.18236492357E+04  0.17010425160E+04 0.  0.
        4    1    3    3  502    0 -0.41833112978E+03 -0.71653117122E+03  0.12821834417E+03  0.83955905698E+03  0.12699999809E+01 0.  1.
       -4    1    3    3    0  502  0.41833112978E+03  0.71653117122E+03  0.52916350354E+03  0.98409017872E+03  0.12699999809E+01 0. -1.
</event>
<event>
 5   0  0.1435301E-05  0.1710017E+04  0.7818609E-02  0.8755672E-01
       -2   -1    0    0    0  501  0.00000000000E+00  0.00000000000E+00  0.38630983197E+03  0.38630983198E+03  0.25500000920E-02 0. -1.
        2   -1    0    0  501    0  0.00000000000E+00  0.00000000000E+00 -0.18923658174E+04  0.18923658174E+04  0.25500000920E-02 0.  1.
    10030    2    1    2    0    0  0.00000000000E+00  0.00000000000E+00 -0.15060559854E+04  0.22786756494E+04  0.17100169835E+04 0.  0.
        2    1    3    3  502    0  0.78207951381E+03 -0.32219968191E+03 -0.58670772104E+03  0.10294109728E+04  0.25500000920E-02 0. -1.
       -2    1    3    3    0  502 -0.78207951381E+03  0.32219968191E+03 -0.91934826436E+03  0.12492646766E+04  0.25500000920E-02 0.  1.
</event>
<event>
 5   0  0.1419012E-05  0.1701961E+04  0.7818609E-02  0.8760247E-01
       -2   -1    0    0    0  501  0.00000000000E+00  0.00000000000E+00  0.64750261237E+03  0.64750261238E+03  0.25500000920E-02 0.  1.
        2   -1    0    0  501    0  0.00000000000E+00  0.00000000000E+00 -0.11184009366E+04  0.11184009366E+04  0.25500000920E-02 0. -1.
    10030    2    1    2    0    0  0.00000000000E+00  0.00000000000E+00 -0.47089832422E+03  0.17659035490E+04  0.17019606671E+04 0.  0.
        4    1    3    3  502    0  0.16621888403E+02  0.79474629240E+03  0.79719419080E+02  0.79890847732E+03  0.12699999809E+01 0.  1.
       -4    1    3    3    0  502 -0.16621888403E+02 -0.79474629240E+03 -0.55061774330E+03  0.96699507165E+03  0.12699999809E+01 0. -1.
</event>
<event>
 5   0  0.1374441E-05  0.1699553E+04  0.7818609E-02  0.8761619E-01
       -2   -1    0    0    0  501  0.00000000000E+00  0.00000000000E+00  0.27375732775E+03  0.27375732776E+03  0.25500000920E-02 0. -1.
        2   -1    0    0  501    0  0.00000000000E+00  0.00000000000E+00 -0.26378107172E+04  0.26378107173E+04  0.25500000920E-02 0.  1.
    10030    2    1    2    0    0  0.00000000000E+00  0.00000000000E+00 -0.23640533895E+04  0.29115680450E+04  0.16995528978E+04 0.  0.
        1    1    3    3  502    0 -0.69668673888E+02  0.35055916578E+03  0.13872861220E+03  0.38339415841E+03  0.50400001928E-02 0. -1.
       -1    1    3    3    0  502  0.69668673888E+02 -0.35055916578E+03 -0.25027820017E+04  0.25281738866E+04  0.50400001928E-02 0.  1.
</event>
<event>
 5   0  0.1423543E-05  0.1702538E+04  0.7818609E-02  0.8759918E-01
        2   -1    0    0  501    0  0.00000000000E+00  0.00000000000E+00  0.89562625014E+03  0.89562625014E+03  0.25500000920E-02 0. -1.
       -2   -1    0    0    0  501  0.00000000000E+00  0.00000000000E+00 -0.80910891466E+03  0.80910891467E+03  0.25500000920E-02 0.  1.
    10030    2    1    2    0    0  0.00000000000E+00  0.00000000000E+00  0.86517335477E+02  0.17047351648E+04  0.17025383205E+04 0.  0.
        3    1    3    3  502    0  0.35479224520E+03  0.59921020138E+03  0.53351149043E+03  0.87724849576E+03  0.10100000352E+00 0. -1.
       -3    1    3    3    0  502 -0.35479224520E+03 -0.59921020138E+03 -0.44699415495E+03  0.82748666905E+03  0.10100000352E+00 0.  1.
</event>
<event>
 5   0  0.7082527E-06  0.1700059E+04  0.7818609E-02  0.8761331E-01
        1   -1    0    0  501    0  0.00000000000E+00  0.00000000000E+00  0.14331447960E+04  0.14331447960E+04  0.50400001928E-02 0.  1.
       -1   -1    0    0    0  501  0.00000000000E+00  0.00000000000E+00 -0.50417120779E+03  0.50417120782E+03  0.50400001928E-02 0. -1.
    10030    2    1    2    0    0  0.00000000000E+00  0.00000000000E+00  0.92897358818E+03  0.19373160038E+04  0.17000592257E+04 0.  0.
        1    1    3    3  502    0 -0.57627618789E+03  0.28463450219E+03 -0.16941816374E+03  0.66469057372E+03  0.50400001928E-02 0. -1.
       -1    1    3    3    0  502  0.57627618789E+03 -0.28463450219E+03  0.10983917519E+04  0.12726254301E+04  0.50400001928E-02 0.  1.
</event>
<event>
 5   0  0.1435301E-05  0.1695289E+04  0.7818609E-02  0.8764056E-01
       -2   -1    0    0    0  501  0.00000000000E+00  0.00000000000E+00  0.97386695402E+03  0.97386695403E+03  0.25500000920E-02 0. -1.
        2   -1    0    0  501    0  0.00000000000E+00  0.00000000000E+00 -0.73778197764E+03  0.73778197764E+03  0.25500000920E-02 0.  1.
    10030    2    1    2    0    0  0.00000000000E+00  0.00000000000E+00  0.23608497639E+03  0.17116489317E+04  0.16952893409E+04 0.  0.
        2    1    3    3  502    0  0.69196634893E+03  0.40010510404E+03 -0.16681477687E+03  0.81653456272E+03  0.25500000920E-02 0.  1.
       -2    1    3    3    0  502 -0.69196634893E+03 -0.40010510404E+03  0.40289975326E+03  0.89511436895E+03  0.25500000920E-02 0. -1.
</event>
<event>
 5   0  0.7476457E-06  0.1700117E+04  0.7818609E-02  0.8761298E-01
       -1   -1    0    0    0  501  0.00000000000E+00  0.00000000000E+00  0.15907139120E+04  0.15907139120E+04  0.50400001928E-02 0.  1.
        1   -1    0    0  501    0  0.00000000000E+00  0.00000000000E+00 -0.45426113053E+03  0.45426113056E+03  0.50400001928E-02 0. -1.
    10030    2    1    2    0    0  0.00000000000E+00  0.00000000000E+00  0.11364527815E+04  0.20449750426E+04  0.17001170549E+04 0.  0.
        2    1    3    3  502    0  0.16383466000E+03 -0.55332656787E+03 -0.18255179744E+03  0.60525799894E+03  0.25500000920E-02 0. -1.
       -2    1    3    3    0  502 -0.16383466000E+03  0.55332656787E+03  0.13190045789E+04  0.14397170437E+04  0.25500000920E-02 0.  1.
</event>
<event>
 5   0  0.1435301E-05  0.1698353E+04  0.7818609E-02  0.8762304E-01
        2   -1    0    0  501    0  0.00000000000E+00  0.00000000000E+00  0.87161631547E+03  0.87161631548E+03  0.25500000920E-02 0.  1.
       -2   -1    0    0    0  501  0.00000000000E+00  0.00000000000E+00 -0.82731470634E+03  0.82731470635E+03  0.25500000920E-02 0. -1.
    10030    2    1    2    0    0  0.00000000000E+00  0.00000000000E+00  0.44301609130E+02  0.16989310218E+04  0.16983533155E+04 0.  0.
        2    1    3    3  502    0  0.21154273414E+02 -0.42396986956E+03 -0.71356047624E+03  0.83028098066E+03  0.25500000920E-02 0. -1.
       -2    1    3    3    0  502 -0.21154273414E+02  0.42396986956E+03  0.75786208537E+03  0.86865004117E+03  0.25500000920E-02 0.  1.
</event>
<event>
 5   0  0.1419012E-05  0.1693401E+04  0.7818609E-02  0.8765137E-01
       -2   -1    0    0    0  501  0.00000000000E+00  0.00000000000E+00  0.11014011353E+04  0.11014011353E+04  0.25500000920E-02 0.  1.
        2   -1    0    0  501    0  0.00000000000E+00  0.00000000000E+00 -0.65089950041E+03  0.65089950042E+03  0.25500000920E-02 0. -1.
    10030    2    1    2    0    0  0.00000000000E+00  0.00000000000E+00  0.45050163488E+03  0.17523006357E+04  0.16934006599E+04 0.  0.
        4    1    3    3  502    0 -0.39238440623E+03 -0.71875098847E+03  0.25169396438E+01  0.81888732653E+03  0.12699999809E+01 0. -1.
       -4    1    3    3    0  502  0.39238440623E+03  0.71875098847E+03  0.44798469523E+03  0.93341330917E+03  0.12699999809E+01 0.  1.
</event>
<event>
 5   0  0.7082527E-06  0.1700519E+04  0.7818609E-02  0.8761068E-01
       -1   -1    0    0    0  501  0.00000000000E+00  0.00000000000E+00  0.92253432363E+03  0.92253432364E+03  0.50400001928E-02 0.  1.
        1   -1    0    0  501    0  0.00000000000E+00  0.00000000000E+00 -0.78364726138E+03  0.78364726140E+03  0.50400001928E-02 0. -1.
    10030    2    1    2    0    0  0.00000000000E+00  0.00000000000E+00  0.13888706225E+03  0.17061815850E+04  0.17005193280E+04 0.  0.
        1    1    3    3  502    0  0.69427563037E+03 -0.34442998579E+03 -0.28142193460E+03  0.82452954546E+03  0.50400001928E-02 0. -1.
       -1    1    3    3    0  502 -0.69427563037E+03  0.34442998579E+03  0.42030899684E+03  0.88165203958E+03  0.50400001928E-02 0.  1.
</event>
<event>
 5   0  0.7461128E-06  0.1699792E+04  0.7818609E-02  0.8761483E-01
       -1   -1    0    0    0  501  0.00000000000E+00  0.00000000000E+00  0.73045126267E+03  0.73045126268E+03  0.50400001928E-02 0. -1.
        1   -1    0    0  501    0  0.00000000000E+00  0.00000000000E+00 -0.98887276882E+03  0.98887276883E+03  0.50400001928E-02 0.  1.
    10030    2    1    2    0    0  0.00000000000E+00  0.00000000000E+00 -0.25842150615E+03  0.17193240315E+04  0.16997921786E+04 0.  0.
        3    1    3    3  502    0 -0.56009234240E+03  0.51008834141E+03  0.26048212109E+03  0.80108956657E+03  0.10100000352E+00 0. -1.
       -3    1    3    3    0  502  0.56009234240E+03 -0.51008834141E+03 -0.51890362724E+03  0.91823446495E+03  0.10100000352E+00 0.  1.
</event>
<event>
 5   0  0.1423543E-05  0.1700175E+04  0.7818609E-02  0.8761265E-01
       -2   -1    0    0    0  501  0.00000000000E+00  0.00000000000E+00  0.14642250586E+04  0.14642250586E+04  0.25500000920E-02 0. -1.
        2   -1    0    0  501    0  0.00000000000E+00  0.00000000000E+00 -0.49353638908E+03  0.49353638909E+03  0.25500000920E-02 0.  1.
    10030    2    1    2    0    0  0.00000000000E+00  0.00000000000E+00  0.97068866955E+03  0.19577614477E+04  0.17001745184E+04 0.  0.
        3    1    3    3  502    0 -0.36604984557E+03 -0.38940072054E+03  0.12465786901E+04  0.13563125935E+04  0.10100000352E+00 0. -1.
       -3    1    3    3    0  502  0.36604984557E+03  0.38940072054E+03 -0.27589002053E+03  0.60144885421E+03  0.10100000352E+00 0.  1.
</event>
<event>
 5   0  0.7583716E-06  0.1691166E+04  0.7818609E-02  0.8766419E-01
       -1   -1    0    0    0  501  0.00000000000E+00  0.00000000000E+00  0.75053475548E+03  0.75053475549E+03  0.50400001928E-02 0. -1.
        1   -1    0    0  501    0  0.00000000000E+00  0.00000000000E+00 -0.95266867516E+03  0.95266867518E+03  0.50400001928E-02 0.  1.
    10030    2    1    2    0    0  0.00000000000E+00  0.00000000000E+00 -0.20213391969E+03  0.17032034307E+04  0.16911664036E+04 0.  0.
        5    1    3    3  502    0 -0.31872012235E+03  0.59526648979E+03  0.41153922363E+03  0.79076629471E+03  0.46999998093E+01 0. -1.
       -5    1    3    3    0  502  0.31872012235E+03 -0.59526648979E+03 -0.61367314332E+03  0.91243713596E+03  0.46999998093E+01 0.  1.
</event>
<event>
 5   0  0.7455669E-06  0.1700224E+04  0.7818609E-02  0.8761237E-01
       -1   -1    0    0    0  501  0.00000000000E+00  0.00000000000E+00  0.16413397496E+04  0.16413397496E+04  0.50400001928E-02 0.  1.
        1   -1    0    0  501    0  0.00000000000E+00  0.00000000000E+00 -0.44030514109E+03  0.44030514112E+03  0.50400001928E-02 0. -1.
    10030    2    1    2    0    0  0.00000000000E+00  0.00000000000E+00  0.12010346085E+04  0.20816448907E+04  0.17002239030E+04 0.  0.
        4    1    3    3  502    0  0.67030678353E+03 -0.25351200557E+03  0.40647437407E+02  0.71779756762E+03  0.12699999809E+01 0. -1.
       -4    1    3    3    0  502 -0.67030678353E+03  0.25351200557E+03  0.11603871711E+04  0.13638473231E+04  0.12699999809E+01 0.  1.
</event>
<event>
 5   0  0.1419012E-05  0.1705179E+04  0.7818609E-02  0.8758416E-01
        2   -1    0    0  501    0  0.00000000000E+00  0.00000000000E+00  0.19059552506E+04  0.19059552506E+04  0.25500000920E-02 0.  1.
       -2   -1    0    0    0  501  0.00000000000E+00  0.00000000000E+00 -0.38138810861E+03  0.38138810862E+03  0.25500000920E-02 0. -1.
    10030    2    1    2    0    0  0.00000000000E+00  0.00000000000E+00  0.15245671420E+04  0.22873433592E+04  0.17051787802E+04 0.  0.
        4    1    3    3  502    0 -0.66144252425E+03 -0.45030522844E+03  0.36747580853E+03  0.88052319357E+03  0.12699999809E+01 0. -1.
       -4    1    3    3    0  502  0.66144252425E+03  0.45030522844E+03  0.11570913335E+04  0.14068201657E+04  0.12699999809E+01 0.  1.
</event>
<event>
 5   0  0.1374441E-05  0.1699210E+04  0.7818609E-02  0.8761815E-01
        2   -1    0    0  501    0  0.00000000000E+00  0.00000000000E+00  0.24870188242E+04  0.24870188242E+04  0.25500000920E-02 0.  1.
       -2   -1    0    0    0  501  0.00000000000E+00  0.00000000000E+00 -0.29023836776E+03  0.29023836777E+03  0.25500000920E-02 0. -1.
    10030    2    1    2    0    0  0.00000000000E+00  0.00000000000E+00  0.21967804564E+04  0.27772571920E+04  0.16992095623E+04 0.  0.
        1    1    3    3  502    0  0.83541512406E+03  0.11411375370E+03  0.92784430812E+03  0.12537286144E+04  0.50400001928E-02 0. -1.
       -1    1    3    3    0  502 -0.83541512406E+03 -0.11411375370E+03  0.12689361483E+04  0.15235285776E+04  0.50400001928E-02 0.  1.
</event>
<event>
 5   0  0.7476457E-06  0.1699419E+04  0.7818609E-02  0.8761696E-01
       -1   -1    0    0    0  501  0.00000000000E+00  0.00000000000E+00  0.44350880849E+03  0.44350880851E+03  0.50400001928E-02 0. -1.
        1   -1    0    0  501    0  0.00000000000E+00  0.00000000000E+00 -0.16279417818E+04  0.16279417818E+04  0.50400001928E-02 0.  1.
    10030    2    1    2    0    0  0.00000000000E+00  0.00000000000E+00 -0.11844329733E+04  0.20714505904E+04  0.16994193361E+04 0.  0.
        2    1    3    3  502    0 -0.78837707420E+03  0.20542626554E+03 -0.29798464581E+03  0.86748672084E+03  0.25500000920E-02 0. -1.
       -2    1    3    3    0  502  0.78837707420E+03 -0.20542626554E+03 -0.88644832754E+03  0.12039638695E+04  0.25500000920E-02 0.  1.
</event>
<event>
 5   0  0.1435301E-05  0.1706854E+04  0.7818609E-02  0.8757465E-01
       -2   -1    0    0    0  501  0.00000000000E+00  0.00000000000E+00  0.33321398723E+03  0.33321398724E+03  0.25500000920E-02 0.  1.
        2   -1    0    0  501    0  0.00000000000E+00  0.00000000000E+00 -0.21857949989E+04  0.21857949989E+04  0.25500000920E-02 0. -1.
    10030    2    1    2    0    0  0.00000000000E+00  0.00000000000E+00 -0.18525810116E+04  0.25190089861E+04  0.17068537920E+04 0.  0.
        2    1    3    3  502    0  0.48942803740E+03  0.25411760904E+03  0.34945299916E+02  0.55257283413E+03  0.25500000920E-02 0.  1.
       -2    1    3    3    0  502 -0.48942803740E+03 -0.25411760904E+03 -0.18875263116E+04  0.19664361520E+04  0.25500000920E-02 0. -1.
</event>
<event>
 5   0  0.1374441E-05  0.1699909E+04  0.7818609E-02  0.8761416E-01
       -2   -1    0    0    0  501  0.00000000000E+00  0.00000000000E+00  0.29480843674E+03  0.29480843675E+03  0.25500000920E-02 0. -1.
        2   -1    0    0  501    0  0.00000000000E+00  0.00000000000E+00 -0.24504804765E+04  0.24504804765E+04  0.25500000920E-02 0.  1.
    10030    2    1    2    0    0  0.00000000000E+00  0.00000000000E+00 -0.21556720398E+04  0.27452889133E+04  0.16999086076E+04 0.  0.
        1    1    3    3  502    0 -0.38932289181E+02  0.44585398731E+03 -0.22447745719E+04  0.22889548663E+04  0.50400001928E-02 0.  1.
       -1    1    3    3    0  502  0.38932289181E+02 -0.44585398731E+03  0.89102532169E+02  0.45633404695E+03  0.50400001928E-02 0. -1.
</event>
<event>
 5   0  0.1423543E-05  0.1699952E+04  0.7818609E-02  0.8761392E-01
       -2   -1    0    0    0  501  0.00000000000E+00  0.00000000000E+00  0.90154285171E+03  0.90154285171E+03  0.25500000920E-02 0. -1.
        2   -1    0    0  501    0  0.00000000000E+00  0.00000000000E+00 -0.80135846751E+03  0.80135846752E+03  0.25500000920E-02 0.  1.
    10030    2    1    2    0    0  0.00000000000E+00  0.00000000000E+00  0.10018438419E+03  0.17029013192E+04  0.16999517617E+04 0.  0.
        3    1    3    3  502    0  0.11180930678E+03 -0.84139095427E+03  0.95102645784E+02  0.85409869596E+03  0.10100000352E+00 0. -1.
       -3    1    3    3    0  502 -0.11180930678E+03  0.84139095427E+03  0.50817384092E+01  0.84880262327E+03  0.10100000352E+00 0.  1.
</event>
<event>
 5   0  0.1435301E-05  0.1700714E+04  0.7818609E-02  0.8760957E-01
       -2   -1    0    0    0  501  0.00000000000E+00  0.00000000000E+00  0.61917908639E+03  0.61917908639E+03  0.25500000920E-02 0.  1.
        2   -1    0    0  501    0  0.00000000000E+00  0.00000000000E+00 -0.11678479176E+04  0.11678479176E+04  0.25500000920E-02 0. -1.
    10030    2    1    2    0    0  0.00000000000E+00  0.00000000000E+00 -0.54866883119E+03  0.17870270040E+04  0.17007139755E+04 0.  0.
        2    1    3    3  502    0  0.31290406353E+03 -0.23882697642E+03  0.51768359682E+03  0.65034112900E+03  0.25500000920E-02 0.  1.
       -2    1    3    3    0  502 -0.31290406353E+03  0.23882697642E+03 -0.10663524280E+04  0.11366858750E+04  0.25500000920E-02 0. -1.
</event>
<event>
 5   0  0.7583716E-06  0.1700768E+04  0.7818609E-02  0.8760927E-01
       -1   -1    0    0    0  501  0.00000000000E+00  0.00000000000E+00  0.44004299227E+03  0.44004299230E+03  0.50400001928E-02 0. -1.
        1   -1    0    0  501    0  0.00000000000E+00  0.00000000000E+00 -0.16433685023E+04  0.16433685023E+04  0.50400001928E-02 0.  1.
    10030    2    1    2    0    0  0.00000000000E+00  0.00000000000E+00 -0.12033255101E+04  0.20834114946E+04  0.17007678186E+04 0.  0.
        5    1    3    3  502    0  0.79623208602E+03  0.29852981476E+03 -0.60780211951E+03  0.10452516882E+04  0.46999998093E+01 0.  1.
       -5    1    3    3    0  502 -0.79623208602E+03 -0.29852981476E+03 -0.59552339056E+03  0.10381598065E+04  0.46999998093E+01 0. -1.
</event>
<event>
 5   0  0.1419012E-05  0.1700329E+04  0.7818609E-02  0.8761177E-01
       -2   -1    0    0    0  501  0.00000000000E+00  0.00000000000E+00  0.36275104384E+03  0.36275104385E+03  0.25500000920E-02 0.  1.
        2   -1    0    0  501    0  0.00000000000E+00  0.00000000000E+00 -0.19924947534E+04  0.19924947534E+04  0.25500000920E-02 0. -1.
    10030    2    1    2    0    0  0.00000000000E+00  0.00000000000E+00 -0.16297437096E+04  0.23552457973E+04  0.17003288525E+04 0.  0.
        4    1    3    3  502    0 -0.20206194207E+03  0.82462325372E+03 -0.75377656342E+03  0.11353471978E+04  0.12699999809E+01 0.  1.
       -4    1    3    3    0  502  0.20206194207E+03 -0.82462325372E+03 -0.87596714615E+03  0.12198985995E+04  0.12699999809E+01 0. -1.
</event>
<event>
 5   0  0.7461128E-06  0.1698712E+04  0.7818609E-02  0.8762099E-01
       -1   -1    0    0    0  501  0.00000000000E+00  0.00000000000E+00  0.87985705092E+03  0.87985705094E+03  0.50400001928E-02 0.  1.
        1   -1    0    0  501    0  0.00000000000E+00  0.00000000000E+00 -0.81991266564E+03  0.81991266565E+03  0.50400001928E-02 0. -1.
    10030    2    1    2    0    0  0.00000000000E+00  0.00000000000E+00  0.59944385287E+02  0.16997697166E+04  0.16987123830E+04 0.  0.
        3    1    3    3  502    0 -0.19168286499E+03  0.78367810100E+03  0.29567888926E+03  0.85925531856E+03  0.10100000352E+00 0.  1.
       -3    1    3    3    0  502  0.19168286499E+03 -0.78367810100E+03 -0.23573450398E+03  0.84051439803E+03  0.10100000352E+00 0. -1.
</event>
<event>
 5   0  0.7082527E-06  0.1698896E+04  0.7818609E-02  0.8761994E-01
        1   -1    0    0  501    0  0.00000000000E+00  0.00000000000E+00  0.72973026924E+03  0.72973026926E+03  0.50400001928E-02 0.  1.
       -1   -1    0    0    0  501  0.00000000000E+00  0.00000000000E+00 -0.98880662756E+03  0.98880662758E+03  0.50400001928E-02 0. -1.
    10030    2    1    2    0    0  0.00000000000E+00  0.00000000000E+00 -0.25907635832E+03  0.17185368968E+04  0.16988962612E+04 0.  0.
        1    1    3    3  502    0 -0.45799295585E+03  0.37528747278E+03  0.48657119939E+03  0.76638747833E+03  0.50400001928E-02 0.  1.
       -1    1    3    3    0  502  0.45799295585E+03 -0.37528747278E+03 -0.74564755771E+03  0.95214941851E+03  0.50400001928E-02 0. -1.
</event>
<event>
 5   0  0.1423543E-05  0.1700293E+04  0.7818609E-02  0.8761198E-01
        2   -1    0    0  501    0  0.00000000000E+00  0.00000000000E+00  0.54125589361E+03  0.54125589362E+03  0.25500000920E-02 0. -1.
       -2   -1    0    0    0  501  0.00000000000E+00  0.00000000000E+00 -0.13353178396E+04  0.13353178396E+04  0.25500000920E-02 0.  1.
    10030    2    1    2    0    0  0.00000000000E+00  0.00000000000E+00 -0.79406194599E+03  0.18765737332E+04  0.17002925049E+04 0.  0.
        3    1    3    3  502    0 -0.53721582353E+03 -0.27216069266E+02  0.32955999658E+03  0.63083385849E+03  0.10100000352E+00 0.  1.
       -3    1    3    3    0  502  0.53721582353E+03  0.27216069266E+02 -0.11236219426E+04  0.12457398747E+04  0.10100000352E+00 0. -1.
</event>
<event>
 5   0  0.5229750E-06  0.1700059E+04  0.7818609E-02  0.8761331E-01
        3   -1    0    0  501    0  0.00000000000E+00  0.00000000000E+00  0.10217931365E+04  0.10217931415E+04  0.10100000352E+00 0.  1.
       -3   -1    0    0    0  501  0.00000000000E+00  0.00000000000E+00 -0.70713949669E+03  0.70713950390E+03  0.10100000352E+00 0. -1.
    10030    2    1    2    0    0  0.00000000000E+00  0.00000000000E+00  0.31465363984E+03  0.17289326454E+04  0.17000591694E+04 0.  0.
        1    1    3    3  502    0 -0.61761956897E+02  0.10161736682E+03 -0.69863871224E+03  0.70868658717E+03  0.50400001928E-02 0. -1.
       -1    1    3    3    0  502  0.61761956897E+02 -0.10161736682E+03  0.10132923521E+04  0.10202460582E+04  0.50400001928E-02 0.  1.
</event>
<event>
 5   0  0.7461128E-06  0.1700337E+04  0.7818609E-02  0.8761172E-01
        1   -1    0    0  501    0  0.00000000000E+00  0.00000000000E+00  0.12199058873E+04  0.12199058873E+04  0.50400001928E-02 0.  1.
       -1   -1    0    0    0  501  0.00000000000E+00  0.00000000000E+00 -0.59249352283E+03  0.59249352285E+03  0.50400001928E-02 0. -1.
    10030    2    1    2    0    0  0.00000000000E+00  0.00000000000E+00  0.62741236450E+03  0.18123994102E+04  0.17003368334E+04 0.  0.
        3    1    3    3  502    0 -0.52604801195E+03  0.45234044442E+03  0.83746421874E+03  0.10875130879E+04  0.10100000352E+00 0.  1.
       -3    1    3    3    0  502  0.52604801195E+03 -0.45234044442E+03 -0.21005185423E+03  0.72488632227E+03  0.10100000352E+00 0. -1.
</event>
<event>
 5   0  0.7455669E-06  0.1698725E+04  0.7818609E-02  0.8762092E-01
       -1   -1    0    0    0  501  0.00000000000E+00  0.00000000000E+00  0.67520295764E+03  0.67520295766E+03  0.50400001928E-02 0. -1.
        1   -1    0    0  501    0  0.00000000000E+00  0.00000000000E+00 -0.10684443131E+04  0.10684443131E+04  0.50400001928E-02 0.  1.
    10030    2    1    2    0    0  0.00000000000E+00  0.00000000000E+00 -0.39324135544E+03  0.17436472708E+04  0.16987251223E+04 0.  0.
        4    1    3    3  502    0 -0.18452188319E+03  0.47081196096E+03  0.50385007246E+03  0.71384783840E+03  0.12699999809E+01 0. -1.
       -4    1    3    3    0  502  0.18452188319E+03 -0.47081196096E+03 -0.89709142790E+03  0.10297994324E+04  0.12699999809E+01 0.  1.
</event>
<event>
 5   0  0.7583716E-06  0.1700366E+04  0.7818609E-02  0.8761156E-01
        1   -1    0    0  501    0  0.00000000000E+00  0.00000000000E+00  0.46693758763E+03  0.46693758766E+03  0.50400001928E-02 0.  1.
       -1   -1    0    0    0  501  0.00000000000E+00  0.00000000000E+00 -0.15479819796E+04  0.15479819796E+04  0.50400001928E-02 0. -1.
    10030    2    1    2    0    0  0.00000000000E+00  0.00000000000E+00 -0.10810443920E+04  0.20149195673E+04  0.17003658092E+04 0.  0.
        5    1    3    3  502    0 -0.57330293910E+03 -0.54476849411E+03 -0.91023187373E+03  0.12058163733E+04  0.46999998093E+01 0. -1.
       -5    1    3    3    0  502  0.57330293910E+03  0.54476849411E+03 -0.17081251828E+03  0.80910319401E+03  0.46999998093E+01 0.  1.
</event>
<event>
 5   0  0.7455669E-06  0.1699997E+04  0.7818609E-02  0.8761366E-01
       -1   -1    0    0    0  501  0.00000000000E+00  0.00000000000E+00  0.44514636028E+03  0.44514636031E+03  0.50400001928E-02 0.  1.
        1   -1    0    0  501    0  0.00000000000E+00  0.00000000000E+00 -0.16230566492E+04  0.16230566492E+04  0.50400001928E-02 0. -1.
    10030    2    1    2    0    0  0.00000000000E+00  0.00000000000E+00 -0.11779102889E+04  0.20682030095E+04  0.16999973646E+04 0.  0.
        4    1    3    3  502    0 -0.31713015208E+03 -0.78635382932E+03 -0.66166896817E+03  0.10755144418E+04  0.12699999809E+01 0. -1.
       -4    1    3    3    0  502  0.31713015208E+03  0.78635382932E+03 -0.51624132073E+03  0.99268856766E+03  0.12699999809E+01 0.  1.
</event>
<event>
 5   0  0.1423543E-05  0.1702659E+04  0.7818609E-02  0.8759849E-01
       -2   -1    0    0    0  501  0.00000000000E+00  0.00000000000E+00  0.33015628240E+03  0.33015628241E+03  0.25500000920E-02 0.  1.
        2   -1    0    0  501    0  0.00000000000E+00  0.00000000000E+00 -0.21952084169E+04  0.21952084169E+04  0.25500000920E-02 0. -1.
    10030    2    1    2    0    0  0.00000000000E+00  0.00000000000E+00 -0.18650521345E+04  0.25253646993E+04  0.17026589207E+04 0.  0.
        3    1    3    3  502    0 -0.62447260576E+02 -0.24170275232E+03  0.27464929650E+03  0.37114973677E+03  0.10100000352E+00 0.  1.
       -3    1    3    3    0  502  0.62447260576E+02  0.24170275232E+03 -0.21397014310E+04  0.21542149626E+04  0.10100000352E+00 0. -1.
</event>
<event>
 5   0  0.7082527E-06  0.1699920E+04  0.7818609E-02  0.8761410E-01
       -1   -1    0    0    0  501  0.00000000000E+00  0.00000000000E+00  0.33825354646E+04  0.33825354646E+04  0.50400001928E-02 0. -1.
        1   -1    0    0  501    0  0.00000000000E+00  0.00000000000E+00 -0.21357705384E+03  0.21357705390E+03  0.50400001928E-02 0.  1.
    10030    2    1    2    0    0  0.00000000000E+00  0.00000000000E+00  0.31689584108E+04  0.35961125185E+04  0.16999199501E+04 0.  0.
        1    1    3    3  502    0  0.78760176657E+02  0.14822643964E+03 -0.17816703431E+03  0.24478099390E+03  0.50400001928E-02 0.  1.
       -1    1    3    3    0  502 -0.78760176657E+02 -0.14822643964E+03  0.33471254451E+04  0.33513315246E+04  0.50400001928E-02 0. -1.
</event>
<event>
 5   0  0.1423543E-05  0.1701275E+04  0.7818609E-02  0.8760638E-01
       -2   -1    0    0    0  501  0.00000000000E+00  0.00000000000E+00  0.97944837845E+03  0.97944837845E+03  0.25500000920E-02 0.  1.
        2   -1    0    0  501    0  0.00000000000E+00  0.00000000000E+00 -0.73876674967E+03  0.73876674967E+03  0.25500000920E-02 0. -1.
    10030    2    1    2    0    0  0.00000000000E+00  0.00000000000E+00  0.24068162878E+03  0.17182151281E+04  0.17012746927E+04 0.  0.
        3    1    3    3  502    0  0.54695363007E+03  0.60071498018E+03 -0.13429493619E+03  0.82343906936E+03  0.10100000352E+00 0. -1.
       -3    1    3    3    0  502 -0.54695363007E+03 -0.60071498018E+03  0.37497656497E+03  0.89477605877E+03  0.10100000352E+00 0.  1.
</event>
<event>
 5   0  0.1419012E-05  0.1700295E+04  0.7818609E-02  0.8761196E-01
        2   -1    0    0  501    0  0.00000000000E+00  0.00000000000E+00  0.64312539400E+03  0.64312539400E+03  0.25500000920E-02 0. -1.
       -2   -1    0    0    0  501  0.00000000000E+00  0.00000000000E+00 -0.11238103796E+04  0.11238103796E+04  0.25500000920E-02 0.  1.
    10030    2    1    2    0    0  0.00000000000E+00  0.00000000000E+00 -0.48068498555E+03  0.17669357736E+04  0.17002952604E+04 0.  0.
        4    1    3    3  502    0 -0.25629033105E+03  0.13980817526E+03  0.58939889667E+03  0.65774138683E+03  0.12699999809E+01 0. -1.
       -4    1    3    3    0  502  0.25629033105E+03 -0.13980817526E+03 -0.10700838822E+04  0.11091943867E+04  0.12699999809E+01 0.  1.
</event>
<event>
 5   0  0.7455669E-06  0.1699721E+04  0.7818609E-02  0.8761524E-01
        1   -1    0    0  501    0  0.00000000000E+00  0.00000000000E+00  0.84256689369E+03  0.84256689371E+03  0.50400001928E-02 0. -1.
       -1   -1    0    0    0  501  0.00000000000E+00  0.00000000000E+00 -0.85721713318E+03  0.85721713320E+03  0.50400001928E-02 0.  1.
    10030    2    1    2    0    0  0.00000000000E+00  0.00000000000E+00 -0.14650239490E+02  0.16997840269E+04  0.16997208914E+04 0.  0.
        4    1    3    3  502    0  0.13127072831E+02  0.24734979745E+03 -0.82031713762E+03  0.85689909646E+03  0.12699999809E+01 0.  1.
       -4    1    3    3    0  502 -0.13127072831E+02 -0.24734979745E+03  0.80566689813E+03  0.84288493045E+03  0.12699999809E+01 0. -1.
</event>
<event>
 5   0  0.7082527E-06  0.1700005E+04  0.7818609E-02  0.8761362E-01
       -1   -1    0    0    0  501  0.00000000000E+00  0.00000000000E+00  0.41634353244E+03  0.41634353247E+03  0.50400001928E-02 0. -1.
        1   -1    0    0  501    0  0.00000000000E+00  0.00000000000E+00 -0.17353559873E+04  0.17353559873E+04  0.50400001928E-02 0.  1.
    10030    2    1    2    0    0  0.00000000000E+00  0.00000000000E+00 -0.13190124548E+04  0.21516995197E+04  0.17000049904E+04 0.  0.
        1    1    3    3  502    0  0.62759135889E+03  0.44136847657E+03 -0.11225303483E+04  0.13596879895E+04  0.50400001928E-02 0. -1.
       -1    1    3    3    0  502 -0.62759135889E+03 -0.44136847657E+03 -0.19648210654E+03  0.79201153027E+03  0.50400001928E-02 0.  1.
</event>
<event>
 5   0  0.1435301E-05  0.1702338E+04  0.7818609E-02  0.8760032E-01
       -2   -1    0    0    0  501  0.00000000000E+00  0.00000000000E+00  0.66845694731E+03  0.66845694731E+03  0.25500000920E-02 0.  1.
        2   -1    0    0  501    0  0.00000000000E+00  0.00000000000E+00 -0.10838224650E+04  0.10838224650E+04  0.25500000920E-02 0. -1.
    10030    2    1    2    0    0  0.00000000000E+00  0.00000000000E+00 -0.41536551773E+03  0.17522794123E+04  0.17023379881E+04 0.  0.
        2    1    3    3  502    0 -0.64044514486E+03 -0.25436284299E+03 -0.72195810611E+03  0.99804506234E+03  0.25500000920E-02 0. -1.
       -2    1    3    3    0  502  0.64044514486E+03  0.25436284299E+03  0.30659258838E+03  0.75423435001E+03  0.25500000920E-02 0.  1.
</event>
<event>
 5   0  0.1423543E-05  0.1699864E+04  0.7818609E-02  0.8761442E-01
       -2   -1    0    0    0  501  0.00000000000E+00  0.00000000000E+00  0.56033008797E+03  0.56033008798E+03  0.25500000920E-02 0. -1.
        2   -1    0    0  501    0  0.00000000000E+00  0.00000000000E+00 -0.12892126114E+04  0.12892126114E+04  0.25500000920E-02 0.  1.
    10030    2    1    2    0    0  0.00000000000E+00  0.00000000000E+00 -0.72888252347E+03  0.18495426994E+04  0.16998642487E+04 0.  0.
        3    1    3    3  502    0  0.48599686253E+03  0.28163579960E+03  0.32959078012E+03  0.65126167286E+03  0.10100000352E+00 0. -1.
       -3    1    3    3    0  502 -0.48599686253E+03 -0.28163579960E+03 -0.10584733036E+04  0.11982810266E+04  0.10100000352E+00 0.  1.
</event>
<event>
 5   0  0.7455669E-06  0.1698785E+04  0.7818609E-02  0.8762057E-01
       -1   -1    0    0    0  501  0.00000000000E+00  0.00000000000E+00  0.77426060975E+03  0.77426060976E+03  0.50400001928E-02 0. -1.
        1   -1    0    0  501    0  0.00000000000E+00  0.00000000000E+00 -0.93181537714E+03  0.93181537715E+03  0.50400001928E-02 0.  1.
    10030    2    1    2    0    0  0.00000000000E+00  0.00000000000E+00 -0.15755476739E+03  0.17060759869E+04  0.16987853803E+04 0.  0.
        4    1    3    3  502    0  0.11057826036E+02  0.23594961195E+03 -0.89816603821E+03  0.92870788733E+03  0.12699999809E+01 0.  1.
       -4    1    3    3    0  502 -0.11057826036E+02 -0.23594961195E+03  0.74061127082E+03  0.77736809959E+03  0.12699999809E+01 0. -1.
</event>
<event>
 5   0  0.7476457E-06  0.1699922E+04  0.7818609E-02  0.8761409E-01
       -1   -1    0    0    0  501  0.00000000000E+00  0.00000000000E+00  0.73257999942E+03  0.73257999944E+03  0.50400001928E-02 0. -1.
        1   -1    0    0  501    0  0.00000000000E+00  0.00000000000E+00 -0.98614971307E+03  0.98614971308E+03  0.50400001928E-02 0.  1.
    10030    2    1    2    0    0  0.00000000000E+00  0.00000000000E+00 -0.25356971365E+03  0.17187297125E+04  0.16999218291E+04 0.  0.
        2    1    3    3  502    0 -0.65347528666E+03 -0.12535818336E+03 -0.66149235502E+03  0.93825197051E+03  0.25500000920E-02 0.  1.
       -2    1    3    3    0  502  0.65347528666E+03  0.12535818336E+03  0.40792264137E+03  0.78047774200E+03  0.25500000920E-02 0. -1.
</event>
<event>
 5   0  0.7082527E-06  0.1699769E+04  0.7818609E-02  0.8761496E-01
       -1   -1    0    0    0  501  0.00000000000E+00  0.00000000000E+00  0.70660502371E+03  0.70660502373E+03  0.50400001928E-02 0. -1.
        1   -1    0    0  501    0  0.00000000000E+00  0.00000000000E+00 -0.10222165369E+04  0.10222165369E+04  0.50400001928E-02 0.  1.
    10030    2    1    2    0    0  0.00000000000E+00  0.00000000000E+00 -0.31561151320E+03  0.17288215607E+04  0.16997686199E+04 0.  0.
        1    1    3    3  502    0  0.74616462820E+03 -0.36503190874E+02 -0.56995937033E+03  0.93965303127E+03  0.50400001928E-02 0.  1.
       -1    1    3    3    0  502 -0.74616462820E+03  0.36503190874E+02  0.25434785713E+03  0.78916852939E+03  0.50400001928E-02 0. -1.
</event>
<event>
 5   0  0.1435301E-05  0.1702163E+04  0.7818609E-02  0.8760132E-01
        2   -1    0    0  501    0  0.00000000000E+00  0.00000000000E+00  0.23890360477E+04  0.23890360477E+04  0.25500000920E-02 0.  1.
       -2   -1    0    0    0  501  0.00000000000E+00  0.00000000000E+00 -0.30319340698E+03  0.30319340699E+03  0.25500000920E-02 0. -1.
    10030    2    1    2    0    0  0.00000000000E+00  0.00000000000E+00  0.20858426407E+04  0.26922294546E+04  0.17021633044E+04 0.  0.
        2    1    3    3  502    0  0.29688904343E+03  0.70701845545E+03  0.16268952630E+04  0.17985567540E+04  0.25500000920E-02 0.  1.
       -2    1    3    3    0  502 -0.29688904343E+03 -0.70701845545E+03  0.45894737769E+03  0.89367270069E+03  0.25500000920E-02 0. -1.
</event>
<event>
 5   0  0.7583716E-06  0.1699600E+04  0.7818609E-02  0.8761593E-01
       -1   -1    0    0    0  501  0.00000000000E+00  0.00000000000E+00  0.75422466511E+03  0.75422466513E+03  0.50400001928E-02 0.  1.
        1   -1    0    0  501    0  0.00000000000E+00  0.00000000000E+00 -0.95748657192E+03  0.95748657193E+03  0.50400001928E-02 0. -1.
    10030    2    1    2    0    0  0.00000000000E+00  0.00000000000E+00 -0.20326190681E+03  0.17117112371E+04  0.16995999401E+04 0.  0.
        5    1    3    3  502    0 -0.30494087892E+03 -0.64712600980E+03 -0.56356801424E+03  0.91070961831E+03  0.46999998093E+01 0. -1.
       -5    1    3    3    0  502  0.30494087892E+03  0.64712600980E+03  0.36030610743E+03  0.80100161876E+03  0.46999998093E+01 0.  1.
</event>
<event>
 5   0  0.7461128E-06  0.1700102E+04  0.7818609E-02  0.8761306E-01
       -1   -1    0    0    0  501  0.00000000000E+00  0.00000000000E+00  0.87127026706E+03  0.87127026707E+03  0.50400001928E-02 0.  1.
        1   -1    0    0  501    0  0.00000000000E+00  0.00000000000E+00 -0.82934863026E+03  0.82934863028E+03  0.50400001928E-02 0. -1.
    10030    2    1    2    0    0  0.00000000000E+00  0.00000000000E+00  0.41921636792E+02  0.17006188974E+04  0.17001021176E+04 0.  0.
        3    1    3    3  502    0  0.50086733341E+03  0.61995404542E+03 -0.27472282251E+03  0.84302060682E+03  0.10100000352E+00 0. -1.
       -3    1    3    3    0  502 -0.50086733341E+03 -0.61995404542E+03  0.31664445930E+03  0.85759829053E+03  0.10100000352E+00 0.  1.
</event>
<event>
 5   0  0.1423543E-05  0.1700386E+04  0.7818609E-02  0.8761144E-01
        2   -1    0    0  501    0  0.00000000000E+00  0.00000000000E+00  0.11709183238E+04  0.11709183238E+04  0.25500000920E-02 0.  1.
       -2   -1    0    0    0  501  0.00000000000E+00  0.00000000000E+00 -0.61731758386E+03  0.61731758386E+03  0.25500000920E-02 0. -1.
    10030    2    1    2    0    0  0.00000000000E+00  0.00000000000E+00  0.55360073992E+03  0.17882359076E+04  0.17003863920E+04 0.  0.
        3    1    3    3  502    0 -0.13587815533E+03 -0.83903229462E+03  0.25602112449E+03  0.88768513049E+03  0.10100000352E+00 0. -1.
       -3    1    3    3    0  502  0.13587815533E+03  0.83903229462E+03  0.29757961543E+03  0.90055077715E+03  0.10100000352E+00 0.  1.
</event>
<event>
 5   0  0.1423543E-05  0.1698154E+04  0.7818609E-02  0.8762418E-01
        2   -1    0    0  501    0  0.00000000000E+00  0.00000000000E+00  0.11871404419E+04  0.11871404419E+04  0.25500000920E-02 0. -1.
       -2   -1    0    0    0  501  0.00000000000E+00  0.00000000000E+00 -0.60728437847E+03  0.60728437848E+03  0.25500000920E-02 0.  1.
    10030    2    1    2    0    0  0.00000000000E+00  0.00000000000E+00  0.57985606344E+03  0.17944248204E+04  0.16981541101E+04 0.  0.
        3    1    3    3  502    0  0.14809656967E+03  0.25565731104E+03 -0.55121329935E+03  0.62540336282E+03  0.10100000352E+00 0.  1.
       -3    1    3    3    0  502 -0.14809656967E+03 -0.25565731104E+03  0.11310693628E+04  0.11690214576E+04  0.10100000352E+00 0. -1.
</event>
<event>
 5   0  0.7082527E-06  0.1700811E+04  0.7818609E-02  0.8760902E-01
        1   -1    0    0  501    0  0.00000000000E+00  0.00000000000E+00  0.12113151567E+04  0.12113151567E+04  0.50400001928E-02 0. -1.
       -1   -1    0    0    0  501  0.00000000000E+00  0.00000000000E+00 -0.59702856060E+03  0.59702856062E+03  0.50400001928E-02 0.  1.
    10030    2    1    2    0    0  0.00000000000E+00  0.00000000000E+00  0.61428659607E+03  0.18083437173E+04  0.17008112705E+04 0.  0.
        1    1    3    3  502    0 -0.67346394206E+02 -0.44348996512E+03  0.10752967475E+04  0.11651102871E+04  0.50400001928E-02 0. -1.
       -1    1    3    3    0  502  0.67346394206E+02  0.44348996512E+03 -0.46101015141E+03  0.64323343018E+03  0.50400001928E-02 0.  1.
</event>
<event>
 5   0  0.1374441E-05  0.1697114E+04  0.7818609E-02  0.8763012E-01
       -2   -1    0    0    0  501  0.00000000000E+00  0.00000000000E+00  0.85481508470E+03  0.85481508470E+03  0.25500000920E-02 0.  1.
        2   -1    0    0  501    0  0.00000000000E+00  0.00000000000E+00 -0.84234444452E+03  0.84234444452E+03  0.25500000920E-02 0. -1.
    10030    2    1    2    0    0  0.00000000000E+00  0.00000000000E+00  0.12470640178E+02  0.16971595292E+04  0.16971137118E+04 0.  0.
        1    1    3    3  502    0  0.20609303961E+03  0.13946541514E+03  0.81750551567E+03  0.85454093592E+03  0.50400001928E-02 0.  1.
       -1    1    3    3    0  502 -0.20609303961E+03 -0.13946541514E+03 -0.80503487549E+03  0.84261859330E+03  0.50400001928E-02 0. -1.
</event>
<event>
 5   0  0.7476457E-06  0.1700706E+04  0.7818609E-02  0.8760962E-01
       -1   -1    0    0    0  501  0.00000000000E+00  0.00000000000E+00  0.85842970827E+03  0.85842970828E+03  0.50400001928E-02 0. -1.
        1   -1    0    0  501    0  0.00000000000E+00  0.00000000000E+00 -0.84235214140E+03  0.84235214141E+03  0.50400001928E-02 0.  1.
    10030    2    1    2    0    0  0.00000000000E+00  0.00000000000E+00  0.16077566869E+02  0.17007818497E+04  0.17007058570E+04 0.  0.
        2    1    3    3  502    0  0.80901930246E+03 -0.79727703497E+02 -0.24143451386E+03  0.84803264261E+03  0.25500000920E-02 0.  1.
       -2    1    3    3    0  502 -0.80901930246E+03  0.79727703497E+02  0.25751208073E+03  0.85274920708E+03  0.25500000920E-02 0. -1.
</event>
<event>
 5   0  0.7082527E-06  0.1700322E+04  0.7818609E-02  0.8761180E-01
        1   -1    0    0  501    0  0.00000000000E+00  0.00000000000E+00  0.20702554084E+04  0.20702554084E+04  0.50400001928E-02 0. -1.
       -1   -1    0    0    0  501  0.00000000000E+00  0.00000000000E+00 -0.34912316233E+03  0.34912316236E+03  0.50400001928E-02 0.  1.
    10030    2    1    2    0    0  0.00000000000E+00  0.00000000000E+00  0.17211322461E+04  0.24193785708E+04  0.17003224577E+04 0.  0.
        1    1    3    3  502    0 -0.56912028313E+03 -0.56872153756E+03  0.12513624197E+04  0.14876995628E+04  0.50400001928E-02 0. -1.
       -1    1    3    3    0  502  0.56912028313E+03  0.56872153756E+03  0.46976982641E+03  0.93167900791E+03  0.50400001928E-02 0.  1.
</event>
<event>
 5   0  0.5229750E-06  0.1699587E+04  0.7818609E-02  0.8761600E-01
        4   -1    0    0  501    0  0.00000000000E+00  0.00000000000E+00  0.70230854246E+03  0.70230969074E+03  0.12699999809E+01 0.  1.
       -4   -1    0    0    0  501  0.00000000000E+00  0.00000000000E+00 -0.10282474838E+04  0.10282482681E+04  0.12699999809E+01 0. -1.
    10030    2    1    2    0    0  0.00000000000E+00  0.00000000000E+00 -0.32593894133E+03  0.17305579588E+04  0.16995866131E+04 0.  0.
        4    1    3    3  502    0  0.29703402148E+03 -0.76328646539E+03 -0.39361799476E+03  0.90872007618E+03  0.12699999809E+01 0.  1.
       -4    1    3    3    0  502 -0.29703402148E+03  0.76328646539E+03  0.67679053434E+02  0.82183788264E+03  0.12699999809E+01 0. -1.
</event>
<event>
 5   0  0.1374441E-05  0.1700338E+04  0.7818609E-02  0.8761171E-01
        2   -1    0    0  501    0  0.00000000000E+00  0.00000000000E+00  0.49504536076E+03  0.49504536077E+03  0.25500000920E-02 0. -1.
       -2   -1    0    0    0  501  0.00000000000E+00  0.00000000000E+00 -0.14600431934E+04  0.14600431935E+04  0.25500000920E-02 0.  1.
    10030    2    1    2    0    0  0.00000000000E+00  0.00000000000E+00 -0.96499783268E+03  0.19550885542E+04  0.17003383304E+04 0.  0.
        1    1    3    3  502    0  0.50403075929E+03  0.58016997664E+03 -0.64520526480E+02  0.77123738658E+03  0.50400001928E-02 0. -1.
       -1    1    3    3    0  502 -0.50403075929E+03 -0.58016997664E+03 -0.90047730620E+03  0.11838511676E+04  0.50400001928E-02 0.  1.
</event>
<event>
 5   0  0.7476457E-06  0.1697890E+04  0.7818609E-02  0.8762569E-01
        1   -1    0    0  501    0  0.00000000000E+00  0.00000000000E+00  0.90705165876E+03  0.90705165878E+03  0.50400001928E-02 0. -1.
       -1   -1    0    0    0  501  0.00000000000E+00  0.00000000000E+00 -0.79456097776E+03  0.79456097778E+03  0.50400001928E-02 0.  1.
    10030    2    1    2    0    0  0.00000000000E+00  0.00000000000E+00  0.11249068100E+03  0.17016126366E+04  0.16978902825E+04 0.  0.
        2    1    3    3  502    0 -0.31794613248E+03 -0.29614357302E+03 -0.67468005752E+03  0.80248609896E+03  0.25500000920E-02 0.  1.
       -2    1    3    3    0  502  0.31794613248E+03  0.29614357302E+03  0.78717073853E+03  0.89912653759E+03  0.25500000920E-02 0. -1.
</event>
<event>
 5   0  0.7476457E-06  0.1699870E+04  0.7818609E-02  0.8761438E-01
        1   -1    0    0  501    0  0.00000000000E+00  0.00000000000E+00  0.16766451300E+04  0.16766451300E+04  0.50400001928E-02 0. -1.
       -1   -1    0    0    0  501  0.00000000000E+00  0.00000000000E+00 -0.43085417025E+03  0.43085417028E+03  0.50400001928E-02 0.  1.
    10030    2    1    2    0    0  0.00000000000E+00  0.00000000000E+00  0.12457909597E+04  0.21074993003E+04  0.16998700495E+04 0.  0.
        2    1    3    3  502    0  0.19790330022E+03 -0.65353109683E+03 -0.45474888750E+01  0.68285378407E+03  0.25500000920E-02 0.  1.
       -2    1    3    3    0  502 -0.19790330022E+03  0.65353109683E+03  0.12503384486E+04  0.14246455162E+04  0.25500000920E-02 0. -1.
</event>
<event>
 5   0  0.1435301E-05  0.1699815E+04  0.7818609E-02  0.8761470E-01
       -2   -1    0    0    0  501  0.00000000000E+00  0.00000000000E+00  0.66641994988E+03  0.66641994989E+03  0.25500000920E-02 0.  1.
        2   -1    0    0  501    0  0.00000000000E+00  0.00000000000E+00 -0.10839148444E+04  0.10839148444E+04  0.25500000920E-02 0. -1.
    10030    2    1    2    0    0  0.00000000000E+00  0.00000000000E+00 -0.41749489452E+03  0.17503347943E+04  0.16998146679E+04 0.  0.
        2    1    3    3  502    0  0.16120664720E+03 -0.26109986000E+03 -0.10248828424E+04  0.10698343613E+04  0.25500000920E-02 0. -1.
       -2    1    3    3    0  502 -0.16120664720E+03  0.26109986000E+03  0.60738794790E+03  0.68050043296E+03  0.25500000920E-02 0.  1.
</event>
<event>
 5   0  0.7461128E-06  0.1701103E+04  0.7818609E-02  0.8760735E-01
        1   -1    0    0  501    0  0.00000000000E+00  0.00000000000E+00  0.44204729330E+03  0.44204729332E+03  0.50400001928E-02 0. -1.
       -1   -1    0    0    0  501  0.00000000000E+00  0.00000000000E+00 -0.16365622705E+04  0.16365622705E+04  0.50400001928E-02 0.  1.
    10030    2    1    2    0    0  0.00000000000E+00  0.00000000000E+00 -0.11945149772E+04  0.20786095638E+04  0.17011030798E+04 0.  0.
        3    1    3    3  502    0 -0.38630775820E+03  0.53190310068E+03  0.62220185788E+02  0.66032261379E+03  0.10100000352E+00 0. -1.
       -3    1    3    3    0  502  0.38630775820E+03 -0.53190310068E+03 -0.12567351630E+04  0.14182869500E+04  0.10100000352E+00 0.  1.
</event>
<event>
 5   0  0.1441756E-05  0.1699489E+04  0.7818609E-02  0.8761656E-01
        2   -1    0    0  501    0  0.00000000000E+00  0.00000000000E+00  0.13009684377E+04  0.13009684377E+04  0.25500000920E-02 0.  1.
       -2   -1    0    0    0  501  0.00000000000E+00  0.00000000000E+00 -0.55502183919E+03  0.55502183920E+03  0.25500000920E-02 0. -1.
    10030    2    1    2    0    0  0.00000000000E+00  0.00000000000E+00  0.74594659855E+03  0.18559902769E+04  0.16994892116E+04 0.  0.
        5    1    3    3  502    0  0.29028279850E+03  0.68383750065E+03  0.82344563378E+03  0.11090458206E+04  0.46999998093E+01 0.  1.
       -5    1    3    3    0  502 -0.29028279850E+03 -0.68383750065E+03 -0.77499035231E+02  0.74694445634E+03  0.46999998093E+01 0. -1.
</event>
<event>
 5   0  0.7461128E-06  0.1700267E+04  0.7818609E-02  0.8761212E-01
       -1   -1    0    0    0  501  0.00000000000E+00  0.00000000000E+00  0.63715622547E+03  0.63715622549E+03  0.50400001928E-02 0. -1.
        1   -1    0    0  501    0  0.00000000000E+00  0.00000000000E+00 -0.11343004506E+04  0.11343004506E+04  0.50400001928E-02 0.  1.
    10030    2    1    2    0    0  0.00000000000E+00  0.00000000000E+00 -0.49714422509E+03  0.17714566761E+04  0.17002665599E+04 0.  0.
        3    1    3    3  502    0  0.91616595246E+02 -0.84403270557E+03 -0.29448271140E+03  0.89861275648E+03  0.10100000352E+00 0.  1.
       -3    1    3    3    0  502 -0.91616595246E+02  0.84403270557E+03 -0.20266151369E+03  0.87284391957E+03  0.10100000352E+00 0. -1.
</event>
<event>
 5   0  0.1435301E-05  0.1699151E+04  0.7818609E-02  0.8761849E-01
       -2   -1    0    0    0  501  0.00000000000E+00  0.00000000000E+00  0.42616513364E+03  0.42616513364E+03  0.25500000920E-02 0.  1.
        2   -1    0    0  501    0  0.00000000000E+00  0.00000000000E+00 -0.16936590118E+04  0.16936590118E+04  0.25500000920E-02 0. -1.
    10030    2    1    2    0    0  0.00000000000E+00  0.00000000000E+00 -0.12674938781E+04  0.21198241454E+04  0.16991508692E+04 0.  0.
        2    1    3    3  502    0 -0.62017411720E+03  0.42201013984E+03 -0.13616806713E+03  0.76239768906E+03  0.25500000920E-02 0.  1.
       -2    1    3    3    0  502  0.62017411720E+03 -0.42201013984E+03 -0.11313258110E+04  0.13574264564E+04  0.25500000920E-02 0. -1.
</event>
<event>
 5   0  0.1435301E-05  0.1700986E+04  0.7818609E-02  0.8760802E-01
        2   -1    0    0  501    0  0.00000000000E+00  0.00000000000E+00  0.27213488244E+04  0.27213488244E+04  0.25500000920E-02 0. -1.
       -2   -1    0    0    0  501  0.00000000000E+00  0.00000000000E+00 -0.26580146887E+03  0.26580146889E+03  0.25500000920E-02 0.  1.
    10030    2    1    2    0    0  0.00000000000E+00  0.00000000000E+00  0.24555473556E+04  0.29871502933E+04  0.17009862020E+04 0.  0.
        2    1    3    3  502    0  0.77776399025E+00 -0.11336175791E+03  0.27080212512E+04  0.27103930693E+04  0.25500000920E-02 0. -1.
       -2    1    3    3    0  502 -0.77776399025E+00  0.11336175791E+03 -0.25247389564E+03  0.27675722404E+03  0.25500000920E-02 0.  1.
</event>
<event>
 5   0  0.7082527E-06  0.1699565E+04  0.7818609E-02  0.8761613E-01
        1   -1    0    0  501    0  0.00000000000E+00  0.00000000000E+00  0.21634706901E+04  0.21634706901E+04  0.50400001928E-02 0. -1.
       -1   -1    0    0    0  501  0.00000000000E+00  0.00000000000E+00 -0.33378307843E+03  0.33378307846E+03  0.50400001928E-02 0.  1.
    10030    2    1    2    0    0  0.00000000000E+00  0.00000000000E+00  0.18296876116E+04  0.24972537685E+04  0.16995645408E+04 0.  0.
        1    1    3    3  502    0  0.45225750980E+03 -0.51412125948E+03  0.16543110371E+04  0.17904196525E+04  0.50400001928E-02 0. -1.
       -1    1    3    3    0  502 -0.45225750980E+03  0.51412125948E+03  0.17537657452E+03  0.70683411600E+03  0.50400001928E-02 0.  1.
</event>
<event>
 5   0  0.1423543E-05  0.1700369E+04  0.7818609E-02  0.8761154E-01
       -2   -1    0    0    0  501  0.00000000000E+00  0.00000000000E+00  0.43817975080E+03  0.43817975081E+03  0.25500000920E-02 0. -1.
        2   -1    0    0  501    0  0.00000000000E+00  0.00000000000E+00 -0.16495818160E+04  0.16495818160E+04  0.25500000920E-02 0.  1.
    10030    2    1    2    0    0  0.00000000000E+00  0.00000000000E+00 -0.12114020652E+04  0.20877615668E+04  0.17003686060E+04 0.  0.
        3    1    3    3  502    0  0.49585603154E+03 -0.44393960848E+03 -0.12552419233E+04  0.14207701700E+04  0.10100000352E+00 0.  1.
       -3    1    3    3    0  502 -0.49585603154E+03  0.44393960848E+03  0.43839858073E+02  0.66699139675E+03  0.10100000352E+00 0. -1.
</event>
<event>
 5   0  0.1435301E-05  0.1706624E+04  0.7818609E-02  0.8757596E-01
       -2   -1    0    0    0  501  0.00000000000E+00  0.00000000000E+00  0.88981192889E+03  0.88981192890E+03  0.25500000920E-02 0. -1.
        2   -1    0    0  501    0  0.00000000000E+00  0.00000000000E+00 -0.81830885431E+03  0.81830885432E+03  0.25500000920E-02 0.  1.
    10030    2    1    2    0    0  0.00000000000E+00  0.00000000000E+00  0.71503074579E+02  0.17081207832E+04  0.17066235438E+04 0.  0.
        2    1    3    3  502    0  0.19217753011E+02  0.71055150917E+03  0.50827610483E+03  0.87384058498E+03  0.25500000920E-02 0. -1.
       -2    1    3    3    0  502 -0.19217753011E+02 -0.71055150917E+03 -0.43677303025E+03  0.83428019823E+03  0.25500000920E-02 0.  1.
</event>
<event>
 5   0  0.7461128E-06  0.1698690E+04  0.7818609E-02  0.8762112E-01
       -1   -1    0    0    0  501  0.00000000000E+00  0.00000000000E+00  0.52007840293E+03  0.52007840296E+03  0.50400001928E-02 0.  1.
        1   -1    0    0  501    0  0.00000000000E+00  0.00000000000E+00 -0.13870732687E+04  0.13870732687E+04  0.50400001928E-02 0. -1.
    10030    2    1    2    0    0  0.00000000000E+00  0.00000000000E+00 -0.86699486579E+03  0.19071516717E+04  0.16986899074E+04 0.  0.
        3    1    3    3  502    0  0.68837547641E+03  0.49220222245E+03 -0.35204792466E+03  0.91654873071E+03  0.10100000352E+00 0.  1.
       -3    1    3    3    0  502 -0.68837547641E+03 -0.49220222245E+03 -0.51494694114E+03  0.99060294099E+03  0.10100000352E+00 0. -1.
</event>
<event>
 5   0  0.7461128E-06  0.1699145E+04  0.7818609E-02  0.8761852E-01
       -1   -1    0    0    0  501  0.00000000000E+00  0.00000000000E+00  0.82645819160E+03  0.82645819162E+03  0.50400001928E-02 0. -1.
        1   -1    0    0  501    0  0.00000000000E+00  0.00000000000E+00 -0.87333325207E+03  0.87333325208E+03  0.50400001928E-02 0.  1.
    10030    2    1    2    0    0  0.00000000000E+00  0.00000000000E+00 -0.46875060466E+02  0.16997914437E+04  0.16991449852E+04 0.  0.
        3    1    3    3  502    0 -0.64219436614E+03 -0.79775585697E+02  0.52722231211E+03  0.83471020394E+03  0.10100000352E+00 0. -1.
       -3    1    3    3    0  502  0.64219436614E+03  0.79775585697E+02 -0.57409737257E+03  0.86508123975E+03  0.10100000352E+00 0.  1.
</event>
<event>
 5   0  0.7455669E-06  0.1700047E+04  0.7818609E-02  0.8761338E-01
       -1   -1    0    0    0  501  0.00000000000E+00  0.00000000000E+00  0.11450988715E+04  0.11450988715E+04  0.50400001928E-02 0.  1.
        1   -1    0    0  501    0  0.00000000000E+00  0.00000000000E+00 -0.63098478199E+03  0.63098478201E+03  0.50400001928E-02 0. -1.
    10030    2    1    2    0    0  0.00000000000E+00  0.00000000000E+00  0.51411408947E+03  0.17760836535E+04  0.17000470132E+04 0.  0.
        4    1    3    3  502    0  0.21518060094E+03  0.81191275389E+03  0.12070791603E+03  0.84857352353E+03  0.12699999809E+01 0. -1.
       -4    1    3    3    0  502 -0.21518060094E+03 -0.81191275389E+03  0.39340617344E+03  0.92751012994E+03  0.12699999809E+01 0.  1.
</event>
<event>
 5   0  0.1423543E-05  0.1700652E+04  0.7818609E-02  0.8760992E-01
       -2   -1    0    0    0  501  0.00000000000E+00  0.00000000000E+00  0.97240204524E+03  0.97240204524E+03  0.25500000920E-02 0.  1.
        2   -1    0    0  501    0  0.00000000000E+00  0.00000000000E+00 -0.74357580436E+03  0.74357580437E+03  0.25500000920E-02 0. -1.
    10030    2    1    2    0    0  0.00000000000E+00  0.00000000000E+00  0.22882624088E+03  0.17159778496E+04  0.17006523842E+04 0.  0.
        3    1    3    3  502    0  0.69047966031E+03  0.51207092572E+01 -0.38631106059E+03  0.79121718175E+03  0.10100000352E+00 0. -1.
       -3    1    3    3    0  502 -0.69047966031E+03 -0.51207092572E+01  0.61513730146E+03  0.92476066786E+03  0.10100000352E+00 0.  1.
</event>
<event>
 5   0  0.1435301E-05  0.1700213E+04  0.7818609E-02  0.8761243E-01
       -2   -1    0    0    0  501  0.00000000000E+00  0.00000000000E+00  0.49571641953E+03  0.49571641953E+03  0.25500000920E-02 0.  1.
        2   -1    0    0  501    0  0.00000000000E+00  0.00000000000E+00 -0.14578510296E+04  0.14578510296E+04  0.25500000920E-02 0. -1.
    10030    2    1    2    0    0  0.00000000000E+00  0.00000000000E+00 -0.96213461010E+03  0.19535674492E+04  0.17002125663E+04 0.  0.
        2    1    3    3  502    0 -0.37135767326E+03 -0.31753694110E+03  0.31825687507E+03  0.58311548512E+03  0.25500000920E-02 0.  1.
       -2    1    3    3    0  502  0.37135767326E+03  0.31753694110E+03 -0.12803914852E+04  0.13704519640E+04  0.25500000920E-02 0. -1.
</event>
<event>
 5   0  0.1419012E-05  0.1697987E+04  0.7818609E-02  0.8762513E-01
        2   -1    0    0  501    0  0.00000000000E+00  0.00000000000E+00  0.59971887857E+03  0.59971887858E+03  0.25500000920E-02 0.  1.
       -2   -1    0    0    0  501  0.00000000000E+00  0.00000000000E+00 -0.12018794341E+04  0.12018794341E+04  0.25500000920E-02 0. -1.
    10030    2    1    2    0    0  0.00000000000E+00  0.00000000000E+00 -0.60216055550E+03  0.18015983127E+04  0.16979867919E+04 0.  0.
        4    1    3    3  502    0 -0.41185839665E+03  0.25303420721E+03  0.43945902679E+03  0.65328362756E+03  0.12699999809E+01 0.  1.
       -4    1    3    3    0  502  0.41185839665E+03 -0.25303420721E+03 -0.10416195823E+04  0.11483146851E+04  0.12699999809E+01 0. -1.
</event>
<event>
 5   0  0.7476457E-06  0.1700080E+04  0.7818609E-02  0.8761319E-01
       -1   -1    0    0    0  501  0.00000000000E+00  0.00000000000E+00  0.11872815758E+04  0.11872815758E+04  0.50400001928E-02 0. -1.
        1   -1    0    0  501    0  0.00000000000E+00  0.00000000000E+00 -0.60859053169E+03  0.60859053171E+03  0.50400001928E-02 0.  1.
    10030    2    1    2    0    0  0.00000000000E+00  0.00000000000E+00  0.57869104414E+03  0.17958721076E+04  0.17000803811E+04 0.  0.
        2    1    3    3  502    0  0.31386018319E+03  0.95833300023E+02  0.11176685825E+04  0.11648499029E+04  0.25500000920E-02 0. -1.
       -2    1    3    3    0  502 -0.31386018319E+03 -0.95833300023E+02 -0.53897753832E+03  0.63102220469E+03  0.25500000920E-02 0.  1.
</event>
<event>
 5   0  0.5229750E-06  0.1699028E+04  0.7818609E-02  0.8761919E-01
        3   -1    0    0  501    0  0.00000000000E+00  0.00000000000E+00  0.72035619817E+03  0.72035620525E+03  0.10100000352E+00 0. -1.
       -3   -1    0    0    0  501  0.00000000000E+00  0.00000000000E+00 -0.10018297729E+04  0.10018297780E+04  0.10100000352E+00 0.  1.
    10030    2    1    2    0    0  0.00000000000E+00  0.00000000000E+00 -0.28147357472E+03  0.17221859832E+04  0.16990283069E+04 0.  0.
        3    1    3    3  502    0  0.45506574911E+03  0.30568610205E+03  0.51706567694E+03  0.75358194874E+03  0.10100000352E+00 0. -1.
       -3    1    3    3    0  502 -0.45506574911E+03 -0.30568610205E+03 -0.79853925165E+03  0.96860403449E+03  0.10100000352E+00 0.  1.
</event>
<event>
 5   0  0.1374441E-05  0.1702040E+04  0.7818609E-02  0.8760202E-01
        2   -1    0    0  501    0  0.00000000000E+00  0.00000000000E+00  0.23314405390E+04  0.23314405390E+04  0.25500000920E-02 0.  1.
       -2   -1    0    0    0  501  0.00000000000E+00  0.00000000000E+00 -0.31063837322E+03  0.31063837323E+03  0.25500000920E-02 0. -1.
    10030    2    1    2    0    0  0.00000000000E+00  0.00000000000E+00  0.20208021657E+04  0.26420789122E+04  0.17020398307E+04 0.  0.
        1    1    3    3  502    0 -0.34694516352E+03 -0.71703957254E+02 -0.19072570398E+03  0.40235394637E+03  0.50400001928E-02 0. -1.
       -1    1    3    3    0  502  0.34694516352E+03  0.71703957254E+02  0.22115278697E+04  0.22397249658E+04  0.50400001928E-02 0.  1.
</event>
<event>
 5   0  0.1435301E-05  0.1698829E+04  0.7818609E-02  0.8762033E-01
        2   -1    0    0  501    0  0.00000000000E+00  0.00000000000E+00  0.99902475981E+03  0.99902475981E+03  0.25500000920E-02 0.  1.
       -2   -1    0    0    0  501  0.00000000000E+00  0.00000000000E+00 -0.72220905048E+03  0.72220905048E+03  0.25500000920E-02 0. -1.
    10030    2    1    2    0    0  0.00000000000E+00  0.00000000000E+00  0.27681570934E+03  0.17212338103E+04  0.16988286826E+04 0.  0.
        2    1    3    3  502    0  0.72035233217E+03 -0.41255107256E+03  0.32077857054E+03  0.88994649348E+03  0.25500000920E-02 0.  1.
       -2    1    3    3    0  502 -0.72035233217E+03  0.41255107256E+03 -0.43962861202E+02  0.83128731682E+03  0.25500000920E-02 0. -1.
</event>
<event>
 5   0  0.7082527E-06  0.1699269E+04  0.7818609E-02  0.8761781E-01
        1   -1    0    0  501    0  0.00000000000E+00  0.00000000000E+00  0.78605837364E+03  0.78605837366E+03  0.50400001928E-02 0.  1.
       -1   -1    0    0    0  501  0.00000000000E+00  0.00000000000E+00 -0.91835285154E+03  0.91835285155E+03  0.50400001928E-02 0. -1.
    10030    2    1    2    0    0  0.00000000000E+00  0.00000000000E+00 -0.13229447789E+03  0.17044112252E+04  0.16992691946E+04 0.  0.
        1    1    3    3  502    0 -0.63817709183E+03  0.33385273289E+03 -0.51823422511E+03  0.88729609483E+03  0.50400001928E-02 0. -1.
       -1    1    3    3    0  502  0.63817709183E+03 -0.33385273289E+03  0.38593974721E+03  0.81711513038E+03  0.50400001928E-02 0.  1.
</event>
<event>
 5   0  0.7461128E-06  0.1701241E+04  0.7818609E-02  0.8760657E-01
        1   -1    0    0  501    0  0.00000000000E+00  0.00000000000E+00  0.12536765248E+04  0.12536765248E+04  0.50400001928E-02 0. -1.
       -1   -1    0    0    0  501  0.00000000000E+00  0.00000000000E+00 -0.57714657109E+03  0.57714657111E+03  0.50400001928E-02 0.  1.
    10030    2    1    2    0    0  0.00000000000E+00  0.00000000000E+00  0.67652995368E+03  0.18308230959E+04  0.17012408501E+04 0.  0.
        3    1    3    3  502    0  0.33374962261E+03  0.74794214217E+03  0.91099943052E+02  0.82407855720E+03  0.10100000352E+00 0.  1.
       -3    1    3    3    0  502 -0.33374962261E+03 -0.74794214217E+03  0.58543001063E+03  0.10067445387E+04  0.10100000352E+00 0. -1.
</event>
<event>
 5   0  0.7455669E-06  0.1698434E+04  0.7818609E-02  0.8762258E-01
       -1   -1    0    0    0  501  0.00000000000E+00  0.00000000000E+00  0.55530335803E+03  0.55530335805E+03  0.50400001928E-02 0. -1.
        1   -1    0    0  501    0  0.00000000000E+00  0.00000000000E+00 -0.12986941410E+04  0.12986941410E+04  0.50400001928E-02 0.  1.
    10030    2    1    2    0    0  0.00000000000E+00  0.00000000000E+00 -0.74339078296E+03  0.18539974990E+04  0.16984336520E+04 0.  0.
        4    1    3    3  502    0 -0.80570481061E+03  0.91609416316E+01 -0.78946146815E+02  0.80961612613E+03  0.12699999809E+01 0. -1.
       -4    1    3    3    0  502  0.80570481061E+03 -0.91609416316E+01 -0.66444463614E+03  0.10443813729E+04  0.12699999809E+01 0.  1.
</event>
<event>
 5   0  0.7082527E-06  0.1698012E+04  0.7818609E-02  0.8762499E-01
       -1   -1    0    0    0  501  0.00000000000E+00  0.00000000000E+00  0.40203104900E+03  0.40203104903E+03  0.50400001928E-02 0. -1.
        1   -1    0    0  501    0  0.00000000000E+00  0.00000000000E+00 -0.17929243888E+04  0.17929243888E+04  0.50400001928E-02 0.  1.
    10030    2    1    2    0    0  0.00000000000E+00  0.00000000000E+00 -0.13908933398E+04  0.21949554378E+04  0.16980120999E+04 0.  0.
        1    1    3    3  502    0  0.53989036441E+03  0.12921671848E+03 -0.15258073030E+04  0.16236583667E+04  0.50400001928E-02 0.  1.
       -1    1    3    3    0  502 -0.53989036441E+03 -0.12921671848E+03  0.13491396324E+03  0.57129707108E+03  0.50400001928E-02 0. -1.
</event>
<event>
 5   0  0.1423543E-05  0.1700264E+04  0.7818609E-02  0.8761214E-01
        2   -1    0    0  501    0  0.00000000000E+00  0.00000000000E+00  0.20883922733E+04  0.20883922733E+04  0.25500000920E-02 0.  1.
       -2   -1    0    0    0  501  0.00000000000E+00  0.00000000000E+00 -0.34606723433E+03  0.34606723434E+03  0.25500000920E-02 0. -1.
    10030    2    1    2    0    0  0.00000000000E+00  0.00000000000E+00  0.17423250389E+04  0.24344595076E+04  0.17002636716E+04 0.  0.
        3    1    3    3  502    0 -0.11331533845E+03  0.82210027084E+02  0.20717743931E+04  0.20764989768E+04  0.10100000352E+00 0.  1.
       -3    1    3    3    0  502  0.11331533845E+03 -0.82210027084E+02 -0.32944935416E+03  0.35796053084E+03  0.10100000352E+00 0. -1.
</event>
<event>
 5   0  0.7476457E-06  0.1698943E+04  0.7818609E-02  0.8761968E-01
       -1   -1    0    0    0  501  0.00000000000E+00  0.00000000000E+00  0.49293629441E+03  0.49293629444E+03  0.50400001928E-02 0.  1.
        1   -1    0    0  501    0  0.00000000000E+00  0.00000000000E+00 -0.14638841017E+04  0.14638841017E+04  0.50400001928E-02 0. -1.
    10030    2    1    2    0    0  0.00000000000E+00  0.00000000000E+00 -0.97094780725E+03  0.19568203961E+04  0.16989427354E+04 0.  0.
        2    1    3    3  502    0 -0.60246247244E+03  0.25611402671E+03 -0.11089793584E+04  0.12877851695E+04  0.25500000920E-02 0. -1.
       -2    1    3    3    0  502  0.60246247244E+03 -0.25611402671E+03  0.13803155113E+03  0.66903522664E+03  0.25500000920E-02 0.  1.
</event>
<event>
 5   0  0.1374441E-05  0.1699715E+04  0.7818609E-02  0.8761527E-01
        2   -1    0    0  501    0  0.00000000000E+00  0.00000000000E+00  0.14663022341E+04  0.14663022341E+04  0.25500000920E-02 0. -1.
       -2   -1    0    0    0  501  0.00000000000E+00  0.00000000000E+00 -0.49257102092E+03  0.49257102093E+03  0.25500000920E-02 0.  1.
    10030    2    1    2    0    0  0.00000000000E+00  0.00000000000E+00  0.97373121320E+03  0.19588732550E+04  0.16997152567E+04 0.  0.
        1    1    3    3  502    0 -0.80667034202E+02  0.38024454007E+03 -0.38411988817E+03  0.54648071253E+03  0.50400001928E-02 0.  1.
       -1    1    3    3    0  502  0.80667034202E+02 -0.38024454007E+03  0.13578511014E+04  0.14123925425E+04  0.50400001928E-02 0. -1.
</event>
<event>
 5   0  0.7476457E-06  0.1700001E+04  0.7818609E-02  0.8761364E-01
        1   -1    0    0  501    0  0.00000000000E+00  0.00000000000E+00  0.12759208182E+04  0.12759208182E+04  0.50400001928E-02 0.  1.
       -1   -1    0    0    0  501  0.00000000000E+00  0.00000000000E+00 -0.56625837738E+03  0.56625837740E+03  0.50400001928E-02 0. -1.
    10030    2    1    2    0    0  0.00000000000E+00  0.00000000000E+00  0.70966244083E+03  0.18421791956E+04  0.17000010026E+04 0.  0.
        2    1    3    3  502    0 -0.10713346789E+03 -0.30796421485E+03  0.12054539004E+04  0.12487748571E+04  0.25500000920E-02 0.  1.
       -2    1    3    3    0  502  0.10713346789E+03  0.30796421485E+03 -0.49579145961E+03  0.59340433854E+03  0.25500000920E-02 0. -1.
</event>
<event>
 5   0  0.7461128E-06  0.1699808E+04  0.7818609E-02  0.8761474E-01
        1   -1    0    0  501    0  0.00000000000E+00  0.00000000000E+00  0.62624990985E+03  0.62624990987E+03  0.50400001928E-02 0. -1.
       -1   -1    0    0    0  501  0.00000000000E+00  0.00000000000E+00 -0.11534321498E+04  0.11534321498E+04  0.50400001928E-02 0.  1.
    10030    2    1    2    0    0  0.00000000000E+00  0.00000000000E+00 -0.52718223998E+03  0.17796820597E+04  0.16998079655E+04 0.  0.
        3    1    3    3  502    0  0.30916828776E+03  0.73520174304E+03  0.43857182394E+02  0.79876786100E+03  0.10100000352E+00 0. -1.
       -3    1    3    3    0  502 -0.30916828776E+03 -0.73520174304E+03 -0.57103942237E+03  0.98091419871E+03  0.10100000352E+00 0.  1.
</event>
<event>
 5   0  0.1419012E-05  0.1699635E+04  0.7818609E-02  0.8761573E-01
       -2   -1    0    0    0  501  0.00000000000E+00  0.00000000000E+00  0.29217161927E+03  0.29217161928E+03  0.25500000920E-02 0. -1.
        2   -1    0    0  501    0  0.00000000000E+00  0.00000000000E+00 -0.24718001872E+04  0.24718001872E+04  0.25500000920E-02 0.  1.
    10030    2    1    2    0    0  0.00000000000E+00  0.00000000000E+00 -0.21796285680E+04  0.27639718065E+04  0.16996350941E+04 0.  0.
        4    1    3    3  502    0  0.64329738689E+02  0.57135684393E+02  0.28506880534E+03  0.29777279659E+03  0.12699999809E+01 0. -1.
       -4    1    3    3    0  502 -0.64329738689E+02 -0.57135684393E+02 -0.24646973733E+04  0.24661990099E+04  0.12699999809E+01 0.  1.
</event>
<event>
 5   0  0.7455669E-06  0.1699390E+04  0.7818609E-02  0.8761712E-01
       -1   -1    0    0    0  501  0.00000000000E+00  0.00000000000E+00  0.36370232311E+03  0.36370232314E+03  0.50400001928E-02 0. -1.
        1   -1    0    0  501    0  0.00000000000E+00  0.00000000000E+00 -0.19850890795E+04  0.19850890796E+04  0.50400001928E-02 0.  1.
    10030    2    1    2    0    0  0.00000000000E+00  0.00000000000E+00 -0.16213867564E+04  0.23487914027E+04  0.16993899021E+04 0.  0.
        4    1    3    3  502    0 -0.25173905546E+03 -0.59615270398E+03 -0.49626760621E+02  0.64902621424E+03  0.12699999809E+01 0. -1.
       -4    1    3    3    0  502  0.25173905546E+03  0.59615270398E+03 -0.15717599958E+04  0.16997651884E+04  0.12699999809E+01 0.  1.
</event>
<event>
 5   0  0.1435301E-05  0.1699783E+04  0.7818609E-02  0.8761488E-01
       -2   -1    0    0    0  501  0.00000000000E+00  0.00000000000E+00  0.56855141936E+03  0.56855141937E+03  0.25500000920E-02 0.  1.
        2   -1    0    0  501    0  0.00000000000E+00  0.00000000000E+00 -0.12704493390E+04  0.12704493390E+04  0.25500000920E-02 0. -1.
    10030    2    1    2    0    0  0.00000000000E+00  0.00000000000E+00 -0.70189791966E+03  0.18390007584E+04  0.16997832508E+04 0.  0.
        2    1    3    3  502    0  0.90828632724E+01  0.33960983198E+03  0.49189343591E+03  0.59780974288E+03  0.25500000920E-02 0.  1.
       -2    1    3    3    0  502 -0.90828632724E+01 -0.33960983198E+03 -0.11937913556E+04  0.12411910155E+04  0.25500000920E-02 0. -1.
</event>
<event>
 5   0  0.7583716E-06  0.1699635E+04  0.7818609E-02  0.8761572E-01
        1   -1    0    0  501    0  0.00000000000E+00  0.00000000000E+00  0.10033078361E+04  0.10033078361E+04  0.50400001928E-02 0. -1.
       -1   -1    0    0    0  501  0.00000000000E+00  0.00000000000E+00 -0.71980888686E+03  0.71980888688E+03  0.50400001928E-02 0.  1.
    10030    2    1    2    0    0  0.00000000000E+00  0.00000000000E+00  0.28349894923E+03  0.17231167230E+04  0.16996351334E+04 0.  0.
        5    1    3    3  502    0  0.35951171915E+03  0.24259812598E+03 -0.59914468255E+03  0.73966138710E+03  0.46999998093E+01 0.  1.
       -5    1    3    3    0  502 -0.35951171915E+03 -0.24259812598E+03  0.88264363178E+03  0.98345533588E+03  0.46999998093E+01 0. -1.
</event>
<event>
 5   0  0.1423543E-05  0.1700600E+04  0.7818609E-02  0.8761022E-01
        2   -1    0    0  501    0  0.00000000000E+00  0.00000000000E+00  0.68427791915E+03  0.68427791916E+03  0.25500000920E-02 0. -1.
       -2   -1    0    0    0  501  0.00000000000E+00  0.00000000000E+00 -0.10566030932E+04  0.10566030933E+04  0.25500000920E-02 0.  1.
    10030    2    1    2    0    0  0.00000000000E+00  0.00000000000E+00 -0.37232517409E+03  0.17408810124E+04  0.17006000894E+04 0.  0.
        3    1    3    3  502    0  0.57374629923E+03 -0.74754810103E+02 -0.82400792378E+03  0.10068575700E+04  0.10100000352E+00 0.  1.
       -3    1    3    3    0  502 -0.57374629923E+03  0.74754810103E+02  0.45168274968E+03  0.73402344246E+03  0.10100000352E+00 0. -1.
</event>
<event>
 5   0  0.7476457E-06  0.1698621E+04  0.7818609E-02  0.8762151E-01
       -1   -1    0    0    0  501  0.00000000000E+00  0.00000000000E+00  0.51646656725E+03  0.51646656728E+03  0.50400001928E-02 0. -1.
        1   -1    0    0  501    0  0.00000000000E+00  0.00000000000E+00 -0.13966601666E+04  0.13966601666E+04  0.50400001928E-02 0.  1.
    10030    2    1    2    0    0  0.00000000000E+00  0.00000000000E+00 -0.88019359931E+03  0.19131267338E+04  0.16986209487E+04 0.  0.
        2    1    3    3  502    0  0.54049448297E+03  0.51942181585E+03  0.95635303792E+01  0.74968311307E+03  0.25500000920E-02 0. -1.
       -2    1    3    3    0  502 -0.54049448297E+03 -0.51942181585E+03 -0.88975712969E+03  0.11634436208E+04  0.25500000920E-02 0.  1.
</event>
<event>
 5   0  0.1435301E-05  0.1697535E+04  0.7818609E-02  0.8762772E-01
        2   -1    0    0  501    0  0.00000000000E+00  0.00000000000E+00  0.20990381708E+04  0.20990381708E+04  0.25500000920E-02 0. -1.
       -2   -1    0    0    0  501  0.00000000000E+00  0.00000000000E+00 -0.34320777407E+03  0.34320777408E+03  0.25500000920E-02 0.  1.
    10030    2    1    2    0    0  0.00000000000E+00  0.00000000000E+00  0.17558303967E+04  0.24422459448E+04  0.16975349402E+04 0.  0.
        2    1    3    3  502    0  0.74488204412E+03  0.28388878182E+03  0.45855379945E+03  0.91962692821E+03  0.25500000920E-02 0.  1.
       -2    1    3    3    0  502 -0.74488204412E+03 -0.28388878182E+03  0.12972765972E+04  0.15226190166E+04  0.25500000920E-02 0. -1.
</event>
<event>
 5   0  0.1374441E-05  0.1699924E+04  0.7818609E-02  0.8761408E-01
        2   -1    0    0  501    0  0.00000000000E+00  0.00000000000E+00  0.18713869073E+04  0.18713869073E+04  0.25500000920E-02 0. -1.
       -2   -1    0    0    0  501  0.00000000000E+00  0.00000000000E+00 -0.38604274295E+03  0.38604274296E+03  0.25500000920E-02 0.  1.
    10030    2    1    2    0    0  0.00000000000E+00  0.00000000000E+00  0.14853441643E+04  0.22574296503E+04  0.16999239216E+04 0.  0.
        1    1    3    3  502    0  0.17936925598E+03  0.13390140982E+03 -0.34619975552E+03  0.41225864247E+03  0.50400001928E-02 0.  1.
       -1    1    3    3    0  502 -0.17936925598E+03 -0.13390140982E+03  0.18315439199E+04  0.18451710078E+04  0.50400001928E-02 0. -1.
</event>
<event>
 5   0  0.7461128E-06  0.1699890E+04  0.7818609E-02  0.8761427E-01
       -1   -1    0    0    0  501  0.00000000000E+00  0.00000000000E+00  0.86970107141E+03  0.86970107142E+03  0.50400001928E-02 0.  1.
        1   -1    0    0  501    0  0.00000000000E+00  0.00000000000E+00 -0.83063814613E+03  0.83063814615E+03  0.50400001928E-02 0. -1.
    10030    2    1    2    0    0  0.00000000000E+00  0.00000000000E+00  0.39062925280E+02  0.17003392176E+04  0.16998904502E+04 0.  0.
        3    1    3    3  502    0  0.43000298341E+03 -0.22166585774E+03  0.71854966537E+03  0.86622857840E+03  0.10100000352E+00 0.  1.
       -3    1    3    3    0  502 -0.43000298341E+03  0.22166585774E+03 -0.67948674009E+03  0.83411063917E+03  0.10100000352E+00 0. -1.
</event>
<event>
 5   0  0.7455669E-06  0.1699807E+04  0.7818609E-02  0.8761475E-01
       -1   -1    0    0    0  501  0.00000000000E+00  0.00000000000E+00  0.35382320730E+03  0.35382320733E+03  0.50400001928E-02 0.  1.
        1   -1    0    0  501    0  0.00000000000E+00  0.00000000000E+00 -0.20415155055E+04  0.20415155055E+04  0.50400001928E-02 0. -1.
    10030    2    1    2    0    0  0.00000000000E+00  0.00000000000E+00 -0.16876922982E+04  0.23953387128E+04  0.16998065348E+04 0.  0.
        4    1    3    3  502    0 -0.30384094989E+03 -0.77504539419E+03 -0.60255356216E+03  0.10276609821E+04  0.12699999809E+01 0.  1.
       -4    1    3    3    0  502  0.30384094989E+03  0.77504539419E+03 -0.10851387360E+04  0.13676777307E+04  0.12699999809E+01 0. -1.
</event>
<event>
 5   0  0.1435301E-05  0.1700739E+04  0.7818609E-02  0.8760943E-01
       -2   -1    0    0    0  501  0.00000000000E+00  0.00000000000E+00  0.50742014984E+03  0.50742014985E+03  0.25500000920E-02 0.  1.
        2   -1    0    0  501    0  0.00000000000E+00  0.00000000000E+00 -0.14251080357E+04  0.14251080357E+04  0.25500000920E-02 0. -1.
    10030    2    1    2    0    0  0.00000000000E+00  0.00000000000E+00 -0.91768788588E+03  0.19325281856E+04  0.17007392899E+04 0.  0.
        2    1    3    3  502    0  0.26559749936E+03  0.80402783401E+03 -0.36991001049E+03  0.92403257810E+03  0.25500000920E-02 0. -1.
       -2    1    3    3    0  502 -0.26559749936E+03 -0.80402783401E+03 -0.54777787539E+03  0.10084956075E+04  0.25500000920E-02 0.  1.
</event>
<event>
 5   0  0.1419012E-05  0.1700336E+04  0.7818609E-02  0.8761173E-01
        2   -1    0    0  501    0  0.00000000000E+00  0.00000000000E+00  0.79917267464E+03  0.79917267464E+03  0.25500000920E-02 0. -1.
       -2   -1    0    0    0  501  0.00000000000E+00  0.00000000000E+00 -0.90441757523E+03  0.90441757524E+03  0.25500000920E-02 0.  1.
    10030    2    1    2    0    0  0.00000000000E+00  0.00000000000E+00 -0.10524490059E+03  0.17035902499E+04  0.17003362169E+04 0.  0.
        4    1    3    3  502    0 -0.36193898834E+03 -0.19014731998E+03  0.69420890763E+03  0.80565715718E+03  0.12699999809E+01 0. -1.
       -4    1    3    3    0  502  0.36193898834E+03  0.19014731998E+03 -0.79945380822E+03  0.89793309270E+03  0.12699999809E+01 0.  1.
</event>
<event>
 5   0  0.1423543E-05  0.1697842E+04  0.7818609E-02  0.8762596E-01
        2   -1    0    0  501    0  0.00000000000E+00  0.00000000000E+00  0.17048212605E+04  0.17048212605E+04  0.25500000920E-02 0.  1.
       -2   -1    0    0    0  501  0.00000000000E+00  0.00000000000E+00 -0.42272260591E+03  0.42272260592E+03  0.25500000920E-02 0. -1.
    10030    2    1    2    0    0  0.00000000000E+00  0.00000000000E+00  0.12820986546E+04  0.21275438664E+04  0.16978415543E+04 0.  0.
        3    1    3    3  502    0 -0.75301595574E+02  0.39285431726E+03 -0.29722921098E+03  0.49834732762E+03  0.10100000352E+00 0. -1.
       -3    1    3    3    0  502  0.75301595574E+02 -0.39285431726E+03  0.15793278656E+04  0.16291965388E+04  0.10100000352E+00 0.  1.
</event>
<event>
 5   0  0.1441756E-05  0.1699435E+04  0.7818609E-02  0.8761686E-01
       -2   -1    0    0    0  501  0.00000000000E+00  0.00000000000E+00  0.52381153147E+03  0.52381153148E+03  0.25500000920E-02 0.  1.
        2   -1    0    0  501    0  0.00000000000E+00  0.00000000000E+00 -0.13783969342E+04  0.13783969342E+04  0.25500000920E-02 0. -1.
    10030    2    1    2    0    0  0.00000000000E+00  0.00000000000E+00 -0.85458540268E+03  0.19022084656E+04  0.16994354463E+04 0.  0.
        5    1    3    3  502    0 -0.50845447610E+03 -0.25723616441E+02 -0.11887665990E+04  0.12932036868E+04  0.46999998093E+01 0. -1.
       -5    1    3    3    0  502  0.50845447610E+03  0.25723616441E+02  0.33418119629E+03  0.60900477885E+03  0.46999998093E+01 0.  1.
</event>
<event>
 5   0  0.7455669E-06  0.1699754E+04  0.7818609E-02  0.8761505E-01
        1   -1    0    0  501    0  0.00000000000E+00  0.00000000000E+00  0.97001866857E+03  0.97001866858E+03  0.50400001928E-02 0. -1.
       -1   -1    0    0    0  501  0.00000000000E+00  0.00000000000E+00 -0.74461546300E+03  0.74461546302E+03  0.50400001928E-02 0.  1.
    10030    2    1    2    0    0  0.00000000000E+00  0.00000000000E+00  0.22540320557E+03  0.17146341316E+04  0.16997539822E+04 0.  0.
        4    1    3    3  502    0 -0.72179658679E+03 -0.40903521416E+03 -0.73273866931E+02  0.83286901227E+03  0.12699999809E+01 0. -1.
       -4    1    3    3    0  502  0.72179658679E+03  0.40903521416E+03  0.29867707250E+03  0.88176511933E+03  0.12699999809E+01 0.  1.
</event>
<event>
 5   0  0.7583716E-06  0.1700074E+04  0.7818609E-02  0.8761322E-01
        1   -1    0    0  501    0  0.00000000000E+00  0.00000000000E+00  0.14397189134E+04  0.14397189134E+04  0.50400001928E-02 0.  1.
       -1   -1    0    0    0  501  0.00000000000E+00  0.00000000000E+00 -0.50187799935E+03  0.50187799937E+03  0.50400001928E-02 0. -1.
    10030    2    1    2    0    0  0.00000000000E+00  0.00000000000E+00  0.93784091403E+03  0.19415969128E+04  0.17000744077E+04 0.  0.
        5    1    3    3  502    0  0.37660780971E+02  0.27444703071E+03  0.13867049563E+04  0.14141118177E+04  0.46999998093E+01 0.  1.
       -5    1    3    3    0  502 -0.37660780971E+02 -0.27444703071E+03 -0.44886404227E+03  0.52748509507E+03  0.46999998093E+01 0. -1.
</event>
<event>
 5   0  0.7082527E-06  0.1700103E+04  0.7818609E-02  0.8761306E-01
        1   -1    0    0  501    0  0.00000000000E+00  0.00000000000E+00  0.51866662918E+03  0.51866662920E+03  0.50400001928E-02 0. -1.
       -1   -1    0    0    0  501  0.00000000000E+00  0.00000000000E+00 -0.13931635643E+04  0.13931635643E+04  0.50400001928E-02 0.  1.
    10030    2    1    2    0    0  0.00000000000E+00  0.00000000000E+00 -0.87449693515E+03  0.19118301935E+04  0.17001028790E+04 0.  0.
        1    1    3    3  502    0  0.67234893141E+02 -0.41595944021E+03  0.39296573582E+03  0.57616391445E+03  0.50400001928E-02 0. -1.
       -1    1    3    3    0  502 -0.67234893141E+02  0.41595944021E+03 -0.12674626710E+04  0.13356662791E+04  0.50400001928E-02 0.  1.
</event>
<event>
 5   0  0.1419012E-05  0.1701296E+04  0.7818609E-02  0.8760626E-01
       -2   -1    0    0    0  501  0.00000000000E+00  0.00000000000E+00  0.29399179782E+03  0.29399179783E+03  0.25500000920E-02 0. -1.
        2   -1    0    0  501    0  0.00000000000E+00  0.00000000000E+00 -0.24612997847E+04  0.24612997847E+04  0.25500000920E-02 0.  1.
    10030    2    1    2    0    0  0.00000000000E+00  0.00000000000E+00 -0.21673079868E+04  0.27552915825E+04  0.17012959163E+04 0.  0.
        4    1    3    3  502    0  0.51468167474E+02 -0.59167407726E+03 -0.20699343926E+04  0.21534523882E+04  0.12699999809E+01 0.  1.
       -4    1    3    3    0  502 -0.51468167474E+02  0.59167407726E+03 -0.97373594269E+02  0.60183919424E+03  0.12699999809E+01 0. -1.
</event>
<event>
 5   0  0.1419012E-05  0.1700273E+04  0.7818609E-02  0.8761208E-01
       -2   -1    0    0    0  501  0.00000000000E+00  0.00000000000E+00  0.97898336817E+03  0.97898336817E+03  0.25500000920E-02 0.  1.
        2   -1    0    0  501    0  0.00000000000E+00  0.00000000000E+00 -0.73824792580E+03  0.73824792580E+03  0.25500000920E-02 0. -1.
    10030    2    1    2    0    0  0.00000000000E+00  0.00000000000E+00  0.24073544237E+03  0.17172312940E+04  0.17002734379E+04 0.  0.
        4    1    3    3  502    0 -0.51777648510E+03 -0.55305505918E+03  0.50991971367E+03  0.91322621201E+03  0.12699999809E+01 0.  1.
       -4    1    3    3    0  502  0.51777648510E+03  0.55305505918E+03 -0.26918427130E+03  0.80400508196E+03  0.12699999809E+01 0. -1.
</event>
<event>
 5   0  0.5229750E-06  0.1700845E+04  0.7818609E-02  0.8760883E-01
       -3   -1    0    0    0  501  0.00000000000E+00  0.00000000000E+00  0.39919310097E+03  0.39919311375E+03  0.10100000352E+00 0. -1.
        3   -1    0    0  501    0  0.00000000000E+00  0.00000000000E+00 -0.18117006399E+04  0.18117006427E+04  0.10100000352E+00 0.  1.
    10030    2    1    2    0    0  0.00000000000E+00  0.00000000000E+00 -0.14125075390E+04  0.22108937565E+04  0.17008449826E+04 0.  0.
        2    1    3    3  502    0 -0.41289025366E+03  0.11985715553E+03 -0.16600273886E+04  0.17147988308E+04  0.25500000920E-02 0.  1.
       -2    1    3    3    0  502  0.41289025366E+03 -0.11985715553E+03  0.24751984964E+03  0.49609492567E+03  0.25500000920E-02 0. -1.
</event>
<event>
 5   0  0.1435301E-05  0.1698198E+04  0.7818609E-02  0.8762393E-01
       -2   -1    0    0    0  501  0.00000000000E+00  0.00000000000E+00  0.64300937268E+03  0.64300937268E+03  0.25500000920E-02 0. -1.
        2   -1    0    0  501    0  0.00000000000E+00  0.00000000000E+00 -0.11212419220E+04  0.11212419220E+04  0.25500000920E-02 0.  1.
    10030    2    1    2    0    0  0.00000000000E+00  0.00000000000E+00 -0.47823254936E+03  0.17642512947E+04  0.16981979448E+04 0.  0.
        2    1    3    3  502    0  0.12337257562E+03 -0.55084393860E+03  0.41984141206E+03  0.70350312607E+03  0.25500000920E-02 0. -1.
       -2    1    3    3    0  502 -0.12337257562E+03  0.55084393860E+03 -0.89807396142E+03  0.10607481687E+04  0.25500000920E-02 0.  1.
</event>
<event>
 5   0  0.7476457E-06  0.1700009E+04  0.7818609E-02  0.8761359E-01
        1   -1    0    0  501    0  0.00000000000E+00  0.00000000000E+00  0.13341307023E+04  0.13341307023E+04  0.50400001928E-02 0. -1.
       -1   -1    0    0    0  501  0.00000000000E+00  0.00000000000E+00 -0.54155668300E+03  0.54155668303E+03  0.50400001928E-02 0.  1.
    10030    2    1    2    0    0  0.00000000000E+00  0.00000000000E+00  0.79257401925E+03  0.18756873853E+04  0.17000087033E+04 0.  0.
        2    1    3    3  502    0 -0.52966189065E+03 -0.14571777566E+03 -0.31938179981E+03  0.63543695408E+03  0.25500000920E-02 0.  1.
       -2    1    3    3    0  502  0.52966189065E+03  0.14571777566E+03  0.11119558191E+04  0.12402504312E+04  0.25500000920E-02 0. -1.
</event>
<event>
 5   0  0.7461128E-06  0.1700137E+04  0.7818609E-02  0.8761286E-01
        1   -1    0    0  501    0  0.00000000000E+00  0.00000000000E+00  0.76332835899E+03  0.76332835901E+03  0.50400001928E-02 0. -1.
       -1   -1    0    0    0  501  0.00000000000E+00  0.00000000000E+00 -0.94666522908E+03  0.94666522909E+03  0.50400001928E-02 0.  1.
    10030    2    1    2    0    0  0.00000000000E+00  0.00000000000E+00 -0.18333687009E+03  0.17099935881E+04  0.17001369543E+04 0.  0.
        3    1    3    3  502    0  0.52700769450E+03  0.19278995673E+03 -0.73389307481E+03  0.92385287407E+03  0.10100000352E+00 0.  1.
       -3    1    3    3    0  502 -0.52700769450E+03 -0.19278995673E+03  0.55055620472E+03  0.78614071402E+03  0.10100000352E+00 0. -1.
</event>
<event>
 5   0  0.1441756E-05  0.1700247E+04  0.7818609E-02  0.8761224E-01
        2   -1    0    0  501    0  0.00000000000E+00  0.00000000000E+00  0.12128161601E+04  0.12128161601E+04  0.25500000920E-02 0. -1.
       -2   -1    0    0    0  501  0.00000000000E+00  0.00000000000E+00 -0.59589380205E+03  0.59589380206E+03  0.25500000920E-02 0.  1.
    10030    2    1    2    0    0  0.00000000000E+00  0.00000000000E+00  0.61692235805E+03  0.18087099622E+04  0.17002466090E+04 0.  0.
        5    1    3    3  502    0  0.62951737087E+02  0.53428909174E+03  0.10086758481E+04  0.11431871288E+04  0.46999998093E+01 0. -1.
       -5    1    3    3    0  502 -0.62951737087E+02 -0.53428909174E+03 -0.39175349010E+03  0.66552283339E+03  0.46999998093E+01 0.  1.
</event>
<event>
 5   0  0.1374441E-05  0.1700699E+04  0.7818609E-02  0.8760966E-01
       -2   -1    0    0    0  501  0.00000000000E+00  0.00000000000E+00  0.59961539588E+03  0.59961539589E+03  0.25500000920E-02 0.  1.
        2   -1    0    0  501    0  0.00000000000E+00  0.00000000000E+00 -0.12059296765E+04  0.12059296765E+04  0.25500000920E-02 0. -1.
    10030    2    1    2    0    0  0.00000000000E+00  0.00000000000E+00 -0.60631428060E+03  0.18055450724E+04  0.17006986804E+04 0.  0.
        1    1    3    3  502    0 -0.54886794198E+03  0.57643109567E+03  0.14567244852E+02  0.79607853283E+03  0.50400001928E-02 0. -1.
       -1    1    3    3    0  502  0.54886794198E+03 -0.57643109567E+03 -0.62088152545E+03  0.10094665395E+04  0.50400001928E-02 0.  1.
</event>
<event>
 5   0  0.7455669E-06  0.1693502E+04  0.7818609E-02  0.8765079E-01
        1   -1    0    0  501    0  0.00000000000E+00  0.00000000000E+00  0.11525015861E+04  0.11525015861E+04  0.50400001928E-02 0. -1.
       -1   -1    0    0    0  501  0.00000000000E+00  0.00000000000E+00 -0.62211402931E+03  0.62211402933E+03  0.50400001928E-02 0.  1.
    10030    2    1    2    0    0  0.00000000000E+00  0.00000000000E+00  0.53038755680E+03  0.17746156155E+04  0.16935021766E+04 0.  0.
        4    1    3    3  502    0  0.11573946456E+03  0.40569777382E+03 -0.50413630435E+03  0.65737457633E+03  0.12699999809E+01 0.  1.
       -4    1    3    3    0  502 -0.11573946456E+03 -0.40569777382E+03  0.10345238612E+04  0.11172410391E+04  0.12699999809E+01 0. -1.
</event>
<event>
 5   0  0.7455669E-06  0.1699922E+04  0.7818609E-02  0.8761409E-01
       -1   -1    0    0    0  501  0.00000000000E+00  0.00000000000E+00  0.66776703572E+03  0.66776703574E+03  0.50400001928E-02 0.  1.
        1   -1    0    0  501    0  0.00000000000E+00  0.00000000000E+00 -0.10818642996E+04  0.10818642996E+04  0.50400001928E-02 0. -1.
    10030    2    1    2    0    0  0.00000000000E+00  0.00000000000E+00 -0.41409726384E+03  0.17496313353E+04  0.16999215469E+04 0.  0.
        4    1    3    3  502    0  0.57273106820E+03 -0.48810865407E+02  0.43738232356E+03  0.72229376775E+03  0.12699999809E+01 0.  1.
       -4    1    3    3    0  502 -0.57273106820E+03  0.48810865407E+02 -0.85147958740E+03  0.10273375676E+04  0.12699999809E+01 0. -1.
</event>
<event>
 5   0  0.7583716E-06  0.1699032E+04  0.7818609E-02  0.8761916E-01
        1   -1    0    0  501    0  0.00000000000E+00  0.00000000000E+00  0.15844238329E+04  0.15844238329E+04  0.50400001928E-02 0. -1.
       -1   -1    0    0    0  501  0.00000000000E+00  0.00000000000E+00 -0.45548275795E+03  0.45548275798E+03  0.50400001928E-02 0.  1.
    10030    2    1    2    0    0  0.00000000000E+00  0.00000000000E+00  0.11289410749E+04  0.20399065909E+04  0.16990323566E+04 0.  0.
        5    1    3    3  502    0  0.63798793738E+03 -0.47671028134E+03  0.91936612686E+03  0.12163623908E+04  0.46999998093E+01 0.  1.
       -5    1    3    3    0  502 -0.63798793738E+03  0.47671028134E+03  0.20957494807E+03  0.82354420005E+03  0.46999998093E+01 0. -1.
</event>
<event>
 5   0  0.1419012E-05  0.1701911E+04  0.7818609E-02  0.8760275E-01
        2   -1    0    0  501    0  0.00000000000E+00  0.00000000000E+00  0.21620994273E+04  0.21620994273E+04  0.25500000920E-02 0.  1.
       -2   -1    0    0    0  501  0.00000000000E+00  0.00000000000E+00 -0.33491772233E+03  0.33491772234E+03  0.25500000920E-02 0. -1.
    10030    2    1    2    0    0  0.00000000000E+00  0.00000000000E+00  0.18271817050E+04  0.24970171497E+04  0.17019111794E+04 0.  0.
        4    1    3    3  502    0  0.17627434959E+03 -0.48172184438E+03 -0.82577741510E+02  0.51956643268E+03  0.12699999809E+01 0. -1.
       -4    1    3    3    0  502 -0.17627434959E+03  0.48172184438E+03  0.19097594465E+04  0.19774507170E+04  0.12699999809E+01 0.  1.
</event>
<event>
 5   0  0.7583716E-06  0.1700380E+04  0.7818609E-02  0.8761148E-01
        1   -1    0    0  501    0  0.00000000000E+00  0.00000000000E+00  0.84355392456E+03  0.84355392457E+03  0.50400001928E-02 0. -1.
       -1   -1    0    0    0  501  0.00000000000E+00  0.00000000000E+00 -0.85687788039E+03  0.85687788041E+03  0.50400001928E-02 0.  1.
    10030    2    1    2    0    0  0.00000000000E+00  0.00000000000E+00 -0.13323955831E+02  0.17004318050E+04  0.17003796034E+04 0.  0.
        5    1    3    3  502    0  0.41097370633E+03 -0.60836919840E+03 -0.43538032927E+03  0.85357518121E+03  0.46999998093E+01 0.  1.
       -5    1    3    3    0  502 -0.41097370633E+03  0.60836919840E+03  0.42205637344E+03  0.84685662377E+03  0.46999998093E+01 0. -1.
</event>
<event>
 5   0  0.1423543E-05  0.1700253E+04  0.7818609E-02  0.8761220E-01
        2   -1    0    0  501    0  0.00000000000E+00  0.00000000000E+00  0.15716233679E+04  0.15716233679E+04  0.25500000920E-02 0. -1.
       -2   -1    0    0    0  501  0.00000000000E+00  0.00000000000E+00 -0.45985280264E+03  0.45985280265E+03  0.25500000920E-02 0.  1.
    10030    2    1    2    0    0  0.00000000000E+00  0.00000000000E+00  0.11117705653E+04  0.20314761706E+04  0.17002534052E+04 0.  0.
        3    1    3    3  502    0 -0.80126734617E+03 -0.11238334434E+03  0.86758138088E+03  0.11863207150E+04  0.10100000352E+00 0. -1.
       -3    1    3    3    0  502  0.80126734617E+03  0.11238334434E+03  0.24418918438E+03  0.84515545558E+03  0.10100000352E+00 0.  1.
</event>
<event>
 5   0  0.1423543E-05  0.1700274E+04  0.7818609E-02  0.8761208E-01
        2   -1    0    0  501    0  0.00000000000E+00  0.00000000000E+00  0.10615279768E+04  0.10615279768E+04  0.25500000920E-02 0. -1.
       -2   -1    0    0    0  501  0.00000000000E+00  0.00000000000E+00 -0.68084198729E+03  0.68084198729E+03  0.25500000920E-02 0.  1.
    10030    2    1    2    0    0  0.00000000000E+00  0.00000000000E+00  0.38068598956E+03  0.17423699641E+04  0.17002738807E+04 0.  0.
        3    1    3    3  502    0 -0.62415333831E+03  0.46244946555E+03  0.54430159583E+03  0.94852049811E+03  0.10100000352E+00 0. -1.
       -3    1    3    3    0  502  0.62415333831E+03 -0.46244946555E+03 -0.16361560627E+03  0.79384946603E+03  0.10100000352E+00 0.  1.
</event>
<event>
 5   0  0.5229750E-06  0.1700926E+04  0.7818609E-02  0.8760836E-01
        3   -1    0    0  501    0  0.00000000000E+00  0.00000000000E+00  0.14084405680E+04  0.14084405716E+04  0.10100000352E+00 0. -1.
       -3   -1    0    0    0  501  0.00000000000E+00  0.00000000000E+00 -0.51353769298E+03  0.51353770291E+03  0.10100000352E+00 0.  1.
    10030    2    1    2    0    0  0.00000000000E+00  0.00000000000E+00  0.89490287504E+03  0.19219782745E+04  0.17009260219E+04 0.  0.
        1    1    3    3  502    0 -0.40498037107E+03 -0.28868280855E+02  0.12918611029E+04  0.13541593657E+04  0.50400001928E-02 0. -1.
       -1    1    3    3    0  502  0.40498037107E+03  0.28868280855E+02 -0.39695822782E+03  0.56781890885E+03  0.50400001928E-02 0.  1.
</event>
<event>
 5   0  0.7583716E-06  0.1697300E+04  0.7818609E-02  0.8762906E-01
       -1   -1    0    0    0  501  0.00000000000E+00  0.00000000000E+00  0.53067669495E+03  0.53067669498E+03  0.50400001928E-02 0.  1.
        1   -1    0    0  501    0  0.00000000000E+00  0.00000000000E+00 -0.13571473328E+04  0.13571473328E+04  0.50400001928E-02 0. -1.
    10030    2    1    2    0    0  0.00000000000E+00  0.00000000000E+00 -0.82647063781E+03  0.18878240278E+04  0.16972995742E+04 0.  0.
        5    1    3    3  502    0 -0.55894853783E+03  0.20925207713E+03 -0.10842599610E+04  0.12376799477E+04  0.46999998093E+01 0. -1.
       -5    1    3    3    0  502  0.55894853783E+03 -0.20925207713E+03  0.25778932322E+03  0.65014408010E+03  0.46999998093E+01 0.  1.
</event>
<event>
 5   0  0.1423543E-05  0.1702642E+04  0.7818609E-02  0.8759859E-01
        2   -1    0    0  501    0  0.00000000000E+00  0.00000000000E+00  0.13932677523E+04  0.13932677523E+04  0.25500000920E-02 0.  1.
       -2   -1    0    0    0  501  0.00000000000E+00  0.00000000000E+00 -0.52017812315E+03  0.52017812316E+03  0.25500000920E-02 0. -1.
    10030    2    1    2    0    0  0.00000000000E+00  0.00000000000E+00  0.87308962910E+03  0.19134458754E+04  0.17026419523E+04 0.  0.
        3    1    3    3  502    0 -0.65518113481E+03 -0.74142137316E+02  0.10417224625E+04  0.12328605254E+04  0.10100000352E+00 0.  1.
       -3    1    3    3    0  502  0.65518113481E+03  0.74142137316E+02 -0.16863283343E+03  0.68058535001E+03  0.10100000352E+00 0. -1.
</event>
<event>
 5   0  0.5229750E-06  0.1700084E+04  0.7818609E-02  0.8761316E-01
       -3   -1    0    0    0  501  0.00000000000E+00  0.00000000000E+00  0.66136151599E+03  0.66136152370E+03  0.10100000352E+00 0. -1.
        3   -1    0    0  501    0  0.00000000000E+00  0.00000000000E+00 -0.10925515462E+04  0.10925515509E+04  0.10100000352E+00 0.  1.
    10030    2    1    2    0    0  0.00000000000E+00  0.00000000000E+00 -0.43119003024E+03  0.17539130746E+04  0.17000841835E+04 0.  0.
        3    1    3    3  502    0 -0.45509986340E+03  0.69298783595E+03 -0.21973317890E+02  0.82935569169E+03  0.10100000352E+00 0. -1.
       -3    1    3    3    0  502  0.45509986340E+03 -0.69298783595E+03 -0.40921671235E+03  0.92455738292E+03  0.10100000352E+00 0.  1.
</event>
<event>
 5   0  0.1435301E-05  0.1700395E+04  0.7818609E-02  0.8761139E-01
        2   -1    0    0  501    0  0.00000000000E+00  0.00000000000E+00  0.23482407373E+04  0.23482407373E+04  0.25500000920E-02 0.  1.
       -2   -1    0    0    0  501  0.00000000000E+00  0.00000000000E+00 -0.30782021148E+03  0.30782021149E+03  0.25500000920E-02 0. -1.
    10030    2    1    2    0    0  0.00000000000E+00  0.00000000000E+00  0.20404205259E+04  0.26560609488E+04  0.17003952016E+04 0.  0.
        2    1    3    3  502    0  0.47425138759E+02  0.79718107515E+03  0.56456667968E+03  0.97799915449E+03  0.25500000920E-02 0. -1.
       -2    1    3    3    0  502 -0.47425138759E+02 -0.79718107515E+03  0.14758538462E+04  0.16780617944E+04  0.25500000920E-02 0.  1.
</event>
<event>
 5   0  0.1374441E-05  0.1700068E+04  0.7818609E-02  0.8761326E-01
       -2   -1    0    0    0  501  0.00000000000E+00  0.00000000000E+00  0.53874341696E+03  0.53874341697E+03  0.25500000920E-02 0. -1.
        2   -1    0    0  501    0  0.00000000000E+00  0.00000000000E+00 -0.13411909411E+04  0.13411909411E+04  0.25500000920E-02 0.  1.
    10030    2    1    2    0    0  0.00000000000E+00  0.00000000000E+00 -0.80244752411E+03  0.18799343580E+04  0.17000679873E+04 0.  0.
        1    1    3    3  502    0 -0.27152430837E+03 -0.65816958007E+03  0.11228308321E+03  0.72077745315E+03  0.50400001928E-02 0. -1.
       -1    1    3    3    0  502  0.27152430837E+03  0.65816958007E+03 -0.91473060732E+03  0.11591569049E+04  0.50400001928E-02 0.  1.
</event>
<event>
 5   0  0.7082527E-06  0.1699584E+04  0.7818609E-02  0.8761602E-01
        1   -1    0    0  501    0  0.00000000000E+00  0.00000000000E+00  0.13829887360E+04  0.13829887360E+04  0.50400001928E-02 0.  1.
       -1   -1    0    0    0  501  0.00000000000E+00  0.00000000000E+00 -0.52216359997E+03  0.52216360000E+03  0.50400001928E-02 0. -1.
    10030    2    1    2    0    0  0.00000000000E+00  0.00000000000E+00  0.86082513606E+03  0.19051523360E+04  0.16995839222E+04 0.  0.
        1    1    3    3  502    0  0.78056622148E+02 -0.79561218696E+03  0.75346233544E+03  0.10985431622E+04  0.50400001928E-02 0.  1.
       -1    1    3    3    0  502 -0.78056622148E+02  0.79561218696E+03  0.10736280062E+03  0.80660917382E+03  0.50400001928E-02 0. -1.
</event>
<event>
 5   0  0.1419012E-05  0.1704789E+04  0.7818609E-02  0.8758638E-01
       -2   -1    0    0    0  501  0.00000000000E+00  0.00000000000E+00  0.50984951887E+03  0.50984951888E+03  0.25500000920E-02 0.  1.
        2   -1    0    0  501    0  0.00000000000E+00  0.00000000000E+00 -0.14250798351E+04  0.14250798351E+04  0.25500000920E-02 0. -1.
    10030    2    1    2    0    0  0.00000000000E+00  0.00000000000E+00 -0.91523031621E+03  0.19349293540E+04  0.17047888647E+04 0.  0.
        4    1    3    3  502    0 -0.38644138426E+03  0.20679091411E+03  0.37215594136E+03  0.57497920242E+03  0.12699999809E+01 0.  1.
       -4    1    3    3    0  502  0.38644138426E+03 -0.20679091411E+03 -0.12873862576E+04  0.13599501515E+04  0.12699999809E+01 0. -1.
</event>
<event>
 5   0  0.1419012E-05  0.1700399E+04  0.7818609E-02  0.8761137E-01
       -2   -1    0    0    0  501  0.00000000000E+00  0.00000000000E+00  0.52957227807E+03  0.52957227808E+03  0.25500000920E-02 0. -1.
        2   -1    0    0  501    0  0.00000000000E+00  0.00000000000E+00 -0.13649487880E+04  0.13649487880E+04  0.25500000920E-02 0.  1.
    10030    2    1    2    0    0  0.00000000000E+00  0.00000000000E+00 -0.83537650996E+03  0.18945210661E+04  0.17003988228E+04 0.  0.
        4    1    3    3  502    0  0.75152086696E+03  0.38597816977E+03 -0.52382455639E+03  0.99406063184E+03  0.12699999809E+01 0.  1.
       -4    1    3    3    0  502 -0.75152086696E+03 -0.38597816977E+03 -0.31155195358E+03  0.90046043427E+03  0.12699999809E+01 0. -1.
</event>
<event>
 5   0  0.1441756E-05  0.1700103E+04  0.7818609E-02  0.8761306E-01
       -2   -1    0    0    0  501  0.00000000000E+00  0.00000000000E+00  0.87308302770E+03  0.87308302770E+03  0.25500000920E-02 0. -1.
        2   -1    0    0  501    0  0.00000000000E+00  0.00000000000E+00 -0.82762719949E+03  0.82762719950E+03  0.25500000920E-02 0.  1.
    10030    2    1    2    0    0  0.00000000000E+00  0.00000000000E+00  0.45455828206E+02  0.17007102272E+04  0.17001026571E+04 0.  0.
        5    1    3    3  502    0  0.21163150442E+03  0.72017652069E+03  0.42177278539E+03  0.86102060783E+03  0.46999998093E+01 0. -1.
       -5    1    3    3    0  502 -0.21163150442E+03 -0.72017652069E+03 -0.37631695718E+03  0.83968961937E+03  0.46999998093E+01 0.  1.
</event>
<event>
 5   0  0.7455669E-06  0.1700632E+04  0.7818609E-02  0.8761004E-01
        1   -1    0    0  501    0  0.00000000000E+00  0.00000000000E+00  0.10825287015E+04  0.10825287015E+04  0.50400001928E-02 0.  1.
       -1   -1    0    0    0  501  0.00000000000E+00  0.00000000000E+00 -0.66791490647E+03  0.66791490649E+03  0.50400001928E-02 0. -1.
    10030    2    1    2    0    0  0.00000000000E+00  0.00000000000E+00  0.41461379502E+03  0.17504436080E+04  0.17006317137E+04 0.  0.
        4    1    3    3  502    0 -0.59239426488E+03 -0.60265302248E+03  0.11012852773E+03  0.85220392869E+03  0.12699999809E+01 0. -1.
       -4    1    3    3    0  502  0.59239426488E+03  0.60265302248E+03  0.30448526729E+03  0.89823967929E+03  0.12699999809E+01 0.  1.
</event>
<event>
 5   0  0.7476457E-06  0.1700142E+04  0.7818609E-02  0.8761283E-01
       -1   -1    0    0    0  501  0.00000000000E+00  0.00000000000E+00  0.39218512954E+03  0.39218512957E+03  0.50400001928E-02 0. -1.
        1   -1    0    0  501    0  0.00000000000E+00  0.00000000000E+00 -0.18425509774E+04  0.18425509774E+04  0.50400001928E-02 0.  1.
    10030    2    1    2    0    0  0.00000000000E+00  0.00000000000E+00 -0.14503658478E+04  0.22347361069E+04  0.17001424573E+04 0.  0.
        2    1    3    3  502    0  0.34820096519E+03  0.33670650810E+03 -0.16434171432E+04  0.17133111484E+04  0.25500000920E-02 0.  1.
       -2    1    3    3    0  502 -0.34820096519E+03 -0.33670650810E+03  0.19305129534E+03  0.52142495855E+03  0.25500000920E-02 0. -1.
</event>
<event>
 5   0  0.1423543E-05  0.1699184E+04  0.7818609E-02  0.8761830E-01
        2   -1    0    0  501    0  0.00000000000E+00  0.00000000000E+00  0.49668095409E+03  0.49668095409E+03  0.25500000920E-02 0.  1.
       -2   -1    0    0    0  501  0.00000000000E+00  0.00000000000E+00 -0.14532592423E+04  0.14532592423E+04  0.25500000920E-02 0. -1.
    10030    2    1    2    0    0  0.00000000000E+00  0.00000000000E+00 -0.95657828817E+03  0.19499401964E+04  0.16991835533E+04 0.  0.
        3    1    3    3  502    0  0.46987528891E+03  0.69661961208E+03 -0.62228351402E+03  0.10456091302E+04  0.10100000352E+00 0.  1.
       -3    1    3    3    0  502 -0.46987528891E+03 -0.69661961208E+03 -0.33429477415E+03  0.90433106619E+03  0.10100000352E+00 0. -1.
</event>
<event>
 5   0  0.1419012E-05  0.1699628E+04  0.7818609E-02  0.8761576E-01
       -2   -1    0    0    0  501  0.00000000000E+00  0.00000000000E+00  0.88206438337E+03  0.88206438337E+03  0.25500000920E-02 0.  1.
        2   -1    0    0  501    0  0.00000000000E+00  0.00000000000E+00 -0.81874289300E+03  0.81874289300E+03  0.25500000920E-02 0. -1.
    10030    2    1    2    0    0  0.00000000000E+00  0.00000000000E+00  0.63321490370E+02  0.17008072764E+04  0.16996281300E+04 0.  0.
        4    1    3    3  502    0  0.39294232661E+03 -0.74677954247E+03  0.13222412118E+03  0.85414763842E+03  0.12699999809E+01 0.  1.
       -4    1    3    3    0  502 -0.39294232661E+03  0.74677954247E+03 -0.68902630815E+02  0.84665963795E+03  0.12699999809E+01 0. -1.
</event>
<event>
 5   0  0.1419012E-05  0.1699700E+04  0.7818609E-02  0.8761535E-01
       -2   -1    0    0    0  501  0.00000000000E+00  0.00000000000E+00  0.11689938277E+04  0.11689938277E+04  0.25500000920E-02 0. -1.
        2   -1    0    0  501    0  0.00000000000E+00  0.00000000000E+00 -0.61783512430E+03  0.61783512430E+03  0.25500000920E-02 0.  1.
    10030    2    1    2    0    0  0.00000000000E+00  0.00000000000E+00  0.55115870341E+03  0.17868289520E+04  0.16997004993E+04 0.  0.
        4    1    3    3  502    0  0.53765613695E+03  0.23528711885E+03 -0.37059114012E+03  0.69409909662E+03  0.12699999809E+01 0.  1.
       -4    1    3    3    0  502 -0.53765613695E+03 -0.23528711885E+03  0.92174984354E+03  0.10927298554E+04  0.12699999809E+01 0. -1.
</event>
<event>
 5   0  0.7461128E-06  0.1699902E+04  0.7818609E-02  0.8761420E-01
        1   -1    0    0  501    0  0.00000000000E+00  0.00000000000E+00  0.64966652527E+03  0.64966652529E+03  0.50400001928E-02 0.  1.
       -1   -1    0    0    0  501  0.00000000000E+00  0.00000000000E+00 -0.11119812377E+04  0.11119812377E+04  0.50400001928E-02 0. -1.
    10030    2    1    2    0    0  0.00000000000E+00  0.00000000000E+00 -0.46231471239E+03  0.17616477630E+04  0.16999023347E+04 0.  0.
        3    1    3    3  502    0  0.17037718222E+03  0.27295918665E+03  0.58410800061E+03  0.66687125322E+03  0.10100000352E+00 0.  1.
       -3    1    3    3    0  502 -0.17037718222E+03 -0.27295918665E+03 -0.10464227130E+04  0.10947765097E+04  0.10100000352E+00 0. -1.
</event>
<event>
 5   0  0.7082527E-06  0.1700188E+04  0.7818609E-02  0.8761257E-01
        1   -1    0    0  501    0  0.00000000000E+00  0.00000000000E+00  0.10906760003E+04  0.10906760003E+04  0.50400001928E-02 0. -1.
       -1   -1    0    0    0  501  0.00000000000E+00  0.00000000000E+00 -0.66258005469E+03  0.66258005471E+03  0.50400001928E-02 0.  1.
    10030    2    1    2    0    0  0.00000000000E+00  0.00000000000E+00  0.42809594561E+03  0.17532560550E+04  0.17001884178E+04 0.  0.
        1    1    3    3  502    0  0.64303551215E+03  0.52318525840E+03  0.19909518458E+02  0.82922486301E+03  0.50400001928E-02 0.  1.
       -1    1    3    3    0  502 -0.64303551215E+03 -0.52318525840E+03  0.40818642716E+03  0.92403119202E+03  0.50400001928E-02 0. -1.
</event>
<event>
 5   0  0.7476457E-06  0.1699939E+04  0.7818609E-02  0.8761399E-01
       -1   -1    0    0    0  501  0.00000000000E+00  0.00000000000E+00  0.86222948930E+03  0.86222948931E+03  0.50400001928E-02 0. -1.
        1   -1    0    0  501    0  0.00000000000E+00  0.00000000000E+00 -0.83788342731E+03  0.83788342733E+03  0.50400001928E-02 0.  1.
    10030    2    1    2    0    0  0.00000000000E+00  0.00000000000E+00  0.24346061984E+02  0.17001129166E+04  0.16999385867E+04 0.  0.
        2    1    3    3  502    0  0.16491731310E+03 -0.38298018147E+03  0.75290832760E+03  0.86066398166E+03  0.25500000920E-02 0. -1.
       -2    1    3    3    0  502 -0.16491731310E+03  0.38298018147E+03 -0.72856226561E+03  0.83944893498E+03  0.25500000920E-02 0.  1.
</event>
<event>
 5   0  0.1374441E-05  0.1700257E+04  0.7818609E-02  0.8761218E-01
       -2   -1    0    0    0  501  0.00000000000E+00  0.00000000000E+00  0.58855192312E+03  0.58855192312E+03  0.25500000920E-02 0. -1.
        2   -1    0    0  501    0  0.00000000000E+00  0.00000000000E+00 -0.12279602079E+04  0.12279602079E+04  0.25500000920E-02 0.  1.
    10030    2    1    2    0    0  0.00000000000E+00  0.00000000000E+00 -0.63940828475E+03  0.18165121310E+04  0.17002568534E+04 0.  0.
        1    1    3    3  502    0 -0.72663324127E+03  0.21953058959E+03 -0.72866830926E+03  0.10522105550E+04  0.50400001928E-02 0.  1.
       -1    1    3    3    0  502  0.72663324127E+03 -0.21953058959E+03  0.89260024509E+02  0.76430157600E+03  0.50400001928E-02 0. -1.
</event>
<event>
 5   0  0.1419012E-05  0.1700371E+04  0.7818609E-02  0.8761153E-01
        2   -1    0    0  501    0  0.00000000000E+00  0.00000000000E+00  0.80334803480E+03  0.80334803480E+03  0.25500000920E-02 0.  1.
       -2   -1    0    0    0  501  0.00000000000E+00  0.00000000000E+00 -0.89975377864E+03  0.89975377864E+03  0.25500000920E-02 0. -1.
    10030    2    1    2    0    0  0.00000000000E+00  0.00000000000E+00 -0.96405743840E+02  0.17031018134E+04  0.17003710535E+04 0.  0.
        4    1    3    3  502    0 -0.23966441564E+03 -0.55444593041E+03  0.55105932877E+03  0.81762908375E+03  0.12699999809E+01 0.  1.
       -4    1    3    3    0  502  0.23966441564E+03  0.55444593041E+03 -0.64746507262E+03  0.88547272969E+03  0.12699999809E+01 0. -1.
</event>
<event>
 5   0  0.7583716E-06  0.1699078E+04  0.7818609E-02  0.8761890E-01
        1   -1    0    0  501    0  0.00000000000E+00  0.00000000000E+00  0.12586162372E+04  0.12586162372E+04  0.50400001928E-02 0.  1.
       -1   -1    0    0    0  501  0.00000000000E+00  0.00000000000E+00 -0.57342092343E+03  0.57342092345E+03  0.50400001928E-02 0. -1.
    10030    2    1    2    0    0  0.00000000000E+00  0.00000000000E+00  0.68519531373E+03  0.18320371606E+04  0.16990784384E+04 0.  0.
        5    1    3    3  502    0 -0.33405055311E+03  0.18429801417E+03  0.11610333984E+04  0.12221195409E+04  0.46999998093E+01 0.  1.
       -5    1    3    3    0  502  0.33405055311E+03 -0.18429801417E+03 -0.47583808465E+03  0.60991761973E+03  0.46999998093E+01 0. -1.
</event>
<event>
 5   0  0.1374441E-05  0.1699568E+04  0.7818609E-02  0.8761611E-01
        2   -1    0    0  501    0  0.00000000000E+00  0.00000000000E+00  0.11805986657E+04  0.11805986657E+04  0.25500000920E-02 0. -1.
       -2   -1    0    0    0  501  0.00000000000E+00  0.00000000000E+00 -0.61166638039E+03  0.61166638040E+03  0.25500000920E-02 0.  1.
    10030    2    1    2    0    0  0.00000000000E+00  0.00000000000E+00  0.56893228533E+03  0.17922650461E+04  0.16995676068E+04 0.  0.
        1    1    3    3  502    0  0.27867566818E+03  0.71615335329E+03  0.66701453999E+03  0.10175677619E+04  0.50400001928E-02 0.  1.
       -1    1    3    3    0  502 -0.27867566818E+03 -0.71615335329E+03 -0.98082254663E+02  0.77469728422E+03  0.50400001928E-02 0. -1.
</event>
<event>
 5   0  0.7461128E-06  0.1699644E+04  0.7818609E-02  0.8761568E-01
       -1   -1    0    0    0  501  0.00000000000E+00  0.00000000000E+00  0.70931415410E+03  0.70931415411E+03  0.50400001928E-02 0.  1.
        1   -1    0    0  501    0  0.00000000000E+00  0.00000000000E+00 -0.10181624270E+04  0.10181624270E+04  0.50400001928E-02 0. -1.
    10030    2    1    2    0    0  0.00000000000E+00  0.00000000000E+00 -0.30884827293E+03  0.17274765811E+04  0.16996435164E+04 0.  0.
        3    1    3    3  502    0 -0.77865985759E+02 -0.28958913326E+03  0.65375253968E+03  0.71924778149E+03  0.10100000352E+00 0.  1.
       -3    1    3    3    0  502  0.77865985759E+02  0.28958913326E+03 -0.96260081260E+03  0.10082287997E+04  0.10100000352E+00 0. -1.
</event>
<event>
 5   0  0.7583716E-06  0.1705857E+04  0.7818609E-02  0.8758031E-01
        1   -1    0    0  501    0  0.00000000000E+00  0.00000000000E+00  0.10548455826E+04  0.10548455826E+04  0.50400001928E-02 0.  1.
       -1   -1    0    0    0  501  0.00000000000E+00  0.00000000000E+00 -0.68966205570E+03  0.68966205572E+03  0.50400001928E-02 0. -1.
    10030    2    1    2    0    0  0.00000000000E+00  0.00000000000E+00  0.36518352688E+03  0.17445076383E+04  0.17058569377E+04 0.  0.
        5    1    3    3  502    0 -0.44169271512E+03  0.35856473861E+03 -0.46726171318E+03  0.73621785157E+03  0.46999998093E+01 0. -1.
       -5    1    3    3    0  502  0.44169271512E+03 -0.35856473861E+03  0.83244524006E+03  0.10082897868E+04  0.46999998093E+01 0.  1.
</event>
<event>
 5   0  0.7583716E-06  0.1699864E+04  0.7818609E-02  0.8761442E-01
        1   -1    0    0  501    0  0.00000000000E+00  0.00000000000E+00  0.11306366724E+04  0.11306366724E+04  0.50400001928E-02 0.  1.
       -1   -1    0    0    0  501  0.00000000000E+00  0.00000000000E+00 -0.63891831073E+03  0.63891831075E+03  0.50400001928E-02 0. -1.
    10030    2    1    2    0    0  0.00000000000E+00  0.00000000000E+00  0.49171836168E+03  0.17695549832E+04  0.16998640802E+04 0.  0.
        5    1    3    3  502    0  0.65120032007E+03  0.41550533634E+03 -0.12315342800E+03  0.78223743084E+03  0.46999998093E+01 0. -1.
       -5    1    3    3    0  502 -0.65120032007E+03 -0.41550533634E+03  0.61487178968E+03  0.98731755232E+03  0.46999998093E+01 0.  1.
</event>
<event>
 5   0  0.1441756E-05  0.1701043E+04  0.7818609E-02  0.8760769E-01
        2   -1    0    0  501    0  0.00000000000E+00  0.00000000000E+00  0.13375419386E+04  0.13375419386E+04  0.25500000920E-02 0.  1.
       -2   -1    0    0    0  501  0.00000000000E+00  0.00000000000E+00 -0.54083325006E+03  0.54083325006E+03  0.25500000920E-02 0. -1.
    10030    2    1    2    0    0  0.00000000000E+00  0.00000000000E+00  0.79670868856E+03  0.18783751887E+04  0.17010433901E+04 0.  0.
        5    1    3    3  502    0  0.10701672246E+03 -0.48356875490E+03  0.11618637610E+04  0.12630284275E+04  0.46999998093E+01 0.  1.
       -5    1    3    3    0  502 -0.10701672246E+03  0.48356875490E+03 -0.36515507241E+03  0.61534676119E+03  0.46999998093E+01 0. -1.
</event>
<event>
 5   0  0.1441756E-05  0.1701362E+04  0.7818609E-02  0.8760588E-01
       -2   -1    0    0    0  501  0.00000000000E+00  0.00000000000E+00  0.33236055641E+03  0.33236055642E+03  0.25500000920E-02 0. -1.
        2   -1    0    0  501    0  0.00000000000E+00  0.00000000000E+00 -0.21773289260E+04  0.21773289260E+04  0.25500000920E-02 0.  1.
    10030    2    1    2    0    0  0.00000000000E+00  0.00000000000E+00 -0.18449683696E+04  0.25096894824E+04  0.17013621053E+04 0.  0.
        5    1    3    3  502    0  0.62619391311E+03 -0.16605735847E+03 -0.17357243279E+04  0.18526885587E+04  0.46999998093E+01 0.  1.
       -5    1    3    3    0  502 -0.62619391311E+03  0.16605735847E+03 -0.10924404168E+03  0.65700092371E+03  0.46999998093E+01 0. -1.
</event>
<event>
 5   0  0.1419012E-05  0.1699817E+04  0.7818609E-02  0.8761468E-01
        2   -1    0    0  501    0  0.00000000000E+00  0.00000000000E+00  0.62934242070E+03  0.62934242071E+03  0.25500000920E-02 0.  1.
       -2   -1    0    0    0  501  0.00000000000E+00  0.00000000000E+00 -0.11477771463E+04  0.11477771463E+04  0.25500000920E-02 0. -1.
    10030    2    1    2    0    0  0.00000000000E+00  0.00000000000E+00 -0.51843472562E+03  0.17771195670E+04  0.16998174581E+04 0.  0.
        4    1    3    3  502    0 -0.40135609299E+03  0.58815899383E+03  0.22591708670E+03  0.74703270234E+03  0.12699999809E+01 0.  1.
       -4    1    3    3    0  502  0.40135609299E+03 -0.58815899383E+03 -0.74435181232E+03  0.10300868647E+04  0.12699999809E+01 0. -1.
</event>
<event>
 5   0  0.7082527E-06  0.1700618E+04  0.7818609E-02  0.8761012E-01
       -1   -1    0    0    0  501  0.00000000000E+00  0.00000000000E+00  0.57682272379E+03  0.57682272381E+03  0.50400001928E-02 0.  1.
        1   -1    0    0  501    0  0.00000000000E+00  0.00000000000E+00 -0.12534624387E+04  0.12534624387E+04  0.50400001928E-02 0. -1.
    10030    2    1    2    0    0  0.00000000000E+00  0.00000000000E+00 -0.67663971491E+03  0.18302851625E+04  0.17006182618E+04 0.  0.
        1    1    3    3  502    0 -0.35034797833E+03 -0.60918383960E+03 -0.85354541687E+03  0.11056167668E+04  0.50400001928E-02 0. -1.
       -1    1    3    3    0  502  0.35034797833E+03  0.60918383960E+03  0.17690570196E+03  0.72466839572E+03  0.50400001928E-02 0.  1.
</event>
<event>
 5   0  0.1441756E-05  0.1699580E+04  0.7818609E-02  0.8761604E-01
        2   -1    0    0  501    0  0.00000000000E+00  0.00000000000E+00  0.12310991409E+04  0.12310991409E+04  0.25500000920E-02 0. -1.
       -2   -1    0    0    0  501  0.00000000000E+00  0.00000000000E+00 -0.58658365537E+03  0.58658365537E+03  0.25500000920E-02 0.  1.
    10030    2    1    2    0    0  0.00000000000E+00  0.00000000000E+00  0.64451548549E+03  0.18176827962E+04  0.16995795176E+04 0.  0.
        5    1    3    3  502    0 -0.18171344858E+02  0.82575194033E+03  0.10856288887E+03  0.83306929818E+03  0.46999998093E+01 0.  1.
       -5    1    3    3    0  502  0.18171344858E+02 -0.82575194033E+03  0.53595259662E+03  0.98461349806E+03  0.46999998093E+01 0. -1.
</event>
<event>
 5   0  0.7583716E-06  0.1699862E+04  0.7818609E-02  0.8761443E-01
        1   -1    0    0  501    0  0.00000000000E+00  0.00000000000E+00  0.11417139989E+04  0.11417139989E+04  0.50400001928E-02 0. -1.
       -1   -1    0    0    0  501  0.00000000000E+00  0.00000000000E+00 -0.63271778660E+03  0.63271778662E+03  0.50400001928E-02 0.  1.
    10030    2    1    2    0    0  0.00000000000E+00  0.00000000000E+00  0.50899621231E+03  0.17744317855E+04  0.16998620583E+04 0.  0.
        5    1    3    3  502    0  0.16401225575E+03 -0.70355481579E+03 -0.21288358322E+03  0.75314733542E+03  0.46999998093E+01 0. -1.
       -5    1    3    3    0  502 -0.16401225575E+03  0.70355481579E+03  0.72187979553E+03  0.10212844501E+04  0.46999998093E+01 0.  1.
</event>
<event>
 5   0  0.1423543E-05  0.1699565E+04  0.7818609E-02  0.8761612E-01
        2   -1    0    0  501    0  0.00000000000E+00  0.00000000000E+00  0.52323093607E+03  0.52323093607E+03  0.25500000920E-02 0.  1.
       -2   -1    0    0    0  501  0.00000000000E+00  0.00000000000E+00 -0.13801373704E+04  0.13801373704E+04  0.25500000920E-02 0. -1.
    10030    2    1    2    0    0  0.00000000000E+00  0.00000000000E+00 -0.85690643430E+03  0.19033683064E+04  0.16995653188E+04 0.  0.
        3    1    3    3  502    0  0.75610204784E+03  0.29089698715E+03 -0.14113626325E+03  0.82233254762E+03  0.10100000352E+00 0.  1.
       -3    1    3    3    0  502 -0.75610204784E+03 -0.29089698715E+03 -0.71577017106E+03  0.10810357588E+04  0.10100000352E+00 0. -1.
</event>
<event>
 5   0  0.1441756E-05  0.1700627E+04  0.7818609E-02  0.8761007E-01
       -2   -1    0    0    0  501  0.00000000000E+00  0.00000000000E+00  0.40752143585E+03  0.40752143586E+03  0.25500000920E-02 0.  1.
        2   -1    0    0  501    0  0.00000000000E+00  0.00000000000E+00 -0.17742204331E+04  0.17742204331E+04  0.25500000920E-02 0. -1.
    10030    2    1    2    0    0  0.00000000000E+00  0.00000000000E+00 -0.13666989973E+04  0.21817418690E+04  0.17006267767E+04 0.  0.
        5    1    3    3  502    0  0.10875148613E+03 -0.58203889504E+03  0.99553049922E+02  0.60044072216E+03  0.46999998093E+01 0.  1.
       -5    1    3    3    0  502 -0.10875148613E+03  0.58203889504E+03 -0.14662520472E+04  0.15813011469E+04  0.46999998093E+01 0. -1.
</event>
<event>
 5   0  0.7455669E-06  0.1699915E+04  0.7818609E-02  0.8761413E-01
       -1   -1    0    0    0  501  0.00000000000E+00  0.00000000000E+00  0.15212243492E+04  0.15212243492E+04  0.50400001928E-02 0. -1.
        1   -1    0    0  501    0  0.00000000000E+00  0.00000000000E+00 -0.47489875014E+03  0.47489875017E+03  0.50400001928E-02 0.  1.
    10030    2    1    2    0    0  0.00000000000E+00  0.00000000000E+00  0.10463255990E+04  0.19961230994E+04  0.16999147533E+04 0.  0.
        4    1    3    3  502    0 -0.19745915779E+03 -0.48313153125E+03  0.13108902075E+04  0.14109716314E+04  0.12699999809E+01 0. -1.
       -4    1    3    3    0  502  0.19745915779E+03  0.48313153125E+03 -0.26456460850E+03  0.58515146796E+03  0.12699999809E+01 0.  1.
</event>
<event>
 5   0  0.1423543E-05  0.1700261E+04  0.7818609E-02  0.8761216E-01
        2   -1    0    0  501    0  0.00000000000E+00  0.00000000000E+00  0.13119919663E+04  0.13119919663E+04  0.25500000920E-02 0.  1.
       -2   -1    0    0    0  501  0.00000000000E+00  0.00000000000E+00 -0.55085826243E+03  0.55085826244E+03  0.25500000920E-02 0. -1.
    10030    2    1    2    0    0  0.00000000000E+00  0.00000000000E+00  0.76113370387E+03  0.18628502287E+04  0.17002607034E+04 0.  0.
        3    1    3    3  502    0  0.33822317170E+03 -0.76236837135E+03  0.56100008451E+03  0.10051475277E+04  0.10100000352E+00 0.  1.
       -3    1    3    3    0  502 -0.33822317170E+03  0.76236837135E+03  0.20013361936E+03  0.85770270100E+03  0.10100000352E+00 0. -1.
</event>
<event>
 5   0  0.1435301E-05  0.1700234E+04  0.7818609E-02  0.8761231E-01
        2   -1    0    0  501    0  0.00000000000E+00  0.00000000000E+00  0.71155080450E+03  0.71155080451E+03  0.25500000920E-02 0.  1.
       -2   -1    0    0    0  501  0.00000000000E+00  0.00000000000E+00 -0.10156673618E+04  0.10156673618E+04  0.25500000920E-02 0. -1.
    10030    2    1    2    0    0  0.00000000000E+00  0.00000000000E+00 -0.30411655731E+03  0.17272181663E+04  0.17002340173E+04 0.  0.
        2    1    3    3  502    0  0.39446240884E+02 -0.84512368933E+03 -0.67619474085E+02  0.84874168595E+03  0.25500000920E-02 0.  1.
       -2    1    3    3    0  502 -0.39446240884E+02  0.84512368933E+03 -0.23649708322E+03  0.87847648037E+03  0.25500000920E-02 0. -1.
</event>
<event>
 5   0  0.1419012E-05  0.1700063E+04  0.7818609E-02  0.8761328E-01
        2   -1    0    0  501    0  0.00000000000E+00  0.00000000000E+00  0.20153715304E+04  0.20153715304E+04  0.25500000920E-02 0.  1.
       -2   -1    0    0    0  501  0.00000000000E+00  0.00000000000E+00 -0.35852134705E+03  0.35852134706E+03  0.25500000920E-02 0. -1.
    10030    2    1    2    0    0  0.00000000000E+00  0.00000000000E+00  0.16568501834E+04  0.23738928775E+04  0.17000631940E+04 0.  0.
        4    1    3    3  502    0  0.11893739605E+03  0.43687391837E+03  0.18329738586E+04  0.18880677170E+04  0.12699999809E+01 0.  1.
       -4    1    3    3    0  502 -0.11893739605E+03 -0.43687391837E+03 -0.17612367520E+03  0.48582516052E+03  0.12699999809E+01 0. -1.
</event>
<event>
 5   0  0.1423543E-05  0.1701819E+04  0.7818609E-02  0.8760328E-01
        2   -1    0    0  501    0  0.00000000000E+00  0.00000000000E+00  0.18647634113E+04  0.18647634113E+04  0.25500000920E-02 0.  1.
       -2   -1    0    0    0  501  0.00000000000E+00  0.00000000000E+00 -0.38827815378E+03  0.38827815379E+03  0.25500000920E-02 0. -1.
    10030    2    1    2    0    0  0.00000000000E+00  0.00000000000E+00  0.14764852575E+04  0.22530415651E+04  0.17018189029E+04 0.  0.
        3    1    3    3  502    0  0.57887899994E+03 -0.19965573062E+01 -0.87411739611E+02  0.58544487805E+03  0.10100000352E+00 0. -1.
       -3    1    3    3    0  502 -0.57887899994E+03  0.19965573062E+01  0.15638969972E+04  0.16675966871E+04  0.10100000352E+00 0.  1.
</event>
<event>
 5   0  0.1374441E-05  0.1699582E+04  0.7818609E-02  0.8761603E-01
        2   -1    0    0  501    0  0.00000000000E+00  0.00000000000E+00  0.56584233773E+03  0.56584233773E+03  0.25500000920E-02 0. -1.
       -2   -1    0    0    0  501  0.00000000000E+00  0.00000000000E+00 -0.12762291459E+04  0.12762291459E+04  0.25500000920E-02 0.  1.
    10030    2    1    2    0    0  0.00000000000E+00  0.00000000000E+00 -0.71038680813E+03  0.18420714836E+04  0.16995816937E+04 0.  0.
        1    1    3    3  502    0 -0.69434429796E+02 -0.47483516663E+02 -0.12717057228E+04  0.12744847075E+04  0.50400001928E-02 0.  1.
       -1    1    3    3    0  502  0.69434429796E+02  0.47483516663E+02  0.56131891464E+03  0.56758677605E+03  0.50400001928E-02 0. -1.
</event>
<event>
 5   0  0.1374441E-05  0.1699790E+04  0.7818609E-02  0.8761484E-01
        2   -1    0    0  501    0  0.00000000000E+00  0.00000000000E+00  0.95294691826E+03  0.95294691827E+03  0.25500000920E-02 0.  1.
       -2   -1    0    0    0  501  0.00000000000E+00  0.00000000000E+00 -0.75798710726E+03  0.75798710726E+03  0.25500000920E-02 0. -1.
    10030    2    1    2    0    0  0.00000000000E+00  0.00000000000E+00  0.19495981100E+03  0.17109340255E+04  0.16997899611E+04 0.  0.
        1    1    3    3  502    0 -0.26751035099E+03 -0.14915836629E+03  0.89546468487E+03  0.94639685544E+03  0.50400001928E-02 0.  1.
       -1    1    3    3    0  502  0.26751035099E+03  0.14915836629E+03 -0.70050487386E+03  0.76453717009E+03  0.50400001928E-02 0. -1.
</event>
<event>
 5   0  0.7082527E-06  0.1699566E+04  0.7818609E-02  0.8761612E-01
       -1   -1    0    0    0  501  0.00000000000E+00  0.00000000000E+00  0.81074451690E+03  0.81074451691E+03  0.50400001928E-02 0. -1.
        1   -1    0    0  501    0  0.00000000000E+00  0.00000000000E+00 -0.89070154836E+03  0.89070154838E+03  0.50400001928E-02 0.  1.
    10030    2    1    2    0    0  0.00000000000E+00  0.00000000000E+00 -0.79957031466E+02  0.17014460653E+04  0.16995662936E+04 0.  0.
        1    1    3    3  502    0  0.30119001724E+03  0.38884307483E+03 -0.73372190473E+03  0.88332451389E+03  0.50400001928E-02 0.  1.
       -1    1    3    3    0  502 -0.30119001724E+03 -0.38884307483E+03  0.65376487326E+03  0.81812155140E+03  0.50400001928E-02 0. -1.
</event>
<event>
 5   0  0.7476457E-06  0.1699978E+04  0.7818609E-02  0.8761377E-01
       -1   -1    0    0    0  501  0.00000000000E+00  0.00000000000E+00  0.53760306407E+03  0.53760306409E+03  0.50400001928E-02 0. -1.
        1   -1    0    0  501    0  0.00000000000E+00  0.00000000000E+00 -0.13438942475E+04  0.13438942475E+04  0.50400001928E-02 0.  1.
    10030    2    1    2    0    0  0.00000000000E+00  0.00000000000E+00 -0.80629118346E+03  0.18814973116E+04  0.16999784296E+04 0.  0.
        2    1    3    3  502    0 -0.58066100404E+03  0.61869507549E+03 -0.34746615003E+03  0.91688795579E+03  0.25500000920E-02 0.  1.
       -2    1    3    3    0  502  0.58066100404E+03 -0.61869507549E+03 -0.45882503343E+03  0.96460935583E+03  0.25500000920E-02 0. -1.
</event>
<event>
 5   0  0.1374441E-05  0.1699858E+04  0.7818609E-02  0.8761445E-01
        2   -1    0    0  501    0  0.00000000000E+00  0.00000000000E+00  0.77053262672E+03  0.77053262672E+03  0.25500000920E-02 0. -1.
       -2   -1    0    0    0  501  0.00000000000E+00  0.00000000000E+00 -0.93750658680E+03  0.93750658680E+03  0.25500000920E-02 0.  1.
    10030    2    1    2    0    0  0.00000000000E+00  0.00000000000E+00 -0.16697396008E+03  0.17080392135E+04  0.16998581269E+04 0.  0.
        1    1    3    3  502    0  0.78774652851E+03 -0.31844929874E+03 -0.10419840775E+03  0.85604430799E+03  0.50400001928E-02 0. -1.
       -1    1    3    3    0  502 -0.78774652851E+03  0.31844929874E+03 -0.62775552336E+02  0.85199490553E+03  0.50400001928E-02 0.  1.
</event>
<event>
 5   0  0.7583716E-06  0.1697613E+04  0.7818609E-02  0.8762727E-01
        1   -1    0    0  501    0  0.00000000000E+00  0.00000000000E+00  0.61212378464E+03  0.61212378466E+03  0.50400001928E-02 0. -1.
       -1   -1    0    0    0  501  0.00000000000E+00  0.00000000000E+00 -0.11770043836E+04  0.11770043837E+04  0.50400001928E-02 0.  1.
    10030    2    1    2    0    0  0.00000000000E+00  0.00000000000E+00 -0.56488059901E+03  0.17891281683E+04  0.16976128862E+04 0.  0.
        5    1    3    3  502    0  0.30545757638E+03 -0.29207300476E+03  0.49333875122E+03  0.64962772765E+03  0.46999998093E+01 0. -1.
       -5    1    3    3    0  502 -0.30545757638E+03  0.29207300476E+03 -0.10582193502E+04  0.11395004407E+04  0.46999998093E+01 0.  1.
</event>
<event>
 5   0  0.1441756E-05  0.1699516E+04  0.7818609E-02  0.8761640E-01
       -2   -1    0    0    0  501  0.00000000000E+00  0.00000000000E+00  0.40410074752E+03  0.40410074753E+03  0.25500000920E-02 0. -1.
        2   -1    0    0  501    0  0.00000000000E+00  0.00000000000E+00 -0.17869023642E+04  0.17869023642E+04  0.25500000920E-02 0.  1.
    10030    2    1    2    0    0  0.00000000000E+00  0.00000000000E+00 -0.13828016167E+04  0.21910031117E+04  0.16995159089E+04 0.  0.
        5    1    3    3  502    0  0.75922330503E+03 -0.35967853208E+03 -0.85588185139E+03  0.11993100128E+04  0.46999998093E+01 0.  1.
       -5    1    3    3    0  502 -0.75922330503E+03  0.35967853208E+03 -0.52691976528E+03  0.99169309889E+03  0.46999998093E+01 0. -1.
</event>
<event>
 5   0  0.7461128E-06  0.1701264E+04  0.7818609E-02  0.8760644E-01
       -1   -1    0    0    0  501  0.00000000000E+00  0.00000000000E+00  0.35149310562E+03  0.35149310566E+03  0.50400001928E-02 0.  1.
        1   -1    0    0  501    0  0.00000000000E+00  0.00000000000E+00 -0.20585739309E+04  0.20585739309E+04  0.50400001928E-02 0. -1.
    10030    2    1    2    0    0  0.00000000000E+00  0.00000000000E+00 -0.17070808253E+04  0.24100670366E+04  0.17012636999E+04 0.  0.
        3    1    3    3  502    0 -0.67913903156E+03  0.48969924202E+03 -0.64085960639E+03  0.10543890255E+04  0.10100000352E+00 0. -1.
       -3    1    3    3    0  502  0.67913903156E+03 -0.48969924202E+03 -0.10662212189E+04  0.13556780110E+04  0.10100000352E+00 0.  1.
</event>
<event>
 5   0  0.1435301E-05  0.1699573E+04  0.7818609E-02  0.8761608E-01
       -2   -1    0    0    0  501  0.00000000000E+00  0.00000000000E+00  0.35491372800E+03  0.35491372801E+03  0.25500000920E-02 0. -1.
        2   -1    0    0  501    0  0.00000000000E+00  0.00000000000E+00 -0.20346838287E+04  0.20346838287E+04  0.25500000920E-02 0.  1.
    10030    2    1    2    0    0  0.00000000000E+00  0.00000000000E+00 -0.16797701007E+04  0.23895975567E+04  0.16995731499E+04 0.  0.
        2    1    3    3  502    0  0.20844075080E+02  0.82336339308E+03 -0.11340563607E+04  0.14015868085E+04  0.25500000920E-02 0.  1.
       -2    1    3    3    0  502 -0.20844075080E+02 -0.82336339308E+03 -0.54571374000E+03  0.98801074821E+03  0.25500000920E-02 0. -1.
</event>
<event>
 5   0  0.7455669E-06  0.1700526E+04  0.7818609E-02  0.8761065E-01
       -1   -1    0    0    0  501  0.00000000000E+00  0.00000000000E+00  0.96205695222E+03  0.96205695224E+03  0.50400001928E-02 0. -1.
        1   -1    0    0  501    0  0.00000000000E+00  0.00000000000E+00 -0.75145946876E+03  0.75145946878E+03  0.50400001928E-02 0.  1.
    10030    2    1    2    0    0  0.00000000000E+00  0.00000000000E+00  0.21059748346E+03  0.17135164210E+04  0.17005255732E+04 0.  0.
        4    1    3    3  502    0 -0.81647175055E+02 -0.48597817236E+03 -0.59288998543E+03  0.77094824270E+03  0.12699999809E+01 0.  1.
       -4    1    3    3    0  502  0.81647175055E+02  0.48597817236E+03  0.80348746889E+03  0.94256817831E+03  0.12699999809E+01 0. -1.
</event>
<event>
 5   0  0.7583716E-06  0.1701882E+04  0.7818609E-02  0.8760292E-01
       -1   -1    0    0    0  501  0.00000000000E+00  0.00000000000E+00  0.86429834870E+03  0.86429834871E+03  0.50400001928E-02 0.  1.
        1   -1    0    0  501    0  0.00000000000E+00  0.00000000000E+00 -0.83778983552E+03  0.83778983554E+03  0.50400001928E-02 0. -1.
    10030    2    1    2    0    0  0.00000000000E+00  0.00000000000E+00  0.26508513175E+02  0.17020881843E+04  0.17018817485E+04 0.  0.
        5    1    3    3  502    0  0.30101228858E+03  0.68176649068E+03 -0.39748319691E+03  0.84464722074E+03  0.46999998093E+01 0. -1.
       -5    1    3    3    0  502 -0.30101228858E+03 -0.68176649068E+03  0.42399171008E+03  0.85744096351E+03  0.46999998093E+01 0.  1.
</event>
<event>
 5   0  0.7082527E-06  0.1699591E+04  0.7818609E-02  0.8761597E-01
        1   -1    0    0  501    0  0.00000000000E+00  0.00000000000E+00  0.13456130388E+04  0.13456130388E+04  0.50400001928E-02 0. -1.
       -1   -1    0    0    0  501  0.00000000000E+00  0.00000000000E+00 -0.53667186359E+03  0.53667186362E+03  0.50400001928E-02 0.  1.
    10030    2    1    2    0    0  0.00000000000E+00  0.00000000000E+00  0.80894117522E+03  0.18822849024E+04  0.16995913123E+04 0.  0.
        1    1    3    3  502    0 -0.61046261735E+03 -0.26981743798E+03  0.98702288572E+03  0.11915033504E+04  0.50400001928E-02 0. -1.
       -1    1    3    3    0  502  0.61046261735E+03  0.26981743798E+03 -0.17808171050E+03  0.69078155205E+03  0.50400001928E-02 0.  1.
</event>
<event>
 5   0  0.7476457E-06  0.1700982E+04  0.7818609E-02  0.8760804E-01
        1   -1    0    0  501    0  0.00000000000E+00  0.00000000000E+00  0.15331779272E+04  0.15331779272E+04  0.50400001928E-02 0.  1.
       -1   -1    0    0    0  501  0.00000000000E+00  0.00000000000E+00 -0.47178799138E+03  0.47178799141E+03  0.50400001928E-02 0. -1.
    10030    2    1    2    0    0  0.00000000000E+00  0.00000000000E+00  0.10613899359E+04  0.20049659187E+04  0.17009819926E+04 0.  0.
        2    1    3    3  502    0 -0.40515708165E+02 -0.26692181632E+03 -0.41993818150E+03  0.49923627164E+03  0.25500000920E-02 0. -1.
       -2    1    3    3    0  502  0.40515708165E+02  0.26692181632E+03  0.14813281174E+04  0.15057296470E+04  0.25500000920E-02 0.  1.
</event>
<event>
 5   0  0.1423543E-05  0.1700385E+04  0.7818609E-02  0.8761145E-01
        2   -1    0    0  501    0  0.00000000000E+00  0.00000000000E+00  0.16106347955E+04  0.16106347955E+04  0.25500000920E-02 0. -1.
       -2   -1    0    0    0  501  0.00000000000E+00  0.00000000000E+00 -0.44878420414E+03  0.44878420414E+03  0.25500000920E-02 0.  1.
    10030    2    1    2    0    0  0.00000000000E+00  0.00000000000E+00  0.11618505914E+04  0.20594189997E+04  0.17003851974E+04 0.  0.
        3    1    3    3  502    0 -0.72112236093E+03 -0.44504696615E+03  0.66433802790E+03  0.10767679820E+04  0.10100000352E+00 0. -1.
       -3    1    3    3    0  502  0.72112236093E+03  0.44504696615E+03  0.49751256347E+03  0.98265101767E+03  0.10100000352E+00 0.  1.
</event>
<event>
 5   0  0.1374441E-05  0.1699602E+04  0.7818609E-02  0.8761591E-01
       -2   -1    0    0    0  501  0.00000000000E+00  0.00000000000E+00  0.40717735689E+03  0.40717735690E+03  0.25500000920E-02 0. -1.
        2   -1    0    0  501    0  0.00000000000E+00  0.00000000000E+00 -0.17735799487E+04  0.17735799487E+04  0.25500000920E-02 0.  1.
    10030    2    1    2    0    0  0.00000000000E+00  0.00000000000E+00 -0.13664025918E+04  0.21807573056E+04  0.16996018307E+04 0.  0.
        1    1    3    3  502    0 -0.13033431200E+03 -0.51049754677E+01  0.39425692635E+03  0.41527294357E+03  0.50400001928E-02 0. -1.
       -1    1    3    3    0  502  0.13033431200E+03  0.51049754677E+01 -0.17606595181E+04  0.17654843620E+04  0.50400001928E-02 0.  1.
</event>
<event>
 5   0  0.7476457E-06  0.1699640E+04  0.7818609E-02  0.8761570E-01
        1   -1    0    0  501    0  0.00000000000E+00  0.00000000000E+00  0.16929061359E+04  0.16929061359E+04  0.50400001928E-02 0.  1.
       -1   -1    0    0    0  501  0.00000000000E+00  0.00000000000E+00 -0.42660000489E+03  0.42660000492E+03  0.50400001928E-02 0. -1.
    10030    2    1    2    0    0  0.00000000000E+00  0.00000000000E+00  0.12663061310E+04  0.21195061408E+04  0.16996396864E+04 0.  0.
        2    1    3    3  502    0  0.42524765561E+03  0.69500673058E+03  0.33199057681E+03  0.87982252031E+03  0.25500000920E-02 0.  1.
       -2    1    3    3    0  502 -0.42524765561E+03 -0.69500673058E+03  0.93431555422E+03  0.12396836205E+04  0.25500000920E-02 0. -1.
</event>
<event>
 5   0  0.7455669E-06  0.1700182E+04  0.7818609E-02  0.8761261E-01
       -1   -1    0    0    0  501  0.00000000000E+00  0.00000000000E+00  0.69909349100E+03  0.69909349102E+03  0.50400001928E-02 0.  1.
        1   -1    0    0  501    0  0.00000000000E+00  0.00000000000E+00 -0.10337019507E+04  0.10337019507E+04  0.50400001928E-02 0. -1.
    10030    2    1    2    0    0  0.00000000000E+00  0.00000000000E+00 -0.33460845966E+03  0.17327954417E+04  0.17001815260E+04 0.  0.
        4    1    3    3  502    0 -0.53052236621E+03 -0.17126335069E+03 -0.82138413361E+03  0.99270268670E+03  0.12699999809E+01 0. -1.
       -4    1    3    3    0  502  0.53052236621E+03  0.17126335069E+03  0.48677567395E+03  0.74009275499E+03  0.12699999809E+01 0.  1.
</event>
<event>
 5   0  0.7461128E-06  0.1700243E+04  0.7818609E-02  0.8761226E-01
        1   -1    0    0  501    0  0.00000000000E+00  0.00000000000E+00  0.39134144630E+03  0.39134144633E+03  0.50400001928E-02 0. -1.
       -1   -1    0    0    0  501  0.00000000000E+00  0.00000000000E+00 -0.18467408772E+04  0.18467408772E+04  0.50400001928E-02 0.  1.
    10030    2    1    2    0    0  0.00000000000E+00  0.00000000000E+00 -0.14553994309E+04  0.22380823235E+04  0.17002426249E+04 0.  0.
        3    1    3    3  502    0  0.45592032390E+03 -0.68911717964E+03 -0.46456381337E+03  0.94792688321E+03  0.10100000352E+00 0. -1.
       -3    1    3    3    0  502 -0.45592032390E+03  0.68911717964E+03 -0.99083561752E+03  0.12901554403E+04  0.10100000352E+00 0.  1.
</event>
<event>
 5   0  0.7455669E-06  0.1699423E+04  0.7818609E-02  0.8761694E-01
       -1   -1    0    0    0  501  0.00000000000E+00  0.00000000000E+00  0.11333118561E+04  0.11333118561E+04  0.50400001928E-02 0. -1.
        1   -1    0    0  501    0  0.00000000000E+00  0.00000000000E+00 -0.63707910277E+03  0.63707910279E+03  0.50400001928E-02 0.  1.
    10030    2    1    2    0    0  0.00000000000E+00  0.00000000000E+00  0.49623275330E+03  0.17703909589E+04  0.16994226084E+04 0.  0.
        4    1    3    3  502    0 -0.60799413570E+03 -0.59243101969E+03  0.28676421430E+03  0.89602829734E+03  0.12699999809E+01 0.  1.
       -4    1    3    3    0  502  0.60799413570E+03  0.59243101969E+03  0.20946853900E+03  0.87436266152E+03  0.12699999809E+01 0. -1.
</event>
<event>
 5   0  0.1435301E-05  0.1702921E+04  0.7818609E-02  0.8759700E-01
       -2   -1    0    0    0  501  0.00000000000E+00  0.00000000000E+00  0.71735033065E+03  0.71735033065E+03  0.25500000920E-02 0.  1.
        2   -1    0    0  501    0  0.00000000000E+00  0.00000000000E+00 -0.10106425392E+04  0.10106425392E+04  0.25500000920E-02 0. -1.
    10030    2    1    2    0    0  0.00000000000E+00  0.00000000000E+00 -0.29329220856E+03  0.17279928699E+04  0.17029207376E+04 0.  0.
        2    1    3    3  502    0 -0.25492554922E+03 -0.76747022739E+03  0.12371079434E+03  0.81810876185E+03  0.25500000920E-02 0.  1.
       -2    1    3    3    0  502  0.25492554922E+03  0.76747022739E+03 -0.41700300290E+03  0.90988410801E+03  0.25500000920E-02 0. -1.
</event>
<event>
 5   0  0.1374441E-05  0.1699989E+04  0.7818609E-02  0.8761371E-01
        2   -1    0    0  501    0  0.00000000000E+00  0.00000000000E+00  0.14345219327E+04  0.14345219327E+04  0.25500000920E-02 0. -1.
       -2   -1    0    0    0  501  0.00000000000E+00  0.00000000000E+00 -0.50364558324E+03  0.50364558324E+03  0.25500000920E-02 0.  1.
    10030    2    1    2    0    0  0.00000000000E+00  0.00000000000E+00  0.93087634949E+03  0.19381675160E+04  0.16999889829E+04 0.  0.
        1    1    3    3  502    0 -0.16724999691E+03  0.25355484018E+01  0.14155724159E+04  0.14254207292E+04  0.50400001928E-02 0. -1.
       -1    1    3    3    0  502  0.16724999691E+03 -0.25355484018E+01 -0.48469606645E+03  0.51274678676E+03  0.50400001928E-02 0.  1.
</event>
<event>
 5   0  0.7082527E-06  0.1699634E+04  0.7818609E-02  0.8761573E-01
       -1   -1    0    0    0  501  0.00000000000E+00  0.00000000000E+00  0.69842608483E+03  0.69842608485E+03  0.50400001928E-02 0. -1.
        1   -1    0    0  501    0  0.00000000000E+00  0.00000000000E+00 -0.10340236383E+04  0.10340236383E+04  0.50400001928E-02 0.  1.
    10030    2    1    2    0    0  0.00000000000E+00  0.00000000000E+00 -0.33559755346E+03  0.17324497232E+04  0.16996341740E+04 0.  0.
        1    1    3    3  502    0  0.43025799916E+03  0.45157912803E+03  0.42053097271E+03  0.75225790375E+03  0.50400001928E-02 0. -1.
       -1    1    3    3    0  502 -0.43025799916E+03 -0.45157912803E+03 -0.75612852617E+03  0.98019181941E+03  0.50400001928E-02 0.  1.
</event>
<event>
 5   0  0.1435301E-05  0.1700042E+04  0.7818609E-02  0.8761340E-01
       -2   -1    0    0    0  501  0.00000000000E+00  0.00000000000E+00  0.78195955588E+03  0.78195955588E+03  0.25500000920E-02 0. -1.
        2   -1    0    0  501    0  0.00000000000E+00  0.00000000000E+00 -0.92400666793E+03  0.92400666793E+03  0.25500000920E-02 0.  1.
    10030    2    1    2    0    0  0.00000000000E+00  0.00000000000E+00 -0.14204711205E+03  0.17059662238E+04  0.17000421685E+04 0.  0.
        2    1    3    3  502    0 -0.27333717426E+03 -0.58906212501E+03 -0.62141311216E+03  0.89881124488E+03  0.25500000920E-02 0.  1.
       -2    1    3    3    0  502  0.27333717426E+03  0.58906212501E+03  0.47936600011E+03  0.80715497894E+03  0.25500000920E-02 0. -1.
</event>
<event>
 5   0  0.7461128E-06  0.1697318E+04  0.7818609E-02  0.8762895E-01
        1   -1    0    0  501    0  0.00000000000E+00  0.00000000000E+00  0.90707789198E+03  0.90707789199E+03  0.50400001928E-02 0. -1.
       -1   -1    0    0    0  501  0.00000000000E+00  0.00000000000E+00 -0.79400277192E+03  0.79400277194E+03  0.50400001928E-02 0.  1.
    10030    2    1    2    0    0  0.00000000000E+00  0.00000000000E+00  0.11307512006E+03  0.17010806639E+04  0.16973183091E+04 0.  0.
        3    1    3    3  502    0 -0.87762517101E+02 -0.75401425603E+03  0.43682904982E+03  0.87581926598E+03  0.10100000352E+00 0. -1.
       -3    1    3    3    0  502  0.87762517101E+02  0.75401425603E+03 -0.32375392976E+03  0.82526139795E+03  0.10100000352E+00 0.  1.
</event>
<event>
 5   0  0.1374441E-05  0.1701424E+04  0.7818609E-02  0.8760553E-01
       -2   -1    0    0    0  501  0.00000000000E+00  0.00000000000E+00  0.10830328747E+04  0.10830328747E+04  0.25500000920E-02 0.  1.
        2   -1    0    0  501    0  0.00000000000E+00  0.00000000000E+00 -0.66822612138E+03  0.66822612139E+03  0.25500000920E-02 0. -1.
    10030    2    1    2    0    0  0.00000000000E+00  0.00000000000E+00  0.41480675331E+03  0.17512589961E+04  0.17014239415E+04 0.  0.
        1    1    3    3  502    0  0.14281080363E+03 -0.69156937401E+03  0.69569037482E+03  0.99128614554E+03  0.50400001928E-02 0.  1.
       -1    1    3    3    0  502 -0.14281080363E+03  0.69156937401E+03 -0.28088362151E+03  0.75997285054E+03  0.50400001928E-02 0. -1.
</event>
<event>
 5   0  0.7461128E-06  0.1698038E+04  0.7818609E-02  0.8762484E-01
       -1   -1    0    0    0  501  0.00000000000E+00  0.00000000000E+00  0.13149847348E+04  0.13149847348E+04  0.50400001928E-02 0.  1.
        1   -1    0    0  501    0  0.00000000000E+00  0.00000000000E+00 -0.54816881605E+03  0.54816881608E+03  0.50400001928E-02 0. -1.
    10030    2    1    2    0    0  0.00000000000E+00  0.00000000000E+00  0.76681591872E+03  0.18631535509E+04  0.16980384274E+04 0.  0.
        3    1    3    3  502    0 -0.59730960809E+03  0.60053102021E+03  0.44755037099E+03  0.95797579245E+03  0.10100000352E+00 0. -1.
       -3    1    3    3    0  502  0.59730960809E+03 -0.60053102021E+03  0.31926554774E+03  0.90517775841E+03  0.10100000352E+00 0.  1.
</event>
<event>
 5   0  0.1441756E-05  0.1694348E+04  0.7818609E-02  0.8764594E-01
        2   -1    0    0  501    0  0.00000000000E+00  0.00000000000E+00  0.73423817279E+03  0.73423817280E+03  0.25500000920E-02 0.  1.
       -2   -1    0    0    0  501  0.00000000000E+00  0.00000000000E+00 -0.97748120875E+03  0.97748120875E+03  0.25500000920E-02 0. -1.
    10030    2    1    2    0    0  0.00000000000E+00  0.00000000000E+00 -0.24324303596E+03  0.17117193815E+04  0.16943482719E+04 0.  0.
        5    1    3    3  502    0 -0.14373448420E+03  0.54584750052E+03 -0.75982029111E+03  0.94655061172E+03  0.46999998093E+01 0. -1.
       -5    1    3    3    0  502  0.14373448420E+03 -0.54584750052E+03  0.51657725516E+03  0.76516876982E+03  0.46999998093E+01 0.  1.
</event>
<event>
 5   0  0.1374441E-05  0.1699895E+04  0.7818609E-02  0.8761424E-01
        2   -1    0    0  501    0  0.00000000000E+00  0.00000000000E+00  0.13115013782E+04  0.13115013782E+04  0.25500000920E-02 0. -1.
       -2   -1    0    0    0  501  0.00000000000E+00  0.00000000000E+00 -0.55082723427E+03  0.55082723428E+03  0.25500000920E-02 0.  1.
    10030    2    1    2    0    0  0.00000000000E+00  0.00000000000E+00  0.76067414392E+03  0.18623286125E+04  0.16998949108E+04 0.  0.
        1    1    3    3  502    0 -0.67962670820E+03 -0.38661771853E+03  0.15260758383E+02  0.78204770542E+03  0.50400001928E-02 0.  1.
       -1    1    3    3    0  502  0.67962670820E+03  0.38661771853E+03  0.74541338554E+03  0.10802809071E+04  0.50400001928E-02 0. -1.
</event>
<event>
 5   0  0.7476457E-06  0.1701785E+04  0.7818609E-02  0.8760347E-01
       -1   -1    0    0    0  501  0.00000000000E+00  0.00000000000E+00  0.86014244872E+03  0.86014244874E+03  0.50400001928E-02 0. -1.
        1   -1    0    0  501    0  0.00000000000E+00  0.00000000000E+00 -0.84174214466E+03  0.84174214468E+03  0.50400001928E-02 0.  1.
    10030    2    1    2    0    0  0.00000000000E+00  0.00000000000E+00  0.18400304063E+02  0.17018845934E+04  0.17017851210E+04 0.  0.
        2    1    3    3  502    0 -0.42609145803E+02 -0.65872768801E+03 -0.52774877037E+03  0.84513695393E+03  0.25500000920E-02 0.  1.
       -2    1    3    3    0  502  0.42609145803E+02  0.65872768801E+03  0.54614907443E+03  0.85674763949E+03  0.25500000920E-02 0. -1.
</event>
<event>
 5   0  0.1435301E-05  0.1700591E+04  0.7818609E-02  0.8761028E-01
        2   -1    0    0  501    0  0.00000000000E+00  0.00000000000E+00  0.15650795794E+04  0.15650795794E+04  0.25500000920E-02 0. -1.
       -2   -1    0    0    0  501  0.00000000000E+00  0.00000000000E+00 -0.46195867227E+03  0.46195867228E+03  0.25500000920E-02 0.  1.
    10030    2    1    2    0    0  0.00000000000E+00  0.00000000000E+00  0.11031209072E+04  0.20270382517E+04  0.17005905851E+04 0.  0.
        2    1    3    3  502    0 -0.84291140807E+03 -0.40322864993E+02  0.42725020348E+03  0.94586907745E+03  0.25500000920E-02 0.  1.
       -2    1    3    3    0  502  0.84291140807E+03  0.40322864993E+02  0.67587070368E+03  0.10811691743E+04  0.25500000920E-02 0. -1.
</event>
<event>
 5   0  0.1374441E-05  0.1699384E+04  0.7818609E-02  0.8761716E-01
       -2   -1    0    0    0  501  0.00000000000E+00  0.00000000000E+00  0.12640871455E+04  0.12640871455E+04  0.25500000920E-02 0.  1.
        2   -1    0    0  501    0  0.00000000000E+00  0.00000000000E+00 -0.57114478580E+03  0.57114478580E+03  0.25500000920E-02 0. -1.
    10030    2    1    2    0    0  0.00000000000E+00  0.00000000000E+00  0.69294235975E+03  0.18352319314E+04  0.16993843379E+04 0.  0.
        1    1    3    3  502    0  0.75251380716E+03  0.16623670953E+03 -0.39997902816E+02  0.77169391977E+03  0.50400001928E-02 0. -1.
       -1    1    3    3    0  502 -0.75251380716E+03 -0.16623670953E+03  0.73294026256E+03  0.10635380116E+04  0.50400001928E-02 0.  1.
</event>
<event>
 5   0  0.7476457E-06  0.1699802E+04  0.7818609E-02  0.8761477E-01
       -1   -1    0    0    0  501  0.00000000000E+00  0.00000000000E+00  0.78793607030E+03  0.78793607031E+03  0.50400001928E-02 0. -1.
        1   -1    0    0  501    0  0.00000000000E+00  0.00000000000E+00 -0.91673945746E+03  0.91673945748E+03  0.50400001928E-02 0.  1.
    10030    2    1    2    0    0  0.00000000000E+00  0.00000000000E+00 -0.12880338717E+03  0.17046755278E+04  0.16998024422E+04 0.  0.
        2    1    3    3  502    0 -0.49717745940E+03  0.68907990731E+03 -0.82216087671E+02  0.85368379970E+03  0.25500000920E-02 0.  1.
       -2    1    3    3    0  502  0.49717745940E+03 -0.68907990731E+03 -0.46587299495E+02  0.85099172809E+03  0.25500000920E-02 0. -1.
</event>
<event>
 5   0  0.7455669E-06  0.1700216E+04  0.7818609E-02  0.8761241E-01
       -1   -1    0    0    0  501  0.00000000000E+00  0.00000000000E+00  0.68902509185E+03  0.68902509187E+03  0.50400001928E-02 0. -1.
        1   -1    0    0  501    0  0.00000000000E+00  0.00000000000E+00 -0.10488492617E+04  0.10488492618E+04  0.50400001928E-02 0.  1.
    10030    2    1    2    0    0  0.00000000000E+00  0.00000000000E+00 -0.35982416989E+03  0.17378743536E+04  0.17002158203E+04 0.  0.
        4    1    3    3  502    0  0.45726697997E+02 -0.43586083492E+03 -0.92448047273E+03  0.10230988983E+04  0.12699999809E+01 0.  1.
       -4    1    3    3    0  502 -0.45726697997E+02  0.43586083492E+03  0.56465630283E+03  0.71477545534E+03  0.12699999809E+01 0. -1.
</event>
<event>
 5   0  0.1441756E-05  0.1700531E+04  0.7818609E-02  0.8761062E-01
       -2   -1    0    0    0  501  0.00000000000E+00  0.00000000000E+00  0.43226398294E+03  0.43226398294E+03  0.25500000920E-02 0. -1.
        2   -1    0    0  501    0  0.00000000000E+00  0.00000000000E+00 -0.16724766097E+04  0.16724766098E+04  0.25500000920E-02 0.  1.
    10030    2    1    2    0    0  0.00000000000E+00  0.00000000000E+00 -0.12402126268E+04  0.21047405927E+04  0.17005309767E+04 0.  0.
        5    1    3    3  502    0  0.55874783928E+03 -0.47638168484E+03 -0.11507166918E+04  0.13650310078E+04  0.46999998093E+01 0. -1.
       -5    1    3    3    0  502 -0.55874783928E+03  0.47638168484E+03 -0.89495935004E+02  0.73970958486E+03  0.46999998093E+01 0.  1.
</event>
<event>
 5   0  0.7461128E-06  0.1699483E+04  0.7818609E-02  0.8761659E-01
        1   -1    0    0  501    0  0.00000000000E+00  0.00000000000E+00  0.79817039764E+03  0.79817039766E+03  0.50400001928E-02 0. -1.
       -1   -1    0    0    0  501  0.00000000000E+00  0.00000000000E+00 -0.90464516739E+03  0.90464516741E+03  0.50400001928E-02 0.  1.
    10030    2    1    2    0    0  0.00000000000E+00  0.00000000000E+00 -0.10647476975E+03  0.17028155651E+04  0.16994834427E+04 0.  0.
        3    1    3    3  502    0 -0.65222145796E+03 -0.53284754559E+03 -0.16633760144E+03  0.85847978714E+03  0.10100000352E+00 0. -1.
       -3    1    3    3    0  502  0.65222145796E+03  0.53284754559E+03  0.59862831693E+02  0.84433577793E+03  0.10100000352E+00 0.  1.
</event>
<event>
 5   0  0.7461128E-06  0.1693428E+04  0.7818609E-02  0.8765122E-01
       -1   -1    0    0    0  501  0.00000000000E+00  0.00000000000E+00  0.13434416660E+04  0.13434416660E+04  0.50400001928E-02 0.  1.
        1   -1    0    0  501    0  0.00000000000E+00  0.00000000000E+00 -0.53364755254E+03  0.53364755257E+03  0.50400001928E-02 0. -1.
    10030    2    1    2    0    0  0.00000000000E+00  0.00000000000E+00  0.80979411344E+03  0.18770892186E+04  0.16934277157E+04 0.  0.
        3    1    3    3  502    0  0.29357420773E+03  0.15898438588E+03 -0.45760844784E+03  0.56645154439E+03  0.10100000352E+00 0. -1.
       -3    1    3    3    0  502 -0.29357420773E+03 -0.15898438588E+03  0.12674025613E+04  0.13106376742E+04  0.10100000352E+00 0.  1.
</event>
<event>
 5   0  0.1423543E-05  0.1700044E+04  0.7818609E-02  0.8761339E-01
       -2   -1    0    0    0  501  0.00000000000E+00  0.00000000000E+00  0.58698346299E+03  0.58698346300E+03  0.25500000920E-02 0. -1.
        2   -1    0    0  501    0  0.00000000000E+00  0.00000000000E+00 -0.12309333172E+04  0.12309333172E+04  0.25500000920E-02 0.  1.
    10030    2    1    2    0    0  0.00000000000E+00  0.00000000000E+00 -0.64394985426E+03  0.18179167802E+04  0.17000441186E+04 0.  0.
        3    1    3    3  502    0  0.87965017070E+02 -0.30173101790E+03  0.52256830208E+03  0.60980086252E+03  0.10100000352E+00 0. -1.
       -3    1    3    3    0  502 -0.87965017070E+02  0.30173101790E+03 -0.11665181563E+04  0.12081159177E+04  0.10100000352E+00 0.  1.
</event>
<event>
 5   0  0.1441756E-05  0.1700557E+04  0.7818609E-02  0.8761047E-01
       -2   -1    0    0    0  501  0.00000000000E+00  0.00000000000E+00  0.61639774779E+03  0.61639774779E+03  0.25500000920E-02 0.  1.
        2   -1    0    0  501    0  0.00000000000E+00  0.00000000000E+00 -0.11729007689E+04  0.11729007689E+04  0.25500000920E-02 0. -1.
    10030    2    1    2    0    0  0.00000000000E+00  0.00000000000E+00 -0.55650302113E+03  0.17892985167E+04  0.17005568410E+04 0.  0.
        5    1    3    3  502    0  0.68261786710E+03  0.28118232420E+03 -0.72206942462E+03  0.10326843641E+04  0.46999998093E+01 0. -1.
       -5    1    3    3    0  502 -0.68261786710E+03 -0.28118232420E+03  0.16556640349E+03  0.75661415259E+03  0.46999998093E+01 0.  1.
</event>
<event>
 5   0  0.7583716E-06  0.1696241E+04  0.7818609E-02  0.8763511E-01
        1   -1    0    0  501    0  0.00000000000E+00  0.00000000000E+00  0.16453353612E+04  0.16453353612E+04  0.50400001928E-02 0.  1.
       -1   -1    0    0    0  501  0.00000000000E+00  0.00000000000E+00 -0.43718064964E+03  0.43718064966E+03  0.50400001928E-02 0. -1.
    10030    2    1    2    0    0  0.00000000000E+00  0.00000000000E+00  0.12081547115E+04  0.20825160108E+04  0.16962414711E+04 0.  0.
        5    1    3    3  502    0 -0.61219363261E+03 -0.40881414706E+03  0.87007897833E+02  0.74128436846E+03  0.46999998093E+01 0. -1.
       -5    1    3    3    0  502  0.61219363261E+03  0.40881414706E+03  0.11211468137E+04  0.13412316424E+04  0.46999998093E+01 0.  1.
</event>
<event>
 5   0  0.7476457E-06  0.1701620E+04  0.7818609E-02  0.8760441E-01
        1   -1    0    0  501    0  0.00000000000E+00  0.00000000000E+00  0.33399879000E+03  0.33399879004E+03  0.50400001928E-02 0. -1.
       -1   -1    0    0    0  501  0.00000000000E+00  0.00000000000E+00 -0.21673072272E+04  0.21673072272E+04  0.50400001928E-02 0.  1.
    10030    2    1    2    0    0  0.00000000000E+00  0.00000000000E+00 -0.18333084372E+04  0.25013060173E+04  0.17016203942E+04 0.  0.
        2    1    3    3  502    0 -0.45022153669E+03  0.16910819058E+03 -0.19483293566E+04  0.20068094813E+04  0.25500000920E-02 0.  1.
       -2    1    3    3    0  502  0.45022153669E+03 -0.16910819058E+03  0.11502091939E+03  0.49449653601E+03  0.25500000920E-02 0. -1.
</event>
<event>
 5   0  0.1419012E-05  0.1699442E+04  0.7818609E-02  0.8761683E-01
        2   -1    0    0  501    0  0.00000000000E+00  0.00000000000E+00  0.81096885867E+03  0.81096885868E+03  0.25500000920E-02 0. -1.
       -2   -1    0    0    0  501  0.00000000000E+00  0.00000000000E+00 -0.89032514305E+03  0.89032514305E+03  0.25500000920E-02 0.  1.
    10030    2    1    2    0    0  0.00000000000E+00  0.00000000000E+00 -0.79356284378E+02  0.17012940017E+04  0.16994422204E+04 0.  0.
        4    1    3    3  502    0 -0.57598518812E+03 -0.41411683026E+03 -0.50791920522E+03  0.87248794718E+03  0.12699999809E+01 0.  1.
       -4    1    3    3    0  502  0.57598518812E+03  0.41411683026E+03  0.42856292084E+03  0.82880605455E+03  0.12699999809E+01 0. -1.
</event>
<event>
 5   0  0.1441756E-05  0.1700919E+04  0.7818609E-02  0.8760840E-01
       -2   -1    0    0    0  501  0.00000000000E+00  0.00000000000E+00  0.54365674917E+03  0.54365674918E+03  0.25500000920E-02 0. -1.
        2   -1    0    0  501    0  0.00000000000E+00  0.00000000000E+00 -0.13304014263E+04  0.13304014263E+04  0.25500000920E-02 0.  1.
    10030    2    1    2    0    0  0.00000000000E+00  0.00000000000E+00 -0.78674467709E+03  0.18740581754E+04  0.17009194155E+04 0.  0.
        5    1    3    3  502    0 -0.67796395228E+03  0.44761231411E+03 -0.67050672920E+03  0.10533723312E+04  0.46999998093E+01 0.  1.
       -5    1    3    3    0  502  0.67796395228E+03 -0.44761231411E+03 -0.11623794788E+03  0.82068584419E+03  0.46999998093E+01 0. -1.
</event>
<event>
 5   0  0.7082527E-06  0.1699911E+04  0.7818609E-02  0.8761415E-01
       -1   -1    0    0    0  501  0.00000000000E+00  0.00000000000E+00  0.10308168479E+04  0.10308168479E+04  0.50400001928E-02 0. -1.
        1   -1    0    0  501    0  0.00000000000E+00  0.00000000000E+00 -0.70082719661E+03  0.70082719663E+03  0.50400001928E-02 0.  1.
    10030    2    1    2    0    0  0.00000000000E+00  0.00000000000E+00  0.32998965129E+03  0.17316440445E+04  0.16999111527E+04 0.  0.
        1    1    3    3  502    0 -0.24027833556E+03 -0.12165291468E+03 -0.65621244521E+03  0.70932917849E+03  0.50400001928E-02 0.  1.
       -1    1    3    3    0  502  0.24027833556E+03  0.12165291468E+03  0.98620209650E+03  0.10223148661E+04  0.50400001928E-02 0. -1.
</event>
<event>
 5   0  0.1435301E-05  0.1700712E+04  0.7818609E-02  0.8760958E-01
        2   -1    0    0  501    0  0.00000000000E+00  0.00000000000E+00  0.15958851342E+04  0.15958851342E+04  0.25500000920E-02 0. -1.
       -2   -1    0    0    0  501  0.00000000000E+00  0.00000000000E+00 -0.45310607784E+03  0.45310607785E+03  0.25500000920E-02 0.  1.
    10030    2    1    2    0    0  0.00000000000E+00  0.00000000000E+00  0.11427790564E+04  0.20489912121E+04  0.17007119143E+04 0.  0.
        2    1    3    3  502    0 -0.25952287223E+03  0.68714791507E+03  0.55183514259E+02  0.73659323826E+03  0.25500000920E-02 0.  1.
       -2    1    3    3    0  502  0.25952287223E+03 -0.68714791507E+03  0.10875955421E+04  0.13123979738E+04  0.25500000920E-02 0. -1.
</event>
<event>
 5   0  0.7476457E-06  0.1700444E+04  0.7818609E-02  0.8761111E-01
       -1   -1    0    0    0  501  0.00000000000E+00  0.00000000000E+00  0.75754113042E+03  0.75754113044E+03  0.50400001928E-02 0. -1.
        1   -1    0    0  501    0  0.00000000000E+00  0.00000000000E+00 -0.95424206759E+03  0.95424206760E+03  0.50400001928E-02 0.  1.
    10030    2    1    2    0    0  0.00000000000E+00  0.00000000000E+00 -0.19670093717E+03  0.17117831980E+04  0.17004441944E+04 0.  0.
        2    1    3    3  502    0 -0.34653879710E+03  0.33879194291E+03 -0.80158480406E+03  0.93670022770E+03  0.25500000920E-02 0.  1.
       -2    1    3    3    0  502  0.34653879710E+03 -0.33879194291E+03  0.60488386689E+03  0.77508297034E+03  0.25500000920E-02 0. -1.
</event>
<event>
 5   0  0.1374441E-05  0.1699103E+04  0.7818609E-02  0.8761876E-01
        2   -1    0    0  501    0  0.00000000000E+00  0.00000000000E+00  0.50171005826E+03  0.50171005826E+03  0.25500000920E-02 0.  1.
       -2   -1    0    0    0  501  0.00000000000E+00  0.00000000000E+00 -0.14385559464E+04  0.14385559464E+04  0.25500000920E-02 0. -1.
    10030    2    1    2    0    0  0.00000000000E+00  0.00000000000E+00 -0.93684588818E+03  0.19402660047E+04  0.16991032784E+04 0.  0.
        1    1    3    3  502    0 -0.67816193372E+03  0.20187314670E+03 -0.10053531145E+04  0.12293865383E+04  0.50400001928E-02 0.  1.
       -1    1    3    3    0  502  0.67816193372E+03 -0.20187314670E+03  0.68507226287E+02  0.71087946642E+03  0.50400001928E-02 0. -1.
</event>
<event>
 5   0  0.7461128E-06  0.1708741E+04  0.7818609E-02  0.8756395E-01
       -1   -1    0    0    0  501  0.00000000000E+00  0.00000000000E+00  0.82378943067E+03  0.82378943068E+03  0.50400001928E-02 0.  1.
        1   -1    0    0  501    0  0.00000000000E+00  0.00000000000E+00 -0.88608639207E+03  0.88608639209E+03  0.50400001928E-02 0. -1.
    10030    2    1    2    0    0  0.00000000000E+00  0.00000000000E+00 -0.62296961405E+02  0.17098758228E+04  0.17087405941E+04 0.  0.
        3    1    3    3  502    0  0.21305082448E+03 -0.36159069159E+03  0.71353012216E+03  0.82780657614E+03  0.10100000352E+00 0.  1.
       -3    1    3    3    0  502 -0.21305082448E+03  0.36159069159E+03 -0.77582708357E+03  0.88206924663E+03  0.10100000352E+00 0. -1.
</event>
<event>
 5   0  0.7461128E-06  0.1699553E+04  0.7818609E-02  0.8761619E-01
        1   -1    0    0  501    0  0.00000000000E+00  0.00000000000E+00  0.79522312405E+03  0.79522312406E+03  0.50400001928E-02 0. -1.
       -1   -1    0    0    0  501  0.00000000000E+00  0.00000000000E+00 -0.90807220859E+03  0.90807220860E+03  0.50400001928E-02 0.  1.
    10030    2    1    2    0    0  0.00000000000E+00  0.00000000000E+00 -0.11284908454E+03  0.17032953327E+04  0.16995529043E+04 0.  0.
        3    1    3    3  502    0 -0.64876350617E+03  0.28257091265E+03 -0.52797054569E+03  0.88288918610E+03  0.10100000352E+00 0.  1.
       -3    1    3    3    0  502  0.64876350617E+03 -0.28257091265E+03  0.41512146115E+03  0.82040614656E+03  0.10100000352E+00 0. -1.
</event>
<event>
 5   0  0.1419012E-05  0.1699132E+04  0.7818609E-02  0.8761860E-01
       -2   -1    0    0    0  501  0.00000000000E+00  0.00000000000E+00  0.36150407905E+03  0.36150407906E+03  0.25500000920E-02 0. -1.
        2   -1    0    0  501    0  0.00000000000E+00  0.00000000000E+00 -0.19965541306E+04  0.19965541306E+04  0.25500000920E-02 0.  1.
    10030    2    1    2    0    0  0.00000000000E+00  0.00000000000E+00 -0.16350500516E+04  0.23580582097E+04  0.16991320870E+04 0.  0.
        4    1    3    3  502    0  0.83920723491E+03 -0.53377342536E+02 -0.98546006019E+03  0.12954732984E+04  0.12699999809E+01 0. -1.
       -4    1    3    3    0  502 -0.83920723491E+03  0.53377342536E+02 -0.64958999139E+03  0.10625849113E+04  0.12699999809E+01 0.  1.
</event>
<event>
 5   0  0.1374441E-05  0.1697630E+04  0.7818609E-02  0.8762717E-01
        2   -1    0    0  501    0  0.00000000000E+00  0.00000000000E+00  0.22314180672E+04  0.22314180672E+04  0.25500000920E-02 0. -1.
       -2   -1    0    0    0  501  0.00000000000E+00  0.00000000000E+00 -0.32288304078E+03  0.32288304079E+03  0.25500000920E-02 0.  1.
    10030    2    1    2    0    0  0.00000000000E+00  0.00000000000E+00  0.19085350264E+04  0.25543011080E+04  0.16976301727E+04 0.  0.
        1    1    3    3  502    0  0.12810948584E+02 -0.15336042977E+03  0.22102516977E+04  0.22156028771E+04  0.50400001928E-02 0. -1.
       -1    1    3    3    0  502 -0.12810948584E+02  0.15336042977E+03 -0.30171667130E+03  0.33869823087E+03  0.50400001928E-02 0.  1.
</event>
<event>
 5   0  0.5229750E-06  0.1700741E+04  0.7818609E-02  0.8760942E-01
        4   -1    0    0  501    0  0.00000000000E+00  0.00000000000E+00  0.10031391885E+04  0.10031399925E+04  0.12699999809E+01 0. -1.
       -4   -1    0    0    0  501  0.00000000000E+00  0.00000000000E+00 -0.72086577351E+03  0.72086689224E+03  0.12699999809E+01 0.  1.
    10030    2    1    2    0    0  0.00000000000E+00  0.00000000000E+00  0.28227341503E+03  0.17240068847E+04  0.17007414435E+04 0.  0.
        4    1    3    3  502    0  0.60356959340E+03  0.29706460268E+03 -0.38615708131E+03  0.77566908962E+03  0.12699999809E+01 0.  1.
       -4    1    3    3    0  502 -0.60356959340E+03 -0.29706460268E+03  0.66843049634E+03  0.94833779508E+03  0.12699999809E+01 0. -1.
</event>
<event>
 5   0  0.7455669E-06  0.1700697E+04  0.7818609E-02  0.8760967E-01
       -1   -1    0    0    0  501  0.00000000000E+00  0.00000000000E+00  0.31818834961E+04  0.31818834961E+04  0.50400001928E-02 0.  1.
        1   -1    0    0  501    0  0.00000000000E+00  0.00000000000E+00 -0.22725311545E+03  0.22725311550E+03  0.50400001928E-02 0. -1.
    10030    2    1    2    0    0  0.00000000000E+00  0.00000000000E+00  0.29546303807E+04  0.34091366116E+04  0.17006974306E+04 0.  0.
        4    1    3    3  502    0  0.13493525837E+03  0.50556650031E+03  0.28209428764E+04  0.28690634945E+04  0.12699999809E+01 0.  1.
       -4    1    3    3    0  502 -0.13493525837E+03 -0.50556650031E+03  0.13368750422E+03  0.54007311715E+03  0.12699999809E+01 0. -1.
</event>
<event>
 5   0  0.7583716E-06  0.1700252E+04  0.7818609E-02  0.8761221E-01
        1   -1    0    0  501    0  0.00000000000E+00  0.00000000000E+00  0.81779232146E+03  0.81779232147E+03  0.50400001928E-02 0. -1.
       -1   -1    0    0    0  501  0.00000000000E+00  0.00000000000E+00 -0.88373811732E+03  0.88373811733E+03  0.50400001928E-02 0.  1.
    10030    2    1    2    0    0  0.00000000000E+00  0.00000000000E+00 -0.65945795860E+02  0.17015304388E+04  0.17002520361E+04 0.  0.
        5    1    3    3  502    0  0.64925741413E+03  0.14388643877E+03  0.49700404376E+03  0.83022503369E+03  0.46999998093E+01 0. -1.
       -5    1    3    3    0  502 -0.64925741413E+03 -0.14388643877E+03 -0.56294983962E+03  0.87130540512E+03  0.46999998093E+01 0.  1.
</event>
<event>
 5   0  0.1435301E-05  0.1700038E+04  0.7818609E-02  0.8761343E-01
       -2   -1    0    0    0  501  0.00000000000E+00  0.00000000000E+00  0.39931434042E+03  0.39931434043E+03  0.25500000920E-02 0.  1.
        2   -1    0    0  501    0  0.00000000000E+00  0.00000000000E+00 -0.18094322206E+04  0.18094322206E+04  0.25500000920E-02 0. -1.
    10030    2    1    2    0    0  0.00000000000E+00  0.00000000000E+00 -0.14101178802E+04  0.22087465611E+04  0.17000379216E+04 0.  0.
        2    1    3    3  502    0 -0.46720499088E+03 -0.35611144696E+03 -0.15032542090E+04  0.16139606820E+04  0.25500000920E-02 0. -1.
       -2    1    3    3    0  502  0.46720499088E+03  0.35611144696E+03  0.93136328803E+02  0.59478587904E+03  0.25500000920E-02 0.  1.
</event>
<event>
 5   0  0.7455669E-06  0.1699341E+04  0.7818609E-02  0.8761740E-01
       -1   -1    0    0    0  501  0.00000000000E+00  0.00000000000E+00  0.57518933783E+03  0.57518933786E+03  0.50400001928E-02 0. -1.
        1   -1    0    0  501    0  0.00000000000E+00  0.00000000000E+00 -0.12551341432E+04  0.12551341432E+04  0.50400001928E-02 0.  1.
    10030    2    1    2    0    0  0.00000000000E+00  0.00000000000E+00 -0.67994480535E+03  0.18303234811E+04  0.16993407860E+04 0.  0.
        4    1    3    3  502    0  0.30340111868E+03  0.45487133914E+03  0.36052455699E+03  0.65493491515E+03  0.12699999809E+01 0. -1.
       -4    1    3    3    0  502 -0.30340111868E+03 -0.45487133914E+03 -0.10404693623E+04  0.11753885659E+04  0.12699999809E+01 0.  1.
</event>
<event>
 5   0  0.1441756E-05  0.1704544E+04  0.7818609E-02  0.8758777E-01
       -2   -1    0    0    0  501  0.00000000000E+00  0.00000000000E+00  0.10252897255E+04  0.10252897255E+04  0.25500000920E-02 0.  1.
        2   -1    0    0  501    0  0.00000000000E+00  0.00000000000E+00 -0.70845070687E+03  0.70845070687E+03  0.25500000920E-02 0. -1.
    10030    2    1    2    0    0  0.00000000000E+00  0.00000000000E+00  0.31683901863E+03  0.17337404324E+04  0.17045436114E+04 0.  0.
        5    1    3    3  502    0 -0.81716014903E+03  0.22362150240E+03  0.64161487984E+02  0.84964467399E+03  0.46999998093E+01 0. -1.
       -5    1    3    3    0  502  0.81716014903E+03 -0.22362150240E+03  0.25267753065E+03  0.88409575839E+03  0.46999998093E+01 0.  1.
</event>
<event>
 5   0  0.7583716E-06  0.1698940E+04  0.7818609E-02  0.8761969E-01
       -1   -1    0    0    0  501  0.00000000000E+00  0.00000000000E+00  0.10149009185E+04  0.10149009185E+04  0.50400001928E-02 0.  1.
        1   -1    0    0  501    0  0.00000000000E+00  0.00000000000E+00 -0.71100485232E+03  0.71100485234E+03  0.50400001928E-02 0. -1.
    10030    2    1    2    0    0  0.00000000000E+00  0.00000000000E+00  0.30389606615E+03  0.17259057708E+04  0.16989402317E+04 0.  0.
        5    1    3    3  502    0  0.27869991437E+03 -0.25727998361E+03  0.92408475349E+03  0.99891008298E+03  0.46999998093E+01 0.  1.
       -5    1    3    3    0  502 -0.27869991437E+03  0.25727998361E+03 -0.62018868734E+03  0.72699568784E+03  0.46999998093E+01 0. -1.
</event>
<event>
 5   0  0.7082527E-06  0.1700320E+04  0.7818609E-02  0.8761182E-01
        1   -1    0    0  501    0  0.00000000000E+00  0.00000000000E+00  0.24330269066E+04  0.24330269066E+04  0.50400001928E-02 0. -1.
       -1   -1    0    0    0  501  0.00000000000E+00  0.00000000000E+00 -0.29706713963E+03  0.29706713967E+03  0.50400001928E-02 0.  1.
    10030    2    1    2    0    0  0.00000000000E+00  0.00000000000E+00  0.21359597669E+04  0.27300940462E+04  0.17003203743E+04 0.  0.
        1    1    3    3  502    0 -0.31074911120E+03 -0.51367557902E+03  0.10146660366E+03  0.60887033290E+03  0.50400001928E-02 0.  1.
       -1    1    3    3    0  502  0.31074911120E+03  0.51367557902E+03  0.20344931633E+04  0.21212237133E+04  0.50400001928E-02 0. -1.
</event>
<event>
 5   0  0.1435301E-05  0.1701016E+04  0.7818609E-02  0.8760785E-01
       -2   -1    0    0    0  501  0.00000000000E+00  0.00000000000E+00  0.55917149845E+03  0.55917149845E+03  0.25500000920E-02 0.  1.
        2   -1    0    0  501    0  0.00000000000E+00  0.00000000000E+00 -0.12936349741E+04  0.12936349741E+04  0.25500000920E-02 0. -1.
    10030    2    1    2    0    0  0.00000000000E+00  0.00000000000E+00 -0.73446347563E+03  0.18528064725E+04  0.17010159399E+04 0.  0.
        2    1    3    3  502    0 -0.47489053986E+03 -0.59743100783E+03 -0.77612166355E+03  0.10884896282E+04  0.25500000920E-02 0.  1.
       -2    1    3    3    0  502  0.47489053986E+03  0.59743100783E+03  0.41658187917E+02  0.76431684438E+03  0.25500000920E-02 0. -1.
</event>
<event>
 5   0  0.7583716E-06  0.1699668E+04  0.7818609E-02  0.8761554E-01
        1   -1    0    0  501    0  0.00000000000E+00  0.00000000000E+00  0.16787442751E+04  0.16787442751E+04  0.50400001928E-02 0. -1.
       -1   -1    0    0    0  501  0.00000000000E+00  0.00000000000E+00 -0.43021298353E+03  0.43021298356E+03  0.50400001928E-02 0.  1.
    10030    2    1    2    0    0  0.00000000000E+00  0.00000000000E+00  0.12485312916E+04  0.21089572587E+04  0.16996677125E+04 0.  0.
        5    1    3    3  502    0  0.67260386040E+03  0.41880283466E+03  0.24302576834E+03  0.82877945282E+03  0.46999998093E+01 0. -1.
       -5    1    3    3    0  502 -0.67260386040E+03 -0.41880283466E+03  0.10055055233E+04  0.12801778059E+04  0.46999998093E+01 0.  1.
</event>
<event>
 5   0  0.1374441E-05  0.1700570E+04  0.7818609E-02  0.8761040E-01
        2   -1    0    0  501    0  0.00000000000E+00  0.00000000000E+00  0.94095039562E+03  0.94095039562E+03  0.25500000920E-02 0.  1.
       -2   -1    0    0    0  501  0.00000000000E+00  0.00000000000E+00 -0.76835529276E+03  0.76835529277E+03  0.25500000920E-02 0. -1.
    10030    2    1    2    0    0  0.00000000000E+00  0.00000000000E+00  0.17259510285E+03  0.17093056884E+04  0.17005695713E+04 0.  0.
        1    1    3    3  502    0  0.50720978974E+03  0.32483332537E+03  0.68955217423E+03  0.91556576011E+03  0.50400001928E-02 0.  1.
       -1    1    3    3    0  502 -0.50720978974E+03 -0.32483332537E+03 -0.51695707138E+03  0.79373992828E+03  0.50400001928E-02 0. -1.
</event>
<event>
 5   0  0.7082527E-06  0.1699972E+04  0.7818609E-02  0.8761380E-01
        1   -1    0    0  501    0  0.00000000000E+00  0.00000000000E+00  0.61627283947E+03  0.61627283949E+03  0.50400001928E-02 0.  1.
       -1   -1    0    0    0  501  0.00000000000E+00  0.00000000000E+00 -0.11723318440E+04  0.11723318440E+04  0.50400001928E-02 0. -1.
    10030    2    1    2    0    0  0.00000000000E+00  0.00000000000E+00 -0.55605900449E+03  0.17886046835E+04  0.16999720872E+04 0.  0.
        1    1    3    3  502    0 -0.66778634894E+03  0.39664973108E+02 -0.82973939708E+03  0.10658233367E+04  0.50400001928E-02 0. -1.
       -1    1    3    3    0  502  0.66778634894E+03 -0.39664973108E+02  0.27368039259E+03  0.72278134677E+03  0.50400001928E-02 0.  1.
</event>
<event>
 5   0  0.7476457E-06  0.1701053E+04  0.7818609E-02  0.8760764E-01
       -1   -1    0    0    0  501  0.00000000000E+00  0.00000000000E+00  0.51069015504E+03  0.51069015506E+03  0.50400001928E-02 0.  1.
        1   -1    0    0  501    0  0.00000000000E+00  0.00000000000E+00 -0.14165057247E+04  0.14165057247E+04  0.50400001928E-02 0. -1.
    10030    2    1    2    0    0  0.00000000000E+00  0.00000000000E+00 -0.90581556965E+03  0.19271958798E+04  0.17010532363E+04 0.  0.
        2    1    3    3  502    0 -0.29040172355E+03 -0.12855880397E+03  0.44099407312E+03  0.54344852530E+03  0.25500000920E-02 0.  1.
       -2    1    3    3    0  502  0.29040172355E+03  0.12855880397E+03 -0.13468096428E+04  0.13837473545E+04  0.25500000920E-02 0. -1.
</event>
<event>
 5   0  0.1419012E-05  0.1699780E+04  0.7818609E-02  0.8761490E-01
        2   -1    0    0  501    0  0.00000000000E+00  0.00000000000E+00  0.13903574377E+04  0.13903574377E+04  0.25500000920E-02 0. -1.
       -2   -1    0    0    0  501  0.00000000000E+00  0.00000000000E+00 -0.51951633312E+03  0.51951633312E+03  0.25500000920E-02 0.  1.
    10030    2    1    2    0    0  0.00000000000E+00  0.00000000000E+00  0.87084110455E+03  0.19098737708E+04  0.16997804538E+04 0.  0.
        4    1    3    3  502    0  0.60496692570E+03 -0.54991768706E+03  0.69632174658E+03  0.10738994513E+04  0.12699999809E+01 0. -1.
       -4    1    3    3    0  502 -0.60496692570E+03  0.54991768706E+03  0.17451935797E+03  0.83597431955E+03  0.12699999809E+01 0.  1.
</event>
<event>
 5   0  0.1435301E-05  0.1700228E+04  0.7818609E-02  0.8761234E-01
       -2   -1    0    0    0  501  0.00000000000E+00  0.00000000000E+00  0.35175391029E+03  0.35175391030E+03  0.25500000920E-02 0.  1.
        2   -1    0    0  501    0  0.00000000000E+00  0.00000000000E+00 -0.20545439868E+04  0.20545439868E+04  0.25500000920E-02 0. -1.
    10030    2    1    2    0    0  0.00000000000E+00  0.00000000000E+00 -0.17027900765E+04  0.24062978971E+04  0.17002280803E+04 0.  0.
        2    1    3    3  502    0 -0.41355484955E+03  0.24566629871E+02  0.19921787364E+03  0.45969434853E+03  0.25500000920E-02 0.  1.
       -2    1    3    3    0  502  0.41355484955E+03 -0.24566629871E+02 -0.19020079501E+04  0.19466035485E+04  0.25500000920E-02 0. -1.
</event>
<event>
 5   0  0.1419012E-05  0.1701709E+04  0.7818609E-02  0.8760390E-01
        2   -1    0    0  501    0  0.00000000000E+00  0.00000000000E+00  0.69642826294E+03  0.69642826295E+03  0.25500000920E-02 0.  1.
       -2   -1    0    0    0  501  0.00000000000E+00  0.00000000000E+00 -0.10395233907E+04  0.10395233907E+04  0.25500000920E-02 0. -1.
    10030    2    1    2    0    0  0.00000000000E+00  0.00000000000E+00 -0.34309512777E+03  0.17359516537E+04  0.17017091047E+04 0.  0.
        4    1    3    3  502    0  0.17372110888E+03  0.49328600262E+03 -0.85620230995E+03  0.10032916388E+04  0.12699999809E+01 0.  1.
       -4    1    3    3    0  502 -0.17372110888E+03 -0.49328600262E+03  0.51310718218E+03  0.73266001485E+03  0.12699999809E+01 0. -1.
</event>
<event>
 5   0  0.7476457E-06  0.1699895E+04  0.7818609E-02  0.8761424E-01
        1   -1    0    0  501    0  0.00000000000E+00  0.00000000000E+00  0.92422049396E+03  0.92422049397E+03  0.50400001928E-02 0.  1.
       -1   -1    0    0    0  501  0.00000000000E+00  0.00000000000E+00 -0.78164341804E+03  0.78164341806E+03  0.50400001928E-02 0. -1.
    10030    2    1    2    0    0  0.00000000000E+00  0.00000000000E+00  0.14257707592E+03  0.17058639120E+04  0.16998951332E+04 0.  0.
        2    1    3    3  502    0  0.62516930692E+03  0.33185205369E+02  0.64817481358E+03  0.90114843902E+03  0.25500000920E-02 0.  1.
       -2    1    3    3    0  502 -0.62516930692E+03 -0.33185205369E+02 -0.50559773767E+03  0.80471547302E+03  0.25500000920E-02 0. -1.
</event>
<event>
 5   0  0.1374441E-05  0.1699689E+04  0.7818609E-02  0.8761541E-01
        2   -1    0    0  501    0  0.00000000000E+00  0.00000000000E+00  0.31585857574E+03  0.31585857575E+03  0.25500000920E-02 0. -1.
       -2   -1    0    0    0  501  0.00000000000E+00  0.00000000000E+00 -0.22865804856E+04  0.22865804856E+04  0.25500000920E-02 0.  1.
    10030    2    1    2    0    0  0.00000000000E+00  0.00000000000E+00 -0.19707219098E+04  0.26024390613E+04  0.16996894487E+04 0.  0.
        1    1    3    3  502    0  0.53705423786E+03  0.58233641745E+03 -0.51419906724E+03  0.94442767762E+03  0.50400001928E-02 0. -1.
       -1    1    3    3    0  502 -0.53705423786E+03 -0.58233641745E+03 -0.14565228426E+04  0.16580113837E+04  0.50400001928E-02 0.  1.
</event>
<event>
 5   0  0.7455669E-06  0.1699217E+04  0.7818609E-02  0.8761811E-01
        1   -1    0    0  501    0  0.00000000000E+00  0.00000000000E+00  0.22560005182E+04  0.22560005182E+04  0.50400001928E-02 0. -1.
       -1   -1    0    0    0  501  0.00000000000E+00  0.00000000000E+00 -0.31996194676E+03  0.31996194680E+03  0.50400001928E-02 0.  1.
    10030    2    1    2    0    0  0.00000000000E+00  0.00000000000E+00  0.19360385715E+04  0.25759624650E+04  0.16992166639E+04 0.  0.
        4    1    3    3  502    0  0.67508001612E+03 -0.20916362125E+03  0.16828605087E+04  0.18252406837E+04  0.12699999809E+01 0. -1.
       -4    1    3    3    0  502 -0.67508001612E+03  0.20916362125E+03  0.25317806272E+03  0.75072178133E+03  0.12699999809E+01 0.  1.
</event>
<event>
 5   0  0.7476457E-06  0.1699840E+04  0.7818609E-02  0.8761456E-01
       -1   -1    0    0    0  501  0.00000000000E+00  0.00000000000E+00  0.72045100109E+03  0.72045100111E+03  0.50400001928E-02 0. -1.
        1   -1    0    0  501    0  0.00000000000E+00  0.00000000000E+00 -0.10026549966E+04  0.10026549966E+04  0.50400001928E-02 0.  1.
    10030    2    1    2    0    0  0.00000000000E+00  0.00000000000E+00 -0.28220399547E+03  0.17231059977E+04  0.16998397525E+04 0.  0.
        2    1    3    3  502    0 -0.66860884622E+03  0.30525996121E+03  0.29152089389E+03  0.79069960462E+03  0.25500000920E-02 0. -1.
       -2    1    3    3    0  502  0.66860884622E+03 -0.30525996121E+03 -0.57372488936E+03  0.93240639307E+03  0.25500000920E-02 0.  1.
</event>
<event>
 5   0  0.7082527E-06  0.1699848E+04  0.7818609E-02  0.8761451E-01
       -1   -1    0    0    0  501  0.00000000000E+00  0.00000000000E+00  0.11344662552E+04  0.11344662552E+04  0.50400001928E-02 0.  1.
        1   -1    0    0  501    0  0.00000000000E+00  0.00000000000E+00 -0.63674922546E+03  0.63674922548E+03  0.50400001928E-02 0. -1.
    10030    2    1    2    0    0  0.00000000000E+00  0.00000000000E+00  0.49771702972E+03  0.17712154807E+04  0.16998476512E+04 0.  0.
        1    1    3    3  502    0  0.21378558138E+03 -0.71928307160E+03 -0.16702020093E+03  0.76874453458E+03  0.50400001928E-02 0. -1.
       -1    1    3    3    0  502 -0.21378558138E+03  0.71928307160E+03  0.66473723065E+03  0.10024709461E+04  0.50400001928E-02 0.  1.
</event>
<event>
 5   0  0.1374441E-05  0.1700302E+04  0.7818609E-02  0.8761192E-01
       -2   -1    0    0    0  501  0.00000000000E+00  0.00000000000E+00  0.61553137122E+03  0.61553137123E+03  0.25500000920E-02 0.  1.
        2   -1    0    0  501    0  0.00000000000E+00  0.00000000000E+00 -0.11741993613E+04  0.11741993613E+04  0.25500000920E-02 0. -1.
    10030    2    1    2    0    0  0.00000000000E+00  0.00000000000E+00 -0.55866799006E+03  0.17897307325E+04  0.17003017884E+04 0.  0.
        1    1    3    3  502    0  0.50003202292E+03  0.70256618023E+02  0.44058969846E+03  0.67013976060E+03  0.50400001928E-02 0.  1.
       -1    1    3    3    0  502 -0.50003202292E+03 -0.70256618023E+02 -0.99925768851E+03  0.11195909719E+04  0.50400001928E-02 0. -1.
</event>
<event>
 5   0  0.7461128E-06  0.1700156E+04  0.7818609E-02  0.8761276E-01
        1   -1    0    0  501    0  0.00000000000E+00  0.00000000000E+00  0.24221159775E+04  0.24221159775E+04  0.50400001928E-02 0.  1.
       -1   -1    0    0    0  501  0.00000000000E+00  0.00000000000E+00 -0.29834748611E+03  0.29834748616E+03  0.50400001928E-02 0. -1.
    10030    2    1    2    0    0  0.00000000000E+00  0.00000000000E+00  0.21237684914E+04  0.27204634637E+04  0.17001555376E+04 0.  0.
        3    1    3    3  502    0  0.12927283596E+03  0.39180330075E+03  0.22511676729E+04  0.22886627524E+04  0.10100000352E+00 0.  1.
       -3    1    3    3    0  502 -0.12927283596E+03 -0.39180330075E+03 -0.12739918150E+03  0.43180071126E+03  0.10100000352E+00 0. -1.
</event>
<event>
 5   0  0.7583716E-06  0.1699363E+04  0.7818609E-02  0.8761728E-01
        1   -1    0    0  501    0  0.00000000000E+00  0.00000000000E+00  0.73005458931E+03  0.73005458933E+03  0.50400001928E-02 0. -1.
       -1   -1    0    0    0  501  0.00000000000E+00  0.00000000000E+00 -0.98891036661E+03  0.98891036663E+03  0.50400001928E-02 0.  1.
    10030    2    1    2    0    0  0.00000000000E+00  0.00000000000E+00 -0.25885577730E+03  0.17189649560E+04  0.16993628825E+04 0.  0.
        5    1    3    3  502    0 -0.45059665497E+02  0.66933195832E+03  0.39802800773E+03  0.78005386277E+03  0.46999998093E+01 0. -1.
       -5    1    3    3    0  502  0.45059665497E+02 -0.66933195832E+03 -0.65688378503E+03  0.93891109319E+03  0.46999998093E+01 0.  1.
</event>
<event>
 5   0  0.7461128E-06  0.1699642E+04  0.7818609E-02  0.8761569E-01
        1   -1    0    0  501    0  0.00000000000E+00  0.00000000000E+00  0.14709957993E+04  0.14709957993E+04  0.50400001928E-02 0. -1.
       -1   -1    0    0    0  501  0.00000000000E+00  0.00000000000E+00 -0.49095696972E+03  0.49095696974E+03  0.50400001928E-02 0.  1.
    10030    2    1    2    0    0  0.00000000000E+00  0.00000000000E+00  0.98003882962E+03  0.19619527691E+04  0.16996418919E+04 0.  0.
        3    1    3    3  502    0 -0.84187428050E+03 -0.11069385899E+02  0.62324762249E+03  0.10475268229E+04  0.10100000352E+00 0. -1.
       -3    1    3    3    0  502  0.84187428050E+03  0.11069385899E+02  0.35679120713E+03  0.91442594624E+03  0.10100000352E+00 0.  1.
</event>
<event>
 5   0  0.1435301E-05  0.1700606E+04  0.7818609E-02  0.8761019E-01
       -2   -1    0    0    0  501  0.00000000000E+00  0.00000000000E+00  0.11894697893E+04  0.11894697893E+04  0.25500000920E-02 0.  1.
        2   -1    0    0  501    0  0.00000000000E+00  0.00000000000E+00 -0.60784627708E+03  0.60784627708E+03  0.25500000920E-02 0. -1.
    10030    2    1    2    0    0  0.00000000000E+00  0.00000000000E+00  0.58162351225E+03  0.17973160664E+04  0.17006055194E+04 0.  0.
        2    1    3    3  502    0  0.20679268629E+03  0.40238916868E+03  0.10517088770E+04  0.11448894358E+04  0.25500000920E-02 0.  1.
       -2    1    3    3    0  502 -0.20679268629E+03 -0.40238916868E+03 -0.47008536476E+03  0.65242663062E+03  0.25500000920E-02 0. -1.
</event>
<event>
 5   0  0.1435301E-05  0.1701963E+04  0.7818609E-02  0.8760246E-01
        2   -1    0    0  501    0  0.00000000000E+00  0.00000000000E+00  0.11385291223E+04  0.11385291223E+04  0.25500000920E-02 0.  1.
       -2   -1    0    0    0  501  0.00000000000E+00  0.00000000000E+00 -0.63605687109E+03  0.63605687109E+03  0.25500000920E-02 0. -1.
    10030    2    1    2    0    0  0.00000000000E+00  0.00000000000E+00  0.50247225119E+03  0.17745859934E+04  0.17019627154E+04 0.  0.
        2    1    3    3  502    0  0.69372174431E+03  0.31665764478E+03 -0.14256672857E+03  0.77578811194E+03  0.25500000920E-02 0. -1.
       -2    1    3    3    0  502 -0.69372174431E+03 -0.31665764478E+03  0.64503897976E+03  0.99879788143E+03  0.25500000920E-02 0.  1.
</event>
<event>
 5   0  0.1419012E-05  0.1700307E+04  0.7818609E-02  0.8761189E-01
       -2   -1    0    0    0  501  0.00000000000E+00  0.00000000000E+00  0.62038558899E+03  0.62038558900E+03  0.25500000920E-02 0. -1.
        2   -1    0    0  501    0  0.00000000000E+00  0.00000000000E+00 -0.11650192761E+04  0.11650192761E+04  0.25500000920E-02 0.  1.
    10030    2    1    2    0    0  0.00000000000E+00  0.00000000000E+00 -0.54463368712E+03  0.17854048651E+04  0.17003072308E+04 0.  0.
        4    1    3    3  502    0  0.18611006449E+03 -0.51015241016E+03  0.41453610769E+03  0.68317950436E+03  0.12699999809E+01 0. -1.
       -4    1    3    3    0  502 -0.18611006449E+03  0.51015241016E+03 -0.95916979481E+03  0.11022253607E+04  0.12699999809E+01 0.  1.
</event>
<event>
 5   0  0.5229750E-06  0.1699923E+04  0.7818609E-02  0.8761408E-01
        3   -1    0    0  501    0  0.00000000000E+00  0.00000000000E+00  0.65070842117E+03  0.65070842900E+03  0.10100000352E+00 0. -1.
       -3   -1    0    0    0  501  0.00000000000E+00  0.00000000000E+00 -0.11102280094E+04  0.11102280139E+04  0.10100000352E+00 0.  1.
    10030    2    1    2    0    0  0.00000000000E+00  0.00000000000E+00 -0.45951958819E+03  0.17609364429E+04  0.16999232054E+04 0.  0.
        1    1    3    3  502    0 -0.40642094286E+03  0.72152813521E+03 -0.42808341122E+03  0.93222113239E+03  0.50400001928E-02 0.  1.
       -1    1    3    3    0  502  0.40642094286E+03 -0.72152813521E+03 -0.31436176968E+02  0.82871531055E+03  0.50400001928E-02 0. -1.
</event>
<event>
 5   0  0.7461128E-06  0.1702448E+04  0.7818609E-02  0.8759970E-01
        1   -1    0    0  501    0  0.00000000000E+00  0.00000000000E+00  0.14398129372E+04  0.14398129372E+04  0.50400001928E-02 0. -1.
       -1   -1    0    0    0  501  0.00000000000E+00  0.00000000000E+00 -0.50324726418E+03  0.50324726420E+03  0.50400001928E-02 0.  1.
    10030    2    1    2    0    0  0.00000000000E+00  0.00000000000E+00  0.93656567297E+03  0.19430602014E+04  0.17024475576E+04 0.  0.
        3    1    3    3  502    0  0.51171882095E+03 -0.30359651755E+03  0.11630492288E+04  0.13064113119E+04  0.10100000352E+00 0. -1.
       -3    1    3    3    0  502 -0.51171882095E+03  0.30359651755E+03 -0.22648355579E+03  0.63664888944E+03  0.10100000352E+00 0.  1.
</event>
<event>
 5   0  0.7455669E-06  0.1700190E+04  0.7818609E-02  0.8761256E-01
       -1   -1    0    0    0  501  0.00000000000E+00  0.00000000000E+00  0.78037351557E+03  0.78037351559E+03  0.50400001928E-02 0. -1.
        1   -1    0    0  501    0  0.00000000000E+00  0.00000000000E+00 -0.92604531434E+03  0.92604531435E+03  0.50400001928E-02 0.  1.
    10030    2    1    2    0    0  0.00000000000E+00  0.00000000000E+00 -0.14567179877E+03  0.17064188299E+04  0.17001896807E+04 0.  0.
        4    1    3    3  502    0  0.71205510449E+03  0.31210435576E+03  0.27226689375E+03  0.82374903645E+03  0.12699999809E+01 0.  1.
       -4    1    3    3    0  502 -0.71205510449E+03 -0.31210435576E+03 -0.41793869253E+03  0.88266979349E+03  0.12699999809E+01 0. -1.
</event>
<event>
 5   0  0.1441756E-05  0.1700934E+04  0.7818609E-02  0.8760832E-01
       -2   -1    0    0    0  501  0.00000000000E+00  0.00000000000E+00  0.48038908409E+03  0.48038908410E+03  0.25500000920E-02 0.  1.
        2   -1    0    0  501    0  0.00000000000E+00  0.00000000000E+00 -0.15056414012E+04  0.15056414012E+04  0.25500000920E-02 0. -1.
    10030    2    1    2    0    0  0.00000000000E+00  0.00000000000E+00 -0.10252523171E+04  0.19860304853E+04  0.17009335010E+04 0.  0.
        5    1    3    3  502    0  0.70963827478E+03  0.20467584994E+03 -0.10049555982E+04  0.12471714112E+04  0.46999998093E+01 0. -1.
       -5    1    3    3    0  502 -0.70963827478E+03 -0.20467584994E+03 -0.20296718916E+02  0.73885907410E+03  0.46999998093E+01 0.  1.
</event>
<event>
 5   0  0.7461128E-06  0.1698058E+04  0.7818609E-02  0.8762473E-01
       -1   -1    0    0    0  501  0.00000000000E+00  0.00000000000E+00  0.68119154356E+03  0.68119154358E+03  0.50400001928E-02 0. -1.
        1   -1    0    0  501    0  0.00000000000E+00  0.00000000000E+00 -0.10582192060E+04  0.10582192060E+04  0.50400001928E-02 0.  1.
    10030    2    1    2    0    0  0.00000000000E+00  0.00000000000E+00 -0.37702766240E+03  0.17394107495E+04  0.16980576838E+04 0.  0.
        3    1    3    3  502    0  0.33696798018E+03  0.18139038799E+03  0.58783508856E+03  0.70142711244E+03  0.10100000352E+00 0. -1.
       -3    1    3    3    0  502 -0.33696798018E+03 -0.18139038799E+03 -0.96486275095E+03  0.10379836371E+04  0.10100000352E+00 0.  1.
</event>
<event>
 5   0  0.7476457E-06  0.1699812E+04  0.7818609E-02  0.8761472E-01
       -1   -1    0    0    0  501  0.00000000000E+00  0.00000000000E+00  0.11308168014E+04  0.11308168014E+04  0.50400001928E-02 0. -1.
        1   -1    0    0  501    0  0.00000000000E+00  0.00000000000E+00 -0.63877710645E+03  0.63877710647E+03  0.50400001928E-02 0.  1.
    10030    2    1    2    0    0  0.00000000000E+00  0.00000000000E+00  0.49203969490E+03  0.17695939078E+04  0.16998116182E+04 0.  0.
        2    1    3    3  502    0  0.61431167521E+03  0.55916853662E+03  0.58944057569E+02  0.83278009617E+03  0.25500000920E-02 0.  1.
       -2    1    3    3    0  502 -0.61431167521E+03 -0.55916853662E+03  0.43309563734E+03  0.93681381167E+03  0.25500000920E-02 0. -1.
</event>
<event>
 5   0  0.1423543E-05  0.1693848E+04  0.7818609E-02  0.8764881E-01
       -2   -1    0    0    0  501  0.00000000000E+00  0.00000000000E+00  0.62875873340E+03  0.62875873341E+03  0.25500000920E-02 0. -1.
        2   -1    0    0  501    0  0.00000000000E+00  0.00000000000E+00 -0.11407880775E+04  0.11407880775E+04  0.25500000920E-02 0.  1.
    10030    2    1    2    0    0  0.00000000000E+00  0.00000000000E+00 -0.51202934408E+03  0.17695468109E+04  0.16938482419E+04 0.  0.
        3    1    3    3  502    0  0.19824713785E+03  0.81310338243E+03 -0.12044052228E+03  0.84554418441E+03  0.10100000352E+00 0. -1.
       -3    1    3    3    0  502 -0.19824713785E+03 -0.81310338243E+03 -0.39158882180E+03  0.92400262648E+03  0.10100000352E+00 0.  1.
</event>
<event>
 5   0  0.7461128E-06  0.1698930E+04  0.7818609E-02  0.8761975E-01
       -1   -1    0    0    0  501  0.00000000000E+00  0.00000000000E+00  0.35998820942E+03  0.35998820946E+03  0.50400001928E-02 0. -1.
        1   -1    0    0  501    0  0.00000000000E+00  0.00000000000E+00 -0.20044839484E+04  0.20044839484E+04  0.50400001928E-02 0.  1.
    10030    2    1    2    0    0  0.00000000000E+00  0.00000000000E+00 -0.16444957389E+04  0.23644721578E+04  0.16989297660E+04 0.  0.
        3    1    3    3  502    0  0.69181975319E+03 -0.45544313526E+03 -0.55984797385E+03  0.99973635744E+03  0.10100000352E+00 0.  1.
       -3    1    3    3    0  502 -0.69181975319E+03  0.45544313526E+03 -0.10846477651E+04  0.13647358004E+04  0.10100000352E+00 0. -1.
</event>
<event>
 5   0  0.7461128E-06  0.1699625E+04  0.7818609E-02  0.8761578E-01
       -1   -1    0    0    0  501  0.00000000000E+00  0.00000000000E+00  0.73397466686E+03  0.73397466688E+03  0.50400001928E-02 0.  1.
        1   -1    0    0  501    0  0.00000000000E+00  0.00000000000E+00 -0.98393209870E+03  0.98393209871E+03  0.50400001928E-02 0. -1.
    10030    2    1    2    0    0  0.00000000000E+00  0.00000000000E+00 -0.24995743184E+03  0.17179067656E+04  0.16996249402E+04 0.  0.
        3    1    3    3  502    0 -0.38744743480E+03  0.50145907894E+03 -0.69728867418E+03  0.94222514716E+03  0.10100000352E+00 0. -1.
       -3    1    3    3    0  502  0.38744743480E+03 -0.50145907894E+03  0.44733124235E+03  0.77568161843E+03  0.10100000352E+00 0.  1.
</event>
<event>
 5   0  0.7461128E-06  0.1700229E+04  0.7818609E-02  0.8761234E-01
        1   -1    0    0  501    0  0.00000000000E+00  0.00000000000E+00  0.12035146429E+04  0.12035146429E+04  0.50400001928E-02 0. -1.
       -1   -1    0    0    0  501  0.00000000000E+00  0.00000000000E+00 -0.60048670288E+03  0.60048670290E+03  0.50400001928E-02 0.  1.
    10030    2    1    2    0    0  0.00000000000E+00  0.00000000000E+00  0.60302793998E+03  0.18040013458E+04  0.17002288549E+04 0.  0.
        3    1    3    3  502    0  0.36064584724E+03  0.53642882812E+03  0.88736757941E+03  0.10978353911E+04  0.10100000352E+00 0. -1.
       -3    1    3    3    0  502 -0.36064584724E+03 -0.53642882812E+03 -0.28433963943E+03  0.70616595466E+03  0.10100000352E+00 0.  1.
</event>
<event>
 5   0  0.5229750E-06  0.1700274E+04  0.7818609E-02  0.8761208E-01
       -4   -1    0    0    0  501  0.00000000000E+00  0.00000000000E+00  0.58058782392E+03  0.58058921294E+03  0.12699999809E+01 0. -1.
        4   -1    0    0  501    0  0.00000000000E+00  0.00000000000E+00 -0.12448265659E+04  0.12448272137E+04  0.12699999809E+01 0.  1.
    10030    2    1    2    0    0  0.00000000000E+00  0.00000000000E+00 -0.66423874196E+03  0.18254164267E+04  0.17002741027E+04 0.  0.
        4    1    3    3  502    0 -0.76925944128E+03  0.16325426132E+03  0.14637801778E+02  0.78652903315E+03  0.12699999809E+01 0. -1.
       -4    1    3    3    0  502  0.76925944128E+03 -0.16325426132E+03 -0.67887654374E+03  0.10388873935E+04  0.12699999809E+01 0.  1.
</event>
<event>
 5   0  0.7455669E-06  0.1700411E+04  0.7818609E-02  0.8761130E-01
        1   -1    0    0  501    0  0.00000000000E+00  0.00000000000E+00  0.93593890958E+03  0.93593890960E+03  0.50400001928E-02 0.  1.
       -1   -1    0    0    0  501  0.00000000000E+00  0.00000000000E+00 -0.77232584239E+03  0.77232584241E+03  0.50400001928E-02 0. -1.
    10030    2    1    2    0    0  0.00000000000E+00  0.00000000000E+00  0.16361306719E+03  0.17082647520E+04  0.17004114876E+04 0.  0.
        4    1    3    3  502    0 -0.66206582645E+03  0.52746834635E+03  0.21042633801E+01  0.84649870395E+03  0.12699999809E+01 0.  1.
       -4    1    3    3    0  502  0.66206582645E+03 -0.52746834635E+03  0.16150880381E+03  0.86176604805E+03  0.12699999809E+01 0. -1.
</event>
<event>
 5   0  0.7455669E-06  0.1702368E+04  0.7818609E-02  0.8760015E-01
        1   -1    0    0  501    0  0.00000000000E+00  0.00000000000E+00  0.17212268955E+04  0.17212268955E+04  0.50400001928E-02 0.  1.
       -1   -1    0    0    0  501  0.00000000000E+00  0.00000000000E+00 -0.42092889244E+03  0.42092889247E+03  0.50400001928E-02 0. -1.
    10030    2    1    2    0    0  0.00000000000E+00  0.00000000000E+00  0.13002980030E+04  0.21421557879E+04  0.17023679165E+04 0.  0.
        4    1    3    3  502    0 -0.44553425867E+03  0.64338556114E+03  0.10713952417E+04  0.13267762181E+04  0.12699999809E+01 0.  1.
       -4    1    3    3    0  502  0.44553425867E+03 -0.64338556114E+03  0.22890276129E+03  0.81537956987E+03  0.12699999809E+01 0. -1.
</event>
<event>
 5   0  0.1423543E-05  0.1701061E+04  0.7818609E-02  0.8760760E-01
        2   -1    0    0  501    0  0.00000000000E+00  0.00000000000E+00  0.89746436266E+03  0.89746436266E+03  0.25500000920E-02 0.  1.
       -2   -1    0    0    0  501  0.00000000000E+00  0.00000000000E+00 -0.80605078559E+03  0.80605078559E+03  0.25500000920E-02 0. -1.
    10030    2    1    2    0    0  0.00000000000E+00  0.00000000000E+00  0.91413577073E+02  0.17035151483E+04  0.17010606745E+04 0.  0.
        3    1    3    3  502    0 -0.16796922588E+03 -0.34605449070E+03 -0.71396173710E+03  0.81099244363E+03  0.10100000352E+00 0. -1.
       -3    1    3    3    0  502  0.16796922588E+03  0.34605449070E+03  0.80537531418E+03  0.89252270462E+03  0.10100000352E+00 0.  1.
</event>
<event>
 5   0  0.1419012E-05  0.1700196E+04  0.7818609E-02  0.8761252E-01
       -2   -1    0    0    0  501  0.00000000000E+00  0.00000000000E+00  0.71141641582E+03  0.71141641583E+03  0.25500000920E-02 0.  1.
        2   -1    0    0  501    0  0.00000000000E+00  0.00000000000E+00 -0.10158143445E+04  0.10158143445E+04  0.25500000920E-02 0. -1.
    10030    2    1    2    0    0  0.00000000000E+00  0.00000000000E+00 -0.30439792864E+03  0.17272307603E+04  0.17001964593E+04 0.  0.
        4    1    3    3  502    0 -0.23265743840E+02 -0.51692668227E+03 -0.83739434527E+03  0.98437055628E+03  0.12699999809E+01 0. -1.
       -4    1    3    3    0  502  0.23265743840E+02  0.51692668227E+03  0.53299641663E+03  0.74286020402E+03  0.12699999809E+01 0.  1.
</event>
<event>
 5   0  0.1419012E-05  0.1699472E+04  0.7818609E-02  0.8761666E-01
        2   -1    0    0  501    0  0.00000000000E+00  0.00000000000E+00  0.48994927796E+03  0.48994927797E+03  0.25500000920E-02 0. -1.
       -2   -1    0    0    0  501  0.00000000000E+00  0.00000000000E+00 -0.14737263806E+04  0.14737263806E+04  0.25500000920E-02 0.  1.
    10030    2    1    2    0    0  0.00000000000E+00  0.00000000000E+00 -0.98377710261E+03  0.19636756585E+04  0.16994718898E+04 0.  0.
        4    1    3    3  502    0  0.42458417407E+03  0.72705991932E+03 -0.62444840908E+03  0.10482486707E+04  0.12699999809E+01 0.  1.
       -4    1    3    3    0  502 -0.42458417407E+03 -0.72705991932E+03 -0.35932869352E+03  0.91542698783E+03  0.12699999809E+01 0. -1.
</event>
<event>
 5   0  0.7583716E-06  0.1699368E+04  0.7818609E-02  0.8761725E-01
       -1   -1    0    0    0  501  0.00000000000E+00  0.00000000000E+00  0.73617153077E+03  0.73617153079E+03  0.50400001928E-02 0.  1.
        1   -1    0    0  501    0  0.00000000000E+00  0.00000000000E+00 -0.98069977898E+03  0.98069977899E+03  0.50400001928E-02 0. -1.
    10030    2    1    2    0    0  0.00000000000E+00  0.00000000000E+00 -0.24452824821E+03  0.17168713098E+04  0.16993684210E+04 0.  0.
        5    1    3    3  502    0  0.64014440484E+03 -0.54209817155E+03 -0.25888219324E+03  0.87789371032E+03  0.46999998093E+01 0. -1.
       -5    1    3    3    0  502 -0.64014440484E+03  0.54209817155E+03  0.14353945038E+02  0.83897759945E+03  0.46999998093E+01 0.  1.
</event>
<event>
 5   0  0.7461128E-06  0.1706555E+04  0.7818609E-02  0.8757635E-01
       -1   -1    0    0    0  501  0.00000000000E+00  0.00000000000E+00  0.58130867716E+03  0.58130867718E+03  0.50400001928E-02 0.  1.
        1   -1    0    0  501    0  0.00000000000E+00  0.00000000000E+00 -0.12524879156E+04  0.12524879156E+04  0.50400001928E-02 0. -1.
    10030    2    1    2    0    0  0.00000000000E+00  0.00000000000E+00 -0.67117923844E+03  0.18337965928E+04  0.17065545329E+04 0.  0.
        3    1    3    3  502    0 -0.20510230461E+03 -0.82759087667E+03 -0.37136569560E+03  0.92999252931E+03  0.10100000352E+00 0.  1.
       -3    1    3    3    0  502  0.20510230461E+03  0.82759087667E+03 -0.29981354283E+03  0.90380406348E+03  0.10100000352E+00 0. -1.
</event>
<event>
 5   0  0.1419012E-05  0.1698269E+04  0.7818609E-02  0.8762352E-01
       -2   -1    0    0    0  501  0.00000000000E+00  0.00000000000E+00  0.12718163698E+04  0.12718163698E+04  0.25500000920E-02 0.  1.
        2   -1    0    0  501    0  0.00000000000E+00  0.00000000000E+00 -0.56692901797E+03  0.56692901797E+03  0.25500000920E-02 0. -1.
    10030    2    1    2    0    0  0.00000000000E+00  0.00000000000E+00  0.70488735183E+03  0.18387453878E+04  0.16982692432E+04 0.  0.
        4    1    3    3  502    0 -0.35356512489E+03  0.58835243362E+03 -0.18876454351E+03  0.71189925514E+03  0.12699999809E+01 0. -1.
       -4    1    3    3    0  502  0.35356512489E+03 -0.58835243362E+03  0.89365189534E+03  0.11268461326E+04  0.12699999809E+01 0.  1.
</event>
<event>
 5   0  0.1441756E-05  0.1700255E+04  0.7818609E-02  0.8761219E-01
        2   -1    0    0  501    0  0.00000000000E+00  0.00000000000E+00  0.76545945853E+03  0.76545945853E+03  0.25500000920E-02 0.  1.
       -2   -1    0    0    0  501  0.00000000000E+00  0.00000000000E+00 -0.94416122771E+03  0.94416122771E+03  0.25500000920E-02 0. -1.
    10030    2    1    2    0    0  0.00000000000E+00  0.00000000000E+00 -0.17870176918E+03  0.17096206862E+04  0.17002554421E+04 0.  0.
        5    1    3    3  502    0 -0.64089527529E+03  0.44097285956E+03  0.25530708534E+03  0.81878422956E+03  0.46999998093E+01 0. -1.
       -5    1    3    3    0  502  0.64089527529E+03 -0.44097285956E+03 -0.43400885452E+03  0.89083645668E+03  0.46999998093E+01 0.  1.
</event>
<event>
 5   0  0.7583716E-06  0.1700204E+04  0.7818609E-02  0.8761248E-01
       -1   -1    0    0    0  501  0.00000000000E+00  0.00000000000E+00  0.93308895512E+03  0.93308895514E+03  0.50400001928E-02 0. -1.
        1   -1    0    0  501    0  0.00000000000E+00  0.00000000000E+00 -0.77449602379E+03  0.77449602381E+03  0.50400001928E-02 0.  1.
    10030    2    1    2    0    0  0.00000000000E+00  0.00000000000E+00  0.15859293133E+03  0.17075849789E+04  0.17002043237E+04 0.  0.
        5    1    3    3  502    0  0.64030536060E+03 -0.46160476249E+03  0.39623200613E+03  0.88322805902E+03  0.46999998093E+01 0. -1.
       -5    1    3    3    0  502 -0.64030536060E+03  0.46160476249E+03 -0.23763907480E+03  0.82435691993E+03  0.46999998093E+01 0.  1.
</event>
<event>
 5   0  0.7461128E-06  0.1697531E+04  0.7818609E-02  0.8762774E-01
       -1   -1    0    0    0  501  0.00000000000E+00  0.00000000000E+00  0.53002381907E+03  0.53002381909E+03  0.50400001928E-02 0.  1.
        1   -1    0    0  501    0  0.00000000000E+00  0.00000000000E+00 -0.13591893995E+04  0.13591893995E+04  0.50400001928E-02 0. -1.
    10030    2    1    2    0    0  0.00000000000E+00  0.00000000000E+00 -0.82916558040E+03  0.18892132186E+04  0.16975308614E+04 0.  0.
        3    1    3    3  502    0 -0.30711281752E+03 -0.77690284158E+03 -0.24762115770E+03  0.87132804149E+03  0.10100000352E+00 0.  1.
       -3    1    3    3    0  502  0.30711281752E+03  0.77690284158E+03 -0.58154442270E+03  0.10178851771E+04  0.10100000352E+00 0. -1.
</event>
<event>
 5   0  0.1435301E-05  0.1699699E+04  0.7818609E-02  0.8761536E-01
        2   -1    0    0  501    0  0.00000000000E+00  0.00000000000E+00  0.18670962454E+04  0.18670962454E+04  0.25500000920E-02 0. -1.
       -2   -1    0    0    0  501  0.00000000000E+00  0.00000000000E+00 -0.38682755779E+03  0.38682755780E+03  0.25500000920E-02 0.  1.
    10030    2    1    2    0    0  0.00000000000E+00  0.00000000000E+00  0.14802686876E+04  0.22539238032E+04  0.16996991272E+04 0.  0.
        2    1    3    3  502    0 -0.27251114737E+03 -0.32309244071E+03  0.17178311542E+04  0.17690661166E+04  0.25500000920E-02 0. -1.
       -2    1    3    3    0  502  0.27251114737E+03  0.32309244071E+03 -0.23756246658E+03  0.48485768657E+03  0.25500000920E-02 0.  1.
</event>
<event>
 5   0  0.1441756E-05  0.1707945E+04  0.7818609E-02  0.8756846E-01
        2   -1    0    0  501    0  0.00000000000E+00  0.00000000000E+00  0.12321145301E+04  0.12321145301E+04  0.25500000920E-02 0. -1.
       -2   -1    0    0    0  501  0.00000000000E+00  0.00000000000E+00 -0.59188408450E+03  0.59188408450E+03  0.25500000920E-02 0.  1.
    10030    2    1    2    0    0  0.00000000000E+00  0.00000000000E+00  0.64023044562E+03  0.18239986146E+04  0.17079449413E+04 0.  0.
        5    1    3    3  502    0  0.74207388321E+03 -0.37516728792E+03  0.11241967795E+03  0.83909738174E+03  0.46999998093E+01 0.  1.
       -5    1    3    3    0  502 -0.74207388321E+03  0.37516728792E+03  0.52781076767E+03  0.98490123288E+03  0.46999998093E+01 0. -1.
</event>
<event>
 5   0  0.1374441E-05  0.1700135E+04  0.7818609E-02  0.8761287E-01
        2   -1    0    0  501    0  0.00000000000E+00  0.00000000000E+00  0.11805368924E+04  0.11805368924E+04  0.25500000920E-02 0.  1.
       -2   -1    0    0    0  501  0.00000000000E+00  0.00000000000E+00 -0.61210700556E+03  0.61210700556E+03  0.25500000920E-02 0. -1.
    10030    2    1    2    0    0  0.00000000000E+00  0.00000000000E+00  0.56842988684E+03  0.17926438980E+04  0.17001351736E+04 0.  0.
        1    1    3    3  502    0 -0.21090033548E+03 -0.81356112368E+03  0.41864427043E+03  0.93894817677E+03  0.50400001928E-02 0. -1.
       -1    1    3    3    0  502  0.21090033548E+03  0.81356112368E+03  0.14978561641E+03  0.85369572119E+03  0.50400001928E-02 0.  1.
</event>
<event>
 5   0  0.1419012E-05  0.1699993E+04  0.7818609E-02  0.8761368E-01
       -2   -1    0    0    0  501  0.00000000000E+00  0.00000000000E+00  0.51035898001E+03  0.51035898001E+03  0.25500000920E-02 0. -1.
        2   -1    0    0  501    0  0.00000000000E+00  0.00000000000E+00 -0.14156591797E+04  0.14156591797E+04  0.25500000920E-02 0.  1.
    10030    2    1    2    0    0  0.00000000000E+00  0.00000000000E+00 -0.90530019965E+03  0.19260181597E+04  0.16999933823E+04 0.  0.
        4    1    3    3  502    0  0.25555274149E+03 -0.25375529482E+03  0.41964810036E+03  0.55299646868E+03  0.12699999809E+01 0. -1.
       -4    1    3    3    0  502 -0.25555274149E+03  0.25375529482E+03 -0.13249483000E+04  0.13730216910E+04  0.12699999809E+01 0.  1.
</event>
<event>
 5   0  0.1441756E-05  0.1700479E+04  0.7818609E-02  0.8761091E-01
       -2   -1    0    0    0  501  0.00000000000E+00  0.00000000000E+00  0.30919135247E+03  0.30919135248E+03  0.25500000920E-02 0. -1.
        2   -1    0    0  501    0  0.00000000000E+00  0.00000000000E+00 -0.23380567495E+04  0.23380567495E+04  0.25500000920E-02 0.  1.
    10030    2    1    2    0    0  0.00000000000E+00  0.00000000000E+00 -0.20288653971E+04  0.26472481020E+04  0.17004786721E+04 0.  0.
        5    1    3    3  502    0  0.77823536737E+03  0.22415102434E+03 -0.61150115759E+03  0.10148151184E+04  0.46999998093E+01 0. -1.
       -5    1    3    3    0  502 -0.77823536737E+03 -0.22415102434E+03 -0.14173642395E+04  0.16324329836E+04  0.46999998093E+01 0.  1.
</event>
<event>
 5   0  0.1423543E-05  0.1700620E+04  0.7818609E-02  0.8761011E-01
       -2   -1    0    0    0  501  0.00000000000E+00  0.00000000000E+00  0.45095498206E+03  0.45095498207E+03  0.25500000920E-02 0.  1.
        2   -1    0    0  501    0  0.00000000000E+00  0.00000000000E+00 -0.16033236873E+04  0.16033236873E+04  0.25500000920E-02 0. -1.
    10030    2    1    2    0    0  0.00000000000E+00  0.00000000000E+00 -0.11523687052E+04  0.20542786693E+04  0.17006196572E+04 0.  0.
        3    1    3    3  502    0  0.62155375968E+02  0.51318838113E+02 -0.15986984749E+04  0.16007291269E+04  0.10100000352E+00 0. -1.
       -3    1    3    3    0  502 -0.62155375968E+02 -0.51318838113E+02  0.44632976970E+03  0.45354954242E+03  0.10100000352E+00 0.  1.
</event>
<event>
 5   0  0.7455669E-06  0.1699299E+04  0.7818609E-02  0.8761764E-01
        1   -1    0    0  501    0  0.00000000000E+00  0.00000000000E+00  0.93162733094E+03  0.93162733095E+03  0.50400001928E-02 0.  1.
       -1   -1    0    0    0  501  0.00000000000E+00  0.00000000000E+00 -0.77488553566E+03  0.77488553568E+03  0.50400001928E-02 0. -1.
    10030    2    1    2    0    0  0.00000000000E+00  0.00000000000E+00  0.15674179528E+03  0.17065128666E+04  0.16992993184E+04 0.  0.
        4    1    3    3  502    0  0.64034622776E+03  0.49126864950E+03 -0.18830249045E+03  0.82876270319E+03  0.12699999809E+01 0.  1.
       -4    1    3    3    0  502 -0.64034622776E+03 -0.49126864950E+03  0.34504428573E+03  0.87775016343E+03  0.12699999809E+01 0. -1.
</event>
<event>
 5   0  0.1441756E-05  0.1700068E+04  0.7818609E-02  0.8761326E-01
       -2   -1    0    0    0  501  0.00000000000E+00  0.00000000000E+00  0.58763627268E+03  0.58763627269E+03  0.25500000920E-02 0. -1.
        2   -1    0    0  501    0  0.00000000000E+00  0.00000000000E+00 -0.12295999214E+04  0.12295999214E+04  0.25500000920E-02 0.  1.
    10030    2    1    2    0    0  0.00000000000E+00  0.00000000000E+00 -0.64196364870E+03  0.18172361941E+04  0.17000676630E+04 0.  0.
        5    1    3    3  502    0 -0.42551629287E+03 -0.36609977524E+03 -0.10032862833E+04  0.11496515199E+04  0.46999998093E+01 0.  1.
       -5    1    3    3    0  502  0.42551629287E+03  0.36609977524E+03  0.36132263460E+03  0.66758467418E+03  0.46999998093E+01 0. -1.
</event>
<event>
 5   0  0.7583716E-06  0.1696462E+04  0.7818609E-02  0.8763385E-01
       -1   -1    0    0    0  501  0.00000000000E+00  0.00000000000E+00  0.14410183526E+04  0.14410183526E+04  0.50400001928E-02 0.  1.
        1   -1    0    0  501    0  0.00000000000E+00  0.00000000000E+00 -0.49929683232E+03  0.49929683234E+03  0.50400001928E-02 0. -1.
    10030    2    1    2    0    0  0.00000000000E+00  0.00000000000E+00  0.94172152032E+03  0.19403151850E+04  0.16964620819E+04 0.  0.
        5    1    3    3  502    0  0.25502437316E+02 -0.77951362551E+03  0.89491878286E+02  0.78506226055E+03  0.46999998093E+01 0.  1.
       -5    1    3    3    0  502 -0.25502437316E+02  0.77951362551E+03  0.85222964204E+03  0.11552529244E+04  0.46999998093E+01 0. -1.
</event>
<event>
 5   0  0.7583716E-06  0.1689367E+04  0.7818609E-02  0.8767452E-01
       -1   -1    0    0    0  501  0.00000000000E+00  0.00000000000E+00  0.74126223881E+03  0.74126223882E+03  0.50400001928E-02 0.  1.
        1   -1    0    0  501    0  0.00000000000E+00  0.00000000000E+00 -0.96253401142E+03  0.96253401143E+03  0.50400001928E-02 0. -1.
    10030    2    1    2    0    0  0.00000000000E+00  0.00000000000E+00 -0.22127177261E+03  0.17037962503E+04  0.16893668829E+04 0.  0.
        5    1    3    3  502    0 -0.56974647477E+03  0.62062759939E+03 -0.49468346787E+02  0.84395430562E+03  0.46999998093E+01 0. -1.
       -5    1    3    3    0  502  0.56974647477E+03 -0.62062759939E+03 -0.17180342582E+03  0.85984194464E+03  0.46999998093E+01 0.  1.
</event>
<event>
 5   0  0.7583716E-06  0.1700024E+04  0.7818609E-02  0.8761350E-01
       -1   -1    0    0    0  501  0.00000000000E+00  0.00000000000E+00  0.31219144122E+03  0.31219144126E+03  0.50400001928E-02 0.  1.
        1   -1    0    0  501    0  0.00000000000E+00  0.00000000000E+00 -0.23143517224E+04  0.23143517224E+04  0.50400001928E-02 0. -1.
    10030    2    1    2    0    0  0.00000000000E+00  0.00000000000E+00 -0.20021602812E+04  0.26265431637E+04  0.17000244702E+04 0.  0.
        5    1    3    3  502    0  0.69995566697E+03  0.45614949512E+03 -0.12428541891E+04  0.14975710076E+04  0.46999998093E+01 0.  1.
       -5    1    3    3    0  502 -0.69995566697E+03 -0.45614949512E+03 -0.75930609213E+03  0.11289721561E+04  0.46999998093E+01 0. -1.
</event>
<event>
 5   0  0.7082527E-06  0.1699291E+04  0.7818609E-02  0.8761769E-01
        1   -1    0    0  501    0  0.00000000000E+00  0.00000000000E+00  0.72504918995E+03  0.72504918997E+03  0.50400001928E-02 0. -1.
       -1   -1    0    0    0  501  0.00000000000E+00  0.00000000000E+00 -0.99565320104E+03  0.99565320105E+03  0.50400001928E-02 0.  1.
    10030    2    1    2    0    0  0.00000000000E+00  0.00000000000E+00 -0.27060401109E+03  0.17207023910E+04  0.16992910838E+04 0.  0.
        1    1    3    3  502    0 -0.15756637274E+03  0.36860379998E+03  0.62327110312E+03  0.74105518768E+03  0.50400001928E-02 0. -1.
       -1    1    3    3    0  502  0.15756637274E+03 -0.36860379998E+03 -0.89387511421E+03  0.97964720334E+03  0.50400001928E-02 0.  1.
</event>
<event>
 5   0  0.1423543E-05  0.1699689E+04  0.7818609E-02  0.8761542E-01
       -2   -1    0    0    0  501  0.00000000000E+00  0.00000000000E+00  0.50613609745E+03  0.50613609745E+03  0.25500000920E-02 0. -1.
        2   -1    0    0  501    0  0.00000000000E+00  0.00000000000E+00 -0.14269597102E+04  0.14269597102E+04  0.25500000920E-02 0.  1.
    10030    2    1    2    0    0  0.00000000000E+00  0.00000000000E+00 -0.92082361277E+03  0.19330958077E+04  0.16996891703E+04 0.  0.
        3    1    3    3  502    0 -0.49761015223E+03  0.58433732017E+03 -0.87544880421E+03  0.11642493660E+04  0.10100000352E+00 0. -1.
       -3    1    3    3    0  502  0.49761015223E+03 -0.58433732017E+03 -0.45374808558E+02  0.76884644162E+03  0.10100000352E+00 0.  1.
</event>
<event>
 5   0  0.5229750E-06  0.1700003E+04  0.7818609E-02  0.8761363E-01
        4   -1    0    0  501    0  0.00000000000E+00  0.00000000000E+00  0.51028768874E+03  0.51028926912E+03  0.12699999809E+01 0.  1.
       -4   -1    0    0    0  501  0.00000000000E+00  0.00000000000E+00 -0.14158685964E+04  0.14158691660E+04  0.12699999809E+01 0. -1.
    10030    2    1    2    0    0  0.00000000000E+00  0.00000000000E+00 -0.90558090766E+03  0.19261584351E+04  0.17000028049E+04 0.  0.
        2    1    3    3  502    0  0.79558480526E+03  0.29098230224E+02 -0.11534359464E+03  0.80442901128E+03  0.25500000920E-02 0.  1.
       -2    1    3    3    0  502 -0.79558480526E+03 -0.29098230224E+02 -0.79023731303E+03  0.11217294238E+04  0.25500000920E-02 0. -1.
</event>
<event>
 5   0  0.7455669E-06  0.1700020E+04  0.7818609E-02  0.8761353E-01
        1   -1    0    0  501    0  0.00000000000E+00  0.00000000000E+00  0.52829570519E+03  0.52829570522E+03  0.50400001928E-02 0.  1.
       -1   -1    0    0    0  501  0.00000000000E+00  0.00000000000E+00 -0.13676375750E+04  0.13676375750E+04  0.50400001928E-02 0. -1.
    10030    2    1    2    0    0  0.00000000000E+00  0.00000000000E+00 -0.83934186979E+03  0.18959332802E+04  0.17000200671E+04 0.  0.
        4    1    3    3  502    0  0.34903991147E+03 -0.61047973549E+03  0.11285093880E+03  0.71221577807E+03  0.12699999809E+01 0.  1.
       -4    1    3    3    0  502 -0.34903991147E+03  0.61047973549E+03 -0.95219280860E+03  0.11837175021E+04  0.12699999809E+01 0. -1.
</event>
<event>
 5   0  0.1435301E-05  0.1700414E+04  0.7818609E-02  0.8761128E-01
        2   -1    0    0  501    0  0.00000000000E+00  0.00000000000E+00  0.13378844798E+04  0.13378844798E+04  0.25500000920E-02 0. -1.
       -2   -1    0    0    0  501  0.00000000000E+00  0.00000000000E+00 -0.54029465052E+03  0.54029465052E+03  0.25500000920E-02 0.  1.
    10030    2    1    2    0    0  0.00000000000E+00  0.00000000000E+00  0.79758982929E+03  0.18781791303E+04  0.17004138643E+04 0.  0.
        2    1    3    3  502    0 -0.15576174435E+02 -0.84801434109E+03  0.46396186090E+03  0.96676343967E+03  0.25500000920E-02 0. -1.
       -2    1    3    3    0  502  0.15576174435E+02  0.84801434109E+03  0.33362796838E+03  0.91141569067E+03  0.25500000920E-02 0.  1.
</event>
<event>
 5   0  0.1435301E-05  0.1699725E+04  0.7818609E-02  0.8761521E-01
       -2   -1    0    0    0  501  0.00000000000E+00  0.00000000000E+00  0.55316167924E+03  0.55316167925E+03  0.25500000920E-02 0. -1.
        2   -1    0    0  501    0  0.00000000000E+00  0.00000000000E+00 -0.13057054153E+04  0.13057054153E+04  0.25500000920E-02 0.  1.
    10030    2    1    2    0    0  0.00000000000E+00  0.00000000000E+00 -0.75254373610E+03  0.18588670946E+04  0.16997249191E+04 0.  0.
        2    1    3    3  502    0 -0.37331738858E+03  0.41936172315E+03 -0.10739998619E+04  0.12119017414E+04  0.25500000920E-02 0.  1.
       -2    1    3    3    0  502  0.37331738858E+03 -0.41936172315E+03  0.32145612577E+03  0.64696535321E+03  0.25500000920E-02 0. -1.
</event>
<event>
 5   0  0.7082527E-06  0.1701031E+04  0.7818609E-02  0.8760777E-01
        1   -1    0    0  501    0  0.00000000000E+00  0.00000000000E+00  0.17540707734E+04  0.17540707735E+04  0.50400001928E-02 0. -1.
       -1   -1    0    0    0  501  0.00000000000E+00  0.00000000000E+00 -0.41239867047E+03  0.41239867050E+03  0.50400001928E-02 0.  1.
    10030    2    1    2    0    0  0.00000000000E+00  0.00000000000E+00  0.13416721030E+04  0.21664694439E+04  0.17010308109E+04 0.  0.
        1    1    3    3  502    0  0.78606791309E+03  0.14079425954E+03  0.10435758479E+04  0.13140686199E+04  0.50400001928E-02 0. -1.
       -1    1    3    3    0  502 -0.78606791309E+03 -0.14079425954E+03  0.29809625511E+03  0.85240082406E+03  0.50400001928E-02 0.  1.
</event>
<event>
 5   0  0.1441756E-05  0.1703029E+04  0.7818609E-02  0.8759639E-01
        2   -1    0    0  501    0  0.00000000000E+00  0.00000000000E+00  0.71386725024E+03  0.71386725025E+03  0.25500000920E-02 0. -1.
       -2   -1    0    0    0  501  0.00000000000E+00  0.00000000000E+00 -0.10157028713E+04  0.10157028713E+04  0.25500000920E-02 0.  1.
    10030    2    1    2    0    0  0.00000000000E+00  0.00000000000E+00 -0.30183562109E+03  0.17295701216E+04  0.17030290847E+04 0.  0.
        5    1    3    3  502    0  0.62219645423E+03 -0.55404799771E+03  0.27771160545E+02  0.83360118689E+03  0.46999998093E+01 0. -1.
       -5    1    3    3    0  502 -0.62219645423E+03  0.55404799771E+03 -0.32960678163E+03  0.89596893469E+03  0.46999998093E+01 0.  1.
</event>
<event>
 5   0  0.7461128E-06  0.1699622E+04  0.7818609E-02  0.8761580E-01
       -1   -1    0    0    0  501  0.00000000000E+00  0.00000000000E+00  0.48297046028E+03  0.48297046031E+03  0.50400001928E-02 0. -1.
        1   -1    0    0  501    0  0.00000000000E+00  0.00000000000E+00 -0.14952855977E+04  0.14952855977E+04  0.50400001928E-02 0.  1.
    10030    2    1    2    0    0  0.00000000000E+00  0.00000000000E+00 -0.10123151375E+04  0.19782560581E+04  0.16996220444E+04 0.  0.
        3    1    3    3  502    0  0.41653920674E+03  0.59472847866E+03  0.77868438139E+01  0.72613188831E+03  0.10100000352E+00 0. -1.
       -3    1    3    3    0  502 -0.41653920674E+03 -0.59472847866E+03 -0.10201019813E+04  0.12521241697E+04  0.10100000352E+00 0.  1.
</event>
<event>
 5   0  0.1419012E-05  0.1705214E+04  0.7818609E-02  0.8758396E-01
       -2   -1    0    0    0  501  0.00000000000E+00  0.00000000000E+00  0.62870984008E+03  0.62870984009E+03  0.25500000920E-02 0. -1.
        2   -1    0    0  501    0  0.00000000000E+00  0.00000000000E+00 -0.11562382842E+04  0.11562382842E+04  0.25500000920E-02 0.  1.
    10030    2    1    2    0    0  0.00000000000E+00  0.00000000000E+00 -0.52752844413E+03  0.17849481243E+04  0.17052136368E+04 0.  0.
        4    1    3    3  502    0  0.71956347325E+03  0.45300714456E+03 -0.19797884910E+03  0.87303167333E+03  0.12699999809E+01 0. -1.
       -4    1    3    3    0  502 -0.71956347325E+03 -0.45300714456E+03 -0.32954959502E+03  0.91191645096E+03  0.12699999809E+01 0.  1.
</event>
<event>
 5   0  0.5229750E-06  0.1702014E+04  0.7818609E-02  0.8760217E-01
       -4   -1    0    0    0  501  0.00000000000E+00  0.00000000000E+00  0.19985103851E+04  0.19985107886E+04  0.12699999809E+01 0. -1.
        4   -1    0    0  501    0  0.00000000000E+00  0.00000000000E+00 -0.36237475307E+03  0.36237697852E+03  0.12699999809E+01 0.  1.
    10030    2    1    2    0    0  0.00000000000E+00  0.00000000000E+00  0.16361356320E+04  0.23608877671E+04  0.17020138785E+04 0.  0.
        2    1    3    3  502    0 -0.22192994660E+03 -0.75754875431E+03  0.37706189588E+03  0.87481923257E+03  0.25500000920E-02 0.  1.
       -2    1    3    3    0  502  0.22192994660E+03  0.75754875431E+03  0.12590737361E+04  0.14860685345E+04  0.25500000920E-02 0. -1.
</event>
<event>
 5   0  0.7082527E-06  0.1700593E+04  0.7818609E-02  0.8761026E-01
        1   -1    0    0  501    0  0.00000000000E+00  0.00000000000E+00  0.10096015343E+04  0.10096015343E+04  0.50400001928E-02 0.  1.
       -1   -1    0    0    0  501  0.00000000000E+00  0.00000000000E+00 -0.71612790419E+03  0.71612790421E+03  0.50400001928E-02 0. -1.
    10030    2    1    2    0    0  0.00000000000E+00  0.00000000000E+00  0.29347363007E+03  0.17257294385E+04  0.17005926388E+04 0.  0.
        1    1    3    3  502    0  0.65090609154E+03  0.34457856388E+03  0.57797787852E+03  0.93620059537E+03  0.50400001928E-02 0.  1.
       -1    1    3    3    0  502 -0.65090609154E+03 -0.34457856388E+03 -0.28450424845E+03  0.78952884311E+03  0.50400001928E-02 0. -1.
</event>
<event>
 5   0  0.7082527E-06  0.1699949E+04  0.7818609E-02  0.8761393E-01
       -1   -1    0    0    0  501  0.00000000000E+00  0.00000000000E+00  0.11039429854E+04  0.11039429854E+04  0.50400001928E-02 0.  1.
        1   -1    0    0  501    0  0.00000000000E+00  0.00000000000E+00 -0.65443316346E+03  0.65443316348E+03  0.50400001928E-02 0. -1.
    10030    2    1    2    0    0  0.00000000000E+00  0.00000000000E+00  0.44950982191E+03  0.17583761489E+04  0.16999492936E+04 0.  0.
        1    1    3    3  502    0  0.27885996247E+03 -0.79291068371E+03  0.35553896966E+03  0.91262160285E+03  0.50400001928E-02 0.  1.
       -1    1    3    3    0  502 -0.27885996247E+03  0.79291068371E+03  0.93970852255E+02  0.84575454602E+03  0.50400001928E-02 0. -1.
</event>
<event>
 5   0  0.7461128E-06  0.1700125E+04  0.7818609E-02  0.8761293E-01
        1   -1    0    0  501    0  0.00000000000E+00  0.00000000000E+00  0.95793726175E+03  0.95793726176E+03  0.50400001928E-02 0. -1.
       -1   -1    0    0    0  501  0.00000000000E+00  0.00000000000E+00 -0.75433605161E+03  0.75433605162E+03  0.50400001928E-02 0.  1.
    10030    2    1    2    0    0  0.00000000000E+00  0.00000000000E+00  0.20360121014E+03  0.17122733134E+04  0.17001254210E+04 0.  0.
        3    1    3    3  502    0  0.61363220583E+03  0.57581231943E+03 -0.19485325312E+02  0.84171491572E+03  0.10100000352E+00 0. -1.
       -3    1    3    3    0  502 -0.61363220583E+03 -0.57581231943E+03  0.22308653546E+03  0.87055839767E+03  0.10100000352E+00 0.  1.
</event>
<event>
 5   0  0.1419012E-05  0.1702735E+04  0.7818609E-02  0.8759806E-01
        2   -1    0    0  501    0  0.00000000000E+00  0.00000000000E+00  0.20821972256E+04  0.20821972256E+04  0.25500000920E-02 0. -1.
       -2   -1    0    0    0  501  0.00000000000E+00  0.00000000000E+00 -0.34810673446E+03  0.34810673447E+03  0.25500000920E-02 0.  1.
    10030    2    1    2    0    0  0.00000000000E+00  0.00000000000E+00  0.17340904911E+04  0.24303039600E+04  0.17027353015E+04 0.  0.
        4    1    3    3  502    0  0.51887485669E+03  0.19869259482E+03 -0.53659430444E+02  0.55820319912E+03  0.12699999809E+01 0.  1.
       -4    1    3    3    0  502 -0.51887485669E+03 -0.19869259482E+03  0.17877499216E+04  0.18721007609E+04  0.12699999809E+01 0. -1.
</event>
<event>
 5   0  0.1374441E-05  0.1699957E+04  0.7818609E-02  0.8761389E-01
       -2   -1    0    0    0  501  0.00000000000E+00  0.00000000000E+00  0.62241769421E+03  0.62241769421E+03  0.25500000920E-02 0. -1.
        2   -1    0    0  501    0  0.00000000000E+00  0.00000000000E+00 -0.11607375813E+04  0.11607375813E+04  0.25500000920E-02 0.  1.
    10030    2    1    2    0    0  0.00000000000E+00  0.00000000000E+00 -0.53831988714E+03  0.17831552756E+04  0.16999571865E+04 0.  0.
        1    1    3    3  502    0 -0.15025778767E+03 -0.58422761745E+03 -0.89726848753E+03  0.10811984325E+04  0.50400001928E-02 0.  1.
       -1    1    3    3    0  502  0.15025778767E+03  0.58422761745E+03  0.35894860039E+03  0.70195684304E+03  0.50400001928E-02 0. -1.
</event>
<event>
 5   0  0.5229750E-06  0.1701189E+04  0.7818609E-02  0.8760686E-01
        4   -1    0    0  501    0  0.00000000000E+00  0.00000000000E+00  0.73274758451E+03  0.73274868509E+03  0.12699999809E+01 0. -1.
       -4   -1    0    0    0  501  0.00000000000E+00  0.00000000000E+00 -0.98739247702E+03  0.98739329377E+03  0.12699999809E+01 0.  1.
    10030    2    1    2    0    0  0.00000000000E+00  0.00000000000E+00 -0.25464489251E+03  0.17201419789E+04  0.17011891153E+04 0.  0.
        4    1    3    3  502    0 -0.41797592571E+03 -0.37685837757E+03 -0.77222381433E+03  0.95554034113E+03  0.12699999809E+01 0. -1.
       -4    1    3    3    0  502  0.41797592571E+03  0.37685837757E+03  0.51757892181E+03  0.76460163773E+03  0.12699999809E+01 0.  1.
</event>
<event>
 5   0  0.7476457E-06  0.1700191E+04  0.7818609E-02  0.8761256E-01
       -1   -1    0    0    0  501  0.00000000000E+00  0.00000000000E+00  0.13618644033E+04  0.13618644033E+04  0.50400001928E-02 0. -1.
        1   -1    0    0  501    0  0.00000000000E+00  0.00000000000E+00 -0.53064164593E+03  0.53064164596E+03  0.50400001928E-02 0.  1.
    10030    2    1    2    0    0  0.00000000000E+00  0.00000000000E+00  0.83122275739E+03  0.18925060493E+04  0.17001905406E+04 0.  0.
        2    1    3    3  502    0 -0.33530712189E+03  0.17280295877E+03  0.12636043415E+04  0.13187068136E+04  0.25500000920E-02 0. -1.
       -2    1    3    3    0  502  0.33530712189E+03 -0.17280295877E+03 -0.43238158409E+03  0.57379923564E+03  0.25500000920E-02 0.  1.
</event>
<event>
 5   0  0.5229750E-06  0.1697748E+04  0.7818609E-02  0.8762650E-01
        3   -1    0    0  501    0  0.00000000000E+00  0.00000000000E+00  0.12307778038E+04  0.12307778079E+04  0.10100000352E+00 0. -1.
       -3   -1    0    0    0  501  0.00000000000E+00  0.00000000000E+00 -0.58547286892E+03  0.58547287763E+03  0.10100000352E+00 0.  1.
    10030    2    1    2    0    0  0.00000000000E+00  0.00000000000E+00  0.64530493486E+03  0.18162506856E+04  0.16977479477E+04 0.  0.
        2    1    3    3  502    0  0.23972651989E+03  0.70696929964E+03 -0.10967463432E+03  0.75452165005E+03  0.25500000920E-02 0.  1.
       -2    1    3    3    0  502 -0.23972651989E+03 -0.70696929964E+03  0.75497956918E+03  0.10617290355E+04  0.25500000920E-02 0. -1.
</event>
<event>
 5   0  0.1419012E-05  0.1699812E+04  0.7818609E-02  0.8761472E-01
        2   -1    0    0  501    0  0.00000000000E+00  0.00000000000E+00  0.17586384778E+04  0.17586384778E+04  0.25500000920E-02 0. -1.
       -2   -1    0    0    0  501  0.00000000000E+00  0.00000000000E+00 -0.41073832123E+03  0.41073832123E+03  0.25500000920E-02 0.  1.
    10030    2    1    2    0    0  0.00000000000E+00  0.00000000000E+00  0.13479001566E+04  0.21693767991E+04  0.16998120085E+04 0.  0.
        4    1    3    3  502    0  0.13283258030E+03  0.11363521000E+03 -0.38754615994E+03  0.42514832038E+03  0.12699999809E+01 0.  1.
       -4    1    3    3    0  502 -0.13283258030E+03 -0.11363521000E+03  0.17354463165E+04  0.17442284787E+04  0.12699999809E+01 0. -1.
</event>
<event>
 5   0  0.7461128E-06  0.1698948E+04  0.7818609E-02  0.8761964E-01
       -1   -1    0    0    0  501  0.00000000000E+00  0.00000000000E+00  0.90324266288E+03  0.90324266290E+03  0.50400001928E-02 0.  1.
        1   -1    0    0  501    0  0.00000000000E+00  0.00000000000E+00 -0.79890650879E+03  0.79890650881E+03  0.50400001928E-02 0. -1.
    10030    2    1    2    0    0  0.00000000000E+00  0.00000000000E+00  0.10433615409E+03  0.17021491717E+04  0.16989484306E+04 0.  0.
        3    1    3    3  502    0 -0.45344730163E+03  0.84051768006E+02  0.76690346509E+03  0.89488551783E+03  0.10100000352E+00 0.  1.
       -3    1    3    3    0  502  0.45344730163E+03 -0.84051768006E+02 -0.66256731100E+03  0.80726365387E+03  0.10100000352E+00 0. -1.
</event>
<event>
 5   0  0.1419012E-05  0.1699867E+04  0.7818609E-02  0.8761440E-01
       -2   -1    0    0    0  501  0.00000000000E+00  0.00000000000E+00  0.51232309918E+03  0.51232309919E+03  0.25500000920E-02 0. -1.
        2   -1    0    0  501    0  0.00000000000E+00  0.00000000000E+00 -0.14100225960E+04  0.14100225960E+04  0.25500000920E-02 0.  1.
    10030    2    1    2    0    0  0.00000000000E+00  0.00000000000E+00 -0.89769949682E+03  0.19223456952E+04  0.16998672258E+04 0.  0.
        4    1    3    3  502    0  0.13182417089E+03  0.56381005744E+03  0.25477764320E+03  0.63259201170E+03  0.12699999809E+01 0. -1.
       -4    1    3    3    0  502 -0.13182417089E+03 -0.56381005744E+03 -0.11524771400E+04  0.12897536835E+04  0.12699999809E+01 0.  1.
</event>
<event>
 5   0  0.7461128E-06  0.1699903E+04  0.7818609E-02  0.8761420E-01
       -1   -1    0    0    0  501  0.00000000000E+00  0.00000000000E+00  0.41958656870E+03  0.41958656873E+03  0.50400001928E-02 0. -1.
        1   -1    0    0  501    0  0.00000000000E+00  0.00000000000E+00 -0.17217358481E+04  0.17217358481E+04  0.50400001928E-02 0.  1.
    10030    2    1    2    0    0  0.00000000000E+00  0.00000000000E+00 -0.13021492794E+04  0.21413224168E+04  0.16999026287E+04 0.  0.
        3    1    3    3  502    0  0.17274692761E+03  0.52880141909E+03 -0.14605507028E+04  0.15629078052E+04  0.10100000352E+00 0.  1.
       -3    1    3    3    0  502 -0.17274692761E+03 -0.52880141909E+03  0.15840142341E+03  0.57841461165E+03  0.10100000352E+00 0. -1.
</event>
<event>
 5   0  0.7082527E-06  0.1699190E+04  0.7818609E-02  0.8761827E-01
       -1   -1    0    0    0  501  0.00000000000E+00  0.00000000000E+00  0.72645951901E+03  0.72645951903E+03  0.50400001928E-02 0. -1.
        1   -1    0    0  501    0  0.00000000000E+00  0.00000000000E+00 -0.99360195196E+03  0.99360195197E+03  0.50400001928E-02 0.  1.
    10030    2    1    2    0    0  0.00000000000E+00  0.00000000000E+00 -0.26714243294E+03  0.17200614710E+04  0.16991899201E+04 0.  0.
        1    1    3    3  502    0  0.81099657137E+03  0.15160261735E+03 -0.33882472634E+03  0.89190862063E+03  0.50400001928E-02 0. -1.
       -1    1    3    3    0  502 -0.81099657137E+03 -0.15160261735E+03  0.71682293397E+02  0.82815285037E+03  0.50400001928E-02 0.  1.
</event>
<event>
 5   0  0.1419012E-05  0.1700436E+04  0.7818609E-02  0.8761116E-01
        2   -1    0    0  501    0  0.00000000000E+00  0.00000000000E+00  0.10527084704E+04  0.10527084704E+04  0.25500000920E-02 0.  1.
       -2   -1    0    0    0  501  0.00000000000E+00  0.00000000000E+00 -0.68667672670E+03  0.68667672670E+03  0.25500000920E-02 0. -1.
    10030    2    1    2    0    0  0.00000000000E+00  0.00000000000E+00  0.36603174375E+03  0.17393851971E+04  0.17004357167E+04 0.  0.
        4    1    3    3  502    0  0.66571165957E+03  0.20400609644E+02 -0.35755909692E+03  0.75593539357E+03  0.12699999809E+01 0. -1.
       -4    1    3    3    0  502 -0.66571165957E+03 -0.20400609644E+02  0.72359084067E+03  0.98344980358E+03  0.12699999809E+01 0.  1.
</event>
<event>
 5   0  0.1374441E-05  0.1699843E+04  0.7818609E-02  0.8761454E-01
       -2   -1    0    0    0  501  0.00000000000E+00  0.00000000000E+00  0.60542662171E+03  0.60542662172E+03  0.25500000920E-02 0.  1.
        2   -1    0    0  501    0  0.00000000000E+00  0.00000000000E+00 -0.11931528288E+04  0.11931528288E+04  0.25500000920E-02 0. -1.
    10030    2    1    2    0    0  0.00000000000E+00  0.00000000000E+00 -0.58772620704E+03  0.17985794505E+04  0.16998429178E+04 0.  0.
        1    1    3    3  502    0 -0.44246025944E+03 -0.46910093256E+03  0.29195692450E+03  0.70785988154E+03  0.50400001928E-02 0.  1.
       -1    1    3    3    0  502  0.44246025944E+03  0.46910093256E+03 -0.87968313154E+03  0.10907195689E+04  0.50400001928E-02 0. -1.
</event>
<event>
 5   0  0.1435301E-05  0.1699173E+04  0.7818609E-02  0.8761836E-01
       -2   -1    0    0    0  501  0.00000000000E+00  0.00000000000E+00  0.10468396639E+04  0.10468396639E+04  0.25500000920E-02 0.  1.
        2   -1    0    0  501    0  0.00000000000E+00  0.00000000000E+00 -0.68950158559E+03  0.68950158559E+03  0.25500000920E-02 0. -1.
    10030    2    1    2    0    0  0.00000000000E+00  0.00000000000E+00  0.35733807834E+03  0.17363412495E+04  0.16991734557E+04 0.  0.
        2    1    3    3  502    0  0.41042792442E+02  0.38743896769E+03 -0.59283174914E+03  0.70939618500E+03  0.25500000920E-02 0. -1.
       -2    1    3    3    0  502 -0.41042792442E+02 -0.38743896769E+03  0.95016982748E+03  0.10269450645E+04  0.25500000920E-02 0.  1.
</event>
<event>
 5   0  0.1419012E-05  0.1700697E+04  0.7818609E-02  0.8760967E-01
        2   -1    0    0  501    0  0.00000000000E+00  0.00000000000E+00  0.96119165270E+03  0.96119165270E+03  0.25500000920E-02 0. -1.
       -2   -1    0    0    0  501  0.00000000000E+00  0.00000000000E+00 -0.75228760095E+03  0.75228760095E+03  0.25500000920E-02 0.  1.
    10030    2    1    2    0    0  0.00000000000E+00  0.00000000000E+00  0.20890405175E+03  0.17134792537E+04  0.17006969894E+04 0.  0.
        4    1    3    3  502    0 -0.58565219197E+03  0.48970925498E+03 -0.27291251916E+03  0.81073207682E+03  0.12699999809E+01 0.  1.
       -4    1    3    3    0  502  0.58565219197E+03 -0.48970925498E+03  0.48181657091E+03  0.90274717683E+03  0.12699999809E+01 0. -1.
</event>
<event>
 5   0  0.7082527E-06  0.1698032E+04  0.7818609E-02  0.8762487E-01
       -1   -1    0    0    0  501  0.00000000000E+00  0.00000000000E+00  0.69997917759E+03  0.69997917761E+03  0.50400001928E-02 0. -1.
        1   -1    0    0  501    0  0.00000000000E+00  0.00000000000E+00 -0.10297855039E+04  0.10297855040E+04  0.50400001928E-02 0.  1.
    10030    2    1    2    0    0  0.00000000000E+00  0.00000000000E+00 -0.32980632635E+03  0.17297646816E+04  0.16980322849E+04 0.  0.
        1    1    3    3  502    0 -0.32646701283E+03  0.28360898392E+02 -0.96276614695E+03  0.10170072295E+04  0.50400001928E-02 0.  1.
       -1    1    3    3    0  502  0.32646701283E+03 -0.28360898392E+02  0.63295982060E+03  0.71275745211E+03  0.50400001928E-02 0. -1.
</event>
<event>
 5   0  0.7461128E-06  0.1698632E+04  0.7818609E-02  0.8762145E-01
       -1   -1    0    0    0  501  0.00000000000E+00  0.00000000000E+00  0.10700414896E+04  0.10700414896E+04  0.50400001928E-02 0.  1.
        1   -1    0    0  501    0  0.00000000000E+00  0.00000000000E+00 -0.67412154870E+03  0.67412154872E+03  0.50400001928E-02 0. -1.
    10030    2    1    2    0    0  0.00000000000E+00  0.00000000000E+00  0.39591994089E+03  0.17441630383E+04  0.16986324219E+04 0.  0.
        3    1    3    3  502    0  0.59366985019E+03  0.22553102671E+03  0.77701739301E+03  0.10035258713E+04  0.10100000352E+00 0.  1.
       -3    1    3    3    0  502 -0.59366985019E+03 -0.22553102671E+03 -0.38109745212E+03  0.74063716707E+03  0.10100000352E+00 0. -1.
</event>
<event>
 5   0  0.1435301E-05  0.1699333E+04  0.7818609E-02  0.8761745E-01
        2   -1    0    0  501    0  0.00000000000E+00  0.00000000000E+00  0.12475640692E+04  0.12475640692E+04  0.25500000920E-02 0.  1.
       -2   -1    0    0    0  501  0.00000000000E+00  0.00000000000E+00 -0.57867412761E+03  0.57867412762E+03  0.25500000920E-02 0. -1.
    10030    2    1    2    0    0  0.00000000000E+00  0.00000000000E+00  0.66888994159E+03  0.18262381968E+04  0.16993328684E+04 0.  0.
        2    1    3    3  502    0  0.47370333550E+03  0.93148202813E+02  0.10858462534E+04  0.11883322447E+04  0.25500000920E-02 0.  1.
       -2    1    3    3    0  502 -0.47370333550E+03 -0.93148202813E+02 -0.41695631183E+03  0.63790595211E+03  0.25500000920E-02 0. -1.
</event>
<event>
 5   0  0.7476457E-06  0.1699890E+04  0.7818609E-02  0.8761427E-01
       -1   -1    0    0    0  501  0.00000000000E+00  0.00000000000E+00  0.97542939165E+03  0.97542939166E+03  0.50400001928E-02 0.  1.
        1   -1    0    0  501    0  0.00000000000E+00  0.00000000000E+00 -0.74060392353E+03  0.74060392355E+03  0.50400001928E-02 0. -1.
    10030    2    1    2    0    0  0.00000000000E+00  0.00000000000E+00  0.23482546811E+03  0.17160333152E+04  0.16998903901E+04 0.  0.
        2    1    3    3  502    0 -0.24945425815E+03  0.79021744824E+03  0.30824706351E+03  0.88413081305E+03  0.25500000920E-02 0. -1.
       -2    1    3    3    0  502  0.24945425815E+03 -0.79021744824E+03 -0.73421595395E+02  0.83190250216E+03  0.25500000920E-02 0.  1.
</event>
<event>
 5   0  0.7455669E-06  0.1700065E+04  0.7818609E-02  0.8761327E-01
        1   -1    0    0  501    0  0.00000000000E+00  0.00000000000E+00  0.45301828991E+03  0.45301828994E+03  0.50400001928E-02 0.  1.
       -1   -1    0    0    0  501  0.00000000000E+00  0.00000000000E+00 -0.15949802234E+04  0.15949802234E+04  0.50400001928E-02 0. -1.
    10030    2    1    2    0    0  0.00000000000E+00  0.00000000000E+00 -0.11419619335E+04  0.20479985133E+04  0.17000649556E+04 0.  0.
        4    1    3    3  502    0 -0.58148252978E+03  0.58410081052E+03 -0.32042953212E+03  0.88429202600E+03  0.12699999809E+01 0.  1.
       -4    1    3    3    0  502  0.58148252978E+03 -0.58410081052E+03 -0.82153240135E+03  0.11637064873E+04  0.12699999809E+01 0. -1.
</event>
<event>
 5   0  0.7455669E-06  0.1700322E+04  0.7818609E-02  0.8761181E-01
        1   -1    0    0  501    0  0.00000000000E+00  0.00000000000E+00  0.10894293139E+04  0.10894293139E+04  0.50400001928E-02 0.  1.
       -1   -1    0    0    0  501  0.00000000000E+00  0.00000000000E+00 -0.66344222394E+03  0.66344222396E+03  0.50400001928E-02 0. -1.
    10030    2    1    2    0    0  0.00000000000E+00  0.00000000000E+00  0.42598708992E+03  0.17528715378E+04  0.17003216247E+04 0.  0.
        4    1    3    3  502    0 -0.21979017279E+03  0.80515094365E+03  0.37984759997E+03  0.91698504580E+03  0.12699999809E+01 0.  1.
       -4    1    3    3    0  502  0.21979017279E+03 -0.80515094365E+03  0.46139489947E+02  0.83588649202E+03  0.12699999809E+01 0. -1.
</event>
<event>
 5   0  0.1435301E-05  0.1699854E+04  0.7818609E-02  0.8761448E-01
        2   -1    0    0  501    0  0.00000000000E+00  0.00000000000E+00  0.11749954443E+04  0.11749954443E+04  0.25500000920E-02 0. -1.
       -2   -1    0    0    0  501  0.00000000000E+00  0.00000000000E+00 -0.61479018890E+03  0.61479018891E+03  0.25500000920E-02 0.  1.
    10030    2    1    2    0    0  0.00000000000E+00  0.00000000000E+00  0.56020525535E+03  0.17897856332E+04  0.16998537245E+04 0.  0.
        2    1    3    3  502    0 -0.92631886983E+01  0.70995905233E+03 -0.21178354142E+03  0.74093179921E+03  0.25500000920E-02 0.  1.
       -2    1    3    3    0  502  0.92631886983E+01 -0.70995905233E+03  0.77198879678E+03  0.10488538340E+04  0.25500000920E-02 0. -1.
</event>
<event>
 5   0  0.7082527E-06  0.1699717E+04  0.7818609E-02  0.8761526E-01
       -1   -1    0    0    0  501  0.00000000000E+00  0.00000000000E+00  0.21253467503E+04  0.21253467503E+04  0.50400001928E-02 0. -1.
        1   -1    0    0  501    0  0.00000000000E+00  0.00000000000E+00 -0.33983130568E+03  0.33983130572E+03  0.50400001928E-02 0.  1.
    10030    2    1    2    0    0  0.00000000000E+00  0.00000000000E+00  0.17855154446E+04  0.24651780560E+04  0.16997168720E+04 0.  0.
        1    1    3    3  502    0  0.62391652026E+03 -0.32568273047E+03  0.15836438373E+04  0.17329941918E+04  0.50400001928E-02 0. -1.
       -1    1    3    3    0  502 -0.62391652026E+03  0.32568273047E+03  0.20187160725E+03  0.73218386421E+03  0.50400001928E-02 0.  1.
</event>
<event>
 5   0  0.1435301E-05  0.1699828E+04  0.7818609E-02  0.8761462E-01
       -2   -1    0    0    0  501  0.00000000000E+00  0.00000000000E+00  0.11640964125E+04  0.11640964125E+04  0.25500000920E-02 0.  1.
        2   -1    0    0  501    0  0.00000000000E+00  0.00000000000E+00 -0.62052765051E+03  0.62052765051E+03  0.25500000920E-02 0. -1.
    10030    2    1    2    0    0  0.00000000000E+00  0.00000000000E+00  0.54356876198E+03  0.17846240630E+04  0.16998282405E+04 0.  0.
        2    1    3    3  502    0 -0.40260077091E+03  0.74691137895E+03  0.32311101098E+03  0.90794532554E+03  0.25500000920E-02 0.  1.
       -2    1    3    3    0  502  0.40260077091E+03 -0.74691137895E+03  0.22045775099E+03  0.87667873746E+03  0.25500000920E-02 0. -1.
</event>
<event>
 5   0  0.1435301E-05  0.1699213E+04  0.7818609E-02  0.8761813E-01
        2   -1    0    0  501    0  0.00000000000E+00  0.00000000000E+00  0.12932876566E+04  0.12932876566E+04  0.25500000920E-02 0. -1.
       -2   -1    0    0    0  501  0.00000000000E+00  0.00000000000E+00 -0.55813673359E+03  0.55813673360E+03  0.25500000920E-02 0.  1.
    10030    2    1    2    0    0  0.00000000000E+00  0.00000000000E+00  0.73515092303E+03  0.18514243902E+04  0.16992131688E+04 0.  0.
        2    1    3    3  502    0  0.36850156809E+03 -0.44110934512E+03  0.10492892563E+04  0.11964024421E+04  0.25500000920E-02 0. -1.
       -2    1    3    3    0  502 -0.36850156809E+03  0.44110934512E+03 -0.31413833331E+03  0.65502194811E+03  0.25500000920E-02 0.  1.
</event>
<event>
 5   0  0.1435301E-05  0.1702700E+04  0.7818609E-02  0.8759826E-01
       -2   -1    0    0    0  501  0.00000000000E+00  0.00000000000E+00  0.34330133287E+03  0.34330133288E+03  0.25500000920E-02 0.  1.
        2   -1    0    0  501    0  0.00000000000E+00  0.00000000000E+00 -0.21112543135E+04  0.21112543135E+04  0.25500000920E-02 0. -1.
    10030    2    1    2    0    0  0.00000000000E+00  0.00000000000E+00 -0.17679529806E+04  0.24545556463E+04  0.17026995270E+04 0.  0.
        2    1    3    3  502    0  0.37566604706E+03  0.52636596094E+03 -0.16822068623E+04  0.18022225255E+04  0.25500000920E-02 0. -1.
       -2    1    3    3    0  502 -0.37566604706E+03 -0.52636596094E+03 -0.85746118275E+02  0.65233312085E+03  0.25500000920E-02 0.  1.
</event>
<event>
 5   0  0.1374441E-05  0.1700081E+04  0.7818609E-02  0.8761318E-01
       -2   -1    0    0    0  501  0.00000000000E+00  0.00000000000E+00  0.59083989285E+03  0.59083989286E+03  0.25500000920E-02 0.  1.
        2   -1    0    0  501    0  0.00000000000E+00  0.00000000000E+00 -0.12229519830E+04  0.12229519830E+04  0.25500000920E-02 0. -1.
    10030    2    1    2    0    0  0.00000000000E+00  0.00000000000E+00 -0.63211209017E+03  0.18137918759E+04  0.17000809611E+04 0.  0.
        1    1    3    3  502    0 -0.11465606403E+03 -0.71145954860E+03  0.16492849025E+03  0.73927133668E+03  0.50400001928E-02 0. -1.
       -1    1    3    3    0  502  0.11465606403E+03  0.71145954860E+03 -0.79704058042E+03  0.10745205392E+04  0.50400001928E-02 0.  1.
</event>
<event>
 5   0  0.7476457E-06  0.1699902E+04  0.7818609E-02  0.8761420E-01
        1   -1    0    0  501    0  0.00000000000E+00  0.00000000000E+00  0.10400119799E+04  0.10400119800E+04  0.50400001928E-02 0. -1.
       -1   -1    0    0    0  501  0.00000000000E+00  0.00000000000E+00 -0.69462358685E+03  0.69462358686E+03  0.50400001928E-02 0.  1.
    10030    2    1    2    0    0  0.00000000000E+00  0.00000000000E+00  0.34538839310E+03  0.17346355668E+04  0.16999021759E+04 0.  0.
        2    1    3    3  502    0 -0.22908447860E+03  0.10710179174E+03  0.10007338086E+04  0.10321911877E+04  0.25500000920E-02 0. -1.
       -2    1    3    3    0  502  0.22908447860E+03 -0.10710179174E+03 -0.65534541554E+03  0.70244437916E+03  0.25500000920E-02 0.  1.
</event>
<event>
 5   0  0.1419012E-05  0.1690266E+04  0.7818609E-02  0.8766936E-01
        2   -1    0    0  501    0  0.00000000000E+00  0.00000000000E+00  0.13608573394E+04  0.13608573394E+04  0.25500000920E-02 0.  1.
       -2   -1    0    0    0  501  0.00000000000E+00  0.00000000000E+00 -0.52485260744E+03  0.52485260744E+03  0.25500000920E-02 0. -1.
    10030    2    1    2    0    0  0.00000000000E+00  0.00000000000E+00  0.83600473192E+03  0.18857099468E+04  0.16902656867E+04 0.  0.
        4    1    3    3  502    0 -0.43511345314E+03  0.16797988918E+03 -0.36826460964E+03  0.59427383914E+03  0.12699999809E+01 0. -1.
       -4    1    3    3    0  502  0.43511345314E+03 -0.16797988918E+03  0.12042693416E+04  0.12914361077E+04  0.12699999809E+01 0.  1.
</event>
<event>
 5   0  0.1441756E-05  0.1702473E+04  0.7818609E-02  0.8759955E-01
       -2   -1    0    0    0  501  0.00000000000E+00  0.00000000000E+00  0.96686618296E+03  0.96686618296E+03  0.25500000920E-02 0. -1.
        2   -1    0    0  501    0  0.00000000000E+00  0.00000000000E+00 -0.74943543284E+03  0.74943543285E+03  0.25500000920E-02 0.  1.
    10030    2    1    2    0    0  0.00000000000E+00  0.00000000000E+00  0.21743075011E+03  0.17163016158E+04  0.17024732319E+04 0.  0.
        5    1    3    3  502    0 -0.75756639678E+03 -0.14108948395E+03  0.47327204919E+03  0.90433489955E+03  0.46999998093E+01 0.  1.
       -5    1    3    3    0  502  0.75756639678E+03  0.14108948395E+03 -0.25584129907E+03  0.81196671626E+03  0.46999998093E+01 0. -1.
</event>
<event>
 5   0  0.7461128E-06  0.1700445E+04  0.7818609E-02  0.8761110E-01
       -1   -1    0    0    0  501  0.00000000000E+00  0.00000000000E+00  0.88836809058E+03  0.88836809059E+03  0.50400001928E-02 0. -1.
        1   -1    0    0  501    0  0.00000000000E+00  0.00000000000E+00 -0.81371501134E+03  0.81371501135E+03  0.50400001928E-02 0.  1.
    10030    2    1    2    0    0  0.00000000000E+00  0.00000000000E+00  0.74653079240E+02  0.17020831019E+04  0.17004451781E+04 0.  0.
        3    1    3    3  502    0 -0.83191421280E+03  0.17516781618E+03  0.47986653836E+02  0.85150910179E+03  0.10100000352E+00 0.  1.
       -3    1    3    3    0  502  0.83191421280E+03 -0.17516781618E+03  0.26666425404E+02  0.85057400015E+03  0.10100000352E+00 0. -1.
</event>
<event>
 5   0  0.1441756E-05  0.1699561E+04  0.7818609E-02  0.8761615E-01
        2   -1    0    0  501    0  0.00000000000E+00  0.00000000000E+00  0.27535997796E+04  0.27535997796E+04  0.25500000920E-02 0. -1.
       -2   -1    0    0    0  501  0.00000000000E+00  0.00000000000E+00 -0.26224829957E+03  0.26224829958E+03  0.25500000920E-02 0.  1.
    10030    2    1    2    0    0  0.00000000000E+00  0.00000000000E+00  0.24913514800E+04  0.30158480792E+04  0.16995609550E+04 0.  0.
        5    1    3    3  502    0 -0.67466414597E+02 -0.74127246760E+03  0.51820510736E+03  0.90697034771E+03  0.46999998093E+01 0.  1.
       -5    1    3    3    0  502  0.67466414597E+02  0.74127246760E+03  0.19731463727E+04  0.21088777315E+04  0.46999998093E+01 0. -1.
</event>
<event>
 5   0  0.7583716E-06  0.1700320E+04  0.7818609E-02  0.8761182E-01
        1   -1    0    0  501    0  0.00000000000E+00  0.00000000000E+00  0.74112105418E+03  0.74112105419E+03  0.50400001928E-02 0.  1.
       -1   -1    0    0    0  501  0.00000000000E+00  0.00000000000E+00 -0.97524125496E+03  0.97524125497E+03  0.50400001928E-02 0. -1.
    10030    2    1    2    0    0  0.00000000000E+00  0.00000000000E+00 -0.23412020078E+03  0.17163623092E+04  0.17003197664E+04 0.  0.
        5    1    3    3  502    0  0.79175345634E+03  0.12114702178E+03 -0.40470409519E+03  0.89741720018E+03  0.46999998093E+01 0. -1.
       -5    1    3    3    0  502 -0.79175345634E+03 -0.12114702178E+03  0.17058389441E+03  0.81894510899E+03  0.46999998093E+01 0.  1.
</event>
<event>
 5   0  0.1441756E-05  0.1700688E+04  0.7818609E-02  0.8760972E-01
        2   -1    0    0  501    0  0.00000000000E+00  0.00000000000E+00  0.14627489348E+04  0.14627489348E+04  0.25500000920E-02 0.  1.
       -2   -1    0    0    0  501  0.00000000000E+00  0.00000000000E+00 -0.49433273551E+03  0.49433273551E+03  0.25500000920E-02 0. -1.
    10030    2    1    2    0    0  0.00000000000E+00  0.00000000000E+00  0.96841619929E+03  0.19570816703E+04  0.17006877224E+04 0.  0.
        5    1    3    3  502    0  0.14250040397E+03  0.76490074556E+03  0.87897558918E+03  0.11738823161E+04  0.46999998093E+01 0.  1.
       -5    1    3    3    0  502 -0.14250040397E+03 -0.76490074556E+03  0.89440610106E+02  0.78319935420E+03  0.46999998093E+01 0. -1.
</event>
<event>
 5   0  0.1435301E-05  0.1707530E+04  0.7818609E-02  0.8757081E-01
        2   -1    0    0  501    0  0.00000000000E+00  0.00000000000E+00  0.10626979499E+04  0.10626979499E+04  0.25500000920E-02 0.  1.
       -2   -1    0    0    0  501  0.00000000000E+00  0.00000000000E+00 -0.68590951568E+03  0.68590951568E+03  0.25500000920E-02 0. -1.
    10030    2    1    2    0    0  0.00000000000E+00  0.00000000000E+00  0.37678843426E+03  0.17486074656E+04  0.17075299542E+04 0.  0.
        2    1    3    3  502    0  0.12383936173E+03  0.61228528326E+03 -0.40757262062E+03  0.74588531068E+03  0.25500000920E-02 0. -1.
       -2    1    3    3    0  502 -0.12383936173E+03 -0.61228528326E+03  0.78436105488E+03  0.10027221549E+04  0.25500000920E-02 0.  1.
</event>
<event>
 5   0  0.7082527E-06  0.1698286E+04  0.7818609E-02  0.8762343E-01
       -1   -1    0    0    0  501  0.00000000000E+00  0.00000000000E+00  0.73329740941E+03  0.73329740943E+03  0.50400001928E-02 0. -1.
        1   -1    0    0  501    0  0.00000000000E+00  0.00000000000E+00 -0.98328919117E+03  0.98328919119E+03  0.50400001928E-02 0.  1.
    10030    2    1    2    0    0  0.00000000000E+00  0.00000000000E+00 -0.24999178176E+03  0.17165866006E+04  0.16982855079E+04 0.  0.
        1    1    3    3  502    0  0.76591669395E+03  0.25442546119E+03 -0.39181538683E+03  0.89715104345E+03  0.50400001928E-02 0.  1.
       -1    1    3    3    0  502 -0.76591669395E+03 -0.25442546119E+03  0.14182360507E+03  0.81943555717E+03  0.50400001928E-02 0. -1.
</event>
<event>
 5   0  0.7461128E-06  0.1700949E+04  0.7818609E-02  0.8760823E-01
        1   -1    0    0  501    0  0.00000000000E+00  0.00000000000E+00  0.12926155125E+04  0.12926155125E+04  0.50400001928E-02 0. -1.
       -1   -1    0    0    0  501  0.00000000000E+00  0.00000000000E+00 -0.55956868654E+03  0.55956868656E+03  0.50400001928E-02 0.  1.
    10030    2    1    2    0    0  0.00000000000E+00  0.00000000000E+00  0.73304682600E+03  0.18521841991E+04  0.17009493403E+04 0.  0.
        3    1    3    3  502    0  0.48976319009E+03 -0.56027335142E+03 -0.81829346724E+02  0.74864561901E+03  0.10100000352E+00 0.  1.
       -3    1    3    3    0  502 -0.48976319009E+03  0.56027335142E+03  0.81487617272E+03  0.11035385801E+04  0.10100000352E+00 0. -1.
</event>
<event>
 5   0  0.1419012E-05  0.1699449E+04  0.7818609E-02  0.8761679E-01
       -2   -1    0    0    0  501  0.00000000000E+00  0.00000000000E+00  0.96762298991E+03  0.96762298991E+03  0.25500000920E-02 0. -1.
        2   -1    0    0  501    0  0.00000000000E+00  0.00000000000E+00 -0.74619092993E+03  0.74619092994E+03  0.25500000920E-02 0.  1.
    10030    2    1    2    0    0  0.00000000000E+00  0.00000000000E+00  0.22143205998E+03  0.17138139199E+04  0.16994487326E+04 0.  0.
        4    1    3    3  502    0  0.25358908769E+03  0.76560408340E+03  0.38050845214E+03  0.89176529029E+03  0.12699999809E+01 0. -1.
       -4    1    3    3    0  502 -0.25358908769E+03 -0.76560408340E+03 -0.15907639217E+03  0.82204862956E+03  0.12699999809E+01 0.  1.
</event>
<event>
 5   0  0.1419012E-05  0.1699172E+04  0.7818609E-02  0.8761837E-01
        2   -1    0    0  501    0  0.00000000000E+00  0.00000000000E+00  0.16194931787E+04  0.16194931787E+04  0.25500000920E-02 0. -1.
       -2   -1    0    0    0  501  0.00000000000E+00  0.00000000000E+00 -0.44569268661E+03  0.44569268662E+03  0.25500000920E-02 0.  1.
    10030    2    1    2    0    0  0.00000000000E+00  0.00000000000E+00  0.11738004920E+04  0.20651858653E+04  0.16991718757E+04 0.  0.
        4    1    3    3  502    0 -0.34965853217E+03 -0.51125635015E+03 -0.11986771673E+03  0.63088352896E+03  0.12699999809E+01 0.  1.
       -4    1    3    3    0  502  0.34965853217E+03  0.51125635015E+03  0.12936682088E+04  0.14343023363E+04  0.12699999809E+01 0. -1.
</event>
<event>
 5   0  0.1374441E-05  0.1694679E+04  0.7818609E-02  0.8764405E-01
        2   -1    0    0  501    0  0.00000000000E+00  0.00000000000E+00  0.98713576277E+03  0.98713576278E+03  0.25500000920E-02 0.  1.
       -2   -1    0    0    0  501  0.00000000000E+00  0.00000000000E+00 -0.72734095400E+03  0.72734095400E+03  0.25500000920E-02 0. -1.
    10030    2    1    2    0    0  0.00000000000E+00  0.00000000000E+00  0.25979480878E+03  0.17144767168E+04  0.16946790462E+04 0.  0.
        1    1    3    3  502    0 -0.33283132277E+02 -0.60866884292E+03 -0.46553475034E+03  0.76701247123E+03  0.50400001928E-02 0. -1.
       -1    1    3    3    0  502  0.33283132277E+02  0.60866884292E+03  0.72532955911E+03  0.94746424554E+03  0.50400001928E-02 0.  1.
</event>
<event>
 5   0  0.1441756E-05  0.1699443E+04  0.7818609E-02  0.8761682E-01
       -2   -1    0    0    0  501  0.00000000000E+00  0.00000000000E+00  0.10021763529E+04  0.10021763529E+04  0.25500000920E-02 0. -1.
        2   -1    0    0  501    0  0.00000000000E+00  0.00000000000E+00 -0.72045907500E+03  0.72045907501E+03  0.25500000920E-02 0.  1.
    10030    2    1    2    0    0  0.00000000000E+00  0.00000000000E+00  0.28171727793E+03  0.17226354279E+04  0.16994434951E+04 0.  0.
        5    1    3    3  502    0 -0.15920768021E+03 -0.16592902123E+03  0.97002259336E+03  0.99691797413E+03  0.46999998093E+01 0. -1.
       -5    1    3    3    0  502  0.15920768021E+03  0.16592902123E+03 -0.68830531543E+03  0.72571745381E+03  0.46999998093E+01 0.  1.
</event>
<event>
 5   0  0.7461128E-06  0.1700339E+04  0.7818609E-02  0.8761171E-01
        1   -1    0    0  501    0  0.00000000000E+00  0.00000000000E+00  0.64306055331E+03  0.64306055333E+03  0.50400001928E-02 0.  1.
       -1   -1    0    0    0  501  0.00000000000E+00  0.00000000000E+00 -0.11239820306E+04  0.11239820306E+04  0.50400001928E-02 0. -1.
    10030    2    1    2    0    0  0.00000000000E+00  0.00000000000E+00 -0.48092147727E+03  0.17670425839E+04  0.17003393856E+04 0.  0.
        3    1    3    3  502    0  0.75195980499E+03  0.10093468191E+03 -0.63912019247E+03  0.99202116356E+03  0.10100000352E+00 0. -1.
       -3    1    3    3    0  502 -0.75195980499E+03 -0.10093468191E+03  0.15819871520E+03  0.77502142036E+03  0.10100000352E+00 0.  1.
</event>
<event>
 5   0  0.7082527E-06  0.1699731E+04  0.7818609E-02  0.8761518E-01
       -1   -1    0    0    0  501  0.00000000000E+00  0.00000000000E+00  0.60848548267E+03  0.60848548269E+03  0.50400001928E-02 0.  1.
        1   -1    0    0  501    0  0.00000000000E+00  0.00000000000E+00 -0.11869981785E+04  0.11869981785E+04  0.50400001928E-02 0. -1.
    10030    2    1    2    0    0  0.00000000000E+00  0.00000000000E+00 -0.57851269584E+03  0.17954836612E+04  0.16997307547E+04 0.  0.
        1    1    3    3  502    0  0.10824327943E+03  0.79901411984E+03 -0.55544335544E+01  0.80633183182E+03  0.50400001928E-02 0. -1.
       -1    1    3    3    0  502 -0.10824327943E+03 -0.79901411984E+03 -0.57295826229E+03  0.98915182939E+03  0.50400001928E-02 0.  1.
</event>
<event>
 5   0  0.1435301E-05  0.1698834E+04  0.7818609E-02  0.8762030E-01
       -2   -1    0    0    0  501  0.00000000000E+00  0.00000000000E+00  0.42290208907E+03  0.42290208908E+03  0.25500000920E-02 0.  1.
        2   -1    0    0  501    0  0.00000000000E+00  0.00000000000E+00 -0.17060909625E+04  0.17060909625E+04  0.25500000920E-02 0. -1.
    10030    2    1    2    0    0  0.00000000000E+00  0.00000000000E+00 -0.12831888734E+04  0.21289930516E+04  0.16988342264E+04 0.  0.
        2    1    3    3  502    0  0.10817192055E+03  0.83664283371E+03 -0.51729894255E+03  0.98958101819E+03  0.25500000920E-02 0. -1.
       -2    1    3    3    0  502 -0.10817192055E+03 -0.83664283371E+03 -0.76588993088E+03  0.11394120334E+04  0.25500000920E-02 0.  1.
</event>
<event>
 5   0  0.7583716E-06  0.1701520E+04  0.7818609E-02  0.8760498E-01
        1   -1    0    0  501    0  0.00000000000E+00  0.00000000000E+00  0.11852660743E+04  0.11852660743E+04  0.50400001928E-02 0. -1.
       -1   -1    0    0    0  501  0.00000000000E+00  0.00000000000E+00 -0.61065861703E+03  0.61065861705E+03  0.50400001928E-02 0.  1.
    10030    2    1    2    0    0  0.00000000000E+00  0.00000000000E+00  0.57460745728E+03  0.17959246914E+04  0.17015204281E+04 0.  0.
        5    1    3    3  502    0 -0.79254799662E+03  0.28822560744E+03  0.40561441526E+03  0.93581593895E+03  0.46999998093E+01 0. -1.
       -5    1    3    3    0  502  0.79254799662E+03 -0.28822560744E+03  0.16899304201E+03  0.86010875241E+03  0.46999998093E+01 0.  1.
</event>
<event>
 5   0  0.7082527E-06  0.1699494E+04  0.7818609E-02  0.8761653E-01
        1   -1    0    0  501    0  0.00000000000E+00  0.00000000000E+00  0.82037239389E+03  0.82037239391E+03  0.50400001928E-02 0.  1.
       -1   -1    0    0    0  501  0.00000000000E+00  0.00000000000E+00 -0.88017300065E+03  0.88017300066E+03  0.50400001928E-02 0. -1.
    10030    2    1    2    0    0  0.00000000000E+00  0.00000000000E+00 -0.59800606753E+02  0.17005453946E+04  0.16994936088E+04 0.  0.
        1    1    3    3  502    0 -0.33236037924E+03  0.76658124225E+03  0.12498376356E+03  0.84482611455E+03  0.50400001928E-02 0. -1.
       -1    1    3    3    0  502  0.33236037924E+03 -0.76658124225E+03 -0.18478437031E+03  0.85571928002E+03  0.50400001928E-02 0.  1.
</event>
<event>
 5   0  0.7476457E-06  0.1698900E+04  0.7818609E-02  0.8761992E-01
        1   -1    0    0  501    0  0.00000000000E+00  0.00000000000E+00  0.25593580167E+04  0.25593580167E+04  0.50400001928E-02 0.  1.
       -1   -1    0    0    0  501  0.00000000000E+00  0.00000000000E+00 -0.28193214401E+03  0.28193214406E+03  0.50400001928E-02 0. -1.
    10030    2    1    2    0    0  0.00000000000E+00  0.00000000000E+00  0.22774258727E+04  0.28412901608E+04  0.16988999888E+04 0.  0.
        2    1    3    3  502    0  0.13231336236E+03  0.28684696012E+03  0.24574712219E+04  0.24776910241E+04  0.25500000920E-02 0.  1.
       -2    1    3    3    0  502 -0.13231336236E+03 -0.28684696012E+03 -0.18004534923E+03  0.36359913666E+03  0.25500000920E-02 0. -1.
</event>
<event>
 5   0  0.1435301E-05  0.1699966E+04  0.7818609E-02  0.8761384E-01
        2   -1    0    0  501    0  0.00000000000E+00  0.00000000000E+00  0.10358998255E+04  0.10358998255E+04  0.25500000920E-02 0. -1.
       -2   -1    0    0    0  501  0.00000000000E+00  0.00000000000E+00 -0.69743308384E+03  0.69743308384E+03  0.25500000920E-02 0.  1.
    10030    2    1    2    0    0  0.00000000000E+00  0.00000000000E+00  0.33846674167E+03  0.17333329094E+04  0.16999656583E+04 0.  0.
        2    1    3    3  502    0 -0.77972519138E+03  0.21819196149E+03  0.43294419943E+03  0.91816108933E+03  0.25500000920E-02 0. -1.
       -2    1    3    3    0  502  0.77972519138E+03 -0.21819196149E+03 -0.94477457761E+02  0.81517182002E+03  0.25500000920E-02 0.  1.
</event>
<event>
 5   0  0.1423543E-05  0.1700461E+04  0.7818609E-02  0.8761101E-01
        2   -1    0    0  501    0  0.00000000000E+00  0.00000000000E+00  0.99916798213E+03  0.99916798214E+03  0.25500000920E-02 0. -1.
       -2   -1    0    0    0  501  0.00000000000E+00  0.00000000000E+00 -0.72349404252E+03  0.72349404253E+03  0.25500000920E-02 0.  1.
    10030    2    1    2    0    0  0.00000000000E+00  0.00000000000E+00  0.27567393961E+03  0.17226620247E+04  0.17004612110E+04 0.  0.
        3    1    3    3  502    0 -0.60842708653E+03  0.34866510724E+03  0.62488526557E+03  0.93927231512E+03  0.10100000352E+00 0. -1.
       -3    1    3    3    0  502  0.60842708653E+03 -0.34866510724E+03 -0.34921132596E+03  0.78338970954E+03  0.10100000352E+00 0.  1.
</event>
<event>
 5   0  0.7583716E-06  0.1700600E+04  0.7818609E-02  0.8761022E-01
        1   -1    0    0  501    0  0.00000000000E+00  0.00000000000E+00  0.57400934118E+03  0.57400934120E+03  0.50400001928E-02 0.  1.
       -1   -1    0    0    0  501  0.00000000000E+00  0.00000000000E+00 -0.12595784366E+04  0.12595784367E+04  0.50400001928E-02 0. -1.
    10030    2    1    2    0    0  0.00000000000E+00  0.00000000000E+00 -0.68556909546E+03  0.18335877779E+04  0.17005996456E+04 0.  0.
        5    1    3    3  502    0 -0.82512759876E+03 -0.16625447897E+03 -0.21290009765E+03  0.86823075711E+03  0.46999998093E+01 0.  1.
       -5    1    3    3    0  502  0.82512759876E+03  0.16625447897E+03 -0.47266899781E+03  0.96535702075E+03  0.46999998093E+01 0. -1.
</event>
<event>
 5   0  0.7082527E-06  0.1701135E+04  0.7818609E-02  0.8760717E-01
       -1   -1    0    0    0  501  0.00000000000E+00  0.00000000000E+00  0.84439928714E+03  0.84439928715E+03  0.50400001928E-02 0. -1.
        1   -1    0    0  501    0  0.00000000000E+00  0.00000000000E+00 -0.85678053712E+03  0.85678053713E+03  0.50400001928E-02 0.  1.
    10030    2    1    2    0    0  0.00000000000E+00  0.00000000000E+00 -0.12381249980E+02  0.17011798243E+04  0.17011347681E+04 0.  0.
        1    1    3    3  502    0 -0.20766066857E+03  0.81032616475E+03  0.14780510349E+03  0.84946912551E+03  0.50400001928E-02 0. -1.
       -1    1    3    3    0  502  0.20766066857E+03 -0.81032616475E+03 -0.16018635347E+03  0.85171069878E+03  0.50400001928E-02 0.  1.
</event>
<event>
 5   0  0.7461128E-06  0.1700074E+04  0.7818609E-02  0.8761322E-01
       -1   -1    0    0    0  501  0.00000000000E+00  0.00000000000E+00  0.92911665657E+03  0.92911665659E+03  0.50400001928E-02 0.  1.
        1   -1    0    0  501    0  0.00000000000E+00  0.00000000000E+00 -0.77768791660E+03  0.77768791661E+03  0.50400001928E-02 0. -1.
    10030    2    1    2    0    0  0.00000000000E+00  0.00000000000E+00  0.15142873997E+03  0.17068045732E+04  0.17000738772E+04 0.  0.
        3    1    3    3  502    0  0.76423315128E+03  0.61435625038E+02  0.44423181906E+03  0.88609737885E+03  0.10100000352E+00 0.  1.
       -3    1    3    3    0  502 -0.76423315128E+03 -0.61435625038E+02 -0.29280307908E+03  0.82070719435E+03  0.10100000352E+00 0. -1.
</event>
<event>
 5   0  0.1441756E-05  0.1699693E+04  0.7818609E-02  0.8761539E-01
       -2   -1    0    0    0  501  0.00000000000E+00  0.00000000000E+00  0.70803800457E+03  0.70803800457E+03  0.25500000920E-02 0.  1.
        2   -1    0    0  501    0  0.00000000000E+00  0.00000000000E+00 -0.10200569957E+04  0.10200569957E+04  0.25500000920E-02 0. -1.
    10030    2    1    2    0    0  0.00000000000E+00  0.00000000000E+00 -0.31201899116E+03  0.17280950003E+04  0.16996930544E+04 0.  0.
        5    1    3    3  502    0  0.79953447029E+03  0.22843889518E+03 -0.33437571091E+03  0.89625270100E+03  0.46999998093E+01 0.  1.
       -5    1    3    3    0  502 -0.79953447029E+03 -0.22843889518E+03  0.22356719741E+02  0.83184229931E+03  0.46999998093E+01 0. -1.
</event>
<event>
 5   0  0.5229750E-06  0.1697130E+04  0.7818609E-02  0.8763003E-01
       -3   -1    0    0    0  501  0.00000000000E+00  0.00000000000E+00  0.10372912624E+04  0.10372912673E+04  0.10100000352E+00 0. -1.
        3   -1    0    0  501    0  0.00000000000E+00  0.00000000000E+00 -0.69417615755E+03  0.69417616490E+03  0.10100000352E+00 0.  1.
    10030    2    1    2    0    0  0.00000000000E+00  0.00000000000E+00  0.34311510485E+03  0.17314674322E+04  0.16971303703E+04 0.  0.
        1    1    3    3  502    0  0.12097071837E+03 -0.83276437384E+03  0.28300344037E+03  0.88781831719E+03  0.50400001928E-02 0. -1.
       -1    1    3    3    0  502 -0.12097071837E+03  0.83276437384E+03  0.60111664474E+02  0.84364911502E+03  0.50400001928E-02 0.  1.
</event>
<event>
 5   0  0.1435301E-05  0.1699754E+04  0.7818609E-02  0.8761505E-01
        2   -1    0    0  501    0  0.00000000000E+00  0.00000000000E+00  0.62317605058E+03  0.62317605058E+03  0.25500000920E-02 0.  1.
       -2   -1    0    0    0  501  0.00000000000E+00  0.00000000000E+00 -0.11590476413E+04  0.11590476413E+04  0.25500000920E-02 0. -1.
    10030    2    1    2    0    0  0.00000000000E+00  0.00000000000E+00 -0.53587159070E+03  0.17822236919E+04  0.16997537840E+04 0.  0.
        2    1    3    3  502    0  0.33092588651E+03 -0.59701434496E+03  0.26294267252E+03  0.73148952111E+03  0.25500000920E-02 0.  1.
       -2    1    3    3    0  502 -0.33092588651E+03  0.59701434496E+03 -0.79881426322E+03  0.10507341707E+04  0.25500000920E-02 0. -1.
</event>
<event>
 5   0  0.1435301E-05  0.1713111E+04  0.7818609E-02  0.8753922E-01
       -2   -1    0    0    0  501  0.00000000000E+00  0.00000000000E+00  0.60891435357E+03  0.60891435358E+03  0.25500000920E-02 0. -1.
        2   -1    0    0  501    0  0.00000000000E+00  0.00000000000E+00 -0.12049106400E+04  0.12049106400E+04  0.25500000920E-02 0.  1.
    10030    2    1    2    0    0  0.00000000000E+00  0.00000000000E+00 -0.59599628639E+03  0.18138249935E+04  0.17131110687E+04 0.  0.
        2    1    3    3  502    0 -0.34876605124E+03  0.22468780212E+03 -0.10914304560E+04  0.11676227161E+04  0.25500000920E-02 0.  1.
       -2    1    3    3    0  502  0.34876605124E+03 -0.22468780212E+03  0.49543416961E+03  0.64620227742E+03  0.25500000920E-02 0. -1.
</event>
<event>
 5   0  0.1441756E-05  0.1699771E+04  0.7818609E-02  0.8761495E-01
        2   -1    0    0  501    0  0.00000000000E+00  0.00000000000E+00  0.15794288240E+04  0.15794288240E+04  0.25500000920E-02 0.  1.
       -2   -1    0    0    0  501  0.00000000000E+00  0.00000000000E+00 -0.45732075598E+03  0.45732075599E+03  0.25500000920E-02 0. -1.
    10030    2    1    2    0    0  0.00000000000E+00  0.00000000000E+00  0.11221080680E+04  0.20367495800E+04  0.16997712597E+04 0.  0.
        5    1    3    3  502    0  0.39665714347E+03  0.17064327400E+03  0.14381753066E+04  0.15016079112E+04  0.46999998093E+01 0.  1.
       -5    1    3    3    0  502 -0.39665714347E+03 -0.17064327400E+03 -0.31606723855E+03  0.53514166883E+03  0.46999998093E+01 0. -1.
</event>
<event>
 5   0  0.1374441E-05  0.1698630E+04  0.7818609E-02  0.8762146E-01
       -2   -1    0    0    0  501  0.00000000000E+00  0.00000000000E+00  0.92453581484E+03  0.92453581485E+03  0.25500000920E-02 0. -1.
        2   -1    0    0  501    0  0.00000000000E+00  0.00000000000E+00 -0.78021433764E+03  0.78021433764E+03  0.25500000920E-02 0.  1.
    10030    2    1    2    0    0  0.00000000000E+00  0.00000000000E+00  0.14432147721E+03  0.17047501525E+04  0.16986301521E+04 0.  0.
        1    1    3    3  502    0  0.56887452040E+03 -0.37439039000E+03 -0.43716127253E+03  0.80925667270E+03  0.50400001928E-02 0.  1.
       -1    1    3    3    0  502 -0.56887452040E+03  0.37439039000E+03  0.58148274973E+03  0.89549347979E+03  0.50400001928E-02 0. -1.
</event>
<event>
 5   0  0.1435301E-05  0.1699715E+04  0.7818609E-02  0.8761527E-01
       -2   -1    0    0    0  501  0.00000000000E+00  0.00000000000E+00  0.13755945054E+04  0.13755945054E+04  0.25500000920E-02 0. -1.
        2   -1    0    0  501    0  0.00000000000E+00  0.00000000000E+00 -0.52505113885E+03  0.52505113886E+03  0.25500000920E-02 0.  1.
    10030    2    1    2    0    0  0.00000000000E+00  0.00000000000E+00  0.85054336654E+03  0.19006456443E+04  0.16997146368E+04 0.  0.
        2    1    3    3  502    0 -0.79025469616E+03 -0.26154750764E+03  0.61683550543E+03  0.10360480801E+04  0.25500000920E-02 0. -1.
       -2    1    3    3    0  502  0.79025469616E+03  0.26154750764E+03  0.23370786111E+03  0.86459756413E+03  0.25500000920E-02 0.  1.
</event>
<event>
 5   0  0.1374441E-05  0.1699580E+04  0.7818609E-02  0.8761604E-01
       -2   -1    0    0    0  501  0.00000000000E+00  0.00000000000E+00  0.16421954286E+04  0.16421954286E+04  0.25500000920E-02 0.  1.
        2   -1    0    0  501    0  0.00000000000E+00  0.00000000000E+00 -0.43974254993E+03  0.43974254994E+03  0.25500000920E-02 0. -1.
    10030    2    1    2    0    0  0.00000000000E+00  0.00000000000E+00  0.12024528787E+04  0.20819379786E+04  0.16995801897E+04 0.  0.
        1    1    3    3  502    0  0.70201118438E+03 -0.94153027180E+02  0.26065005151E+02  0.70877632582E+03  0.50400001928E-02 0. -1.
       -1    1    3    3    0  502 -0.70201118438E+03  0.94153027180E+02  0.11763878735E+04  0.13731616527E+04  0.50400001928E-02 0.  1.
</event>
<event>
 5   0  0.7455669E-06  0.1700514E+04  0.7818609E-02  0.8761071E-01
       -1   -1    0    0    0  501  0.00000000000E+00  0.00000000000E+00  0.60962510084E+03  0.60962510086E+03  0.50400001928E-02 0.  1.
        1   -1    0    0  501    0  0.00000000000E+00  0.00000000000E+00 -0.11858713958E+04  0.11858713958E+04  0.50400001928E-02 0. -1.
    10030    2    1    2    0    0  0.00000000000E+00  0.00000000000E+00 -0.57624629493E+03  0.17954964966E+04  0.17005140038E+04 0.  0.
        4    1    3    3  502    0  0.62873777762E+03  0.14840771736E+03 -0.87181084000E+03  0.10850768624E+04  0.12699999809E+01 0. -1.
       -4    1    3    3    0  502 -0.62873777762E+03 -0.14840771736E+03  0.29556454507E+03  0.71041963429E+03  0.12699999809E+01 0.  1.
</event>
<event>
 5   0  0.7455669E-06  0.1700403E+04  0.7818609E-02  0.8761134E-01
        1   -1    0    0  501    0  0.00000000000E+00  0.00000000000E+00  0.81060952477E+03  0.81060952479E+03  0.50400001928E-02 0. -1.
       -1   -1    0    0    0  501  0.00000000000E+00  0.00000000000E+00 -0.89172764079E+03  0.89172764081E+03  0.50400001928E-02 0.  1.
    10030    2    1    2    0    0  0.00000000000E+00  0.00000000000E+00 -0.81118116017E+02  0.17023371656E+04  0.17004033864E+04 0.  0.
        4    1    3    3  502    0  0.75330377235E+03  0.19668702022E+03 -0.38254518082E+03  0.86746457313E+03  0.12699999809E+01 0. -1.
       -4    1    3    3    0  502 -0.75330377235E+03 -0.19668702022E+03  0.30142706481E+03  0.83487259247E+03  0.12699999809E+01 0.  1.
</event>
<event>
 5   0  0.7455669E-06  0.1699401E+04  0.7818609E-02  0.8761706E-01
       -1   -1    0    0    0  501  0.00000000000E+00  0.00000000000E+00  0.51298507286E+03  0.51298507288E+03  0.50400001928E-02 0. -1.
        1   -1    0    0  501    0  0.00000000000E+00  0.00000000000E+00 -0.14074314669E+04  0.14074314669E+04  0.50400001928E-02 0.  1.
    10030    2    1    2    0    0  0.00000000000E+00  0.00000000000E+00 -0.89444639401E+03  0.19204165398E+04  0.16994014636E+04 0.  0.
        4    1    3    3  502    0  0.15249961219E+03  0.65774086736E+03 -0.10301720984E+04  0.12317204819E+04  0.12699999809E+01 0.  1.
       -4    1    3    3    0  502 -0.15249961219E+03 -0.65774086736E+03  0.13572570443E+03  0.68869605782E+03  0.12699999809E+01 0. -1.
</event>
<event>
 5   0  0.1419012E-05  0.1700212E+04  0.7818609E-02  0.8761243E-01
       -2   -1    0    0    0  501  0.00000000000E+00  0.00000000000E+00  0.12139108676E+04  0.12139108676E+04  0.25500000920E-02 0. -1.
        2   -1    0    0  501    0  0.00000000000E+00  0.00000000000E+00 -0.59533223439E+03  0.59533223440E+03  0.25500000920E-02 0.  1.
    10030    2    1    2    0    0  0.00000000000E+00  0.00000000000E+00  0.61857863318E+03  0.18092431020E+04  0.17002120681E+04 0.  0.
        4    1    3    3  502    0 -0.81576078403E+02  0.60288592090E+03  0.94112735927E+03  0.11206464248E+04  0.12699999809E+01 0. -1.
       -4    1    3    3    0  502  0.81576078403E+02 -0.60288592090E+03 -0.32254872609E+03  0.68859667716E+03  0.12699999809E+01 0.  1.
</event>
<event>
 5   0  0.7583716E-06  0.1700393E+04  0.7818609E-02  0.8761140E-01
       -1   -1    0    0    0  501  0.00000000000E+00  0.00000000000E+00  0.77127268552E+03  0.77127268554E+03  0.50400001928E-02 0.  1.
        1   -1    0    0  501    0  0.00000000000E+00  0.00000000000E+00 -0.93719661806E+03  0.93719661807E+03  0.50400001928E-02 0. -1.
    10030    2    1    2    0    0  0.00000000000E+00  0.00000000000E+00 -0.16592393254E+03  0.17084693036E+04  0.17003930751E+04 0.  0.
        5    1    3    3  502    0  0.67075777512E+03 -0.52217471970E+03 -0.98187544275E+02  0.85571333671E+03  0.46999998093E+01 0.  1.
       -5    1    3    3    0  502 -0.67075777512E+03  0.52217471970E+03 -0.67736388265E+02  0.85275596689E+03  0.46999998093E+01 0. -1.
</event>
<event>
 5   0  0.7476457E-06  0.1696670E+04  0.7818609E-02  0.8763266E-01
       -1   -1    0    0    0  501  0.00000000000E+00  0.00000000000E+00  0.13721147675E+04  0.13721147675E+04  0.50400001928E-02 0. -1.
        1   -1    0    0  501    0  0.00000000000E+00  0.00000000000E+00 -0.52449860670E+03  0.52449860672E+03  0.50400001928E-02 0.  1.
    10030    2    1    2    0    0  0.00000000000E+00  0.00000000000E+00  0.84761616080E+03  0.18966133742E+04  0.16966700137E+04 0.  0.
        2    1    3    3  502    0  0.43334095063E+03  0.72735240061E+03  0.48344683960E+03  0.97495986630E+03  0.25500000920E-02 0.  1.
       -2    1    3    3    0  502 -0.43334095063E+03 -0.72735240061E+03  0.36416932120E+03  0.92165350793E+03  0.25500000920E-02 0. -1.
</event>
<event>
 5   0  0.7455669E-06  0.1701295E+04  0.7818609E-02  0.8760626E-01
       -1   -1    0    0    0  501  0.00000000000E+00  0.00000000000E+00  0.37451898839E+03  0.37451898842E+03  0.50400001928E-02 0.  1.
        1   -1    0    0  501    0  0.00000000000E+00  0.00000000000E+00 -0.19320805180E+04  0.19320805180E+04  0.50400001928E-02 0. -1.
    10030    2    1    2    0    0  0.00000000000E+00  0.00000000000E+00 -0.15575615296E+04  0.23065995064E+04  0.17012946143E+04 0.  0.
        4    1    3    3  502    0  0.63346616657E+03 -0.95892150859E+02 -0.20113719403E+02  0.64099989344E+03  0.12699999809E+01 0.  1.
       -4    1    3    3    0  502 -0.63346616657E+03  0.95892150859E+02 -0.15374478102E+04  0.16655996130E+04  0.12699999809E+01 0. -1.
</event>
<event>
 5   0  0.7455669E-06  0.1699150E+04  0.7818609E-02  0.8761849E-01
       -1   -1    0    0    0  501  0.00000000000E+00  0.00000000000E+00  0.55806820174E+03  0.55806820176E+03  0.50400001928E-02 0. -1.
        1   -1    0    0  501    0  0.00000000000E+00  0.00000000000E+00 -0.12933503422E+04  0.12933503422E+04  0.50400001928E-02 0.  1.
    10030    2    1    2    0    0  0.00000000000E+00  0.00000000000E+00 -0.73528214049E+03  0.18514185440E+04  0.16991500225E+04 0.  0.
        4    1    3    3  502    0  0.70212492581E+03  0.40179494541E+03 -0.84849893713E+02  0.81340009034E+03  0.12699999809E+01 0. -1.
       -4    1    3    3    0  502 -0.70212492581E+03 -0.40179494541E+03 -0.65043224678E+03  0.10380184537E+04  0.12699999809E+01 0.  1.
</event>
<event>
 5   0  0.1423543E-05  0.1701012E+04  0.7818609E-02  0.8760788E-01
       -2   -1    0    0    0  501  0.00000000000E+00  0.00000000000E+00  0.10976833478E+04  0.10976833478E+04  0.25500000920E-02 0.  1.
        2   -1    0    0  501    0  0.00000000000E+00  0.00000000000E+00 -0.65898805065E+03  0.65898805065E+03  0.25500000920E-02 0. -1.
    10030    2    1    2    0    0  0.00000000000E+00  0.00000000000E+00  0.43869529713E+03  0.17566713984E+04  0.17010117102E+04 0.  0.
        3    1    3    3  502    0  0.16189554680E+03 -0.61191873465E+03  0.80600755167E+03  0.10248428609E+04  0.10100000352E+00 0.  1.
       -3    1    3    3    0  502 -0.16189554680E+03  0.61191873465E+03 -0.36731225453E+03  0.73182853758E+03  0.10100000352E+00 0. -1.
</event>
<event>
 5   0  0.7476457E-06  0.1700077E+04  0.7818609E-02  0.8761321E-01
        1   -1    0    0  501    0  0.00000000000E+00  0.00000000000E+00  0.15011178437E+04  0.15011178437E+04  0.50400001928E-02 0.  1.
       -1   -1    0    0    0  501  0.00000000000E+00  0.00000000000E+00 -0.48135139298E+03  0.48135139301E+03  0.50400001928E-02 0. -1.
    10030    2    1    2    0    0  0.00000000000E+00  0.00000000000E+00  0.10197664507E+04  0.19824692367E+04  0.17000766631E+04 0.  0.
        2    1    3    3  502    0 -0.59599955319E+03 -0.49462892591E+03  0.91833984445E+03  0.12013414634E+04  0.25500000920E-02 0.  1.
       -2    1    3    3    0  502  0.59599955319E+03  0.49462892591E+03  0.10142660624E+03  0.78112777329E+03  0.25500000920E-02 0. -1.
</event>
<event>
 5   0  0.1423543E-05  0.1700105E+04  0.7818609E-02  0.8761304E-01
        2   -1    0    0  501    0  0.00000000000E+00  0.00000000000E+00  0.77961481768E+03  0.77961481768E+03  0.25500000920E-02 0. -1.
       -2   -1    0    0    0  501  0.00000000000E+00  0.00000000000E+00 -0.92685467578E+03  0.92685467578E+03  0.25500000920E-02 0.  1.
    10030    2    1    2    0    0  0.00000000000E+00  0.00000000000E+00 -0.14723985810E+03  0.17064694935E+04  0.17001054545E+04 0.  0.
        3    1    3    3  502    0  0.56693876982E+03  0.56652581558E+03 -0.35790895803E+03  0.87776414878E+03  0.10100000352E+00 0. -1.
       -3    1    3    3    0  502 -0.56693876982E+03 -0.56652581558E+03  0.21066909993E+03  0.82870534469E+03  0.10100000352E+00 0.  1.
</event>
<event>
 5   0  0.7583716E-06  0.1700632E+04  0.7818609E-02  0.8761004E-01
       -1   -1    0    0    0  501  0.00000000000E+00  0.00000000000E+00  0.25332661477E+04  0.25332661477E+04  0.50400001928E-02 0. -1.
        1   -1    0    0  501    0  0.00000000000E+00  0.00000000000E+00 -0.28541708686E+03  0.28541708690E+03  0.50400001928E-02 0.  1.
    10030    2    1    2    0    0  0.00000000000E+00  0.00000000000E+00  0.22478490608E+04  0.28186832346E+04  0.17006321697E+04 0.  0.
        5    1    3    3  502    0  0.10258536387E+02 -0.57042826682E+03  0.78924488952E+02  0.57597292481E+03  0.46999998093E+01 0.  1.
       -5    1    3    3    0  502 -0.10258536387E+02  0.57042826682E+03  0.21689245719E+04  0.22427103098E+04  0.46999998093E+01 0. -1.
</event>
<event>
 5   0  0.1423543E-05  0.1698146E+04  0.7818609E-02  0.8762423E-01
        2   -1    0    0  501    0  0.00000000000E+00  0.00000000000E+00  0.22893434866E+04  0.22893434866E+04  0.25500000920E-02 0. -1.
       -2   -1    0    0    0  501  0.00000000000E+00  0.00000000000E+00 -0.31490451213E+03  0.31490451214E+03  0.25500000920E-02 0.  1.
    10030    2    1    2    0    0  0.00000000000E+00  0.00000000000E+00  0.19744389744E+04  0.26042479987E+04  0.16981455694E+04 0.  0.
        3    1    3    3  502    0 -0.46772797884E+03  0.31378237044E+03  0.19616132805E+04  0.20408712626E+04  0.10100000352E+00 0. -1.
       -3    1    3    3    0  502  0.46772797884E+03 -0.31378237044E+03  0.12825693985E+02  0.56337673613E+03  0.10100000352E+00 0.  1.
</event>
<event>
 5   0  0.7461128E-06  0.1701282E+04  0.7818609E-02  0.8760633E-01
        1   -1    0    0  501    0  0.00000000000E+00  0.00000000000E+00  0.57478679453E+03  0.57478679455E+03  0.50400001928E-02 0. -1.
       -1   -1    0    0    0  501  0.00000000000E+00  0.00000000000E+00 -0.12588848752E+04  0.12588848752E+04  0.50400001928E-02 0.  1.
    10030    2    1    2    0    0  0.00000000000E+00  0.00000000000E+00 -0.68409808066E+03  0.18336716698E+04  0.17012823424E+04 0.  0.
        3    1    3    3  502    0  0.44190697562E+03 -0.57779022723E+03  0.13325139959E+03  0.73951285822E+03  0.10100000352E+00 0. -1.
       -3    1    3    3    0  502 -0.44190697562E+03  0.57779022723E+03 -0.81734948025E+03  0.10941588115E+04  0.10100000352E+00 0.  1.
</event>
<event>
 5   0  0.7583716E-06  0.1699967E+04  0.7818609E-02  0.8761383E-01
        1   -1    0    0  501    0  0.00000000000E+00  0.00000000000E+00  0.64976388878E+03  0.64976388880E+03  0.50400001928E-02 0. -1.
       -1   -1    0    0    0  501  0.00000000000E+00  0.00000000000E+00 -0.11118990697E+04  0.11118990697E+04  0.50400001928E-02 0.  1.
    10030    2    1    2    0    0  0.00000000000E+00  0.00000000000E+00 -0.46213518095E+03  0.17616629585E+04  0.16999668979E+04 0.  0.
        5    1    3    3  502    0 -0.24878993518E+03 -0.74609544841E+03 -0.56509301287E+03  0.96845601510E+03  0.46999998093E+01 0. -1.
       -5    1    3    3    0  502  0.24878993518E+03  0.74609544841E+03  0.10295783191E+03  0.79320694345E+03  0.46999998093E+01 0.  1.
</event>
<event>
 5   0  0.1441756E-05  0.1703106E+04  0.7818609E-02  0.8759595E-01
       -2   -1    0    0    0  501  0.00000000000E+00  0.00000000000E+00  0.13412311558E+04  0.13412311558E+04  0.25500000920E-02 0. -1.
        2   -1    0    0  501    0  0.00000000000E+00  0.00000000000E+00 -0.54065461829E+03  0.54065461830E+03  0.25500000920E-02 0.  1.
    10030    2    1    2    0    0  0.00000000000E+00  0.00000000000E+00  0.80057653752E+03  0.18818857741E+04  0.17031063603E+04 0.  0.
        5    1    3    3  502    0  0.26233214387E+03 -0.38312328363E+03  0.11890243952E+04  0.12764805939E+04  0.46999998093E+01 0. -1.
       -5    1    3    3    0  502 -0.26233214387E+03  0.38312328363E+03 -0.38844785765E+03  0.60540518026E+03  0.46999998093E+01 0.  1.
</event>
<event>
 5   0  0.7082527E-06  0.1701490E+04  0.7818609E-02  0.8760515E-01
        1   -1    0    0  501    0  0.00000000000E+00  0.00000000000E+00  0.70867534264E+03  0.70867534266E+03  0.50400001928E-02 0. -1.
       -1   -1    0    0    0  501  0.00000000000E+00  0.00000000000E+00 -0.10212960568E+04  0.10212960568E+04  0.50400001928E-02 0.  1.
    10030    2    1    2    0    0  0.00000000000E+00  0.00000000000E+00 -0.31262071417E+03  0.17299713995E+04  0.17014903268E+04 0.  0.
        1    1    3    3  502    0 -0.46788953059E+03  0.55914475509E+03  0.28943876338E+03  0.78443499906E+03  0.50400001928E-02 0.  1.
       -1    1    3    3    0  502  0.46788953059E+03 -0.55914475509E+03 -0.60205947755E+03  0.94553640041E+03  0.50400001928E-02 0. -1.
</event>
<event>
 5   0  0.7476457E-06  0.1700057E+04  0.7818609E-02  0.8761332E-01
       -1   -1    0    0    0  501  0.00000000000E+00  0.00000000000E+00  0.10067946892E+04  0.10067946892E+04  0.50400001928E-02 0. -1.
        1   -1    0    0  501    0  0.00000000000E+00  0.00000000000E+00 -0.71767194464E+03  0.71767194466E+03  0.50400001928E-02 0.  1.
    10030    2    1    2    0    0  0.00000000000E+00  0.00000000000E+00  0.28912274458E+03  0.17244666339E+04  0.17000568255E+04 0.  0.
        2    1    3    3  502    0  0.75921596723E+02 -0.79218319661E+03  0.44756427984E+03  0.91303455052E+03  0.25500000920E-02 0.  1.
       -2    1    3    3    0  502 -0.75921596723E+02  0.79218319661E+03 -0.15844153526E+03  0.81143208338E+03  0.25500000920E-02 0. -1.
</event>
<event>
 5   0  0.1435301E-05  0.1700129E+04  0.7818609E-02  0.8761291E-01
       -2   -1    0    0    0  501  0.00000000000E+00  0.00000000000E+00  0.36806308014E+03  0.36806308015E+03  0.25500000920E-02 0. -1.
        2   -1    0    0  501    0  0.00000000000E+00  0.00000000000E+00 -0.19632774349E+04  0.19632774349E+04  0.25500000920E-02 0.  1.
    10030    2    1    2    0    0  0.00000000000E+00  0.00000000000E+00 -0.15952143548E+04  0.23313405151E+04  0.17001293361E+04 0.  0.
        2    1    3    3  502    0 -0.77392369679E+03 -0.30036940602E+03 -0.54688445158E+03  0.99411381236E+03  0.25500000920E-02 0.  1.
       -2    1    3    3    0  502  0.77392369679E+03  0.30036940602E+03 -0.10483299032E+04  0.13372267027E+04  0.25500000920E-02 0. -1.
</event>
<event>
 5   0  0.1435301E-05  0.1700447E+04  0.7818609E-02  0.8761109E-01
       -2   -1    0    0    0  501  0.00000000000E+00  0.00000000000E+00  0.66999953808E+03  0.66999953808E+03  0.25500000920E-02 0.  1.
        2   -1    0    0  501    0  0.00000000000E+00  0.00000000000E+00 -0.10789262422E+04  0.10789262422E+04  0.25500000920E-02 0. -1.
    10030    2    1    2    0    0  0.00000000000E+00  0.00000000000E+00 -0.40892670416E+03  0.17489257803E+04  0.17004470988E+04 0.  0.
        2    1    3    3  502    0 -0.80962728624E+03  0.50240413028E+02  0.57472851293E+02  0.81321803372E+03  0.25500000920E-02 0.  1.
       -2    1    3    3    0  502  0.80962728624E+03 -0.50240413028E+02 -0.46639955545E+03  0.93570774661E+03  0.25500000920E-02 0. -1.
</event>
<event>
 5   0  0.1419012E-05  0.1699746E+04  0.7818609E-02  0.8761509E-01
       -2   -1    0    0    0  501  0.00000000000E+00  0.00000000000E+00  0.42860197583E+03  0.42860197584E+03  0.25500000920E-02 0.  1.
        2   -1    0    0  501    0  0.00000000000E+00  0.00000000000E+00 -0.16852091391E+04  0.16852091391E+04  0.25500000920E-02 0. -1.
    10030    2    1    2    0    0  0.00000000000E+00  0.00000000000E+00 -0.12566071633E+04  0.21138111150E+04  0.16997458242E+04 0.  0.
        4    1    3    3  502    0 -0.77733706484E+03  0.30175735219E+03 -0.83254240591E+03  0.11783203650E+04  0.12699999809E+01 0.  1.
       -4    1    3    3    0  502  0.77733706484E+03 -0.30175735219E+03 -0.42406475739E+03  0.93549075000E+03  0.12699999809E+01 0. -1.
</event>
<event>
 5   0  0.1374441E-05  0.1709714E+04  0.7818609E-02  0.8755843E-01
        2   -1    0    0  501    0  0.00000000000E+00  0.00000000000E+00  0.74127847375E+03  0.74127847376E+03  0.25500000920E-02 0. -1.
       -2   -1    0    0    0  501  0.00000000000E+00  0.00000000000E+00 -0.98583834946E+03  0.98583834946E+03  0.25500000920E-02 0.  1.
    10030    2    1    2    0    0  0.00000000000E+00  0.00000000000E+00 -0.24455987571E+03  0.17271168232E+04  0.17097143002E+04 0.  0.
        1    1    3    3  502    0  0.21263315511E+03 -0.17401031586E+03 -0.94001830869E+03  0.97935022815E+03  0.50400001928E-02 0.  1.
       -1    1    3    3    0  502 -0.21263315511E+03  0.17401031586E+03  0.69545843298E+03  0.74776659507E+03  0.50400001928E-02 0. -1.
</event>
<event>
 5   0  0.5229750E-06  0.1697420E+04  0.7818609E-02  0.8762837E-01
        4   -1    0    0  501    0  0.00000000000E+00  0.00000000000E+00  0.25714008193E+03  0.25714321814E+03  0.12699999809E+01 0. -1.
       -4   -1    0    0    0  501  0.00000000000E+00  0.00000000000E+00 -0.28012092814E+04  0.28012095693E+04  0.12699999809E+01 0.  1.
    10030    2    1    2    0    0  0.00000000000E+00  0.00000000000E+00 -0.25440691995E+04  0.30583527875E+04  0.16974197126E+04 0.  0.
        4    1    3    3  502    0 -0.86101266638E+02 -0.83497220667E+03 -0.10461676560E+04  0.13412905694E+04  0.12699999809E+01 0.  1.
       -4    1    3    3    0  502  0.86101266638E+02  0.83497220667E+03 -0.14979015434E+04  0.17170622181E+04  0.12699999809E+01 0. -1.
</event>
<event>
 5   0  0.1419012E-05  0.1700466E+04  0.7818609E-02  0.8761099E-01
        2   -1    0    0  501    0  0.00000000000E+00  0.00000000000E+00  0.11923238315E+04  0.11923238315E+04  0.25500000920E-02 0.  1.
       -2   -1    0    0    0  501  0.00000000000E+00  0.00000000000E+00 -0.60629185922E+03  0.60629185923E+03  0.25500000920E-02 0. -1.
    10030    2    1    2    0    0  0.00000000000E+00  0.00000000000E+00  0.58603197228E+03  0.17986156907E+04  0.17004660921E+04 0.  0.
        4    1    3    3  502    0  0.49683809588E+03 -0.54190872389E+03 -0.15869509730E+03  0.75212958017E+03  0.12699999809E+01 0. -1.
       -4    1    3    3    0  502 -0.49683809588E+03  0.54190872389E+03  0.74472706957E+03  0.10464861106E+04  0.12699999809E+01 0.  1.
</event>
<event>
 5   0  0.1374441E-05  0.1701103E+04  0.7818609E-02  0.8760735E-01
       -2   -1    0    0    0  501  0.00000000000E+00  0.00000000000E+00  0.59476137507E+03  0.59476137507E+03  0.25500000920E-02 0.  1.
        2   -1    0    0  501    0  0.00000000000E+00  0.00000000000E+00 -0.12163503720E+04  0.12163503720E+04  0.25500000920E-02 0. -1.
    10030    2    1    2    0    0  0.00000000000E+00  0.00000000000E+00 -0.62158899696E+03  0.18111117471E+04  0.17011034299E+04 0.  0.
        1    1    3    3  502    0  0.20350186701E+03  0.19996473466E+03 -0.11638854558E+04  0.11983439654E+04  0.50400001928E-02 0. -1.
       -1    1    3    3    0  502 -0.20350186701E+03 -0.19996473466E+03  0.54229645888E+03  0.61276778173E+03  0.50400001928E-02 0.  1.
</event>
<event>
 5   0  0.5229750E-06  0.1699775E+04  0.7818609E-02  0.8761493E-01
       -3   -1    0    0    0  501  0.00000000000E+00  0.00000000000E+00  0.45456456832E+03  0.45456457954E+03  0.10100000352E+00 0. -1.
        3   -1    0    0  501    0  0.00000000000E+00  0.00000000000E+00 -0.15890118460E+04  0.15890118492E+04  0.10100000352E+00 0.  1.
    10030    2    1    2    0    0  0.00000000000E+00  0.00000000000E+00 -0.11344472776E+04  0.20435764287E+04  0.16997746892E+04 0.  0.
        3    1    3    3  502    0 -0.31516159222E+02 -0.45220947618E+03  0.29708716752E+03  0.54198475434E+03  0.10100000352E+00 0. -1.
       -3    1    3    3    0  502  0.31516159222E+02  0.45220947618E+03 -0.14315344452E+04  0.15015916744E+04  0.10100000352E+00 0.  1.
</event>
<event>
 5   0  0.5229750E-06  0.1699964E+04  0.7818609E-02  0.8761385E-01
        3   -1    0    0  501    0  0.00000000000E+00  0.00000000000E+00  0.53697397396E+03  0.53697398345E+03  0.10100000352E+00 0.  1.
       -3   -1    0    0    0  501  0.00000000000E+00  0.00000000000E+00 -0.13454461368E+04  0.13454461406E+04  0.10100000352E+00 0. -1.
    10030    2    1    2    0    0  0.00000000000E+00  0.00000000000E+00 -0.80847216282E+03  0.18824201240E+04  0.16999642012E+04 0.  0.
        3    1    3    3  502    0  0.37690393876E+03 -0.27755955799E+03  0.38140110274E+03  0.60379027704E+03  0.10100000352E+00 0.  1.
       -3    1    3    3    0  502 -0.37690393876E+03  0.27755955799E+03 -0.11898732656E+04  0.12786298470E+04  0.10100000352E+00 0. -1.
</event>
<event>
 5   0  0.7461128E-06  0.1704750E+04  0.7818609E-02  0.8758660E-01
       -1   -1    0    0    0  501  0.00000000000E+00  0.00000000000E+00  0.10152804825E+04  0.10152804825E+04  0.50400001928E-02 0.  1.
        1   -1    0    0  501    0  0.00000000000E+00  0.00000000000E+00 -0.71560814213E+03  0.71560814214E+03  0.50400001928E-02 0. -1.
    10030    2    1    2    0    0  0.00000000000E+00  0.00000000000E+00  0.29967234038E+03  0.17308886247E+04  0.17047498114E+04 0.  0.
        3    1    3    3  502    0  0.63961507987E+03  0.20336937520E+03  0.68332229341E+03  0.95780787220E+03  0.10100000352E+00 0.  1.
       -3    1    3    3    0  502 -0.63961507987E+03 -0.20336937520E+03 -0.38364995303E+03  0.77308075246E+03  0.10100000352E+00 0. -1.
</event>
<event>
 5   0  0.1441756E-05  0.1700104E+04  0.7818609E-02  0.8761305E-01
        2   -1    0    0  501    0  0.00000000000E+00  0.00000000000E+00  0.12869586882E+04  0.12869586882E+04  0.25500000920E-02 0.  1.
       -2   -1    0    0    0  501  0.00000000000E+00  0.00000000000E+00 -0.56146999908E+03  0.56146999909E+03  0.25500000920E-02 0. -1.
    10030    2    1    2    0    0  0.00000000000E+00  0.00000000000E+00  0.72548868909E+03  0.18484286873E+04  0.17001043421E+04 0.  0.
        5    1    3    3  502    0  0.32530610453E+03 -0.77038214983E+03  0.52854066360E+03  0.98928764345E+03  0.46999998093E+01 0.  1.
       -5    1    3    3    0  502 -0.32530610453E+03  0.77038214983E+03  0.19694802549E+03  0.85914104381E+03  0.46999998093E+01 0. -1.
</event>
<event>
 5   0  0.7455669E-06  0.1699669E+04  0.7818609E-02  0.8761553E-01
       -1   -1    0    0    0  501  0.00000000000E+00  0.00000000000E+00  0.75967023253E+03  0.75967023255E+03  0.50400001928E-02 0.  1.
        1   -1    0    0  501    0  0.00000000000E+00  0.00000000000E+00 -0.95070044074E+03  0.95070044075E+03  0.50400001928E-02 0. -1.
    10030    2    1    2    0    0  0.00000000000E+00  0.00000000000E+00 -0.19103020821E+03  0.17103706733E+04  0.16996691736E+04 0.  0.
        4    1    3    3  502    0  0.54305335007E+03 -0.64464972772E+03 -0.20453465468E+03  0.86736166063E+03  0.12699999809E+01 0.  1.
       -4    1    3    3    0  502 -0.54305335007E+03  0.64464972772E+03  0.13504446472E+02  0.84300901267E+03  0.12699999809E+01 0. -1.
</event>
<event>
 5   0  0.1374441E-05  0.1701342E+04  0.7818609E-02  0.8760599E-01
       -2   -1    0    0    0  501  0.00000000000E+00  0.00000000000E+00  0.32592982719E+03  0.32592982720E+03  0.25500000920E-02 0. -1.
        2   -1    0    0  501    0  0.00000000000E+00  0.00000000000E+00 -0.22202359507E+04  0.22202359507E+04  0.25500000920E-02 0.  1.
    10030    2    1    2    0    0  0.00000000000E+00  0.00000000000E+00 -0.18943061235E+04  0.25461657779E+04  0.17013419642E+04 0.  0.
        1    1    3    3  502    0 -0.27728999036E+03 -0.34313893906E+03  0.14134031853E+03  0.46326143367E+03  0.50400001928E-02 0. -1.
       -1    1    3    3    0  502  0.27728999036E+03  0.34313893906E+03 -0.20356464420E+04  0.20829043442E+04  0.50400001928E-02 0.  1.
</event>
<event>
 5   0  0.1435301E-05  0.1699148E+04  0.7818609E-02  0.8761850E-01
       -2   -1    0    0    0  501  0.00000000000E+00  0.00000000000E+00  0.11015370946E+04  0.11015370946E+04  0.25500000920E-02 0.  1.
        2   -1    0    0  501    0  0.00000000000E+00  0.00000000000E+00 -0.65524471868E+03  0.65524471868E+03  0.25500000920E-02 0. -1.
    10030    2    1    2    0    0  0.00000000000E+00  0.00000000000E+00  0.44629237597E+03  0.17567818133E+04  0.16991484499E+04 0.  0.
        2    1    3    3  502    0 -0.77639337062E+02 -0.61997053990E+03 -0.37204013647E+03  0.72718993403E+03  0.25500000920E-02 0. -1.
       -2    1    3    3    0  502  0.77639337062E+02  0.61997053990E+03  0.81833251244E+03  0.10295918793E+04  0.25500000920E-02 0.  1.
</event>
<event>
 5   0  0.7583716E-06  0.1699464E+04  0.7818609E-02  0.8761670E-01
        1   -1    0    0  501    0  0.00000000000E+00  0.00000000000E+00  0.14431309154E+04  0.14431309155E+04  0.50400001928E-02 0.  1.
       -1   -1    0    0    0  501  0.00000000000E+00  0.00000000000E+00 -0.50033183361E+03  0.50033183364E+03  0.50400001928E-02 0. -1.
    10030    2    1    2    0    0  0.00000000000E+00  0.00000000000E+00  0.94279908184E+03  0.19434627491E+04  0.16994638415E+04 0.  0.
        5    1    3    3  502    0  0.59968168134E+03 -0.40860671215E+03 -0.34164553048E+02  0.72647565054E+03  0.46999998093E+01 0. -1.
       -5    1    3    3    0  502 -0.59968168134E+03  0.40860671215E+03  0.97696363488E+03  0.12169870985E+04  0.46999998093E+01 0.  1.
</event>
<event>
 5   0  0.1419012E-05  0.1699943E+04  0.7818609E-02  0.8761397E-01
       -2   -1    0    0    0  501  0.00000000000E+00  0.00000000000E+00  0.66546289647E+03  0.66546289647E+03  0.25500000920E-02 0.  1.
        2   -1    0    0  501    0  0.00000000000E+00  0.00000000000E+00 -0.10856374306E+04  0.10856374306E+04  0.25500000920E-02 0. -1.
    10030    2    1    2    0    0  0.00000000000E+00  0.00000000000E+00 -0.42017453416E+03  0.17511003271E+04  0.16999428568E+04 0.  0.
        4    1    3    3  502    0  0.72766788961E+03 -0.23760315515E+02 -0.66190365399E+03  0.98396299231E+03  0.12699999809E+01 0. -1.
       -4    1    3    3    0  502 -0.72766788961E+03  0.23760315515E+02  0.24172911983E+03  0.76713733480E+03  0.12699999809E+01 0.  1.
</event>
<event>
 5   0  0.1441756E-05  0.1699807E+04  0.7818609E-02  0.8761474E-01
       -2   -1    0    0    0  501  0.00000000000E+00  0.00000000000E+00  0.84937570561E+03  0.84937570561E+03  0.25500000920E-02 0. -1.
        2   -1    0    0  501    0  0.00000000000E+00  0.00000000000E+00 -0.85043179185E+03  0.85043179186E+03  0.25500000920E-02 0.  1.
    10030    2    1    2    0    0  0.00000000000E+00  0.00000000000E+00 -0.10560862456E+01  0.16998074975E+04  0.16998071694E+04 0.  0.
        5    1    3    3  502    0 -0.48891769999E+03  0.60540765913E+03 -0.34222250789E+03  0.85011604267E+03  0.46999998093E+01 0.  1.
       -5    1    3    3    0  502  0.48891769999E+03 -0.60540765913E+03  0.34116642165E+03  0.84969145480E+03  0.46999998093E+01 0. -1.
</event>
<event>
 5   0  0.7455669E-06  0.1699631E+04  0.7818609E-02  0.8761575E-01
       -1   -1    0    0    0  501  0.00000000000E+00  0.00000000000E+00  0.75930589445E+03  0.75930589447E+03  0.50400001928E-02 0. -1.
        1   -1    0    0  501    0  0.00000000000E+00  0.00000000000E+00 -0.95111353506E+03  0.95111353508E+03  0.50400001928E-02 0.  1.
    10030    2    1    2    0    0  0.00000000000E+00  0.00000000000E+00 -0.19180764061E+03  0.17104194295E+04  0.16996306816E+04 0.  0.
        4    1    3    3  502    0 -0.46611595966E+03 -0.63278240412E+03 -0.42123105424E+03  0.89169214013E+03  0.12699999809E+01 0.  1.
       -4    1    3    3    0  502  0.46611595966E+03  0.63278240412E+03  0.22942341363E+03  0.81872728942E+03  0.12699999809E+01 0. -1.
</event>
<event>
 5   0  0.1374441E-05  0.1701034E+04  0.7818609E-02  0.8760775E-01
        2   -1    0    0  501    0  0.00000000000E+00  0.00000000000E+00  0.55647103890E+03  0.55647103891E+03  0.25500000920E-02 0. -1.
       -2   -1    0    0    0  501  0.00000000000E+00  0.00000000000E+00 -0.12999404836E+04  0.12999404836E+04  0.25500000920E-02 0.  1.
    10030    2    1    2    0    0  0.00000000000E+00  0.00000000000E+00 -0.74346944472E+03  0.18564115225E+04  0.17010340754E+04 0.  0.
        1    1    3    3  502    0 -0.38527021750E+03  0.54279061018E+03  0.20608415592E+03  0.69679657458E+03  0.50400001928E-02 0. -1.
       -1    1    3    3    0  502  0.38527021750E+03 -0.54279061018E+03 -0.94955360064E+03  0.11596149480E+04  0.50400001928E-02 0.  1.
</event>
<event>
 5   0  0.7583716E-06  0.1699916E+04  0.7818609E-02  0.8761412E-01
        1   -1    0    0  501    0  0.00000000000E+00  0.00000000000E+00  0.59686768082E+03  0.59686768084E+03  0.50400001928E-02 0.  1.
       -1   -1    0    0    0  501  0.00000000000E+00  0.00000000000E+00 -0.12103663594E+04  0.12103663594E+04  0.50400001928E-02 0. -1.
    10030    2    1    2    0    0  0.00000000000E+00  0.00000000000E+00 -0.61349867859E+03  0.18072340403E+04  0.16999159531E+04 0.  0.
        5    1    3    3  502    0  0.54445076847E+03 -0.32593332955E+02 -0.99975895577E+03  0.11388718208E+04  0.46999998093E+01 0. -1.
       -5    1    3    3    0  502 -0.54445076847E+03  0.32593332955E+02  0.38626027718E+03  0.66836221943E+03  0.46999998093E+01 0.  1.
</event>
<event>
 5   0  0.7461128E-06  0.1700045E+04  0.7818609E-02  0.8761339E-01
       -1   -1    0    0    0  501  0.00000000000E+00  0.00000000000E+00  0.95870755670E+03  0.95870755672E+03  0.50400001928E-02 0.  1.
        1   -1    0    0  501    0  0.00000000000E+00  0.00000000000E+00 -0.75365827580E+03  0.75365827582E+03  0.50400001928E-02 0. -1.
    10030    2    1    2    0    0  0.00000000000E+00  0.00000000000E+00  0.20504928090E+03  0.17123658325E+04  0.17000445691E+04 0.  0.
        3    1    3    3  502    0  0.12148051383E+03 -0.58563464354E+03 -0.50584993470E+03  0.78333238002E+03  0.10100000352E+00 0.  1.
       -3    1    3    3    0  502 -0.12148051383E+03  0.58563464354E+03  0.71089921560E+03  0.92903345252E+03  0.10100000352E+00 0. -1.
</event>
<event>
 5   0  0.7461128E-06  0.1700349E+04  0.7818609E-02  0.8761165E-01
        1   -1    0    0  501    0  0.00000000000E+00  0.00000000000E+00  0.85270646173E+03  0.85270646175E+03  0.50400001928E-02 0.  1.
       -1   -1    0    0    0  501  0.00000000000E+00  0.00000000000E+00 -0.84765014516E+03  0.84765014517E+03  0.50400001928E-02 0. -1.
    10030    2    1    2    0    0  0.00000000000E+00  0.00000000000E+00  0.50563165784E+01  0.17003566069E+04  0.17003490890E+04 0.  0.
        3    1    3    3  502    0 -0.51762697028E+03  0.24159209700E+02  0.67653069182E+03  0.85218257137E+03  0.10100000352E+00 0.  1.
       -3    1    3    3    0  502  0.51762697028E+03 -0.24159209700E+02 -0.67147437524E+03  0.84817403555E+03  0.10100000352E+00 0. -1.
</event>
<event>
 5   0  0.7082527E-06  0.1699859E+04  0.7818609E-02  0.8761445E-01
        1   -1    0    0  501    0  0.00000000000E+00  0.00000000000E+00  0.51682909521E+03  0.51682909523E+03  0.50400001928E-02 0.  1.
       -1   -1    0    0    0  501  0.00000000000E+00  0.00000000000E+00 -0.13977163519E+04  0.13977163519E+04  0.50400001928E-02 0. -1.
    10030    2    1    2    0    0  0.00000000000E+00  0.00000000000E+00 -0.88088725669E+03  0.19145454471E+04  0.16998593795E+04 0.  0.
        1    1    3    3  502    0 -0.81126458687E+03 -0.25299354982E+03 -0.45731971917E+03  0.96503745612E+03  0.50400001928E-02 0.  1.
       -1    1    3    3    0  502  0.81126458687E+03  0.25299354982E+03 -0.42356753752E+03  0.94950799102E+03  0.50400001928E-02 0. -1.
</event>
<event>
 5   0  0.1423543E-05  0.1700065E+04  0.7818609E-02  0.8761327E-01
        2   -1    0    0  501    0  0.00000000000E+00  0.00000000000E+00  0.19170764455E+04  0.19170764455E+04  0.25500000920E-02 0. -1.
       -2   -1    0    0    0  501  0.00000000000E+00  0.00000000000E+00 -0.37690482223E+03  0.37690482224E+03  0.25500000920E-02 0.  1.
    10030    2    1    2    0    0  0.00000000000E+00  0.00000000000E+00  0.15401716233E+04  0.22939812678E+04  0.17000651245E+04 0.  0.
        3    1    3    3  502    0 -0.23035882893E+03 -0.16159243220E+03 -0.31223853139E+03  0.42032156130E+03  0.10100000352E+00 0.  1.
       -3    1    3    3    0  502  0.23035882893E+03  0.16159243220E+03  0.18524101547E+04  0.18736597065E+04  0.10100000352E+00 0. -1.
</event>
<event>
 5   0  0.5229750E-06  0.1698037E+04  0.7818609E-02  0.8762485E-01
       -3   -1    0    0    0  501  0.00000000000E+00  0.00000000000E+00  0.43336388399E+03  0.43336389576E+03  0.10100000352E+00 0. -1.
        3   -1    0    0  501    0  0.00000000000E+00  0.00000000000E+00 -0.16633418389E+04  0.16633418419E+04  0.10100000352E+00 0.  1.
    10030    2    1    2    0    0  0.00000000000E+00  0.00000000000E+00 -0.12299779549E+04  0.20967057377E+04  0.16980368609E+04 0.  0.
        4    1    3    3  502    0 -0.76312530949E+03  0.10137387288E+03 -0.17288558176E+03  0.78900439629E+03  0.12699999809E+01 0. -1.
       -4    1    3    3    0  502  0.76312530949E+03 -0.10137387288E+03 -0.10570923731E+04  0.13077013414E+04  0.12699999809E+01 0.  1.
</event>
<event>
 5   0  0.1423543E-05  0.1700604E+04  0.7818609E-02  0.8761020E-01
        2   -1    0    0  501    0  0.00000000000E+00  0.00000000000E+00  0.11447253113E+04  0.11447253113E+04  0.25500000920E-02 0.  1.
       -2   -1    0    0    0  501  0.00000000000E+00  0.00000000000E+00 -0.63160443168E+03  0.63160443169E+03  0.25500000920E-02 0. -1.
    10030    2    1    2    0    0  0.00000000000E+00  0.00000000000E+00  0.51312087964E+03  0.17763297430E+04  0.17006041041E+04 0.  0.
        3    1    3    3  502    0  0.25507264822E+03  0.32989842406E+03  0.10305826448E+04  0.11117534008E+04  0.10100000352E+00 0.  1.
       -3    1    3    3    0  502 -0.25507264822E+03 -0.32989842406E+03 -0.51746176518E+03  0.66457634226E+03  0.10100000352E+00 0. -1.
</event>
<event>
 5   0  0.1441756E-05  0.1700872E+04  0.7818609E-02  0.8760867E-01
        2   -1    0    0  501    0  0.00000000000E+00  0.00000000000E+00  0.15353608386E+04  0.15353608386E+04  0.25500000920E-02 0. -1.
       -2   -1    0    0    0  501  0.00000000000E+00  0.00000000000E+00 -0.47105630911E+03  0.47105630911E+03  0.25500000920E-02 0.  1.
    10030    2    1    2    0    0  0.00000000000E+00  0.00000000000E+00  0.10643045295E+04  0.20064171478E+04  0.17008720232E+04 0.  0.
        5    1    3    3  502    0 -0.18009363250E+03  0.29022567739E+03 -0.38657068410E+03  0.51587173220E+03  0.46999998093E+01 0.  1.
       -5    1    3    3    0  502  0.18009363250E+03 -0.29022567739E+03  0.14508752136E+04  0.14905454156E+04  0.46999998093E+01 0. -1.
</event>
<event>
 5   0  0.7476457E-06  0.1699372E+04  0.7818609E-02  0.8761723E-01
        1   -1    0    0  501    0  0.00000000000E+00  0.00000000000E+00  0.94469370477E+03  0.94469370479E+03  0.50400001928E-02 0. -1.
       -1   -1    0    0    0  501  0.00000000000E+00  0.00000000000E+00 -0.76423319936E+03  0.76423319938E+03  0.50400001928E-02 0.  1.
    10030    2    1    2    0    0  0.00000000000E+00  0.00000000000E+00  0.18046050541E+03  0.17089269042E+04  0.16993719928E+04 0.  0.
        2    1    3    3  502    0  0.26058582837E+03  0.63294993784E+03  0.59648478207E+03  0.90792328586E+03  0.25500000920E-02 0. -1.
       -2    1    3    3    0  502 -0.26058582837E+03 -0.63294993784E+03 -0.41602427666E+03  0.80100361830E+03  0.25500000920E-02 0.  1.
</event>
<event>
 5   0  0.7455669E-06  0.1699752E+04  0.7818609E-02  0.8761506E-01
        1   -1    0    0  501    0  0.00000000000E+00  0.00000000000E+00  0.88608571242E+03  0.88608571244E+03  0.50400001928E-02 0. -1.
       -1   -1    0    0    0  501  0.00000000000E+00  0.00000000000E+00 -0.81514630443E+03  0.81514630444E+03  0.50400001928E-02 0.  1.
    10030    2    1    2    0    0  0.00000000000E+00  0.00000000000E+00  0.70939407998E+02  0.17012320169E+04  0.16997523277E+04 0.  0.
        4    1    3    3  502    0 -0.32652455552E+03  0.45042114161E+03  0.67851666833E+03  0.87743032331E+03  0.12699999809E+01 0. -1.
       -4    1    3    3    0  502  0.32652455552E+03 -0.45042114161E+03 -0.60757726033E+03  0.82380169357E+03  0.12699999809E+01 0.  1.
</event>
<event>
 5   0  0.1435301E-05  0.1694450E+04  0.7818609E-02  0.8764536E-01
        2   -1    0    0  501    0  0.00000000000E+00  0.00000000000E+00  0.17193579207E+04  0.17193579207E+04  0.25500000920E-02 0. -1.
       -2   -1    0    0    0  501  0.00000000000E+00  0.00000000000E+00 -0.41747558986E+03  0.41747558987E+03  0.25500000920E-02 0.  1.
    10030    2    1    2    0    0  0.00000000000E+00  0.00000000000E+00  0.13018823309E+04  0.21368335106E+04  0.16944497185E+04 0.  0.
        2    1    3    3  502    0 -0.15161940308E+03 -0.74163071529E+03  0.17109239499E+03  0.77606518340E+03  0.25500000920E-02 0.  1.
       -2    1    3    3    0  502  0.15161940308E+03  0.74163071529E+03  0.11307899359E+04  0.13607683272E+04  0.25500000920E-02 0. -1.
</event>
<event>
 5   0  0.1423543E-05  0.1698010E+04  0.7818609E-02  0.8762500E-01
        2   -1    0    0  501    0  0.00000000000E+00  0.00000000000E+00  0.28127494927E+04  0.28127494927E+04  0.25500000920E-02 0. -1.
       -2   -1    0    0    0  501  0.00000000000E+00  0.00000000000E+00 -0.25626512046E+03  0.25626512047E+03  0.25500000920E-02 0.  1.
    10030    2    1    2    0    0  0.00000000000E+00  0.00000000000E+00  0.25564843723E+04  0.30690146132E+04  0.16980101149E+04 0.  0.
        3    1    3    3  502    0 -0.50490113985E+03 -0.40591966426E+03  0.22700417195E+04  0.23606747665E+04  0.10100000352E+00 0. -1.
       -3    1    3    3    0  502  0.50490113985E+03  0.40591966426E+03  0.28644265276E+03  0.70833984666E+03  0.10100000352E+00 0.  1.
</event>
<event>
 5   0  0.7082527E-06  0.1699823E+04  0.7818609E-02  0.8761465E-01
       -1   -1    0    0    0  501  0.00000000000E+00  0.00000000000E+00  0.67047555665E+03  0.67047555667E+03  0.50400001928E-02 0. -1.
        1   -1    0    0  501    0  0.00000000000E+00  0.00000000000E+00 -0.10773695574E+04  0.10773695575E+04  0.50400001928E-02 0.  1.
    10030    2    1    2    0    0  0.00000000000E+00  0.00000000000E+00 -0.40689400080E+03  0.17478451141E+04  0.16998234659E+04 0.  0.
        1    1    3    3  502    0  0.56845043144E+03 -0.57143073907E+03  0.73763377885E+02  0.80938866961E+03  0.50400001928E-02 0. -1.
       -1    1    3    3    0  502 -0.56845043144E+03  0.57143073907E+03 -0.48065737868E+03  0.93845644452E+03  0.50400001928E-02 0.  1.
</event>
<event>
 5   0  0.1441756E-05  0.1699597E+04  0.7818609E-02  0.8761594E-01
        2   -1    0    0  501    0  0.00000000000E+00  0.00000000000E+00  0.13540299568E+04  0.13540299568E+04  0.25500000920E-02 0. -1.
       -2   -1    0    0    0  501  0.00000000000E+00  0.00000000000E+00 -0.53333959227E+03  0.53333959227E+03  0.25500000920E-02 0.  1.
    10030    2    1    2    0    0  0.00000000000E+00  0.00000000000E+00  0.82069036453E+03  0.18873695491E+04  0.16995973465E+04 0.  0.
        5    1    3    3  502    0 -0.29107021407E+03 -0.66143764673E+03 -0.86170047812E+02  0.72778361974E+03  0.46999998093E+01 0.  1.
       -5    1    3    3    0  502  0.29107021407E+03  0.66143764673E+03  0.90686041234E+03  0.11595859293E+04  0.46999998093E+01 0. -1.
</event>
<event>
 5   0  0.7455669E-06  0.1699802E+04  0.7818609E-02  0.8761478E-01
       -1   -1    0    0    0  501  0.00000000000E+00  0.00000000000E+00  0.51674638890E+03  0.51674638892E+03  0.50400001928E-02 0.  1.
        1   -1    0    0  501    0  0.00000000000E+00  0.00000000000E+00 -0.13978450716E+04  0.13978450717E+04  0.50400001928E-02 0. -1.
    10030    2    1    2    0    0  0.00000000000E+00  0.00000000000E+00 -0.88109868275E+03  0.19145914606E+04  0.16998016273E+04 0.  0.
        4    1    3    3  502    0 -0.66262438805E+02  0.70262587094E+03  0.92846799044E+02  0.71182579773E+03  0.12699999809E+01 0.  1.
       -4    1    3    3    0  502  0.66262438805E+02 -0.70262587094E+03 -0.97394548179E+03  0.12027656628E+04  0.12699999809E+01 0. -1.
</event>
<event>
 5   0  0.7583716E-06  0.1699658E+04  0.7818609E-02  0.8761560E-01
       -1   -1    0    0    0  501  0.00000000000E+00  0.00000000000E+00  0.10748742097E+04  0.10748742097E+04  0.50400001928E-02 0.  1.
        1   -1    0    0  501    0  0.00000000000E+00  0.00000000000E+00 -0.67190104160E+03  0.67190104162E+03  0.50400001928E-02 0. -1.
    10030    2    1    2    0    0  0.00000000000E+00  0.00000000000E+00  0.40297316807E+03  0.17467752513E+04  0.16996577315E+04 0.  0.
        5    1    3    3  502    0  0.11520861722E+03 -0.13626313484E+03 -0.65241746022E+03  0.67639581592E+03  0.46999998093E+01 0. -1.
       -5    1    3    3    0  502 -0.11520861722E+03  0.13626313484E+03  0.10553906283E+04  0.10703794354E+04  0.46999998093E+01 0.  1.
</event>
<event>
 5   0  0.1435301E-05  0.1700258E+04  0.7818609E-02  0.8761217E-01
        2   -1    0    0  501    0  0.00000000000E+00  0.00000000000E+00  0.72763830675E+03  0.72763830675E+03  0.25500000920E-02 0. -1.
       -2   -1    0    0    0  501  0.00000000000E+00  0.00000000000E+00 -0.99323972786E+03  0.99323972786E+03  0.25500000920E-02 0.  1.
    10030    2    1    2    0    0  0.00000000000E+00  0.00000000000E+00 -0.26560142111E+03  0.17208780346E+04  0.17002579496E+04 0.  0.
        2    1    3    3  502    0  0.77204211180E+03  0.19174547540E+03 -0.43627688523E+03  0.90727772502E+03  0.25500000920E-02 0.  1.
       -2    1    3    3    0  502 -0.77204211180E+03 -0.19174547540E+03  0.17067546412E+03  0.81360030960E+03  0.25500000920E-02 0. -1.
</event>
<event>
 5   0  0.7082527E-06  0.1700086E+04  0.7818609E-02  0.8761315E-01
       -1   -1    0    0    0  501  0.00000000000E+00  0.00000000000E+00  0.64790011642E+03  0.64790011644E+03  0.50400001928E-02 0. -1.
        1   -1    0    0  501    0  0.00000000000E+00  0.00000000000E+00 -0.11152534523E+04  0.11152534523E+04  0.50400001928E-02 0.  1.
    10030    2    1    2    0    0  0.00000000000E+00  0.00000000000E+00 -0.46735333591E+03  0.17631535688E+04  0.17000856939E+04 0.  0.
        1    1    3    3  502    0  0.62566792107E+03  0.57403785988E+03 -0.19228325411E+03  0.87060476789E+03  0.50400001928E-02 0. -1.
       -1    1    3    3    0  502 -0.62566792107E+03 -0.57403785988E+03 -0.27507008180E+03  0.89254880088E+03  0.50400001928E-02 0.  1.
</event>
<event>
 5   0  0.7476457E-06  0.1699760E+04  0.7818609E-02  0.8761501E-01
       -1   -1    0    0    0  501  0.00000000000E+00  0.00000000000E+00  0.40178691542E+03  0.40178691545E+03  0.50400001928E-02 0.  1.
        1   -1    0    0  501    0  0.00000000000E+00  0.00000000000E+00 -0.17977085421E+04  0.17977085421E+04  0.50400001928E-02 0. -1.
    10030    2    1    2    0    0  0.00000000000E+00  0.00000000000E+00 -0.13959216267E+04  0.21994954575E+04  0.16997597124E+04 0.  0.
        2    1    3    3  502    0 -0.35742930087E+03  0.74469594729E+03 -0.43926356709E+03  0.93556412950E+03  0.25500000920E-02 0.  1.
       -2    1    3    3    0  502  0.35742930087E+03 -0.74469594729E+03 -0.95665805956E+03  0.12639313280E+04  0.25500000920E-02 0. -1.
</event>
<event>
 5   0  0.1441756E-05  0.1699888E+04  0.7818609E-02  0.8761428E-01
       -2   -1    0    0    0  501  0.00000000000E+00  0.00000000000E+00  0.33748830830E+03  0.33748830831E+03  0.25500000920E-02 0. -1.
        2   -1    0    0  501    0  0.00000000000E+00  0.00000000000E+00 -0.21405339533E+04  0.21405339533E+04  0.25500000920E-02 0.  1.
    10030    2    1    2    0    0  0.00000000000E+00  0.00000000000E+00 -0.18030456450E+04  0.24780222616E+04  0.16998884467E+04 0.  0.
        5    1    3    3  502    0  0.66124905847E+03  0.50984057647E+03 -0.67013255776E+03  0.10706481522E+04  0.46999998093E+01 0. -1.
       -5    1    3    3    0  502 -0.66124905847E+03 -0.50984057647E+03 -0.11329130872E+04  0.14073741095E+04  0.46999998093E+01 0.  1.
</event>
<event>
 5   0  0.1419012E-05  0.1700333E+04  0.7818609E-02  0.8761174E-01
       -2   -1    0    0    0  501  0.00000000000E+00  0.00000000000E+00  0.37509479231E+03  0.37509479232E+03  0.25500000920E-02 0.  1.
        2   -1    0    0  501    0  0.00000000000E+00  0.00000000000E+00 -0.19269347947E+04  0.19269347947E+04  0.25500000920E-02 0. -1.
    10030    2    1    2    0    0  0.00000000000E+00  0.00000000000E+00 -0.15518400024E+04  0.23020295870E+04  0.17003331516E+04 0.  0.
        4    1    3    3  502    0  0.74977920281E+03  0.22676432869E+03 -0.32854711023E+03  0.84943259313E+03  0.12699999809E+01 0. -1.
       -4    1    3    3    0  502 -0.74977920281E+03 -0.22676432869E+03 -0.12232928921E+04  0.14525969939E+04  0.12699999809E+01 0.  1.
</event>
<event>
 5   0  0.7476457E-06  0.1700224E+04  0.7818609E-02  0.8761236E-01
        1   -1    0    0  501    0  0.00000000000E+00  0.00000000000E+00  0.10724604622E+04  0.10724604622E+04  0.50400001928E-02 0.  1.
       -1   -1    0    0    0  501  0.00000000000E+00  0.00000000000E+00 -0.67386230394E+03  0.67386230396E+03  0.50400001928E-02 0. -1.
    10030    2    1    2    0    0  0.00000000000E+00  0.00000000000E+00  0.39859815822E+03  0.17463227661E+04  0.17002243122E+04 0.  0.
        2    1    3    3  502    0  0.11781556715E+03  0.47378662711E+03  0.91411110326E+03  0.10363172222E+04  0.25500000920E-02 0.  1.
       -2    1    3    3    0  502 -0.11781556715E+03 -0.47378662711E+03 -0.51551294505E+03  0.71000554393E+03  0.25500000920E-02 0. -1.
</event>
<event>
 5   0  0.7461128E-06  0.1701092E+04  0.7818609E-02  0.8760742E-01
        1   -1    0    0  501    0  0.00000000000E+00  0.00000000000E+00  0.13697326422E+04  0.13697326423E+04  0.50400001928E-02 0. -1.
       -1   -1    0    0    0  501  0.00000000000E+00  0.00000000000E+00 -0.52815298881E+03  0.52815298883E+03  0.50400001928E-02 0.  1.
    10030    2    1    2    0    0  0.00000000000E+00  0.00000000000E+00  0.84157965343E+03  0.18978856311E+04  0.17010918716E+04 0.  0.
        3    1    3    3  502    0  0.71858392607E+03 -0.16217644429E+03  0.89513952126E+03  0.11592837576E+04  0.10100000352E+00 0. -1.
       -3    1    3    3    0  502 -0.71858392607E+03  0.16217644429E+03 -0.53559867824E+02  0.73860187349E+03  0.10100000352E+00 0.  1.
</event>
<event>
 5   0  0.7476457E-06  0.1701411E+04  0.7818609E-02  0.8760560E-01
        1   -1    0    0  501    0  0.00000000000E+00  0.00000000000E+00  0.15292456396E+04  0.15292456396E+04  0.50400001928E-02 0. -1.
       -1   -1    0    0    0  501  0.00000000000E+00  0.00000000000E+00 -0.47324001279E+03  0.47324001282E+03  0.50400001928E-02 0.  1.
    10030    2    1    2    0    0  0.00000000000E+00  0.00000000000E+00  0.10560056268E+04  0.20024856524E+04  0.17014114447E+04 0.  0.
        2    1    3    3  502    0 -0.51043218822E+02  0.62462203737E+03  0.12050767398E+04  0.13582960092E+04  0.25500000920E-02 0.  1.
       -2    1    3    3    0  502  0.51043218822E+02 -0.62462203737E+03 -0.14907111297E+03  0.64418964326E+03  0.25500000920E-02 0. -1.
</event>
<event>
 5   0  0.1423543E-05  0.1692018E+04  0.7818609E-02  0.8765930E-01
        2   -1    0    0  501    0  0.00000000000E+00  0.00000000000E+00  0.88021798425E+03  0.88021798425E+03  0.25500000920E-02 0.  1.
       -2   -1    0    0    0  501  0.00000000000E+00  0.00000000000E+00 -0.81312941025E+03  0.81312941026E+03  0.25500000920E-02 0. -1.
    10030    2    1    2    0    0  0.00000000000E+00  0.00000000000E+00  0.67088573998E+02  0.16933473945E+04  0.16920178846E+04 0.  0.
        3    1    3    3  502    0 -0.39084258136E+03 -0.53581541505E+03  0.55919507224E+03  0.86749940716E+03  0.10100000352E+00 0.  1.
       -3    1    3    3    0  502  0.39084258136E+03  0.53581541505E+03 -0.49210649824E+03  0.82584798735E+03  0.10100000352E+00 0. -1.
</event>
<event>
 5   0  0.5229750E-06  0.1688840E+04  0.7818609E-02  0.8767755E-01
        3   -1    0    0  501    0  0.00000000000E+00  0.00000000000E+00  0.12467780770E+04  0.12467780811E+04  0.10100000352E+00 0. -1.
       -3   -1    0    0    0  501  0.00000000000E+00  0.00000000000E+00 -0.57191042211E+03  0.57191043103E+03  0.10100000352E+00 0.  1.
    10030    2    1    2    0    0  0.00000000000E+00  0.00000000000E+00  0.67486765488E+03  0.18186885121E+04  0.16888402981E+04 0.  0.
        2    1    3    3  502    0 -0.35270362088E+03 -0.71678768182E+03  0.63207772136E+03  0.10186788850E+04  0.25500000920E-02 0.  1.
       -2    1    3    3    0  502  0.35270362088E+03  0.71678768182E+03  0.42789933521E+02  0.80000962707E+03  0.25500000920E-02 0. -1.
</event>
<event>
 5   0  0.7455669E-06  0.1696443E+04  0.7818609E-02  0.8763396E-01
        1   -1    0    0  501    0  0.00000000000E+00  0.00000000000E+00  0.11845727474E+04  0.11845727474E+04  0.50400001928E-02 0.  1.
       -1   -1    0    0    0  501  0.00000000000E+00  0.00000000000E+00 -0.60737468840E+03  0.60737468842E+03  0.50400001928E-02 0. -1.
    10030    2    1    2    0    0  0.00000000000E+00  0.00000000000E+00  0.57719805899E+03  0.17919474358E+04  0.16964427528E+04 0.  0.
        4    1    3    3  502    0  0.28803197723E+03 -0.69331846458E+03 -0.12837076288E+03  0.76166500438E+03  0.12699999809E+01 0. -1.
       -4    1    3    3    0  502 -0.28803197723E+03  0.69331846458E+03  0.70556882187E+03  0.10302824314E+04  0.12699999809E+01 0.  1.
</event>
<event>
 5   0  0.7461128E-06  0.1701803E+04  0.7818609E-02  0.8760337E-01
       -1   -1    0    0    0  501  0.00000000000E+00  0.00000000000E+00  0.11492264351E+04  0.11492264351E+04  0.50400001928E-02 0. -1.
        1   -1    0    0  501    0  0.00000000000E+00  0.00000000000E+00 -0.63001815249E+03  0.63001815251E+03  0.50400001928E-02 0.  1.
    10030    2    1    2    0    0  0.00000000000E+00  0.00000000000E+00  0.51920828260E+03  0.17792445876E+04  0.17018031795E+04 0.  0.
        3    1    3    3  502    0 -0.38861988181E+03  0.32391405286E+02  0.10502986630E+04  0.11203579372E+04  0.10100000352E+00 0. -1.
       -3    1    3    3    0  502  0.38861988181E+03 -0.32391405286E+02 -0.53109038044E+03  0.65888665040E+03  0.10100000352E+00 0.  1.
</event>
<event>
 5   0  0.1374441E-05  0.1700087E+04  0.7818609E-02  0.8761315E-01
        2   -1    0    0  501    0  0.00000000000E+00  0.00000000000E+00  0.65707744562E+03  0.65707744563E+03  0.25500000920E-02 0. -1.
       -2   -1    0    0    0  501  0.00000000000E+00  0.00000000000E+00 -0.10996787814E+04  0.10996787814E+04  0.25500000920E-02 0.  1.
    10030    2    1    2    0    0  0.00000000000E+00  0.00000000000E+00 -0.44260133577E+03  0.17567562270E+04  0.17000872033E+04 0.  0.
        1    1    3    3  502    0  0.60597147137E+03 -0.58639368403E+03 -0.33218624552E+03  0.90631488927E+03  0.50400001928E-02 0.  1.
       -1    1    3    3    0  502 -0.60597147137E+03  0.58639368403E+03 -0.11041509024E+03  0.85044133775E+03  0.50400001928E-02 0. -1.
</event>
<event>
 5   0  0.7082527E-06  0.1700447E+04  0.7818609E-02  0.8761110E-01
       -1   -1    0    0    0  501  0.00000000000E+00  0.00000000000E+00  0.98139992214E+03  0.98139992216E+03  0.50400001928E-02 0. -1.
        1   -1    0    0  501    0  0.00000000000E+00  0.00000000000E+00 -0.73658015518E+03  0.73658015519E+03  0.50400001928E-02 0.  1.
    10030    2    1    2    0    0  0.00000000000E+00  0.00000000000E+00  0.24481976697E+03  0.17179800773E+04  0.17004466554E+04 0.  0.
        1    1    3    3  502    0  0.13807990070E+03 -0.76371471003E+03  0.47319810628E+03  0.90897891345E+03  0.50400001928E-02 0. -1.
       -1    1    3    3    0  502 -0.13807990070E+03  0.76371471003E+03 -0.22837833931E+03  0.80900116390E+03  0.50400001928E-02 0.  1.
</event>
<event>
 5   0  0.1423543E-05  0.1709748E+04  0.7818609E-02  0.8755824E-01
       -2   -1    0    0    0  501  0.00000000000E+00  0.00000000000E+00  0.36368880328E+03  0.36368880329E+03  0.25500000920E-02 0. -1.
        2   -1    0    0  501    0  0.00000000000E+00  0.00000000000E+00 -0.20094372480E+04  0.20094372480E+04  0.25500000920E-02 0.  1.
    10030    2    1    2    0    0  0.00000000000E+00  0.00000000000E+00 -0.16457484447E+04  0.23731260513E+04  0.17097483183E+04 0.  0.
        3    1    3    3  502    0 -0.58366772017E+03 -0.46016174787E+03 -0.23663145604E+03  0.78000724224E+03  0.10100000352E+00 0. -1.
       -3    1    3    3    0  502  0.58366772017E+03  0.46016174787E+03 -0.14091169887E+04  0.15931188090E+04  0.10100000352E+00 0.  1.
</event>
<event>
 5   0  0.1423543E-05  0.1699612E+04  0.7818609E-02  0.8761585E-01
       -2   -1    0    0    0  501  0.00000000000E+00  0.00000000000E+00  0.53519050196E+03  0.53519050196E+03  0.25500000920E-02 0. -1.
        2   -1    0    0  501    0  0.00000000000E+00  0.00000000000E+00 -0.13493709449E+04  0.13493709449E+04  0.25500000920E-02 0.  1.
    10030    2    1    2    0    0  0.00000000000E+00  0.00000000000E+00 -0.81418044298E+03  0.18845614469E+04  0.16996123245E+04 0.  0.
        3    1    3    3  502    0 -0.21457405173E+03  0.37254731605E+03  0.40570996482E+03  0.59112952229E+03  0.10100000352E+00 0. -1.
       -3    1    3    3    0  502  0.21457405173E+03 -0.37254731605E+03 -0.12198904078E+04  0.12934319246E+04  0.10100000352E+00 0.  1.
</event>
<event>
 5   0  0.1419012E-05  0.1699802E+04  0.7818609E-02  0.8761478E-01
        2   -1    0    0  501    0  0.00000000000E+00  0.00000000000E+00  0.11740491349E+04  0.11740491349E+04  0.25500000920E-02 0. -1.
       -2   -1    0    0    0  501  0.00000000000E+00  0.00000000000E+00 -0.61524796146E+03  0.61524796147E+03  0.25500000920E-02 0.  1.
    10030    2    1    2    0    0  0.00000000000E+00  0.00000000000E+00  0.55880117347E+03  0.17892970964E+04  0.16998015613E+04 0.  0.
        4    1    3    3  502    0 -0.47341026717E+03  0.38662211778E+03  0.90103133464E+03  0.10887851128E+04  0.12699999809E+01 0.  1.
       -4    1    3    3    0  502  0.47341026717E+03 -0.38662211778E+03 -0.34223016117E+03  0.70051198358E+03  0.12699999809E+01 0. -1.
</event>
<event>
 5   0  0.7461128E-06  0.1699617E+04  0.7818609E-02  0.8761583E-01
        1   -1    0    0  501    0  0.00000000000E+00  0.00000000000E+00  0.57801776185E+03  0.57801776187E+03  0.50400001928E-02 0.  1.
       -1   -1    0    0    0  501  0.00000000000E+00  0.00000000000E+00 -0.12493981388E+04  0.12493981388E+04  0.50400001928E-02 0. -1.
    10030    2    1    2    0    0  0.00000000000E+00  0.00000000000E+00 -0.67138037693E+03  0.18274159007E+04  0.16996167990E+04 0.  0.
        3    1    3    3  502    0 -0.54725250599E+03 -0.20868876811E+02 -0.10343616571E+04  0.11703951740E+04  0.10100000352E+00 0. -1.
       -3    1    3    3    0  502  0.54725250599E+03  0.20868876811E+02  0.36298128019E+03  0.65702072669E+03  0.10100000352E+00 0.  1.
</event>
<event>
 5   0  0.1419012E-05  0.1697349E+04  0.7818609E-02  0.8762878E-01
        2   -1    0    0  501    0  0.00000000000E+00  0.00000000000E+00  0.74150290094E+03  0.74150290095E+03  0.25500000920E-02 0. -1.
       -2   -1    0    0    0  501  0.00000000000E+00  0.00000000000E+00 -0.97133616823E+03  0.97133616824E+03  0.25500000920E-02 0.  1.
    10030    2    1    2    0    0  0.00000000000E+00  0.00000000000E+00 -0.22983326729E+03  0.17128390692E+04  0.16973492116E+04 0.  0.
        4    1    3    3  502    0 -0.77008953075E+03  0.32099947728E+03 -0.27179733490E+03  0.87747020117E+03  0.12699999809E+01 0.  1.
       -4    1    3    3    0  502  0.77008953075E+03 -0.32099947728E+03  0.41964067610E+02  0.83536886801E+03  0.12699999809E+01 0. -1.
</event>
<event>
 5   0  0.7583716E-06  0.1703244E+04  0.7818609E-02  0.8759517E-01
       -1   -1    0    0    0  501  0.00000000000E+00  0.00000000000E+00  0.12615518998E+04  0.12615518999E+04  0.50400001928E-02 0.  1.
        1   -1    0    0  501    0  0.00000000000E+00  0.00000000000E+00 -0.57489484526E+03  0.57489484528E+03  0.50400001928E-02 0. -1.
    10030    2    1    2    0    0  0.00000000000E+00  0.00000000000E+00  0.68665705459E+03  0.18364467451E+04  0.17032435930E+04 0.  0.
        5    1    3    3  502    0 -0.84447511513E+03  0.97821501222E+02  0.28909223481E+03  0.89794413880E+03  0.46999998093E+01 0. -1.
       -5    1    3    3    0  502  0.84447511513E+03 -0.97821501222E+02  0.39756481977E+03  0.93850260633E+03  0.46999998093E+01 0.  1.
</event>
<event>
 5   0  0.1374441E-05  0.1700242E+04  0.7818609E-02  0.8761226E-01
       -2   -1    0    0    0  501  0.00000000000E+00  0.00000000000E+00  0.49780964820E+03  0.49780964821E+03  0.25500000920E-02 0.  1.
        2   -1    0    0  501    0  0.00000000000E+00  0.00000000000E+00 -0.14517720258E+04  0.14517720258E+04  0.25500000920E-02 0. -1.
    10030    2    1    2    0    0  0.00000000000E+00  0.00000000000E+00 -0.95396237759E+03  0.19495816740E+04  0.17002424785E+04 0.  0.
        1    1    3    3  502    0  0.77835333734E+03  0.31751396834E+03 -0.62228061708E+03  0.10458882370E+04  0.50400001928E-02 0. -1.
       -1    1    3    3    0  502 -0.77835333734E+03 -0.31751396834E+03 -0.33168176051E+03  0.90369343702E+03  0.50400001928E-02 0.  1.
</event>
<event>
 5   0  0.7476457E-06  0.1700204E+04  0.7818609E-02  0.8761248E-01
        1   -1    0    0  501    0  0.00000000000E+00  0.00000000000E+00  0.12678696909E+04  0.12678696909E+04  0.50400001928E-02 0.  1.
       -1   -1    0    0    0  501  0.00000000000E+00  0.00000000000E+00 -0.56999021559E+03  0.56999021561E+03  0.50400001928E-02 0. -1.
    10030    2    1    2    0    0  0.00000000000E+00  0.00000000000E+00  0.69787947529E+03  0.18378599065E+04  0.17002038919E+04 0.  0.
        2    1    3    3  502    0  0.62565717855E+03 -0.23498037189E+03  0.91684292776E+03  0.11345764119E+04  0.25500000920E-02 0.  1.
       -2    1    3    3    0  502 -0.62565717855E+03  0.23498037189E+03 -0.21896345247E+03  0.70328349460E+03  0.25500000920E-02 0. -1.
</event>
<event>
 5   0  0.1441756E-05  0.1699464E+04  0.7818609E-02  0.8761670E-01
       -2   -1    0    0    0  501  0.00000000000E+00  0.00000000000E+00  0.82862627549E+03  0.82862627549E+03  0.25500000920E-02 0. -1.
        2   -1    0    0  501    0  0.00000000000E+00  0.00000000000E+00 -0.87137479841E+03  0.87137479841E+03  0.25500000920E-02 0.  1.
    10030    2    1    2    0    0  0.00000000000E+00  0.00000000000E+00 -0.42748522924E+02  0.17000010739E+04  0.16994635080E+04 0.  0.
        5    1    3    3  502    0  0.43855721740E+03  0.60447115997E+03  0.38409843525E+03  0.83980444994E+03  0.46999998093E+01 0. -1.
       -5    1    3    3    0  502 -0.43855721740E+03 -0.60447115997E+03 -0.42684695818E+03  0.86019662396E+03  0.46999998093E+01 0.  1.
</event>
<event>
 5   0  0.7461128E-06  0.1701257E+04  0.7818609E-02  0.8760648E-01
       -1   -1    0    0    0  501  0.00000000000E+00  0.00000000000E+00  0.38346460465E+03  0.38346460468E+03  0.50400001928E-02 0.  1.
        1   -1    0    0  501    0  0.00000000000E+00  0.00000000000E+00 -0.18869249792E+04  0.18869249792E+04  0.50400001928E-02 0. -1.
    10030    2    1    2    0    0  0.00000000000E+00  0.00000000000E+00 -0.15034603746E+04  0.22703895839E+04  0.17012571131E+04 0.  0.
        3    1    3    3  502    0  0.49059859720E+02 -0.55931736280E+03 -0.16045043388E+04  0.16999049872E+04  0.10100000352E+00 0. -1.
       -3    1    3    3    0  502 -0.49059859720E+02  0.55931736280E+03  0.10104396420E+03  0.57048459670E+03  0.10100000352E+00 0.  1.
</event>
<event>
 5   0  0.7461128E-06  0.1699948E+04  0.7818609E-02  0.8761394E-01
        1   -1    0    0  501    0  0.00000000000E+00  0.00000000000E+00  0.75995739485E+03  0.75995739487E+03  0.50400001928E-02 0.  1.
       -1   -1    0    0    0  501  0.00000000000E+00  0.00000000000E+00 -0.95065345065E+03  0.95065345067E+03  0.50400001928E-02 0. -1.
    10030    2    1    2    0    0  0.00000000000E+00  0.00000000000E+00 -0.19069605580E+03  0.17106108455E+04  0.16999483754E+04 0.  0.
        3    1    3    3  502    0  0.14518707185E+03 -0.51159311049E+02 -0.93650948806E+03  0.94907670521E+03  0.10100000352E+00 0. -1.
       -3    1    3    3    0  502 -0.14518707185E+03  0.51159311049E+02  0.74581343226E+03  0.76153414033E+03  0.10100000352E+00 0.  1.
</event>
<event>
 5   0  0.5229750E-06  0.1699462E+04  0.7818609E-02  0.8761671E-01
       -3   -1    0    0    0  501  0.00000000000E+00  0.00000000000E+00  0.85220950691E+03  0.85220951290E+03  0.10100000352E+00 0.  1.
        3   -1    0    0  501    0  0.00000000000E+00  0.00000000000E+00 -0.84725943716E+03  0.84725944318E+03  0.10100000352E+00 0. -1.
    10030    2    1    2    0    0  0.00000000000E+00  0.00000000000E+00  0.49500697511E+01  0.16994689561E+04  0.16994617470E+04 0.  0.
        1    1    3    3  502    0 -0.78568300585E+03 -0.92605115311E+02  0.31258772437E+03  0.85063774811E+03  0.50400001928E-02 0.  1.
       -1    1    3    3    0  502  0.78568300585E+03  0.92605115311E+02 -0.30763765462E+03  0.84883120797E+03  0.50400001928E-02 0. -1.
</event>
<event>
 5   0  0.7082527E-06  0.1700054E+04  0.7818609E-02  0.8761334E-01
       -1   -1    0    0    0  501  0.00000000000E+00  0.00000000000E+00  0.15261859105E+04  0.15261859106E+04  0.50400001928E-02 0.  1.
        1   -1    0    0  501    0  0.00000000000E+00  0.00000000000E+00 -0.47343236702E+03  0.47343236705E+03  0.50400001928E-02 0. -1.
    10030    2    1    2    0    0  0.00000000000E+00  0.00000000000E+00  0.10527535435E+04  0.19996182776E+04  0.17000538911E+04 0.  0.
        1    1    3    3  502    0 -0.44166653220E+03 -0.69063565624E+03  0.79069386606E+03  0.11389660773E+04  0.50400001928E-02 0.  1.
       -1    1    3    3    0  502  0.44166653220E+03  0.69063565624E+03  0.26205967747E+03  0.86065220032E+03  0.50400001928E-02 0. -1.
</event>
<event>
 5   0  0.7476457E-06  0.1699384E+04  0.7818609E-02  0.8761716E-01
       -1   -1    0    0    0  501  0.00000000000E+00  0.00000000000E+00  0.51720035480E+03  0.51720035482E+03  0.50400001928E-02 0. -1.
        1   -1    0    0  501    0  0.00000000000E+00  0.00000000000E+00 -0.13959317876E+04  0.13959317876E+04  0.50400001928E-02 0.  1.
    10030    2    1    2    0    0  0.00000000000E+00  0.00000000000E+00 -0.87873143280E+03  0.19131321424E+04  0.16993839070E+04 0.  0.
        2    1    3    3  502    0  0.63651412082E+02  0.69982170767E+03  0.98392447594E+02  0.70956535889E+03  0.25500000920E-02 0. -1.
       -2    1    3    3    0  502 -0.63651412082E+02 -0.69982170767E+03 -0.97712388039E+03  0.12035667835E+04  0.25500000920E-02 0.  1.
</event>
<event>
 5   0  0.7583716E-06  0.1700222E+04  0.7818609E-02  0.8761238E-01
        1   -1    0    0  501    0  0.00000000000E+00  0.00000000000E+00  0.70192935018E+03  0.70192935019E+03  0.50400001928E-02 0.  1.
       -1   -1    0    0    0  501  0.00000000000E+00  0.00000000000E+00 -0.10295751628E+04  0.10295751628E+04  0.50400001928E-02 0. -1.
    10030    2    1    2    0    0  0.00000000000E+00  0.00000000000E+00 -0.32764581259E+03  0.17315045130E+04  0.17002223678E+04 0.  0.
        5    1    3    3  502    0  0.41427792347E+03  0.27331421973E+03 -0.86669526182E+03  0.99875403751E+03  0.46999998093E+01 0. -1.
       -5    1    3    3    0  502 -0.41427792347E+03 -0.27331421973E+03  0.53904944923E+03  0.73275047546E+03  0.46999998093E+01 0.  1.
</event>
<event>
 5   0  0.1441756E-05  0.1700437E+04  0.7818609E-02  0.8761115E-01
       -2   -1    0    0    0  501  0.00000000000E+00  0.00000000000E+00  0.55429356474E+03  0.55429356474E+03  0.25500000920E-02 0. -1.
        2   -1    0    0  501    0  0.00000000000E+00  0.00000000000E+00 -0.13041312619E+04  0.13041312619E+04  0.25500000920E-02 0.  1.
    10030    2    1    2    0    0  0.00000000000E+00  0.00000000000E+00 -0.74983769713E+03  0.18584248266E+04  0.17004370803E+04 0.  0.
        5    1    3    3  502    0 -0.43257602429E+02 -0.75837773311E+03  0.42454725210E+02  0.76081042313E+03  0.46999998093E+01 0. -1.
       -5    1    3    3    0  502  0.43257602429E+02  0.75837773311E+03 -0.79229242234E+03  0.10976144035E+04  0.46999998093E+01 0.  1.
</event>
<event>
 5   0  0.7583716E-06  0.1700192E+04  0.7818609E-02  0.8761255E-01
       -1   -1    0    0    0  501  0.00000000000E+00  0.00000000000E+00  0.36650704183E+03  0.36650704187E+03  0.50400001928E-02 0.  1.
        1   -1    0    0  501    0  0.00000000000E+00  0.00000000000E+00 -0.19717578526E+04  0.19717578526E+04  0.50400001928E-02 0. -1.
    10030    2    1    2    0    0  0.00000000000E+00  0.00000000000E+00 -0.16052508108E+04  0.23382648945E+04  0.17001919160E+04 0.  0.
        5    1    3    3  502    0  0.18869161355E+03 -0.43297077194E+03 -0.17746900989E+04  0.18364681461E+04  0.46999998093E+01 0. -1.
       -5    1    3    3    0  502 -0.18869161355E+03  0.43297077194E+03  0.16943928812E+03  0.50179674843E+03  0.46999998093E+01 0.  1.
</event>
<event>
 5   0  0.1374441E-05  0.1700376E+04  0.7818609E-02  0.8761150E-01
        2   -1    0    0  501    0  0.00000000000E+00  0.00000000000E+00  0.14968478942E+04  0.14968478942E+04  0.25500000920E-02 0.  1.
       -2   -1    0    0    0  501  0.00000000000E+00  0.00000000000E+00 -0.48289441039E+03  0.48289441040E+03  0.25500000920E-02 0. -1.
    10030    2    1    2    0    0  0.00000000000E+00  0.00000000000E+00  0.10139534838E+04  0.19797423046E+04  0.17003758188E+04 0.  0.
        1    1    3    3  502    0  0.65306458161E+03 -0.45476011721E+03  0.15862158000E+03  0.81145604787E+03  0.50400001928E-02 0. -1.
       -1    1    3    3    0  502 -0.65306458161E+03  0.45476011721E+03  0.85533190377E+03  0.11682862567E+04  0.50400001928E-02 0.  1.
</event>
<event>
 5   0  0.7082527E-06  0.1700177E+04  0.7818609E-02  0.8761263E-01
        1   -1    0    0  501    0  0.00000000000E+00  0.00000000000E+00  0.82460986917E+03  0.82460986919E+03  0.50400001928E-02 0.  1.
       -1   -1    0    0    0  501  0.00000000000E+00  0.00000000000E+00 -0.87635473311E+03  0.87635473313E+03  0.50400001928E-02 0. -1.
    10030    2    1    2    0    0  0.00000000000E+00  0.00000000000E+00 -0.51744863937E+02  0.17009646023E+04  0.17001773576E+04 0.  0.
        1    1    3    3  502    0 -0.38399287293E+03  0.28192783168E+02 -0.78411874233E+03  0.87354883182E+03  0.50400001928E-02 0. -1.
       -1    1    3    3    0  502  0.38399287293E+03 -0.28192783168E+02  0.73237387839E+03  0.82741577049E+03  0.50400001928E-02 0.  1.
</event>
<event>
 5   0  0.1419012E-05  0.1700521E+04  0.7818609E-02  0.8761068E-01
       -2   -1    0    0    0  501  0.00000000000E+00  0.00000000000E+00  0.37341873997E+03  0.37341873998E+03  0.25500000920E-02 0. -1.
        2   -1    0    0  501    0  0.00000000000E+00  0.00000000000E+00 -0.19360103944E+04  0.19360103944E+04  0.25500000920E-02 0.  1.
    10030    2    1    2    0    0  0.00000000000E+00  0.00000000000E+00 -0.15625916544E+04  0.23094291343E+04  0.17005205815E+04 0.  0.
        4    1    3    3  502    0 -0.48656855631E+03 -0.69695372269E+03 -0.81002466766E+03  0.11741528975E+04  0.12699999809E+01 0. -1.
       -4    1    3    3    0  502  0.48656855631E+03  0.69695372269E+03 -0.75256698672E+03  0.11352762368E+04  0.12699999809E+01 0.  1.
</event>
<event>
 5   0  0.1423543E-05  0.1699780E+04  0.7818609E-02  0.8761490E-01
        2   -1    0    0  501    0  0.00000000000E+00  0.00000000000E+00  0.12410899620E+04  0.12410899620E+04  0.25500000920E-02 0.  1.
       -2   -1    0    0    0  501  0.00000000000E+00  0.00000000000E+00 -0.58199873584E+03  0.58199873584E+03  0.25500000920E-02 0. -1.
    10030    2    1    2    0    0  0.00000000000E+00  0.00000000000E+00  0.65909122616E+03  0.18230886978E+04  0.16997797374E+04 0.  0.
        3    1    3    3  502    0  0.49611208667E+03  0.20809375128E+03  0.10352132476E+04  0.11666604862E+04  0.10100000352E+00 0.  1.
       -3    1    3    3    0  502 -0.49611208667E+03 -0.20809375128E+03 -0.37612202142E+03  0.65642821166E+03  0.10100000352E+00 0. -1.
</event>
<event>
 5   0  0.7461128E-06  0.1700296E+04  0.7818609E-02  0.8761196E-01
        1   -1    0    0  501    0  0.00000000000E+00  0.00000000000E+00  0.93316887497E+03  0.93316887498E+03  0.50400001928E-02 0.  1.
       -1   -1    0    0    0  501  0.00000000000E+00  0.00000000000E+00 -0.77451319565E+03  0.77451319566E+03  0.50400001928E-02 0. -1.
    10030    2    1    2    0    0  0.00000000000E+00  0.00000000000E+00  0.15865567932E+03  0.17076820706E+04  0.17002959830E+04 0.  0.
        3    1    3    3  502    0 -0.29903525215E+03  0.36293857957E+02 -0.71911760081E+03  0.77965983618E+03  0.10100000352E+00 0. -1.
       -3    1    3    3    0  502  0.29903525215E+03 -0.36293857957E+02  0.87777328013E+03  0.92802223447E+03  0.10100000352E+00 0.  1.
</event>
<event>
 5   0  0.7583716E-06  0.1699276E+04  0.7818609E-02  0.8761777E-01
        1   -1    0    0  501    0  0.00000000000E+00  0.00000000000E+00  0.90702636227E+03  0.90702636229E+03  0.50400001928E-02 0. -1.
       -1   -1    0    0    0  501  0.00000000000E+00  0.00000000000E+00 -0.79588056540E+03  0.79588056541E+03  0.50400001928E-02 0.  1.
    10030    2    1    2    0    0  0.00000000000E+00  0.00000000000E+00  0.11114579688E+03  0.17029069277E+04  0.16992759094E+04 0.  0.
        5    1    3    3  502    0 -0.12665199376E+03 -0.14445885817E+03 -0.77381472139E+03  0.79732076498E+03  0.46999998093E+01 0.  1.
       -5    1    3    3    0  502  0.12665199376E+03  0.14445885817E+03  0.88496051827E+03  0.90558616272E+03  0.46999998093E+01 0. -1.
</event>
<event>
 5   0  0.5229750E-06  0.1699469E+04  0.7818609E-02  0.8761667E-01
       -3   -1    0    0    0  501  0.00000000000E+00  0.00000000000E+00  0.35657901891E+03  0.35657903322E+03  0.10100000352E+00 0.  1.
        3   -1    0    0  501    0  0.00000000000E+00  0.00000000000E+00 -0.20249334636E+04  0.20249334662E+04  0.10100000352E+00 0. -1.
    10030    2    1    2    0    0  0.00000000000E+00  0.00000000000E+00 -0.16683544447E+04  0.23815124994E+04  0.16994691028E+04 0.  0.
        5    1    3    3  502    0 -0.63509113496E+03  0.49912121305E+03 -0.12037770939E+04  0.14496772457E+04  0.46999998093E+01 0. -1.
       -5    1    3    3    0  502  0.63509113496E+03 -0.49912121305E+03 -0.46457735084E+03  0.93183525364E+03  0.46999998093E+01 0.  1.
</event>
<event>
 5   0  0.7455669E-06  0.1698540E+04  0.7818609E-02  0.8762198E-01
        1   -1    0    0  501    0  0.00000000000E+00  0.00000000000E+00  0.77056036767E+03  0.77056036769E+03  0.50400001928E-02 0. -1.
       -1   -1    0    0    0  501  0.00000000000E+00  0.00000000000E+00 -0.93601939192E+03  0.93601939193E+03  0.50400001928E-02 0.  1.
    10030    2    1    2    0    0  0.00000000000E+00  0.00000000000E+00 -0.16545902424E+03  0.17065797596E+04  0.16985398986E+04 0.  0.
        4    1    3    3  502    0  0.52423333359E+02 -0.84762318952E+03 -0.89436182184E+02  0.85394011551E+03  0.12699999809E+01 0. -1.
       -4    1    3    3    0  502 -0.52423333359E+02  0.84762318952E+03 -0.76022842059E+02  0.85263964411E+03  0.12699999809E+01 0.  1.
</event>
<event>
 5   0  0.1423543E-05  0.1700088E+04  0.7818609E-02  0.8761314E-01
        2   -1    0    0  501    0  0.00000000000E+00  0.00000000000E+00  0.29030694158E+04  0.29030694158E+04  0.25500000920E-02 0. -1.
       -2   -1    0    0    0  501  0.00000000000E+00  0.00000000000E+00 -0.24890021124E+03  0.24890021125E+03  0.25500000920E-02 0.  1.
    10030    2    1    2    0    0  0.00000000000E+00  0.00000000000E+00  0.26541692046E+04  0.31519696271E+04  0.17000877517E+04 0.  0.
        3    1    3    3  502    0  0.22005570489E+03 -0.57090390083E+03  0.24211336560E+04  0.24972472780E+04  0.10100000352E+00 0. -1.
       -3    1    3    3    0  502 -0.22005570489E+03  0.57090390083E+03  0.23303554860E+03  0.65472234905E+03  0.10100000352E+00 0.  1.
</event>
<event>
 5   0  0.1435301E-05  0.1701070E+04  0.7818609E-02  0.8760754E-01
        2   -1    0    0  501    0  0.00000000000E+00  0.00000000000E+00  0.12770432288E+04  0.12770432288E+04  0.25500000920E-02 0. -1.
       -2   -1    0    0    0  501  0.00000000000E+00  0.00000000000E+00 -0.56647273274E+03  0.56647273275E+03  0.25500000920E-02 0.  1.
    10030    2    1    2    0    0  0.00000000000E+00  0.00000000000E+00  0.71057049604E+03  0.18435159615E+04  0.17010704485E+04 0.  0.
        2    1    3    3  502    0 -0.52695667119E+03  0.64551071774E+03  0.53997527836E+03  0.99294547749E+03  0.25500000920E-02 0. -1.
       -2    1    3    3    0  502  0.52695667119E+03 -0.64551071774E+03  0.17059521768E+03  0.85057048404E+03  0.25500000920E-02 0.  1.
</event>
<event>
 5   0  0.1423543E-05  0.1700375E+04  0.7818609E-02  0.8761150E-01
        2   -1    0    0  501    0  0.00000000000E+00  0.00000000000E+00  0.42789672386E+03  0.42789672387E+03  0.25500000920E-02 0.  1.
       -2   -1    0    0    0  501  0.00000000000E+00  0.00000000000E+00 -0.16892367803E+04  0.16892367803E+04  0.25500000920E-02 0. -1.
    10030    2    1    2    0    0  0.00000000000E+00  0.00000000000E+00 -0.12613400564E+04  0.21171335041E+04  0.17003751164E+04 0.  0.
        3    1    3    3  502    0 -0.61467765281E+03 -0.53522570789E+03 -0.93188002876E+03  0.12380208292E+04  0.10100000352E+00 0. -1.
       -3    1    3    3    0  502  0.61467765281E+03  0.53522570789E+03 -0.32946002763E+03  0.87911267495E+03  0.10100000352E+00 0.  1.
</event>
<event>
 5   0  0.1435301E-05  0.1700354E+04  0.7818609E-02  0.8761163E-01
        2   -1    0    0  501    0  0.00000000000E+00  0.00000000000E+00  0.12852697733E+04  0.12852697733E+04  0.25500000920E-02 0. -1.
       -2   -1    0    0    0  501  0.00000000000E+00  0.00000000000E+00 -0.56237283121E+03  0.56237283121E+03  0.25500000920E-02 0.  1.
    10030    2    1    2    0    0  0.00000000000E+00  0.00000000000E+00  0.72289694212E+03  0.18476426045E+04  0.17003538471E+04 0.  0.
        2    1    3    3  502    0  0.81584388642E+03 -0.22042651903E+02  0.10267332777E+03  0.82257457884E+03  0.25500000920E-02 0.  1.
       -2    1    3    3    0  502 -0.81584388642E+03  0.22042651903E+02  0.62022361435E+03  0.10250680257E+04  0.25500000920E-02 0. -1.
</event>
<event>
 5   0  0.1423543E-05  0.1701287E+04  0.7818609E-02  0.8760631E-01
       -2   -1    0    0    0  501  0.00000000000E+00  0.00000000000E+00  0.36076098124E+03  0.36076098125E+03  0.25500000920E-02 0. -1.
        2   -1    0    0  501    0  0.00000000000E+00  0.00000000000E+00 -0.20057433687E+04  0.20057433687E+04  0.25500000920E-02 0.  1.
    10030    2    1    2    0    0  0.00000000000E+00  0.00000000000E+00 -0.16449823875E+04  0.23665043500E+04  0.17012865083E+04 0.  0.
        3    1    3    3  502    0 -0.44405166380E+03 -0.64361570170E+03 -0.35661564163E+03  0.85941711506E+03  0.10100000352E+00 0. -1.
       -3    1    3    3    0  502  0.44405166380E+03  0.64361570170E+03 -0.12883667459E+04  0.15070872349E+04  0.10100000352E+00 0.  1.
</event>
<event>
 5   0  0.1441756E-05  0.1699277E+04  0.7818609E-02  0.8761777E-01
        2   -1    0    0  501    0  0.00000000000E+00  0.00000000000E+00  0.19388890891E+04  0.19388890891E+04  0.25500000920E-02 0. -1.
       -2   -1    0    0    0  501  0.00000000000E+00  0.00000000000E+00 -0.37231919500E+03  0.37231919501E+03  0.25500000920E-02 0.  1.
    10030    2    1    2    0    0  0.00000000000E+00  0.00000000000E+00  0.15665698941E+04  0.23112082842E+04  0.16992770520E+04 0.  0.
        5    1    3    3  502    0 -0.36944047502E+02 -0.77481022867E+03  0.12547710704E+04  0.14751841520E+04  0.46999998093E+01 0.  1.
       -5    1    3    3    0  502  0.36944047502E+02  0.77481022867E+03  0.31179882372E+03  0.83602413217E+03  0.46999998093E+01 0. -1.
</event>
<event>
 5   0  0.1419012E-05  0.1699903E+04  0.7818609E-02  0.8761420E-01
       -2   -1    0    0    0  501  0.00000000000E+00  0.00000000000E+00  0.11229441823E+04  0.11229441823E+04  0.25500000920E-02 0. -1.
        2   -1    0    0  501    0  0.00000000000E+00  0.00000000000E+00 -0.64332423520E+03  0.64332423520E+03  0.25500000920E-02 0.  1.
    10030    2    1    2    0    0  0.00000000000E+00  0.00000000000E+00  0.47961994711E+03  0.17662684175E+04  0.16999025940E+04 0.  0.
        4    1    3    3  502    0 -0.51796331074E+03  0.59357024813E+03 -0.91714054409E+02  0.79311078129E+03  0.12699999809E+01 0.  1.
       -4    1    3    3    0  502  0.51796331074E+03 -0.59357024813E+03  0.57133400152E+03  0.97315763621E+03  0.12699999809E+01 0. -1.
</event>
<event>
 5   0  0.1419012E-05  0.1699497E+04  0.7818609E-02  0.8761651E-01
       -2   -1    0    0    0  501  0.00000000000E+00  0.00000000000E+00  0.55974116010E+03  0.55974116011E+03  0.25500000920E-02 0. -1.
        2   -1    0    0  501    0  0.00000000000E+00  0.00000000000E+00 -0.12900110410E+04  0.12900110410E+04  0.25500000920E-02 0.  1.
    10030    2    1    2    0    0  0.00000000000E+00  0.00000000000E+00 -0.73026988085E+03  0.18497522011E+04  0.16994967215E+04 0.  0.
        4    1    3    3  502    0  0.19277881011E+03 -0.80171215581E+03 -0.58862966817E+03  0.10131103343E+04  0.12699999809E+01 0. -1.
       -4    1    3    3    0  502 -0.19277881011E+03  0.80171215581E+03 -0.14164021268E+03  0.83664186672E+03  0.12699999809E+01 0.  1.
</event>
<event>
 5   0  0.7082527E-06  0.1699750E+04  0.7818609E-02  0.8761507E-01
        1   -1    0    0  501    0  0.00000000000E+00  0.00000000000E+00  0.19244840374E+04  0.19244840374E+04  0.50400001928E-02 0.  1.
       -1   -1    0    0    0  501  0.00000000000E+00  0.00000000000E+00 -0.37531483072E+03  0.37531483075E+03  0.50400001928E-02 0. -1.
    10030    2    1    2    0    0  0.00000000000E+00  0.00000000000E+00  0.15491692067E+04  0.22997988682E+04  0.16997498649E+04 0.  0.
        1    1    3    3  502    0 -0.40451892394E+02  0.81509014997E+03  0.10955649071E+04  0.13661152125E+04  0.50400001928E-02 0.  1.
       -1    1    3    3    0  502  0.40451892394E+02 -0.81509014997E+03  0.45360429956E+03  0.93368365563E+03  0.50400001928E-02 0. -1.
</event>
<event>
 5   0  0.1435301E-05  0.1691959E+04  0.7818609E-02  0.8765964E-01
       -2   -1    0    0    0  501  0.00000000000E+00  0.00000000000E+00  0.78144813550E+03  0.78144813551E+03  0.25500000920E-02 0.  1.
        2   -1    0    0  501    0  0.00000000000E+00  0.00000000000E+00 -0.91583939797E+03  0.91583939797E+03  0.25500000920E-02 0. -1.
    10030    2    1    2    0    0  0.00000000000E+00  0.00000000000E+00 -0.13439126247E+03  0.16972875335E+04  0.16919586165E+04 0.  0.
        2    1    3    3  502    0  0.70251426933E+03 -0.47131598312E+03 -0.71200121378E+02  0.84896084235E+03  0.25500000920E-02 0.  1.
       -2    1    3    3    0  502 -0.70251426933E+03  0.47131598312E+03 -0.63191141090E+02  0.84832669113E+03  0.25500000920E-02 0. -1.
</event>
<event>
 5   0  0.7583716E-06  0.1697755E+04  0.7818609E-02  0.8762646E-01
       -1   -1    0    0    0  501  0.00000000000E+00  0.00000000000E+00  0.11339694819E+04  0.11339694820E+04  0.50400001928E-02 0. -1.
        1   -1    0    0  501    0  0.00000000000E+00  0.00000000000E+00 -0.63546098312E+03  0.63546098314E+03  0.50400001928E-02 0.  1.
    10030    2    1    2    0    0  0.00000000000E+00  0.00000000000E+00  0.49850849882E+03  0.17694304651E+04  0.16977554145E+04 0.  0.
        5    1    3    3  502    0 -0.65515795296E+03  0.20300068281E+03  0.77049854162E+03  0.10315674060E+04  0.46999998093E+01 0. -1.
       -5    1    3    3    0  502  0.65515795296E+03 -0.20300068281E+03 -0.27199004279E+03  0.73786305906E+03  0.46999998093E+01 0.  1.
</event>
<event>
 5   0  0.7455669E-06  0.1699950E+04  0.7818609E-02  0.8761393E-01
       -1   -1    0    0    0  501  0.00000000000E+00  0.00000000000E+00  0.58939229078E+03  0.58939229080E+03  0.50400001928E-02 0.  1.
        1   -1    0    0  501    0  0.00000000000E+00  0.00000000000E+00 -0.12257666478E+04  0.12257666478E+04  0.50400001928E-02 0. -1.
    10030    2    1    2    0    0  0.00000000000E+00  0.00000000000E+00 -0.63637435702E+03  0.18151589386E+04  0.16999498964E+04 0.  0.
        4    1    3    3  502    0 -0.52533552412E+03 -0.20750398523E+03  0.36001239094E+03  0.66981030995E+03  0.12699999809E+01 0.  1.
       -4    1    3    3    0  502  0.52533552412E+03  0.20750398523E+03 -0.99638674796E+03  0.11453486287E+04  0.12699999809E+01 0. -1.
</event>
<event>
 5   0  0.7583716E-06  0.1699586E+04  0.7818609E-02  0.8761601E-01
        1   -1    0    0  501    0  0.00000000000E+00  0.00000000000E+00  0.83001012760E+03  0.83001012761E+03  0.50400001928E-02 0.  1.
       -1   -1    0    0    0  501  0.00000000000E+00  0.00000000000E+00 -0.87004704832E+03  0.87004704834E+03  0.50400001928E-02 0. -1.
    10030    2    1    2    0    0  0.00000000000E+00  0.00000000000E+00 -0.40036920729E+02  0.17000571760E+04  0.16995856691E+04 0.  0.
        5    1    3    3  502    0  0.17831753540E+03 -0.76385706402E+03  0.30695295790E+03  0.84232830063E+03  0.46999998093E+01 0.  1.
       -5    1    3    3    0  502 -0.17831753540E+03  0.76385706402E+03 -0.34698987863E+03  0.85772887532E+03  0.46999998093E+01 0. -1.
</event>
<event>
 5   0  0.1374441E-05  0.1699859E+04  0.7818609E-02  0.8761445E-01
       -2   -1    0    0    0  501  0.00000000000E+00  0.00000000000E+00  0.89062715173E+03  0.89062715173E+03  0.25500000920E-02 0.  1.
        2   -1    0    0  501    0  0.00000000000E+00  0.00000000000E+00 -0.81109119228E+03  0.81109119228E+03  0.25500000920E-02 0. -1.
    10030    2    1    2    0    0  0.00000000000E+00  0.00000000000E+00  0.79535959452E+02  0.17017183440E+04  0.16998586275E+04 0.  0.
        1    1    3    3  502    0  0.50784250182E+03 -0.47318967885E+03 -0.45124528791E+03  0.82790989166E+03  0.50400001928E-02 0. -1.
       -1    1    3    3    0  502 -0.50784250182E+03  0.47318967885E+03  0.53078124736E+03  0.87380845235E+03  0.50400001928E-02 0.  1.
</event>
<event>
 5   0  0.1423543E-05  0.1699714E+04  0.7818609E-02  0.8761527E-01
        2   -1    0    0  501    0  0.00000000000E+00  0.00000000000E+00  0.77259232382E+03  0.77259232382E+03  0.25500000920E-02 0.  1.
       -2   -1    0    0    0  501  0.00000000000E+00  0.00000000000E+00 -0.93484915661E+03  0.93484915662E+03  0.25500000920E-02 0. -1.
    10030    2    1    2    0    0  0.00000000000E+00  0.00000000000E+00 -0.16225683279E+03  0.17074414804E+04  0.16997144258E+04 0.  0.
        3    1    3    3  502    0 -0.57736851460E+03 -0.54694259876E+03 -0.38208456414E+03  0.88232036832E+03  0.10100000352E+00 0. -1.
       -3    1    3    3    0  502  0.57736851460E+03  0.54694259876E+03  0.21982773135E+03  0.82512111212E+03  0.10100000352E+00 0.  1.
</event>
<event>
 5   0  0.1441756E-05  0.1700232E+04  0.7818609E-02  0.8761232E-01
       -2   -1    0    0    0  501  0.00000000000E+00  0.00000000000E+00  0.69254886219E+03  0.69254886219E+03  0.25500000920E-02 0.  1.
        2   -1    0    0  501    0  0.00000000000E+00  0.00000000000E+00 -0.10435324112E+04  0.10435324112E+04  0.25500000920E-02 0. -1.
    10030    2    1    2    0    0  0.00000000000E+00  0.00000000000E+00 -0.35098354902E+03  0.17360812734E+04  0.17002319654E+04 0.  0.
        5    1    3    3  502    0  0.67937487783E+03  0.47354703346E+02  0.34404122712E+03  0.76300665037E+03  0.46999998093E+01 0.  1.
       -5    1    3    3    0  502 -0.67937487783E+03 -0.47354703346E+02 -0.69502477614E+03  0.97307462304E+03  0.46999998093E+01 0. -1.
</event>
<event>
 5   0  0.7583716E-06  0.1699408E+04  0.7818609E-02  0.8761702E-01
        1   -1    0    0  501    0  0.00000000000E+00  0.00000000000E+00  0.12959079606E+04  0.12959079606E+04  0.50400001928E-02 0. -1.
       -1   -1    0    0    0  501  0.00000000000E+00  0.00000000000E+00 -0.55713620306E+03  0.55713620308E+03  0.50400001928E-02 0.  1.
    10030    2    1    2    0    0  0.00000000000E+00  0.00000000000E+00  0.73877175755E+03  0.18530441637E+04  0.16994084156E+04 0.  0.
        5    1    3    3  502    0 -0.63423414098E+03 -0.12012358986E+03  0.97187067679E+03  0.11667207570E+04  0.46999998093E+01 0.  1.
       -5    1    3    3    0  502  0.63423414098E+03  0.12012358986E+03 -0.23309891924E+03  0.68632340669E+03  0.46999998093E+01 0. -1.
</event>
<event>
 5   0  0.1423543E-05  0.1699055E+04  0.7818609E-02  0.8761904E-01
        2   -1    0    0  501    0  0.00000000000E+00  0.00000000000E+00  0.13574658346E+04  0.13574658346E+04  0.25500000920E-02 0. -1.
       -2   -1    0    0    0  501  0.00000000000E+00  0.00000000000E+00 -0.53164991663E+03  0.53164991664E+03  0.25500000920E-02 0.  1.
    10030    2    1    2    0    0  0.00000000000E+00  0.00000000000E+00  0.82581591799E+03  0.18891157513E+04  0.16990545581E+04 0.  0.
        3    1    3    3  502    0  0.64322283244E+03 -0.45143334563E+03  0.54051882778E+02  0.78768603767E+03  0.10100000352E+00 0.  1.
       -3    1    3    3    0  502 -0.64322283244E+03  0.45143334563E+03  0.77176403521E+03  0.11014297136E+04  0.10100000352E+00 0. -1.
</event>
<event>
 5   0  0.1419012E-05  0.1700886E+04  0.7818609E-02  0.8760859E-01
       -2   -1    0    0    0  501  0.00000000000E+00  0.00000000000E+00  0.51461207577E+03  0.51461207578E+03  0.25500000920E-02 0.  1.
        2   -1    0    0  501    0  0.00000000000E+00  0.00000000000E+00 -0.14054342459E+04  0.14054342459E+04  0.25500000920E-02 0. -1.
    10030    2    1    2    0    0  0.00000000000E+00  0.00000000000E+00 -0.89082217011E+03  0.19200463217E+04  0.17008861627E+04 0.  0.
        4    1    3    3  502    0  0.55949249126E+03 -0.14451444700E+03  0.25895508293E+03  0.63322635846E+03  0.12699999809E+01 0.  1.
       -4    1    3    3    0  502 -0.55949249126E+03  0.14451444700E+03 -0.11497772530E+04  0.12868199632E+04  0.12699999809E+01 0. -1.
</event>
<event>
 5   0  0.1441756E-05  0.1700028E+04  0.7818609E-02  0.8761348E-01
        2   -1    0    0  501    0  0.00000000000E+00  0.00000000000E+00  0.19669191900E+04  0.19669191900E+04  0.25500000920E-02 0. -1.
       -2   -1    0    0    0  501  0.00000000000E+00  0.00000000000E+00 -0.36733798862E+03  0.36733798863E+03  0.25500000920E-02 0.  1.
    10030    2    1    2    0    0  0.00000000000E+00  0.00000000000E+00  0.15995812013E+04  0.23342571786E+04  0.17000283986E+04 0.  0.
        5    1    3    3  502    0 -0.68832677339E+03 -0.44220759520E+03  0.11163739397E+04  0.13840715904E+04  0.46999998093E+01 0. -1.
       -5    1    3    3    0  502  0.68832677339E+03  0.44220759520E+03  0.48320726164E+03  0.95018558815E+03  0.46999998093E+01 0.  1.
</event>
<event>
 5   0  0.7583716E-06  0.1699134E+04  0.7818609E-02  0.8761858E-01
       -1   -1    0    0    0  501  0.00000000000E+00  0.00000000000E+00  0.28637308786E+04  0.28637308786E+04  0.50400001928E-02 0.  1.
        1   -1    0    0  501    0  0.00000000000E+00  0.00000000000E+00 -0.25203629521E+03  0.25203629526E+03  0.50400001928E-02 0. -1.
    10030    2    1    2    0    0  0.00000000000E+00  0.00000000000E+00  0.26116945834E+04  0.31157671738E+04  0.16991340397E+04 0.  0.
        5    1    3    3  502    0  0.17258621438E+03 -0.29057144019E+02  0.28302913206E+04  0.28357012128E+04  0.46999998093E+01 0.  1.
       -5    1    3    3    0  502 -0.17258621438E+03  0.29057144019E+02 -0.21859673721E+03  0.28006596103E+03  0.46999998093E+01 0. -1.
</event>
<event>
 5   0  0.1423543E-05  0.1699974E+04  0.7818609E-02  0.8761379E-01
       -2   -1    0    0    0  501  0.00000000000E+00  0.00000000000E+00  0.74474221875E+03  0.74474221876E+03  0.25500000920E-02 0.  1.
        2   -1    0    0  501    0  0.00000000000E+00  0.00000000000E+00 -0.97010441269E+03  0.97010441269E+03  0.25500000920E-02 0. -1.
    10030    2    1    2    0    0  0.00000000000E+00  0.00000000000E+00 -0.22536219393E+03  0.17148466314E+04  0.16999737795E+04 0.  0.
        3    1    3    3  502    0  0.38173976142E+03 -0.59694509999E+03 -0.58626586812E+03  0.91966101155E+03  0.10100000352E+00 0. -1.
       -3    1    3    3    0  502 -0.38173976142E+03  0.59694509999E+03  0.36090367418E+03  0.79518561990E+03  0.10100000352E+00 0.  1.
</event>
<event>
 5   0  0.1374441E-05  0.1701840E+04  0.7818609E-02  0.8760315E-01
        2   -1    0    0  501    0  0.00000000000E+00  0.00000000000E+00  0.10826371985E+04  0.10826371985E+04  0.25500000920E-02 0. -1.
       -2   -1    0    0    0  501  0.00000000000E+00  0.00000000000E+00 -0.66879752632E+03  0.66879752632E+03  0.25500000920E-02 0.  1.
    10030    2    1    2    0    0  0.00000000000E+00  0.00000000000E+00  0.41383967215E+03  0.17514347248E+04  0.17018402748E+04 0.  0.
        1    1    3    3  502    0  0.18649084453E+03  0.69137201674E+03 -0.26613952084E+03  0.76394001414E+03  0.50400001928E-02 0.  1.
       -1    1    3    3    0  502 -0.18649084453E+03 -0.69137201674E+03  0.67997919299E+03  0.98749471065E+03  0.50400001928E-02 0. -1.
</event>
<event>
 5   0  0.1419012E-05  0.1700524E+04  0.7818609E-02  0.8761065E-01
       -2   -1    0    0    0  501  0.00000000000E+00  0.00000000000E+00  0.97163884916E+03  0.97163884916E+03  0.25500000920E-02 0.  1.
        2   -1    0    0  501    0  0.00000000000E+00  0.00000000000E+00 -0.74404786072E+03  0.74404786073E+03  0.25500000920E-02 0. -1.
    10030    2    1    2    0    0  0.00000000000E+00  0.00000000000E+00  0.22759098843E+03  0.17156867099E+04  0.17005243981E+04 0.  0.
        4    1    3    3  502    0 -0.25911073373E+03  0.60601363174E+03 -0.42816563946E+03  0.78595058490E+03  0.12699999809E+01 0. -1.
       -4    1    3    3    0  502  0.25911073373E+03 -0.60601363174E+03  0.65575662790E+03  0.92973612499E+03  0.12699999809E+01 0.  1.
</event>
<event>
 5   0  0.1374441E-05  0.1700412E+04  0.7818609E-02  0.8761130E-01
       -2   -1    0    0    0  501  0.00000000000E+00  0.00000000000E+00  0.29653684883E+03  0.29653684884E+03  0.25500000920E-02 0.  1.
        2   -1    0    0  501    0  0.00000000000E+00  0.00000000000E+00 -0.24376393842E+04  0.24376393842E+04  0.25500000920E-02 0. -1.
    10030    2    1    2    0    0  0.00000000000E+00  0.00000000000E+00 -0.21411025353E+04  0.27341762330E+04  0.17004115991E+04 0.  0.
        1    1    3    3  502    0  0.15097629159E+03 -0.67730002262E+03 -0.28065553147E+03  0.74852968454E+03  0.50400001928E-02 0.  1.
       -1    1    3    3    0  502 -0.15097629159E+03  0.67730002262E+03 -0.18604470039E+04  0.19856465485E+04  0.50400001928E-02 0. -1.
</event>
<event>
 5   0  0.1423543E-05  0.1699999E+04  0.7818609E-02  0.8761365E-01
        2   -1    0    0  501    0  0.00000000000E+00  0.00000000000E+00  0.17409208107E+04  0.17409208107E+04  0.25500000920E-02 0. -1.
       -2   -1    0    0    0  501  0.00000000000E+00  0.00000000000E+00 -0.41500985160E+03  0.41500985160E+03  0.25500000920E-02 0.  1.
    10030    2    1    2    0    0  0.00000000000E+00  0.00000000000E+00  0.13259109591E+04  0.21559306623E+04  0.16999991616E+04 0.  0.
        3    1    3    3  502    0 -0.59402458296E+02 -0.40768211100E+03 -0.27992514691E+03  0.49808779724E+03  0.10100000352E+00 0.  1.
       -3    1    3    3    0  502  0.59402458296E+02  0.40768211100E+03  0.16058361061E+04  0.16578428651E+04  0.10100000352E+00 0. -1.
</event>
<event>
 5   0  0.1435301E-05  0.1704092E+04  0.7818609E-02  0.8759034E-01
        2   -1    0    0  501    0  0.00000000000E+00  0.00000000000E+00  0.15205560983E+04  0.15205560983E+04  0.25500000920E-02 0. -1.
       -2   -1    0    0    0  501  0.00000000000E+00  0.00000000000E+00 -0.47744529458E+03  0.47744529459E+03  0.25500000920E-02 0.  1.
    10030    2    1    2    0    0  0.00000000000E+00  0.00000000000E+00  0.10431108038E+04  0.19980013929E+04  0.17040919627E+04 0.  0.
        2    1    3    3  502    0  0.76202810843E+03 -0.46151068179E+02  0.77924193532E+02  0.76739099491E+03  0.25500000920E-02 0. -1.
       -2    1    3    3    0  502 -0.76202810843E+03  0.46151068179E+02  0.96518661023E+03  0.12306103980E+04  0.25500000920E-02 0.  1.
</event>
<event>
 5   0  0.1374441E-05  0.1698696E+04  0.7818609E-02  0.8762109E-01
       -2   -1    0    0    0  501  0.00000000000E+00  0.00000000000E+00  0.54493279355E+03  0.54493279355E+03  0.25500000920E-02 0.  1.
        2   -1    0    0  501    0  0.00000000000E+00  0.00000000000E+00 -0.13238176983E+04  0.13238176983E+04  0.25500000920E-02 0. -1.
    10030    2    1    2    0    0  0.00000000000E+00  0.00000000000E+00 -0.77888490478E+03  0.18687504919E+04  0.16986955896E+04 0.  0.
        1    1    3    3  502    0  0.79170180464E+03  0.20385734932E+03 -0.13607772293E+03  0.82877422321E+03  0.50400001928E-02 0. -1.
       -1    1    3    3    0  502 -0.79170180464E+03 -0.20385734932E+03 -0.64280718185E+03  0.10399762687E+04  0.50400001928E-02 0.  1.
</event>
<event>
 5   0  0.1435301E-05  0.1702968E+04  0.7818609E-02  0.8759673E-01
        2   -1    0    0  501    0  0.00000000000E+00  0.00000000000E+00  0.64012276860E+03  0.64012276860E+03  0.25500000920E-02 0.  1.
       -2   -1    0    0    0  501  0.00000000000E+00  0.00000000000E+00 -0.11326346457E+04  0.11326346457E+04  0.25500000920E-02 0. -1.
    10030    2    1    2    0    0  0.00000000000E+00  0.00000000000E+00 -0.49251187715E+03  0.17727574144E+04  0.17029682619E+04 0.  0.
        2    1    3    3  502    0  0.25165258283E+03 -0.81287772400E+03 -0.21457848442E+03  0.87757799802E+03  0.25500000920E-02 0. -1.
       -2    1    3    3    0  502 -0.25165258283E+03  0.81287772400E+03 -0.27793339273E+03  0.89517941633E+03  0.25500000920E-02 0.  1.
</event>
<event>
 5   0  0.7082527E-06  0.1700293E+04  0.7818609E-02  0.8761197E-01
       -1   -1    0    0    0  501  0.00000000000E+00  0.00000000000E+00  0.78635433166E+03  0.78635433167E+03  0.50400001928E-02 0.  1.
        1   -1    0    0  501    0  0.00000000000E+00  0.00000000000E+00 -0.91911353157E+03  0.91911353159E+03  0.50400001928E-02 0. -1.
    10030    2    1    2    0    0  0.00000000000E+00  0.00000000000E+00 -0.13275919992E+03  0.17054678633E+04  0.17002928064E+04 0.  0.
        1    1    3    3  502    0  0.46580185278E+03  0.61824986952E+03  0.28617937620E+03  0.82528958712E+03  0.50400001928E-02 0.  1.
       -1    1    3    3    0  502 -0.46580185278E+03 -0.61824986952E+03 -0.41893857612E+03  0.88017827615E+03  0.50400001928E-02 0. -1.
</event>
<event>
 5   0  0.7476457E-06  0.1699846E+04  0.7818609E-02  0.8761452E-01
       -1   -1    0    0    0  501  0.00000000000E+00  0.00000000000E+00  0.11404624304E+04  0.11404624304E+04  0.50400001928E-02 0.  1.
        1   -1    0    0  501    0  0.00000000000E+00  0.00000000000E+00 -0.63339998554E+03  0.63339998556E+03  0.50400001928E-02 0. -1.
    10030    2    1    2    0    0  0.00000000000E+00  0.00000000000E+00  0.50706244485E+03  0.17738624160E+04  0.16998457423E+04 0.  0.
        2    1    3    3  502    0 -0.22322794677E+02  0.22133206178E+02 -0.63279312599E+03  0.63357345768E+03  0.25500000920E-02 0. -1.
       -2    1    3    3    0  502  0.22322794677E+02 -0.22133206178E+02  0.11398555708E+04  0.11402889583E+04  0.25500000920E-02 0.  1.
</event>
<event>
 5   0  0.7455669E-06  0.1707421E+04  0.7818609E-02  0.8757143E-01
       -1   -1    0    0    0  501  0.00000000000E+00  0.00000000000E+00  0.89274103366E+03  0.89274103368E+03  0.50400001928E-02 0.  1.
        1   -1    0    0  501    0  0.00000000000E+00  0.00000000000E+00 -0.81638659028E+03  0.81638659030E+03  0.50400001928E-02 0. -1.
    10030    2    1    2    0    0  0.00000000000E+00  0.00000000000E+00  0.76354443382E+02  0.17091276240E+04  0.17074212234E+04 0.  0.
        4    1    3    3  502    0 -0.54666492173E+03  0.62199302525E+03 -0.16964128492E+03  0.84527962152E+03  0.12699999809E+01 0. -1.
       -4    1    3    3    0  502  0.54666492173E+03 -0.62199302525E+03  0.24599572830E+03  0.86384800246E+03  0.12699999809E+01 0.  1.
</event>
<event>
 5   0  0.7583716E-06  0.1700182E+04  0.7818609E-02  0.8761261E-01
        1   -1    0    0  501    0  0.00000000000E+00  0.00000000000E+00  0.10076459030E+04  0.10076459030E+04  0.50400001928E-02 0.  1.
       -1   -1    0    0    0  501  0.00000000000E+00  0.00000000000E+00 -0.71717098706E+03  0.71717098708E+03  0.50400001928E-02 0. -1.
    10030    2    1    2    0    0  0.00000000000E+00  0.00000000000E+00  0.29047491594E+03  0.17248168901E+04  0.17001816455E+04 0.  0.
        5    1    3    3  502    0 -0.58768960601E+03 -0.30070544191E+03  0.68856230517E+03  0.95390931115E+03  0.46999998093E+01 0.  1.
       -5    1    3    3    0  502  0.58768960601E+03  0.30070544191E+03 -0.39808738924E+03  0.77090757894E+03  0.46999998093E+01 0. -1.
</event>
<event>
 5   0  0.1423543E-05  0.1695254E+04  0.7818609E-02  0.8764076E-01
       -2   -1    0    0    0  501  0.00000000000E+00  0.00000000000E+00  0.13394861524E+04  0.13394861524E+04  0.25500000920E-02 0.  1.
        2   -1    0    0  501    0  0.00000000000E+00  0.00000000000E+00 -0.53637861764E+03  0.53637861764E+03  0.25500000920E-02 0. -1.
    10030    2    1    2    0    0  0.00000000000E+00  0.00000000000E+00  0.80310753477E+03  0.18758647701E+04  0.16952542355E+04 0.  0.
        3    1    3    3  502    0 -0.81870731242E+03 -0.15600824714E+02  0.15925794817E+03  0.83419910896E+03  0.10100000352E+00 0. -1.
       -3    1    3    3    0  502  0.81870731242E+03  0.15600824714E+02  0.64384958660E+03  0.10416656611E+04  0.10100000352E+00 0.  1.
</event>
<event>
 5   0  0.1423543E-05  0.1700556E+04  0.7818609E-02  0.8761047E-01
       -2   -1    0    0    0  501  0.00000000000E+00  0.00000000000E+00  0.24223643155E+03  0.24223643156E+03  0.25500000920E-02 0.  1.
        2   -1    0    0  501    0  0.00000000000E+00  0.00000000000E+00 -0.29845740024E+04  0.29845740024E+04  0.25500000920E-02 0. -1.
    10030    2    1    2    0    0  0.00000000000E+00  0.00000000000E+00 -0.27423375709E+04  0.32268104340E+04  0.17005558574E+04 0.  0.
        3    1    3    3  502    0  0.25041600716E+03  0.12064304614E+03 -0.28959276991E+04  0.29092370426E+04  0.10100000352E+00 0. -1.
       -3    1    3    3    0  502 -0.25041600716E+03 -0.12064304614E+03  0.15359012825E+03  0.31757339139E+03  0.10100000352E+00 0.  1.
</event>
<event>
 5   0  0.7461128E-06  0.1699829E+04  0.7818609E-02  0.8761462E-01
        1   -1    0    0  501    0  0.00000000000E+00  0.00000000000E+00  0.32447183634E+03  0.32447183638E+03  0.50400001928E-02 0.  1.
       -1   -1    0    0    0  501  0.00000000000E+00  0.00000000000E+00 -0.22262488462E+04  0.22262488462E+04  0.50400001928E-02 0. -1.
    10030    2    1    2    0    0  0.00000000000E+00  0.00000000000E+00 -0.19017770099E+04  0.25507206826E+04  0.16998294636E+04 0.  0.
        3    1    3    3  502    0  0.72187217317E+03  0.41343967088E+03 -0.68958490650E+03  0.10805365099E+04  0.10100000352E+00 0.  1.
       -3    1    3    3    0  502 -0.72187217317E+03 -0.41343967088E+03 -0.12121921034E+04  0.14701841727E+04  0.10100000352E+00 0. -1.
</event>
<event>
 5   0  0.7455669E-06  0.1698028E+04  0.7818609E-02  0.8762490E-01
       -1   -1    0    0    0  501  0.00000000000E+00  0.00000000000E+00  0.47373008403E+03  0.47373008406E+03  0.50400001928E-02 0.  1.
        1   -1    0    0  501    0  0.00000000000E+00  0.00000000000E+00 -0.15215945383E+04  0.15215945383E+04  0.50400001928E-02 0. -1.
    10030    2    1    2    0    0  0.00000000000E+00  0.00000000000E+00 -0.10478644543E+04  0.19953246224E+04  0.16980283961E+04 0.  0.
        4    1    3    3  502    0 -0.42436705759E+03  0.60824460489E+03 -0.10095339817E+04  0.12526808740E+04  0.12699999809E+01 0. -1.
       -4    1    3    3    0  502  0.42436705759E+03 -0.60824460489E+03 -0.38330472540E+02  0.74264374836E+03  0.12699999809E+01 0.  1.
</event>
<event>
 5   0  0.7583716E-06  0.1700860E+04  0.7818609E-02  0.8760874E-01
       -1   -1    0    0    0  501  0.00000000000E+00  0.00000000000E+00  0.39039721451E+03  0.39039721454E+03  0.50400001928E-02 0. -1.
        1   -1    0    0  501    0  0.00000000000E+00  0.00000000000E+00 -0.18525512325E+04  0.18525512325E+04  0.50400001928E-02 0.  1.
    10030    2    1    2    0    0  0.00000000000E+00  0.00000000000E+00 -0.14621540180E+04  0.22429484470E+04  0.17008595955E+04 0.  0.
        5    1    3    3  502    0  0.17323364864E+03 -0.75065855861E+03 -0.25613724543E+03  0.81186608941E+03  0.46999998093E+01 0.  1.
       -5    1    3    3    0  502 -0.17323364864E+03  0.75065855861E+03 -0.12060167725E+04  0.14310823576E+04  0.46999998093E+01 0. -1.
</event>
<event>
 5   0  0.1419012E-05  0.1699183E+04  0.7818609E-02  0.8761830E-01
       -2   -1    0    0    0  501  0.00000000000E+00  0.00000000000E+00  0.11235976538E+04  0.11235976538E+04  0.25500000920E-02 0.  1.
        2   -1    0    0  501    0  0.00000000000E+00  0.00000000000E+00 -0.64240595886E+03  0.64240595886E+03  0.25500000920E-02 0. -1.
    10030    2    1    2    0    0  0.00000000000E+00  0.00000000000E+00  0.48119169489E+03  0.17660036126E+04  0.16991831310E+04 0.  0.
        4    1    3    3  502    0 -0.10568114801E+03 -0.12430980098E+03  0.11071603679E+04  0.11191189056E+04  0.12699999809E+01 0.  1.
       -4    1    3    3    0  502  0.10568114801E+03  0.12430980098E+03 -0.62596867303E+03  0.64688470702E+03  0.12699999809E+01 0. -1.
</event>
<event>
 5   0  0.1419012E-05  0.1700082E+04  0.7818609E-02  0.8761317E-01
        2   -1    0    0  501    0  0.00000000000E+00  0.00000000000E+00  0.69513117545E+03  0.69513117545E+03  0.25500000920E-02 0. -1.
       -2   -1    0    0    0  501  0.00000000000E+00  0.00000000000E+00 -0.10394729458E+04  0.10394729458E+04  0.25500000920E-02 0.  1.
    10030    2    1    2    0    0  0.00000000000E+00  0.00000000000E+00 -0.34434177034E+03  0.17346041212E+04  0.17000824105E+04 0.  0.
        4    1    3    3  502    0  0.58941795873E+03 -0.58927592336E+03 -0.17193435578E+01  0.83346518402E+03  0.12699999809E+01 0. -1.
       -4    1    3    3    0  502 -0.58941795873E+03  0.58927592336E+03 -0.34262242678E+03  0.90113893722E+03  0.12699999809E+01 0.  1.
</event>
<event>
 5   0  0.1423543E-05  0.1700164E+04  0.7818609E-02  0.8761271E-01
        2   -1    0    0  501    0  0.00000000000E+00  0.00000000000E+00  0.12079024688E+04  0.12079024688E+04  0.25500000920E-02 0. -1.
       -2   -1    0    0    0  501  0.00000000000E+00  0.00000000000E+00 -0.59825999916E+03  0.59825999917E+03  0.25500000920E-02 0.  1.
    10030    2    1    2    0    0  0.00000000000E+00  0.00000000000E+00  0.60964246965E+03  0.18061624680E+04  0.17001643803E+04 0.  0.
        3    1    3    3  502    0 -0.13397003726E+03 -0.60106036881E+01 -0.58695185052E+03  0.60207689150E+03  0.10100000352E+00 0.  1.
       -3    1    3    3    0  502  0.13397003726E+03  0.60106036881E+01  0.11965943202E+04  0.12040855765E+04  0.10100000352E+00 0. -1.
</event>
<event>
 5   0  0.7082527E-06  0.1699874E+04  0.7818609E-02  0.8761436E-01
       -1   -1    0    0    0  501  0.00000000000E+00  0.00000000000E+00  0.41514385518E+03  0.41514385521E+03  0.50400001928E-02 0. -1.
        1   -1    0    0  501    0  0.00000000000E+00  0.00000000000E+00 -0.17401022837E+04  0.17401022837E+04  0.50400001928E-02 0.  1.
    10030    2    1    2    0    0  0.00000000000E+00  0.00000000000E+00 -0.13249584285E+04  0.21552461389E+04  0.16998738430E+04 0.  0.
        1    1    3    3  502    0 -0.44005771728E+03  0.53856258662E+03 -0.12819194392E+04  0.14584299445E+04  0.50400001928E-02 0.  1.
       -1    1    3    3    0  502  0.44005771728E+03 -0.53856258662E+03 -0.43038989313E+02  0.69681619447E+03  0.50400001928E-02 0. -1.
</event>
<event>
 5   0  0.1419012E-05  0.1700973E+04  0.7818609E-02  0.8760809E-01
        2   -1    0    0  501    0  0.00000000000E+00  0.00000000000E+00  0.24135679220E+04  0.24135679220E+04  0.25500000920E-02 0. -1.
       -2   -1    0    0    0  501  0.00000000000E+00  0.00000000000E+00 -0.29969226288E+03  0.29969226289E+03  0.25500000920E-02 0.  1.
    10030    2    1    2    0    0  0.00000000000E+00  0.00000000000E+00  0.21138756592E+04  0.27132601849E+04  0.17009734062E+04 0.  0.
        4    1    3    3  502    0 -0.71717443767E+02  0.57636051982E+03  0.65917398656E+02  0.58453533417E+03  0.12699999809E+01 0.  1.
       -4    1    3    3    0  502  0.71717443767E+02 -0.57636051982E+03  0.20479582605E+04  0.21287248508E+04  0.12699999809E+01 0. -1.
</event>
<event>
 5   0  0.7455669E-06  0.1700852E+04  0.7818609E-02  0.8760879E-01
        1   -1    0    0  501    0  0.00000000000E+00  0.00000000000E+00  0.12409242084E+04  0.12409242084E+04  0.50400001928E-02 0. -1.
       -1   -1    0    0    0  501  0.00000000000E+00  0.00000000000E+00 -0.58281097343E+03  0.58281097345E+03  0.50400001928E-02 0.  1.
    10030    2    1    2    0    0  0.00000000000E+00  0.00000000000E+00  0.65811323493E+03  0.18237351818E+04  0.17008518405E+04 0.  0.
        4    1    3    3  502    0 -0.26876426143E+03 -0.15870094403E+02  0.11940203347E+04  0.12239984725E+04  0.12699999809E+01 0. -1.
       -4    1    3    3    0  502  0.26876426143E+03  0.15870094403E+02 -0.53590709972E+03  0.59973670936E+03  0.12699999809E+01 0.  1.
</event>
<event>
 5   0  0.1374441E-05  0.1699527E+04  0.7818609E-02  0.8761634E-01
        2   -1    0    0  501    0  0.00000000000E+00  0.00000000000E+00  0.13236489531E+04  0.13236489531E+04  0.25500000920E-02 0.  1.
       -2   -1    0    0    0  501  0.00000000000E+00  0.00000000000E+00 -0.54553578304E+03  0.54553578305E+03  0.25500000920E-02 0. -1.
    10030    2    1    2    0    0  0.00000000000E+00  0.00000000000E+00  0.77811317005E+03  0.18691847361E+04  0.16995268378E+04 0.  0.
        1    1    3    3  502    0  0.12746437171E+03  0.75074866563E+03  0.80383432610E+03  0.11072580317E+04  0.50400001928E-02 0. -1.
       -1    1    3    3    0  502 -0.12746437171E+03 -0.75074866563E+03 -0.25721156051E+02  0.76192670441E+03  0.50400001928E-02 0.  1.
</event>
<event>
 5   0  0.1441756E-05  0.1699346E+04  0.7818609E-02  0.8761737E-01
       -2   -1    0    0    0  501  0.00000000000E+00  0.00000000000E+00  0.98527904335E+03  0.98527904335E+03  0.25500000920E-02 0.  1.
        2   -1    0    0  501    0  0.00000000000E+00  0.00000000000E+00 -0.73273100422E+03  0.73273100422E+03  0.25500000920E-02 0. -1.
    10030    2    1    2    0    0  0.00000000000E+00  0.00000000000E+00  0.25254803913E+03  0.17180100476E+04  0.16993463483E+04 0.  0.
        5    1    3    3  502    0  0.14536739302E+03 -0.15897424829E+03  0.95719980207E+03  0.98115138570E+03  0.46999998093E+01 0.  1.
       -5    1    3    3    0  502 -0.14536739302E+03  0.15897424829E+03 -0.70465176294E+03  0.73685866188E+03  0.46999998093E+01 0. -1.
</event>
<event>
 5   0  0.7082527E-06  0.1701142E+04  0.7818609E-02  0.8760713E-01
        1   -1    0    0  501    0  0.00000000000E+00  0.00000000000E+00  0.49947181471E+03  0.49947181474E+03  0.50400001928E-02 0. -1.
       -1   -1    0    0    0  501  0.00000000000E+00  0.00000000000E+00 -0.14484720333E+04  0.14484720333E+04  0.50400001928E-02 0.  1.
    10030    2    1    2    0    0  0.00000000000E+00  0.00000000000E+00 -0.94900021857E+03  0.19479438480E+04  0.17011419165E+04 0.  0.
        1    1    3    3  502    0 -0.75405426294E+02  0.35205969109E+03  0.40790949797E+03  0.54407918814E+03  0.50400001928E-02 0. -1.
       -1    1    3    3    0  502  0.75405426294E+02 -0.35205969109E+03 -0.13569097165E+04  0.14038646599E+04  0.50400001928E-02 0.  1.
</event>
<event>
 5   0  0.7082527E-06  0.1700990E+04  0.7818609E-02  0.8760800E-01
        1   -1    0    0  501    0  0.00000000000E+00  0.00000000000E+00  0.72746108642E+03  0.72746108644E+03  0.50400001928E-02 0.  1.
       -1   -1    0    0    0  501  0.00000000000E+00  0.00000000000E+00 -0.99433712054E+03  0.99433712056E+03  0.50400001928E-02 0. -1.
    10030    2    1    2    0    0  0.00000000000E+00  0.00000000000E+00 -0.26687603412E+03  0.17217982070E+04  0.17009897848E+04 0.  0.
        1    1    3    3  502    0  0.35632334274E+03  0.33198712355E+03 -0.83921917894E+03  0.97029408177E+03  0.50400001928E-02 0. -1.
       -1    1    3    3    0  502 -0.35632334274E+03 -0.33198712355E+03  0.57234314482E+03  0.75150412523E+03  0.50400001928E-02 0.  1.
</event>
<event>
 5   0  0.7455669E-06  0.1702071E+04  0.7818609E-02  0.8760184E-01
       -1   -1    0    0    0  501  0.00000000000E+00  0.00000000000E+00  0.46558126340E+03  0.46558126342E+03  0.50400001928E-02 0. -1.
        1   -1    0    0  501    0  0.00000000000E+00  0.00000000000E+00 -0.15556074312E+04  0.15556074312E+04  0.50400001928E-02 0.  1.
    10030    2    1    2    0    0  0.00000000000E+00  0.00000000000E+00 -0.10900261678E+04  0.20211886947E+04  0.17020712949E+04 0.  0.
        4    1    3    3  502    0  0.59998199662E+03 -0.18674887915E+03  0.13653297142E+03  0.64303686155E+03  0.12699999809E+01 0. -1.
       -4    1    3    3    0  502 -0.59998199662E+03  0.18674887915E+03 -0.12265591393E+04  0.13781518331E+04  0.12699999809E+01 0.  1.
</event>
<event>
 5   0  0.1419012E-05  0.1700243E+04  0.7818609E-02  0.8761226E-01
       -2   -1    0    0    0  501  0.00000000000E+00  0.00000000000E+00  0.73350324550E+03  0.73350324550E+03  0.25500000920E-02 0. -1.
        2   -1    0    0  501    0  0.00000000000E+00  0.00000000000E+00 -0.98528070403E+03  0.98528070403E+03  0.25500000920E-02 0.  1.
    10030    2    1    2    0    0  0.00000000000E+00  0.00000000000E+00 -0.25177745853E+03  0.17187839495E+04  0.17002430346E+04 0.  0.
        4    1    3    3  502    0 -0.58033369116E+03 -0.61583234999E+03 -0.20843890615E+03  0.87148440427E+03  0.12699999809E+01 0.  1.
       -4    1    3    3    0  502  0.58033369116E+03  0.61583234999E+03 -0.43338552377E+02  0.84729954527E+03  0.12699999809E+01 0. -1.
</event>
<event>
 5   0  0.7082527E-06  0.1700875E+04  0.7818609E-02  0.8760865E-01
        1   -1    0    0  501    0  0.00000000000E+00  0.00000000000E+00  0.20355502713E+04  0.20355502713E+04  0.50400001928E-02 0.  1.
       -1   -1    0    0    0  501  0.00000000000E+00  0.00000000000E+00 -0.35530637131E+03  0.35530637135E+03  0.50400001928E-02 0. -1.
    10030    2    1    2    0    0  0.00000000000E+00  0.00000000000E+00  0.16802439000E+04  0.23908566427E+04  0.17008750460E+04 0.  0.
        1    1    3    3  502    0  0.62911458396E+03  0.54520619394E+03  0.10844365915E+04  0.13671275269E+04  0.50400001928E-02 0.  1.
       -1    1    3    3    0  502 -0.62911458396E+03 -0.54520619394E+03  0.59580730848E+03  0.10237291158E+04  0.50400001928E-02 0. -1.
</event>
<event>
 5   0  0.1374441E-05  0.1686599E+04  0.7818609E-02  0.8769044E-01
        2   -1    0    0  501    0  0.00000000000E+00  0.00000000000E+00  0.99026365734E+03  0.99026365734E+03  0.25500000920E-02 0.  1.
       -2   -1    0    0    0  501  0.00000000000E+00  0.00000000000E+00 -0.71814644169E+03  0.71814644169E+03  0.25500000920E-02 0. -1.
    10030    2    1    2    0    0  0.00000000000E+00  0.00000000000E+00  0.27211721565E+03  0.17084100990E+04  0.16865993263E+04 0.  0.
        1    1    3    3  502    0 -0.65494336668E+03 -0.25285985165E+03 -0.33717181767E+03  0.77882844888E+03  0.50400001928E-02 0. -1.
       -1    1    3    3    0  502  0.65494336668E+03  0.25285985165E+03  0.60928903333E+03  0.92958165015E+03  0.50400001928E-02 0.  1.
</event>
<event>
 5   0  0.5229750E-06  0.1700354E+04  0.7818609E-02  0.8761162E-01
        3   -1    0    0  501    0  0.00000000000E+00  0.00000000000E+00  0.10188643485E+04  0.10188643535E+04  0.10100000352E+00 0. -1.
       -3   -1    0    0    0  501  0.00000000000E+00  0.00000000000E+00 -0.70941855858E+03  0.70941856577E+03  0.10100000352E+00 0.  1.
    10030    2    1    2    0    0  0.00000000000E+00  0.00000000000E+00  0.30944578993E+03  0.17282829193E+04  0.17003544196E+04 0.  0.
        3    1    3    3  502    0 -0.81938741129E+03 -0.78020550537E+02  0.37110053929E+03  0.90288346787E+03  0.10100000352E+00 0. -1.
       -3    1    3    3    0  502  0.81938741129E+03  0.78020550537E+02 -0.61654749364E+02  0.82539945142E+03  0.10100000352E+00 0.  1.
</event>
<event>
 5   0  0.7583716E-06  0.1699993E+04  0.7818609E-02  0.8761368E-01
       -1   -1    0    0    0  501  0.00000000000E+00  0.00000000000E+00  0.93733832420E+03  0.93733832421E+03  0.50400001928E-02 0. -1.
        1   -1    0    0  501    0  0.00000000000E+00  0.00000000000E+00 -0.77079314596E+03  0.77079314598E+03  0.50400001928E-02 0.  1.
    10030    2    1    2    0    0  0.00000000000E+00  0.00000000000E+00  0.16654517823E+03  0.17081314702E+04  0.16999928891E+04 0.  0.
        5    1    3    3  502    0 -0.65528966076E+02  0.44577210575E+03  0.80746230967E+03  0.92467523336E+03  0.46999998093E+01 0. -1.
       -5    1    3    3    0  502  0.65528966076E+02 -0.44577210575E+03 -0.64091713143E+03  0.78345623683E+03  0.46999998093E+01 0.  1.
</event>
<event>
 5   0  0.1423543E-05  0.1699950E+04  0.7818609E-02  0.8761393E-01
       -2   -1    0    0    0  501  0.00000000000E+00  0.00000000000E+00  0.37315975138E+03  0.37315975139E+03  0.25500000920E-02 0.  1.
        2   -1    0    0  501    0  0.00000000000E+00  0.00000000000E+00 -0.19360539693E+04  0.19360539693E+04  0.25500000920E-02 0. -1.
    10030    2    1    2    0    0  0.00000000000E+00  0.00000000000E+00 -0.15628942179E+04  0.23092137206E+04  0.16999499026E+04 0.  0.
        3    1    3    3  502    0  0.41090048068E+03 -0.67131281117E+03 -0.34557748430E+03  0.85960683066E+03  0.10100000352E+00 0.  1.
       -3    1    3    3    0  502 -0.41090048068E+03  0.67131281117E+03 -0.12173167336E+04  0.14496068900E+04  0.10100000352E+00 0. -1.
</event>
<event>
 5   0  0.7082527E-06  0.1701857E+04  0.7818609E-02  0.8760306E-01
       -1   -1    0    0    0  501  0.00000000000E+00  0.00000000000E+00  0.91854738583E+03  0.91854738584E+03  0.50400001928E-02 0.  1.
        1   -1    0    0  501    0  0.00000000000E+00  0.00000000000E+00 -0.78828769280E+03  0.78828769281E+03  0.50400001928E-02 0. -1.
    10030    2    1    2    0    0  0.00000000000E+00  0.00000000000E+00  0.13025969303E+03  0.17068350787E+04  0.17018573378E+04 0.  0.
        1    1    3    3  502    0  0.62789515452E+03  0.16997156089E+03 -0.48505187864E+03  0.81142959127E+03  0.50400001928E-02 0. -1.
       -1    1    3    3    0  502 -0.62789515452E+03 -0.16997156089E+03  0.61531157167E+03  0.89540548739E+03  0.50400001928E-02 0.  1.
</event>
<event>
 5   0  0.7583716E-06  0.1700344E+04  0.7818609E-02  0.8761168E-01
       -1   -1    0    0    0  501  0.00000000000E+00  0.00000000000E+00  0.36532085380E+03  0.36532085383E+03  0.50400001928E-02 0. -1.
        1   -1    0    0  501    0  0.00000000000E+00  0.00000000000E+00 -0.19785142570E+04  0.19785142571E+04  0.50400001928E-02 0.  1.
    10030    2    1    2    0    0  0.00000000000E+00  0.00000000000E+00 -0.16131934032E+04  0.23438351109E+04  0.17003441036E+04 0.  0.
        5    1    3    3  502    0 -0.71916064705E+03 -0.59296735400E+02 -0.18696608325E+03  0.74544385796E+03  0.46999998093E+01 0. -1.
       -5    1    3    3    0  502  0.71916064705E+03  0.59296735400E+02 -0.14262273200E+04  0.15983912529E+04  0.46999998093E+01 0.  1.
</event>
<event>
 5   0  0.1441756E-05  0.1702545E+04  0.7818609E-02  0.8759914E-01
       -2   -1    0    0    0  501  0.00000000000E+00  0.00000000000E+00  0.46618602900E+03  0.46618602901E+03  0.25500000920E-02 0.  1.
        2   -1    0    0  501    0  0.00000000000E+00  0.00000000000E+00 -0.15544538588E+04  0.15544538588E+04  0.25500000920E-02 0. -1.
    10030    2    1    2    0    0  0.00000000000E+00  0.00000000000E+00 -0.10882678298E+04  0.20206398878E+04  0.17025447679E+04 0.  0.
        5    1    3    3  502    0  0.57261709478E+03  0.42169530236E+03  0.11179767832E+02  0.71124140942E+03  0.46999998093E+01 0. -1.
       -5    1    3    3    0  502 -0.57261709478E+03 -0.42169530236E+03 -0.10994475976E+04  0.13093984784E+04  0.46999998093E+01 0.  1.
</event>
<event>
 5   0  0.7082527E-06  0.1701839E+04  0.7818609E-02  0.8760316E-01
        1   -1    0    0  501    0  0.00000000000E+00  0.00000000000E+00  0.92002039902E+03  0.92002039904E+03  0.50400001928E-02 0. -1.
       -1   -1    0    0    0  501  0.00000000000E+00  0.00000000000E+00 -0.78700822056E+03  0.78700822057E+03  0.50400001928E-02 0.  1.
    10030    2    1    2    0    0  0.00000000000E+00  0.00000000000E+00  0.13301217847E+03  0.17070286196E+04  0.17018385554E+04 0.  0.
        1    1    3    3  502    0  0.35136508045E+03  0.74259778198E+03  0.28889089356E+03  0.87084260000E+03  0.50400001928E-02 0. -1.
       -1    1    3    3    0  502 -0.35136508045E+03 -0.74259778198E+03 -0.15587871510E+03  0.83618601962E+03  0.50400001928E-02 0.  1.
</event>
<event>
 5   0  0.7583716E-06  0.1699642E+04  0.7818609E-02  0.8761569E-01
        1   -1    0    0  501    0  0.00000000000E+00  0.00000000000E+00  0.10696206444E+04  0.10696206444E+04  0.50400001928E-02 0. -1.
       -1   -1    0    0    0  501  0.00000000000E+00  0.00000000000E+00 -0.67518868131E+03  0.67518868133E+03  0.50400001928E-02 0.  1.
    10030    2    1    2    0    0  0.00000000000E+00  0.00000000000E+00  0.39443196312E+03  0.17448093258E+04  0.16996420240E+04 0.  0.
        5    1    3    3  502    0 -0.54843165875E+03  0.16873232541E+03 -0.44627990559E+03  0.72693584731E+03  0.46999998093E+01 0.  1.
       -5    1    3    3    0  502  0.54843165875E+03 -0.16873232541E+03  0.84071186872E+03  0.10178734785E+04  0.46999998093E+01 0. -1.
</event>
<event>
 5   0  0.7461128E-06  0.1700695E+04  0.7818609E-02  0.8760968E-01
        1   -1    0    0  501    0  0.00000000000E+00  0.00000000000E+00  0.10196433877E+04  0.10196433877E+04  0.50400001928E-02 0.  1.
       -1   -1    0    0    0  501  0.00000000000E+00  0.00000000000E+00 -0.70916090280E+03  0.70916090282E+03  0.50400001928E-02 0. -1.
    10030    2    1    2    0    0  0.00000000000E+00  0.00000000000E+00  0.31048248490E+03  0.17288042905E+04  0.17006954170E+04 0.  0.
        3    1    3    3  502    0 -0.21677194214E+03 -0.60455645507E+03  0.72177898508E+03  0.96614879587E+03  0.10100000352E+00 0.  1.
       -3    1    3    3    0  502  0.21677194214E+03  0.60455645507E+03 -0.41129650018E+03  0.76265549466E+03  0.10100000352E+00 0. -1.
</event>
<event>
 5   0  0.1419012E-05  0.1700035E+04  0.7818609E-02  0.8761344E-01
        2   -1    0    0  501    0  0.00000000000E+00  0.00000000000E+00  0.13116933890E+04  0.13116933890E+04  0.25500000920E-02 0. -1.
       -2   -1    0    0    0  501  0.00000000000E+00  0.00000000000E+00 -0.55083740314E+03  0.55083740315E+03  0.25500000920E-02 0.  1.
    10030    2    1    2    0    0  0.00000000000E+00  0.00000000000E+00  0.76085598590E+03  0.18625307922E+04  0.17000350351E+04 0.  0.
        4    1    3    3  502    0 -0.83917548497E+03 -0.55629786971E+02  0.51558058278E+03  0.98647611122E+03  0.12699999809E+01 0.  1.
       -4    1    3    3    0  502  0.83917548497E+03  0.55629786971E+02  0.24527540312E+03  0.87605468097E+03  0.12699999809E+01 0. -1.
</event>
<event>
 5   0  0.7476457E-06  0.1701919E+04  0.7818609E-02  0.8760271E-01
        1   -1    0    0  501    0  0.00000000000E+00  0.00000000000E+00  0.11331621891E+04  0.11331621891E+04  0.50400001928E-02 0.  1.
       -1   -1    0    0    0  501  0.00000000000E+00  0.00000000000E+00 -0.63903638040E+03  0.63903638042E+03  0.50400001928E-02 0. -1.
    10030    2    1    2    0    0  0.00000000000E+00  0.00000000000E+00  0.49412580866E+03  0.17721985695E+04  0.17019187569E+04 0.  0.
        2    1    3    3  502    0 -0.56159318671E+03 -0.46863202163E+03  0.69991105917E+03  0.10123627659E+04  0.25500000920E-02 0.  1.
       -2    1    3    3    0  502  0.56159318671E+03  0.46863202163E+03 -0.20578525051E+03  0.75983580357E+03  0.25500000920E-02 0. -1.
</event>
<event>
 5   0  0.5229750E-06  0.1700117E+04  0.7818609E-02  0.8761297E-01
       -3   -1    0    0    0  501  0.00000000000E+00  0.00000000000E+00  0.48056733864E+03  0.48056734925E+03  0.10100000352E+00 0.  1.
        3   -1    0    0  501    0  0.00000000000E+00  0.00000000000E+00 -0.15036388401E+04  0.15036388435E+04  0.10100000352E+00 0. -1.
    10030    2    1    2    0    0  0.00000000000E+00  0.00000000000E+00 -0.10230715015E+04  0.19842061927E+04  0.17001173248E+04 0.  0.
        1    1    3    3  502    0 -0.48289790625E+03 -0.63748763387E+03 -0.17525943078E+03  0.81871651950E+03  0.50400001928E-02 0.  1.
       -1    1    3    3    0  502  0.48289790625E+03  0.63748763387E+03 -0.84781207068E+03  0.11654896732E+04  0.50400001928E-02 0. -1.
</event>
<event>
 5   0  0.1374441E-05  0.1701690E+04  0.7818609E-02  0.8760401E-01
        2   -1    0    0  501    0  0.00000000000E+00  0.00000000000E+00  0.78222363894E+03  0.78222363894E+03  0.25500000920E-02 0. -1.
       -2   -1    0    0    0  501  0.00000000000E+00  0.00000000000E+00 -0.92548570937E+03  0.92548570937E+03  0.25500000920E-02 0.  1.
    10030    2    1    2    0    0  0.00000000000E+00  0.00000000000E+00 -0.14326207043E+03  0.17077093483E+04  0.17016895127E+04 0.  0.
        1    1    3    3  502    0  0.43382612977E+03  0.46822615353E+03  0.49293886110E+03  0.80649213420E+03  0.50400001928E-02 0. -1.
       -1    1    3    3    0  502 -0.43382612977E+03 -0.46822615353E+03 -0.63620093152E+03  0.90121721411E+03  0.50400001928E-02 0.  1.
</event>
<event>
 5   0  0.1419012E-05  0.1700884E+04  0.7818609E-02  0.8760860E-01
        2   -1    0    0  501    0  0.00000000000E+00  0.00000000000E+00  0.13913140434E+04  0.13913140434E+04  0.25500000920E-02 0.  1.
       -2   -1    0    0    0  501  0.00000000000E+00  0.00000000000E+00 -0.51983357022E+03  0.51983357023E+03  0.25500000920E-02 0. -1.
    10030    2    1    2    0    0  0.00000000000E+00  0.00000000000E+00  0.87148047321E+03  0.19111476137E+04  0.17008841777E+04 0.  0.
        4    1    3    3  502    0 -0.35219699414E+03 -0.23596831485E+03 -0.39264013375E+03  0.57783358834E+03  0.12699999809E+01 0. -1.
       -4    1    3    3    0  502  0.35219699414E+03  0.23596831485E+03  0.12641206070E+04  0.13333140253E+04  0.12699999809E+01 0.  1.
</event>
<event>
 5   0  0.1419012E-05  0.1699930E+04  0.7818609E-02  0.8761404E-01
       -2   -1    0    0    0  501  0.00000000000E+00  0.00000000000E+00  0.47440940355E+03  0.47440940356E+03  0.25500000920E-02 0.  1.
        2   -1    0    0  501    0  0.00000000000E+00  0.00000000000E+00 -0.15228201230E+04  0.15228201230E+04  0.25500000920E-02 0. -1.
    10030    2    1    2    0    0  0.00000000000E+00  0.00000000000E+00 -0.10484107195E+04  0.19972295266E+04  0.16999296295E+04 0.  0.
        4    1    3    3  502    0  0.45673694700E+00 -0.22113105712E+03  0.44001998714E+03  0.49246152643E+03  0.12699999809E+01 0.  1.
       -4    1    3    3    0  502 -0.45673694700E+00  0.22113105712E+03 -0.14884307066E+04  0.15047680002E+04  0.12699999809E+01 0. -1.
</event>
<event>
 5   0  0.1435301E-05  0.1700239E+04  0.7818609E-02  0.8761228E-01
        2   -1    0    0  501    0  0.00000000000E+00  0.00000000000E+00  0.22784047833E+04  0.22784047833E+04  0.25500000920E-02 0. -1.
       -2   -1    0    0    0  501  0.00000000000E+00  0.00000000000E+00 -0.31719715775E+03  0.31719715776E+03  0.25500000920E-02 0.  1.
    10030    2    1    2    0    0  0.00000000000E+00  0.00000000000E+00  0.19612076255E+04  0.25956019410E+04  0.17002394202E+04 0.  0.
        2    1    3    3  502    0 -0.84298214334E+03 -0.10783200810E+03  0.94797271335E+03  0.12731452789E+04  0.25500000920E-02 0. -1.
       -2    1    3    3    0  502  0.84298214334E+03  0.10783200810E+03  0.10132349122E+04  0.13224566621E+04  0.25500000920E-02 0.  1.
</event>
<event>
 5   0  0.1423543E-05  0.1699920E+04  0.7818609E-02  0.8761410E-01
        2   -1    0    0  501    0  0.00000000000E+00  0.00000000000E+00  0.11344067212E+04  0.11344067212E+04  0.25500000920E-02 0. -1.
       -2   -1    0    0    0  501  0.00000000000E+00  0.00000000000E+00 -0.63683708042E+03  0.63683708043E+03  0.25500000920E-02 0.  1.
    10030    2    1    2    0    0  0.00000000000E+00  0.00000000000E+00  0.49756964077E+03  0.17712438016E+04  0.16999203091E+04 0.  0.
        3    1    3    3  502    0 -0.26624265827E+03 -0.57921070912E+03  0.83456673757E+03  0.10501770557E+04  0.10100000352E+00 0. -1.
       -3    1    3    3    0  502  0.26624265827E+03  0.57921070912E+03 -0.33699709680E+03  0.72106674594E+03  0.10100000352E+00 0.  1.
</event>
<event>
 5   0  0.7461128E-06  0.1700115E+04  0.7818609E-02  0.8761299E-01
        1   -1    0    0  501    0  0.00000000000E+00  0.00000000000E+00  0.99474381138E+03  0.99474381140E+03  0.50400001928E-02 0. -1.
       -1   -1    0    0    0  501  0.00000000000E+00  0.00000000000E+00 -0.72641626402E+03  0.72641626404E+03  0.50400001928E-02 0.  1.
    10030    2    1    2    0    0  0.00000000000E+00  0.00000000000E+00  0.26832754736E+03  0.17211600754E+04  0.17001153880E+04 0.  0.
        3    1    3    3  502    0 -0.10804074095E+03  0.79523056001E+02 -0.71563206914E+03  0.72809751183E+03  0.10100000352E+00 0.  1.
       -3    1    3    3    0  502  0.10804074095E+03 -0.79523056001E+02  0.98395961650E+03  0.99306256361E+03  0.10100000352E+00 0. -1.
</event>
<event>
 5   0  0.7455669E-06  0.1700727E+04  0.7818609E-02  0.8760950E-01
       -1   -1    0    0    0  501  0.00000000000E+00  0.00000000000E+00  0.62290758703E+03  0.62290758705E+03  0.50400001928E-02 0. -1.
        1   -1    0    0  501    0  0.00000000000E+00  0.00000000000E+00 -0.11608756554E+04  0.11608756554E+04  0.50400001928E-02 0.  1.
    10030    2    1    2    0    0  0.00000000000E+00  0.00000000000E+00 -0.53796806839E+03  0.17837832425E+04  0.17007272014E+04 0.  0.
        4    1    3    3  502    0  0.58570139166E+02  0.84830724154E+03 -0.26079214844E+03  0.88942104474E+03  0.12699999809E+01 0.  1.
       -4    1    3    3    0  502 -0.58570139166E+02 -0.84830724154E+03 -0.27717591995E+03  0.89436219774E+03  0.12699999809E+01 0. -1.
</event>
<event>
 5   0  0.1423543E-05  0.1699418E+04  0.7818609E-02  0.8761696E-01
       -2   -1    0    0    0  501  0.00000000000E+00  0.00000000000E+00  0.58688733907E+03  0.58688733907E+03  0.25500000920E-02 0.  1.
        2   -1    0    0  501    0  0.00000000000E+00  0.00000000000E+00 -0.12302284152E+04  0.12302284152E+04  0.25500000920E-02 0. -1.
    10030    2    1    2    0    0  0.00000000000E+00  0.00000000000E+00 -0.64334107616E+03  0.18171157543E+04  0.16994181134E+04 0.  0.
        3    1    3    3  502    0 -0.35198375854E+03  0.59531813072E+02  0.50281574269E+03  0.61665248263E+03  0.10100000352E+00 0.  1.
       -3    1    3    3    0  502  0.35198375854E+03 -0.59531813072E+02 -0.11461568188E+04  0.12004632717E+04  0.10100000352E+00 0. -1.
</event>
<event>
 5   0  0.1435301E-05  0.1691005E+04  0.7818609E-02  0.8766511E-01
       -2   -1    0    0    0  501  0.00000000000E+00  0.00000000000E+00  0.10566961085E+04  0.10566961085E+04  0.25500000920E-02 0.  1.
        2   -1    0    0  501    0  0.00000000000E+00  0.00000000000E+00 -0.67651819800E+03  0.67651819800E+03  0.25500000920E-02 0. -1.
    10030    2    1    2    0    0  0.00000000000E+00  0.00000000000E+00  0.38017791054E+03  0.17332143065E+04  0.16910046093E+04 0.  0.
        2    1    3    3  502    0 -0.61754809175E+03 -0.11022738931E+03 -0.39094607744E+03  0.73915800642E+03  0.25500000920E-02 0. -1.
       -2    1    3    3    0  502  0.61754809175E+03  0.11022738931E+03  0.77112398798E+03  0.99405630013E+03  0.25500000920E-02 0.  1.
</event>
<event>
 5   0  0.7082527E-06  0.1699718E+04  0.7818609E-02  0.8761525E-01
       -1   -1    0    0    0  501  0.00000000000E+00  0.00000000000E+00  0.77238342067E+03  0.77238342069E+03  0.50400001928E-02 0. -1.
        1   -1    0    0  501    0  0.00000000000E+00  0.00000000000E+00 -0.93510542311E+03  0.93510542312E+03  0.50400001928E-02 0.  1.
    10030    2    1    2    0    0  0.00000000000E+00  0.00000000000E+00 -0.16272200244E+03  0.17074888438E+04  0.16997175358E+04 0.  0.
        1    1    3    3  502    0 -0.29772787297E+02  0.26308336576E+03  0.72989591993E+03  0.77643243760E+03  0.50400001928E-02 0. -1.
       -1    1    3    3    0  502  0.29772787297E+02 -0.26308336576E+03 -0.89261792236E+03  0.93105640621E+03  0.50400001928E-02 0.  1.
</event>
<event>
 5   0  0.1374441E-05  0.1700061E+04  0.7818609E-02  0.8761330E-01
        2   -1    0    0  501    0  0.00000000000E+00  0.00000000000E+00  0.44913930122E+03  0.44913930122E+03  0.25500000920E-02 0.  1.
       -2   -1    0    0    0  501  0.00000000000E+00  0.00000000000E+00 -0.16087473571E+04  0.16087473571E+04  0.25500000920E-02 0. -1.
    10030    2    1    2    0    0  0.00000000000E+00  0.00000000000E+00 -0.11596080559E+04  0.20578866583E+04  0.17000607799E+04 0.  0.
        1    1    3    3  502    0 -0.52445242837E+03  0.25590274040E+03  0.16836076777E+03  0.60735649360E+03  0.50400001928E-02 0.  1.
       -1    1    3    3    0  502  0.52445242837E+03 -0.25590274040E+03 -0.13279688236E+04  0.14505301647E+04  0.50400001928E-02 0. -1.
</event>
<event>
 5   0  0.7476457E-06  0.1699991E+04  0.7818609E-02  0.8761369E-01
       -1   -1    0    0    0  501  0.00000000000E+00  0.00000000000E+00  0.61814652786E+03  0.61814652788E+03  0.50400001928E-02 0.  1.
        1   -1    0    0  501    0  0.00000000000E+00  0.00000000000E+00 -0.11688047525E+04  0.11688047525E+04  0.50400001928E-02 0. -1.
    10030    2    1    2    0    0  0.00000000000E+00  0.00000000000E+00 -0.55065822464E+03  0.17869512804E+04  0.16999912936E+04 0.  0.
        2    1    3    3  502    0  0.64976413344E+02  0.11613700242E+03  0.60712815151E+03  0.62154189721E+03  0.25500000920E-02 0.  1.
       -2    1    3    3    0  502 -0.64976413344E+02 -0.11613700242E+03 -0.11577863762E+04  0.11654093832E+04  0.25500000920E-02 0. -1.
</event>
<event>
 5   0  0.1441756E-05  0.1699744E+04  0.7818609E-02  0.8761511E-01
       -2   -1    0    0    0  501  0.00000000000E+00  0.00000000000E+00  0.76499045554E+03  0.76499045555E+03  0.25500000920E-02 0. -1.
        2   -1    0    0  501    0  0.00000000000E+00  0.00000000000E+00 -0.94417133957E+03  0.94417133958E+03  0.25500000920E-02 0.  1.
    10030    2    1    2    0    0  0.00000000000E+00  0.00000000000E+00 -0.17918088403E+03  0.17091617951E+04  0.16997435844E+04 0.  0.
        5    1    3    3  502    0  0.29156799481E+03 -0.79529734006E+03 -0.20286720183E+02  0.84731540510E+03  0.46999998093E+01 0.  1.
       -5    1    3    3    0  502 -0.29156799481E+03  0.79529734006E+03 -0.15889416385E+03  0.86184639003E+03  0.46999998093E+01 0. -1.
</event>
<event>
 5   0  0.7476457E-06  0.1698665E+04  0.7818609E-02  0.8762126E-01
        1   -1    0    0  501    0  0.00000000000E+00  0.00000000000E+00  0.16827978836E+04  0.16827978836E+04  0.50400001928E-02 0.  1.
       -1   -1    0    0    0  501  0.00000000000E+00  0.00000000000E+00 -0.42867053078E+03  0.42867053081E+03  0.50400001928E-02 0. -1.
    10030    2    1    2    0    0  0.00000000000E+00  0.00000000000E+00  0.12541273528E+04  0.21114684144E+04  0.16986651960E+04 0.  0.
        2    1    3    3  502    0 -0.14987533529E+03  0.83484482624E+03  0.68177562515E+03  0.10882309052E+04  0.25500000920E-02 0. -1.
       -2    1    3    3    0  502  0.14987533529E+03 -0.83484482624E+03  0.57235172764E+03  0.10232375092E+04  0.25500000920E-02 0.  1.
</event>
<event>
 5   0  0.7461128E-06  0.1699779E+04  0.7818609E-02  0.8761491E-01
       -1   -1    0    0    0  501  0.00000000000E+00  0.00000000000E+00  0.10157854659E+04  0.10157854659E+04  0.50400001928E-02 0.  1.
        1   -1    0    0  501    0  0.00000000000E+00  0.00000000000E+00 -0.71108700768E+03  0.71108700770E+03  0.50400001928E-02 0. -1.
    10030    2    1    2    0    0  0.00000000000E+00  0.00000000000E+00  0.30469845821E+03  0.17268724736E+04  0.16997786296E+04 0.  0.
        3    1    3    3  502    0  0.37471192176E+03 -0.25185848295E+03  0.88387523053E+03  0.99251053046E+03  0.10100000352E+00 0.  1.
       -3    1    3    3    0  502 -0.37471192176E+03  0.25185848295E+03 -0.57917677232E+03  0.73436194314E+03  0.10100000352E+00 0. -1.
</event>
<event>
 5   0  0.7583716E-06  0.1699987E+04  0.7818609E-02  0.8761372E-01
       -1   -1    0    0    0  501  0.00000000000E+00  0.00000000000E+00  0.63319140818E+03  0.63319140820E+03  0.50400001928E-02 0.  1.
        1   -1    0    0  501    0  0.00000000000E+00  0.00000000000E+00 -0.11410279003E+04  0.11410279003E+04  0.50400001928E-02 0. -1.
    10030    2    1    2    0    0  0.00000000000E+00  0.00000000000E+00 -0.50783649213E+03  0.17742193085E+04  0.16999871329E+04 0.  0.
        5    1    3    3  502    0 -0.47561756922E+03  0.69690383140E+03 -0.14656789043E+03  0.85638265914E+03  0.46999998093E+01 0.  1.
       -5    1    3    3    0  502  0.47561756922E+03 -0.69690383140E+03 -0.36126860170E+03  0.91783664938E+03  0.46999998093E+01 0. -1.
</event>
<event>
 5   0  0.1374441E-05  0.1701020E+04  0.7818609E-02  0.8760783E-01
        2   -1    0    0  501    0  0.00000000000E+00  0.00000000000E+00  0.96119518200E+03  0.96119518200E+03  0.25500000920E-02 0. -1.
       -2   -1    0    0    0  501  0.00000000000E+00  0.00000000000E+00 -0.75257028551E+03  0.75257028551E+03  0.25500000920E-02 0.  1.
    10030    2    1    2    0    0  0.00000000000E+00  0.00000000000E+00  0.20862489649E+03  0.17137654675E+04  0.17010196149E+04 0.  0.
        1    1    3    3  502    0  0.43531177228E+03 -0.15076349605E+03  0.82461077977E+03  0.94456810711E+03  0.50400001928E-02 0. -1.
       -1    1    3    3    0  502 -0.43531177228E+03  0.15076349605E+03 -0.61598588328E+03  0.76919736040E+03  0.50400001928E-02 0.  1.
</event>
<event>
 5   0  0.7461128E-06  0.1699965E+04  0.7818609E-02  0.8761384E-01
       -1   -1    0    0    0  501  0.00000000000E+00  0.00000000000E+00  0.71654673906E+03  0.71654673907E+03  0.50400001928E-02 0.  1.
        1   -1    0    0  501    0  0.00000000000E+00  0.00000000000E+00 -0.10082665732E+04  0.10082665732E+04  0.50400001928E-02 0. -1.
    10030    2    1    2    0    0  0.00000000000E+00  0.00000000000E+00 -0.29171983412E+03  0.17248133123E+04  0.16999648527E+04 0.  0.
        3    1    3    3  502    0  0.20823473512E+03 -0.34634728575E+03  0.61283483827E+03  0.73408766265E+03  0.10100000352E+00 0.  1.
       -3    1    3    3    0  502 -0.20823473512E+03  0.34634728575E+03 -0.90455467240E+03  0.99072564962E+03  0.10100000352E+00 0. -1.
</event>
<event>
 5   0  0.1435301E-05  0.1699398E+04  0.7818609E-02  0.8761708E-01
       -2   -1    0    0    0  501  0.00000000000E+00  0.00000000000E+00  0.42903183165E+03  0.42903183166E+03  0.25500000920E-02 0.  1.
        2   -1    0    0  501    0  0.00000000000E+00  0.00000000000E+00 -0.16828326429E+04  0.16828326429E+04  0.25500000920E-02 0. -1.
    10030    2    1    2    0    0  0.00000000000E+00  0.00000000000E+00 -0.12538008112E+04  0.21118644746E+04  0.16993984479E+04 0.  0.
        2    1    3    3  502    0  0.12415044090E+03  0.45726882338E+03 -0.15034145511E+04  0.15763132371E+04  0.25500000920E-02 0. -1.
       -2    1    3    3    0  502 -0.12415044090E+03 -0.45726882338E+03  0.24961373989E+03  0.53555123747E+03  0.25500000920E-02 0.  1.
</event>
<event>
 5   0  0.7455669E-06  0.1700607E+04  0.7818609E-02  0.8761018E-01
        1   -1    0    0  501    0  0.00000000000E+00  0.00000000000E+00  0.92343995858E+03  0.92343995859E+03  0.50400001928E-02 0. -1.
       -1   -1    0    0    0  501  0.00000000000E+00  0.00000000000E+00 -0.78295931561E+03  0.78295931563E+03  0.50400001928E-02 0.  1.
    10030    2    1    2    0    0  0.00000000000E+00  0.00000000000E+00  0.14048064297E+03  0.17063992742E+04  0.17006068540E+04 0.  0.
        4    1    3    3  502    0  0.16346211983E+03  0.13256873934E+03 -0.75641039479E+03  0.78514497611E+03  0.12699999809E+01 0.  1.
       -4    1    3    3    0  502 -0.16346211983E+03 -0.13256873934E+03  0.89689103776E+03  0.92125429811E+03  0.12699999809E+01 0. -1.
</event>
<event>
 5   0  0.7583716E-06  0.1699251E+04  0.7818609E-02  0.8761792E-01
       -1   -1    0    0    0  501  0.00000000000E+00  0.00000000000E+00  0.75529519772E+03  0.75529519774E+03  0.50400001928E-02 0.  1.
        1   -1    0    0  501    0  0.00000000000E+00  0.00000000000E+00 -0.95573695547E+03  0.95573695548E+03  0.50400001928E-02 0. -1.
    10030    2    1    2    0    0  0.00000000000E+00  0.00000000000E+00 -0.20044175775E+03  0.17110321532E+04  0.16992510501E+04 0.  0.
        5    1    3    3  502    0 -0.51103620928E+03  0.57595286894E+03  0.26138130628E+03  0.81315557657E+03  0.46999998093E+01 0.  1.
       -5    1    3    3    0  502  0.51103620928E+03 -0.57595286894E+03 -0.46182306403E+03  0.89787657665E+03  0.46999998093E+01 0. -1.
</event>
<event>
 5   0  0.1441756E-05  0.1699638E+04  0.7818609E-02  0.8761571E-01
       -2   -1    0    0    0  501  0.00000000000E+00  0.00000000000E+00  0.37545332319E+03  0.37545332320E+03  0.25500000920E-02 0. -1.
        2   -1    0    0  501    0  0.00000000000E+00  0.00000000000E+00 -0.19235215439E+04  0.19235215439E+04  0.25500000920E-02 0.  1.
    10030    2    1    2    0    0  0.00000000000E+00  0.00000000000E+00 -0.15480682207E+04  0.22989748671E+04  0.16996382626E+04 0.  0.
        5    1    3    3  502    0 -0.14980128166E+03 -0.19294942926E+03  0.32692413612E+03  0.40813158052E+03  0.46999998093E+01 0. -1.
       -5    1    3    3    0  502  0.14980128166E+03  0.19294942926E+03 -0.18749923569E+04  0.18908432866E+04  0.46999998093E+01 0.  1.
</event>
<event>
 5   0  0.7583716E-06  0.1699452E+04  0.7818609E-02  0.8761677E-01
       -1   -1    0    0    0  501  0.00000000000E+00  0.00000000000E+00  0.47117683306E+03  0.47117683309E+03  0.50400001928E-02 0. -1.
        1   -1    0    0  501    0  0.00000000000E+00  0.00000000000E+00 -0.15324056178E+04  0.15324056178E+04  0.50400001928E-02 0.  1.
    10030    2    1    2    0    0  0.00000000000E+00  0.00000000000E+00 -0.10612287847E+04  0.20035824509E+04  0.16994517069E+04 0.  0.
        5    1    3    3  502    0 -0.40915883092E+03  0.35787354512E+03 -0.13005810453E+04  0.14096161068E+04  0.46999998093E+01 0.  1.
       -5    1    3    3    0  502  0.40915883092E+03 -0.35787354512E+03  0.23935226059E+03  0.59396634405E+03  0.46999998093E+01 0. -1.
</event>
<event>
 5   0  0.7476457E-06  0.1700178E+04  0.7818609E-02  0.8761263E-01
        1   -1    0    0  501    0  0.00000000000E+00  0.00000000000E+00  0.52749468910E+03  0.52749468912E+03  0.50400001928E-02 0. -1.
       -1   -1    0    0    0  501  0.00000000000E+00  0.00000000000E+00 -0.13699696422E+04  0.13699696422E+04  0.50400001928E-02 0.  1.
    10030    2    1    2    0    0  0.00000000000E+00  0.00000000000E+00 -0.84247495313E+03  0.18974643314E+04  0.17001784736E+04 0.  0.
        2    1    3    3  502    0 -0.40508530086E+03  0.22704326632E+03  0.37343272245E+03  0.59589826645E+03  0.25500000920E-02 0. -1.
       -2    1    3    3    0  502  0.40508530086E+03 -0.22704326632E+03 -0.12159076756E+04  0.13015660649E+04  0.25500000920E-02 0.  1.
</event>
<event>
 5   0  0.1374441E-05  0.1700192E+04  0.7818609E-02  0.8761255E-01
       -2   -1    0    0    0  501  0.00000000000E+00  0.00000000000E+00  0.47035374630E+03  0.47035374631E+03  0.25500000920E-02 0.  1.
        2   -1    0    0  501    0  0.00000000000E+00  0.00000000000E+00 -0.15364258021E+04  0.15364258021E+04  0.25500000920E-02 0. -1.
    10030    2    1    2    0    0  0.00000000000E+00  0.00000000000E+00 -0.10660720558E+04  0.20067795485E+04  0.17001924973E+04 0.  0.
        1    1    3    3  502    0 -0.72449933372E+02  0.96268473615E+02 -0.15262968074E+04  0.15310449230E+04  0.50400001928E-02 0. -1.
       -1    1    3    3    0  502  0.72449933372E+02 -0.96268473615E+02  0.46022475159E+03  0.47573462545E+03  0.50400001928E-02 0.  1.
</event>
<event>
 5   0  0.7455669E-06  0.1699587E+04  0.7818609E-02  0.8761600E-01
       -1   -1    0    0    0  501  0.00000000000E+00  0.00000000000E+00  0.80003033176E+03  0.80003033178E+03  0.50400001928E-02 0.  1.
        1   -1    0    0  501    0  0.00000000000E+00  0.00000000000E+00 -0.90265164392E+03  0.90265164393E+03  0.50400001928E-02 0. -1.
    10030    2    1    2    0    0  0.00000000000E+00  0.00000000000E+00 -0.10262131216E+03  0.17026819757E+04  0.16995866488E+04 0.  0.
        4    1    3    3  502    0  0.29410923176E+03  0.36826131040E+03  0.65710549361E+03  0.80864446797E+03  0.12699999809E+01 0.  1.
       -4    1    3    3    0  502 -0.29410923176E+03 -0.36826131040E+03 -0.75972680577E+03  0.89403750774E+03  0.12699999809E+01 0. -1.
</event>
<event>
 5   0  0.1374441E-05  0.1698813E+04  0.7818609E-02  0.8762041E-01
       -2   -1    0    0    0  501  0.00000000000E+00  0.00000000000E+00  0.68359535459E+03  0.68359535459E+03  0.25500000920E-02 0. -1.
        2   -1    0    0  501    0  0.00000000000E+00  0.00000000000E+00 -0.10554366774E+04  0.10554366774E+04  0.25500000920E-02 0.  1.
    10030    2    1    2    0    0  0.00000000000E+00  0.00000000000E+00 -0.37184132285E+03  0.17390320320E+04  0.16988132443E+04 0.  0.
        1    1    3    3  502    0 -0.69295845098E+03  0.11815309657E+03 -0.67401066163E+03  0.97387983911E+03  0.50400001928E-02 0.  1.
       -1    1    3    3    0  502  0.69295845098E+03 -0.11815309657E+03  0.30216933878E+03  0.76515219292E+03  0.50400001928E-02 0. -1.
</event>
<event>
 5   0  0.1374441E-05  0.1698643E+04  0.7818609E-02  0.8762139E-01
        2   -1    0    0  501    0  0.00000000000E+00  0.00000000000E+00  0.85966210084E+03  0.85966210084E+03  0.25500000920E-02 0.  1.
       -2   -1    0    0    0  501  0.00000000000E+00  0.00000000000E+00 -0.83910510396E+03  0.83910510396E+03  0.25500000920E-02 0. -1.
    10030    2    1    2    0    0  0.00000000000E+00  0.00000000000E+00  0.20556996883E+02  0.16987672048E+04  0.16986428188E+04 0.  0.
        1    1    3    3  502    0  0.69587538733E+03  0.11940250908E+03 -0.46182316492E+03  0.84367064044E+03  0.50400001928E-02 0. -1.
       -1    1    3    3    0  502 -0.69587538733E+03 -0.11940250908E+03  0.48238016180E+03  0.85509656436E+03  0.50400001928E-02 0.  1.
</event>
<event>
 5   0  0.7455669E-06  0.1700053E+04  0.7818609E-02  0.8761334E-01
       -1   -1    0    0    0  501  0.00000000000E+00  0.00000000000E+00  0.90865775624E+03  0.90865775626E+03  0.50400001928E-02 0. -1.
        1   -1    0    0  501    0  0.00000000000E+00  0.00000000000E+00 -0.79517887364E+03  0.79517887366E+03  0.50400001928E-02 0.  1.
    10030    2    1    2    0    0  0.00000000000E+00  0.00000000000E+00  0.11347888260E+03  0.17038366299E+04  0.17000534711E+04 0.  0.
        4    1    3    3  502    0  0.82329027302E+03  0.75556229280E+02  0.25473467977E+03  0.86510518864E+03  0.12699999809E+01 0.  1.
       -4    1    3    3    0  502 -0.82329027302E+03 -0.75556229280E+02 -0.14125579717E+03  0.83873144127E+03  0.12699999809E+01 0. -1.
</event>
<event>
 5   0  0.7461128E-06  0.1700856E+04  0.7818609E-02  0.8760877E-01
        1   -1    0    0  501    0  0.00000000000E+00  0.00000000000E+00  0.12514317378E+04  0.12514317378E+04  0.50400001928E-02 0.  1.
       -1   -1    0    0    0  501  0.00000000000E+00  0.00000000000E+00 -0.57791998530E+03  0.57791998533E+03  0.50400001928E-02 0. -1.
    10030    2    1    2    0    0  0.00000000000E+00  0.00000000000E+00  0.67351175253E+03  0.18293517232E+04  0.17008555630E+04 0.  0.
        3    1    3    3  502    0  0.39874214674E+03 -0.12176204283E+03  0.11339728195E+04  0.12081869310E+04  0.10100000352E+00 0.  1.
       -3    1    3    3    0  502 -0.39874214674E+03  0.12176204283E+03 -0.46046106696E+03  0.62116479218E+03  0.10100000352E+00 0. -1.
</event>
<event>
 5   0  0.1419012E-05  0.1700601E+04  0.7818609E-02  0.8761022E-01
        2   -1    0    0  501    0  0.00000000000E+00  0.00000000000E+00  0.35169016925E+03  0.35169016926E+03  0.25500000920E-02 0. -1.
       -2   -1    0    0    0  501  0.00000000000E+00  0.00000000000E+00 -0.20558175879E+04  0.20558175879E+04  0.25500000920E-02 0.  1.
    10030    2    1    2    0    0  0.00000000000E+00  0.00000000000E+00 -0.17041274187E+04  0.24075077572E+04  0.17006008767E+04 0.  0.
        4    1    3    3  502    0 -0.38557079110E+03 -0.11441546337E+03 -0.19126471049E+04  0.19544759640E+04  0.12699999809E+01 0.  1.
       -4    1    3    3    0  502  0.38557079110E+03  0.11441546337E+03  0.20851968618E+03  0.45303179318E+03  0.12699999809E+01 0. -1.
</event>
<event>
 5   0  0.7455669E-06  0.1699982E+04  0.7818609E-02  0.8761374E-01
       -1   -1    0    0    0  501  0.00000000000E+00  0.00000000000E+00  0.68563862594E+03  0.68563862595E+03  0.50400001928E-02 0. -1.
        1   -1    0    0  501    0  0.00000000000E+00  0.00000000000E+00 -0.10537402835E+04  0.10537402836E+04  0.50400001928E-02 0.  1.
    10030    2    1    2    0    0  0.00000000000E+00  0.00000000000E+00 -0.36810165761E+03  0.17393789095E+04  0.16999824001E+04 0.  0.
        4    1    3    3  502    0  0.40001274007E+03  0.71865427880E+03 -0.40351943775E+03  0.91613520519E+03  0.12699999809E+01 0.  1.
       -4    1    3    3    0  502 -0.40001274007E+03 -0.71865427880E+03  0.35417780133E+02  0.82324370432E+03  0.12699999809E+01 0. -1.
</event>
<event>
 5   0  0.7082527E-06  0.1700419E+04  0.7818609E-02  0.8761126E-01
        1   -1    0    0  501    0  0.00000000000E+00  0.00000000000E+00  0.89397255101E+03  0.89397255103E+03  0.50400001928E-02 0. -1.
       -1   -1    0    0    0  501  0.00000000000E+00  0.00000000000E+00 -0.80858848113E+03  0.80858848114E+03  0.50400001928E-02 0.  1.
    10030    2    1    2    0    0  0.00000000000E+00  0.00000000000E+00  0.85384069888E+02  0.17025610322E+04  0.17004186628E+04 0.  0.
        1    1    3    3  502    0  0.45459505049E+03  0.33345756246E+03  0.67989410824E+03  0.88323643739E+03  0.50400001928E-02 0. -1.
       -1    1    3    3    0  502 -0.45459505049E+03 -0.33345756246E+03 -0.59451003835E+03  0.81932459478E+03  0.50400001928E-02 0.  1.
</event>
<event>
 5   0  0.7583716E-06  0.1700093E+04  0.7818609E-02  0.8761311E-01
        1   -1    0    0  501    0  0.00000000000E+00  0.00000000000E+00  0.16964709128E+04  0.16964709128E+04  0.50400001928E-02 0. -1.
       -1   -1    0    0    0  501  0.00000000000E+00  0.00000000000E+00 -0.42593087405E+03  0.42593087408E+03  0.50400001928E-02 0.  1.
    10030    2    1    2    0    0  0.00000000000E+00  0.00000000000E+00  0.12705400388E+04  0.21224017869E+04  0.17000933371E+04 0.  0.
        5    1    3    3  502    0 -0.46435230190E+03 -0.34961218308E+02 -0.25251216314E+03  0.52974506094E+03  0.46999998093E+01 0.  1.
       -5    1    3    3    0  502  0.46435230190E+03  0.34961218308E+02  0.15230522019E+04  0.15926567260E+04  0.46999998093E+01 0. -1.
</event>
<event>
 5   0  0.1419012E-05  0.1698155E+04  0.7818609E-02  0.8762417E-01
        2   -1    0    0  501    0  0.00000000000E+00  0.00000000000E+00  0.75696140500E+03  0.75696140501E+03  0.25500000920E-02 0.  1.
       -2   -1    0    0    0  501  0.00000000000E+00  0.00000000000E+00 -0.95240386044E+03  0.95240386044E+03  0.25500000920E-02 0. -1.
    10030    2    1    2    0    0  0.00000000000E+00  0.00000000000E+00 -0.19544245544E+03  0.17093652655E+04  0.16981554279E+04 0.  0.
        4    1    3    3  502    0 -0.49111028556E+03 -0.21556726989E+03 -0.76030095767E+03  0.93043953031E+03  0.12699999809E+01 0. -1.
       -4    1    3    3    0  502  0.49111028556E+03  0.21556726989E+03  0.56485850223E+03  0.77892573514E+03  0.12699999809E+01 0.  1.
</event>
<event>
 5   0  0.1435301E-05  0.1701901E+04  0.7818609E-02  0.8760281E-01
        2   -1    0    0  501    0  0.00000000000E+00  0.00000000000E+00  0.10444376485E+04  0.10444376485E+04  0.25500000920E-02 0. -1.
       -2   -1    0    0    0  501  0.00000000000E+00  0.00000000000E+00 -0.69330786480E+03  0.69330786480E+03  0.25500000920E-02 0.  1.
    10030    2    1    2    0    0  0.00000000000E+00  0.00000000000E+00  0.35112978366E+03  0.17377455133E+04  0.17019010970E+04 0.  0.
        2    1    3    3  502    0  0.48842978063E+03  0.63473241267E+03  0.46914081880E+03  0.92819286475E+03  0.25500000920E-02 0.  1.
       -2    1    3    3    0  502 -0.48842978063E+03 -0.63473241267E+03 -0.11801103514E+03  0.80955264852E+03  0.25500000920E-02 0. -1.
</event>
<event>
 5   0  0.7583716E-06  0.1700358E+04  0.7818609E-02  0.8761160E-01
       -1   -1    0    0    0  501  0.00000000000E+00  0.00000000000E+00  0.42617438893E+03  0.42617438896E+03  0.50400001928E-02 0. -1.
        1   -1    0    0  501    0  0.00000000000E+00  0.00000000000E+00 -0.16960286747E+04  0.16960286747E+04  0.50400001928E-02 0.  1.
    10030    2    1    2    0    0  0.00000000000E+00  0.00000000000E+00 -0.12698542858E+04  0.21222030637E+04  0.17003575907E+04 0.  0.
        5    1    3    3  502    0 -0.20920577444E+03 -0.32454870668E+02 -0.16625865327E+04  0.16760180320E+04  0.46999998093E+01 0.  1.
       -5    1    3    3    0  502  0.20920577444E+03  0.32454870668E+02  0.39273224697E+03  0.44618503168E+03  0.46999998093E+01 0. -1.
</event>
<event>
 5   0  0.7082527E-06  0.1698258E+04  0.7818609E-02  0.8762358E-01
       -1   -1    0    0    0  501  0.00000000000E+00  0.00000000000E+00  0.52741200637E+03  0.52741200639E+03  0.50400001928E-02 0.  1.
        1   -1    0    0  501    0  0.00000000000E+00  0.00000000000E+00 -0.13670910598E+04  0.13670910598E+04  0.50400001928E-02 0. -1.
    10030    2    1    2    0    0  0.00000000000E+00  0.00000000000E+00 -0.83967905341E+03  0.18945030662E+04  0.16982582121E+04 0.  0.
        1    1    3    3  502    0  0.41522648808E+03  0.71731617218E+03 -0.62573364788E+03  0.10385076434E+04  0.50400001928E-02 0. -1.
       -1    1    3    3    0  502 -0.41522648808E+03 -0.71731617218E+03 -0.21394540553E+03  0.85599542279E+03  0.50400001928E-02 0.  1.
</event>
<event>
 5   0  0.1423543E-05  0.1700831E+04  0.7818609E-02  0.8760891E-01
       -2   -1    0    0    0  501  0.00000000000E+00  0.00000000000E+00  0.54342200505E+03  0.54342200505E+03  0.25500000920E-02 0.  1.
        2   -1    0    0  501    0  0.00000000000E+00  0.00000000000E+00 -0.13308372260E+04  0.13308372260E+04  0.25500000920E-02 0. -1.
    10030    2    1    2    0    0  0.00000000000E+00  0.00000000000E+00 -0.78741522098E+03  0.18742592311E+04  0.17008306603E+04 0.  0.
        3    1    3    3  502    0  0.30396548416E+02 -0.22350323018E+03  0.50985732452E+03  0.55752322429E+03  0.10100000352E+00 0.  1.
       -3    1    3    3    0  502 -0.30396548416E+02  0.22350323018E+03 -0.12972725455E+04  0.13167360068E+04  0.10100000352E+00 0. -1.
</event>
<event>
 5   0  0.1419012E-05  0.1692717E+04  0.7818609E-02  0.8765529E-01
        2   -1    0    0  501    0  0.00000000000E+00  0.00000000000E+00  0.66960561796E+03  0.66960561796E+03  0.25500000920E-02 0. -1.
       -2   -1    0    0    0  501  0.00000000000E+00  0.00000000000E+00 -0.10697680431E+04  0.10697680431E+04  0.25500000920E-02 0.  1.
    10030    2    1    2    0    0  0.00000000000E+00  0.00000000000E+00 -0.40016242518E+03  0.17393736611E+04  0.16927169776E+04 0.  0.
        4    1    3    3  502    0 -0.23778405296E+02  0.13669157243E+02  0.66914786020E+03  0.66971093027E+03  0.12699999809E+01 0. -1.
       -4    1    3    3    0  502  0.23778405296E+02 -0.13669157243E+02 -0.10693102854E+04  0.10696627308E+04  0.12699999809E+01 0.  1.
</event>
<event>
 5   0  0.1419012E-05  0.1700344E+04  0.7818609E-02  0.8761168E-01
        2   -1    0    0  501    0  0.00000000000E+00  0.00000000000E+00  0.36072907179E+03  0.36072907180E+03  0.25500000920E-02 0.  1.
       -2   -1    0    0    0  501  0.00000000000E+00  0.00000000000E+00 -0.20036977016E+04  0.20036977016E+04  0.25500000920E-02 0. -1.
    10030    2    1    2    0    0  0.00000000000E+00  0.00000000000E+00 -0.16429686298E+04  0.23644267734E+04  0.17003435089E+04 0.  0.
        4    1    3    3  502    0 -0.74954857524E+03  0.38934458185E+03 -0.95614701051E+03  0.12757864197E+04  0.12699999809E+01 0. -1.
       -4    1    3    3    0  502  0.74954857524E+03 -0.38934458185E+03 -0.68682161927E+03  0.10886403537E+04  0.12699999809E+01 0.  1.
</event>
<event>
 5   0  0.7461128E-06  0.1699951E+04  0.7818609E-02  0.8761393E-01
       -1   -1    0    0    0  501  0.00000000000E+00  0.00000000000E+00  0.64747577816E+03  0.64747577817E+03  0.50400001928E-02 0.  1.
        1   -1    0    0  501    0  0.00000000000E+00  0.00000000000E+00 -0.11158070051E+04  0.11158070051E+04  0.50400001928E-02 0. -1.
    10030    2    1    2    0    0  0.00000000000E+00  0.00000000000E+00 -0.46833122695E+03  0.17632827833E+04  0.16999505980E+04 0.  0.
        3    1    3    3  502    0 -0.61003334123E+03  0.59132362382E+03 -0.26068556095E+03  0.88868513962E+03  0.10100000352E+00 0.  1.
       -3    1    3    3    0  502  0.61003334123E+03 -0.59132362382E+03 -0.20764566600E+03  0.87459764367E+03  0.10100000352E+00 0. -1.
</event>
<event>
 5   0  0.7461128E-06  0.1701000E+04  0.7818609E-02  0.8760794E-01
        1   -1    0    0  501    0  0.00000000000E+00  0.00000000000E+00  0.14093743974E+04  0.14093743975E+04  0.50400001928E-02 0. -1.
       -1   -1    0    0    0  501  0.00000000000E+00  0.00000000000E+00 -0.51324191298E+03  0.51324191301E+03  0.50400001928E-02 0.  1.
    10030    2    1    2    0    0  0.00000000000E+00  0.00000000000E+00  0.89613248446E+03  0.19226163105E+04  0.17009997200E+04 0.  0.
        3    1    3    3  502    0  0.84832706984E+03 -0.45431227732E+02  0.49366019239E+03  0.98255951964E+03  0.10100000352E+00 0. -1.
       -3    1    3    3    0  502 -0.84832706984E+03  0.45431227732E+02  0.40247229206E+03  0.94005679082E+03  0.10100000352E+00 0.  1.
</event>
<event>
 5   0  0.7082527E-06  0.1701469E+04  0.7818609E-02  0.8760527E-01
       -1   -1    0    0    0  501  0.00000000000E+00  0.00000000000E+00  0.61672862389E+03  0.61672862391E+03  0.50400001928E-02 0. -1.
        1   -1    0    0  501    0  0.00000000000E+00  0.00000000000E+00 -0.11735289801E+04  0.11735289801E+04  0.50400001928E-02 0.  1.
    10030    2    1    2    0    0  0.00000000000E+00  0.00000000000E+00 -0.55680035624E+03  0.17902576040E+04  0.17014686750E+04 0.  0.
        1    1    3    3  502    0  0.80411415242E+03  0.14979854127E+02  0.13426620962E+02  0.80436573791E+03  0.50400001928E-02 0. -1.
       -1    1    3    3    0  502 -0.80411415242E+03 -0.14979854127E+02 -0.57022697720E+03  0.98589186613E+03  0.50400001928E-02 0.  1.
</event>
<event>
 5   0  0.7476457E-06  0.1698962E+04  0.7818609E-02  0.8761956E-01
       -1   -1    0    0    0  501  0.00000000000E+00  0.00000000000E+00  0.48099218605E+03  0.48099218607E+03  0.50400001928E-02 0.  1.
        1   -1    0    0  501    0  0.00000000000E+00  0.00000000000E+00 -0.15002704089E+04  0.15002704089E+04  0.50400001928E-02 0. -1.
    10030    2    1    2    0    0  0.00000000000E+00  0.00000000000E+00 -0.10192782229E+04  0.19812625950E+04  0.16989624406E+04 0.  0.
        2    1    3    3  502    0  0.21239201314E+03 -0.59240286530E+03  0.15575404881E+03  0.64831384821E+03  0.25500000920E-02 0.  1.
       -2    1    3    3    0  502 -0.21239201314E+03  0.59240286530E+03 -0.11750322717E+04  0.13329487468E+04  0.25500000920E-02 0. -1.
</event>
<event>
 5   0  0.1423543E-05  0.1700733E+04  0.7818609E-02  0.8760946E-01
       -2   -1    0    0    0  501  0.00000000000E+00  0.00000000000E+00  0.10485844353E+04  0.10485844353E+04  0.25500000920E-02 0.  1.
        2   -1    0    0  501    0  0.00000000000E+00  0.00000000000E+00 -0.68961874037E+03  0.68961874038E+03  0.25500000920E-02 0. -1.
    10030    2    1    2    0    0  0.00000000000E+00  0.00000000000E+00  0.35896569488E+03  0.17382031756E+04  0.17007333447E+04 0.  0.
        3    1    3    3  502    0 -0.53083681071E+03  0.61500415808E+03 -0.77260013711E+02  0.81608023746E+03  0.10100000352E+00 0. -1.
       -3    1    3    3    0  502  0.53083681071E+03 -0.61500415808E+03  0.43622570859E+03  0.92212293817E+03  0.10100000352E+00 0.  1.
</event>
<event>
 5   0  0.1423543E-05  0.1704145E+04  0.7818609E-02  0.8759004E-01
       -2   -1    0    0    0  501  0.00000000000E+00  0.00000000000E+00  0.11374284279E+04  0.11374284279E+04  0.25500000920E-02 0.  1.
        2   -1    0    0  501    0  0.00000000000E+00  0.00000000000E+00 -0.63830630764E+03  0.63830630764E+03  0.25500000920E-02 0. -1.
    10030    2    1    2    0    0  0.00000000000E+00  0.00000000000E+00  0.49912212030E+03  0.17757347356E+04  0.17041452286E+04 0.  0.
        3    1    3    3  502    0 -0.77631928736E+03  0.90916816669E+02 -0.10393999082E+03  0.78850557092E+03  0.10100000352E+00 0.  1.
       -3    1    3    3    0  502  0.77631928736E+03 -0.90916816669E+02  0.60306211112E+03  0.98722916465E+03  0.10100000352E+00 0. -1.
</event>
<event>
 5   0  0.7461128E-06  0.1699753E+04  0.7818609E-02  0.8761505E-01
        1   -1    0    0  501    0  0.00000000000E+00  0.00000000000E+00  0.86446780149E+03  0.86446780150E+03  0.50400001928E-02 0. -1.
       -1   -1    0    0    0  501  0.00000000000E+00  0.00000000000E+00 -0.83553128193E+03  0.83553128194E+03  0.50400001928E-02 0.  1.
    10030    2    1    2    0    0  0.00000000000E+00  0.00000000000E+00  0.28936519565E+02  0.16999990834E+04  0.16997527942E+04 0.  0.
        3    1    3    3  502    0 -0.38386493179E+03  0.46779548353E+03 -0.58236352936E+03  0.83984057463E+03  0.10100000352E+00 0.  1.
       -3    1    3    3    0  502  0.38386493179E+03 -0.46779548353E+03  0.61130004893E+03  0.86015850881E+03  0.10100000352E+00 0. -1.
</event>
<event>
 5   0  0.1435301E-05  0.1700578E+04  0.7818609E-02  0.8761035E-01
       -2   -1    0    0    0  501  0.00000000000E+00  0.00000000000E+00  0.34313711949E+03  0.34313711950E+03  0.25500000920E-02 0. -1.
        2   -1    0    0  501    0  0.00000000000E+00  0.00000000000E+00 -0.21070033292E+04  0.21070033292E+04  0.25500000920E-02 0.  1.
    10030    2    1    2    0    0  0.00000000000E+00  0.00000000000E+00 -0.17638662097E+04  0.24501404487E+04  0.17005776115E+04 0.  0.
        2    1    3    3  502    0  0.78805313463E+03 -0.59432797553E+02 -0.42991004812E+03  0.89965696235E+03  0.25500000920E-02 0. -1.
       -2    1    3    3    0  502 -0.78805313463E+03  0.59432797553E+02 -0.13339561616E+04  0.15504834864E+04  0.25500000920E-02 0.  1.
</event>
<event>
 5   0  0.1374441E-05  0.1700406E+04  0.7818609E-02  0.8761133E-01
       -2   -1    0    0    0  501  0.00000000000E+00  0.00000000000E+00  0.62477193645E+03  0.62477193646E+03  0.25500000920E-02 0.  1.
        2   -1    0    0  501    0  0.00000000000E+00  0.00000000000E+00 -0.11569745154E+04  0.11569745154E+04  0.25500000920E-02 0. -1.
    10030    2    1    2    0    0  0.00000000000E+00  0.00000000000E+00 -0.53220257891E+03  0.17817464518E+04  0.17004060790E+04 0.  0.
        1    1    3    3  502    0 -0.67689984744E+03  0.14836399825E+03  0.25004687680E+03  0.73670124207E+03  0.50400001928E-02 0.  1.
       -1    1    3    3    0  502  0.67689984744E+03 -0.14836399825E+03 -0.78224945571E+03  0.10450452098E+04  0.50400001928E-02 0. -1.
</event>
<event>
 5   0  0.1419012E-05  0.1698411E+04  0.7818609E-02  0.8762271E-01
       -2   -1    0    0    0  501  0.00000000000E+00  0.00000000000E+00  0.47768506073E+03  0.47768506074E+03  0.25500000920E-02 0.  1.
        2   -1    0    0  501    0  0.00000000000E+00  0.00000000000E+00 -0.15096769883E+04  0.15096769883E+04  0.25500000920E-02 0. -1.
    10030    2    1    2    0    0  0.00000000000E+00  0.00000000000E+00 -0.10319919276E+04  0.19873620490E+04  0.16984111915E+04 0.  0.
        4    1    3    3  502    0  0.72453207344E+03  0.15881550629E+03 -0.99984078287E+03  0.12449306384E+04  0.12699999809E+01 0. -1.
       -4    1    3    3    0  502 -0.72453207344E+03 -0.15881550629E+03 -0.32151144702E+02  0.74243141063E+03  0.12699999809E+01 0.  1.
</event>
<event>
 5   0  0.7583716E-06  0.1698655E+04  0.7818609E-02  0.8762132E-01
       -1   -1    0    0    0  501  0.00000000000E+00  0.00000000000E+00  0.12902901317E+04  0.12902901318E+04  0.50400001928E-02 0.  1.
        1   -1    0    0  501    0  0.00000000000E+00  0.00000000000E+00 -0.55906621437E+03  0.55906621439E+03  0.50400001928E-02 0. -1.
    10030    2    1    2    0    0  0.00000000000E+00  0.00000000000E+00  0.73122391738E+03  0.18493563461E+04  0.16986554912E+04 0.  0.
        5    1    3    3  502    0 -0.16892940645E+03  0.14188275754E+03  0.12585381697E+04  0.12777356048E+04  0.46999998093E+01 0.  1.
       -5    1    3    3    0  502  0.16892940645E+03 -0.14188275754E+03 -0.52731425230E+03  0.57162074134E+03  0.46999998093E+01 0. -1.
</event>
<event>
 5   0  0.1374441E-05  0.1700105E+04  0.7818609E-02  0.8761305E-01
       -2   -1    0    0    0  501  0.00000000000E+00  0.00000000000E+00  0.38610567669E+03  0.38610567670E+03  0.25500000920E-02 0.  1.
        2   -1    0    0  501    0  0.00000000000E+00  0.00000000000E+00 -0.18714794670E+04  0.18714794670E+04  0.25500000920E-02 0. -1.
    10030    2    1    2    0    0  0.00000000000E+00  0.00000000000E+00 -0.14853737903E+04  0.22575851437E+04  0.17001045215E+04 0.  0.
        1    1    3    3  502    0 -0.43070934258E+03 -0.46676690388E+03  0.75608451342E+01  0.63516851839E+03  0.50400001928E-02 0.  1.
       -1    1    3    3    0  502  0.43070934258E+03  0.46676690388E+03 -0.14929346355E+04  0.16224166253E+04  0.50400001928E-02 0. -1.
</event>
<event>
 5   0  0.1423543E-05  0.1699850E+04  0.7818609E-02  0.8761450E-01
       -2   -1    0    0    0  501  0.00000000000E+00  0.00000000000E+00  0.85509643710E+03  0.85509643711E+03  0.25500000920E-02 0.  1.
        2   -1    0    0  501    0  0.00000000000E+00  0.00000000000E+00 -0.84478531683E+03  0.84478531683E+03  0.25500000920E-02 0. -1.
    10030    2    1    2    0    0  0.00000000000E+00  0.00000000000E+00  0.10311120275E+02  0.16998817539E+04  0.16998504811E+04 0.  0.
        3    1    3    3  502    0  0.23891807456E+03 -0.40621630771E+03  0.71247287025E+03  0.85423131296E+03  0.10100000352E+00 0.  1.
       -3    1    3    3    0  502 -0.23891807456E+03  0.40621630771E+03 -0.70216174997E+03  0.84565044098E+03  0.10100000352E+00 0. -1.
</event>
<event>
 5   0  0.7455669E-06  0.1699235E+04  0.7818609E-02  0.8761801E-01
       -1   -1    0    0    0  501  0.00000000000E+00  0.00000000000E+00  0.65068540730E+03  0.65068540732E+03  0.50400001928E-02 0. -1.
        1   -1    0    0  501    0  0.00000000000E+00  0.00000000000E+00 -0.11093682199E+04  0.11093682199E+04  0.50400001928E-02 0.  1.
    10030    2    1    2    0    0  0.00000000000E+00  0.00000000000E+00 -0.45868281260E+03  0.17600536272E+04  0.16992347831E+04 0.  0.
        4    1    3    3  502    0 -0.24824428141E+03  0.21832992499E+03 -0.10400131341E+04  0.10912937787E+04  0.12699999809E+01 0.  1.
       -4    1    3    3    0  502  0.24824428141E+03 -0.21832992499E+03  0.58133032152E+03  0.66875984854E+03  0.12699999809E+01 0. -1.
</event>
<event>
 5   0  0.1441756E-05  0.1699997E+04  0.7818609E-02  0.8761366E-01
       -2   -1    0    0    0  501  0.00000000000E+00  0.00000000000E+00  0.45346523959E+03  0.45346523960E+03  0.25500000920E-02 0. -1.
        2   -1    0    0  501    0  0.00000000000E+00  0.00000000000E+00 -0.15932809582E+04  0.15932809582E+04  0.25500000920E-02 0.  1.
    10030    2    1    2    0    0  0.00000000000E+00  0.00000000000E+00 -0.11398157186E+04  0.20467461978E+04  0.16999970958E+04 0.  0.
        5    1    3    3  502    0  0.32060746532E+02  0.72203759284E+03 -0.31328865387E+02  0.72344299343E+03  0.46999998093E+01 0. -1.
       -5    1    3    3    0  502 -0.32060746532E+02 -0.72203759284E+03 -0.11084868532E+04  0.13233032044E+04  0.46999998093E+01 0.  1.
</event>
<event>
 5   0  0.1435301E-05  0.1699084E+04  0.7818609E-02  0.8761887E-01
        2   -1    0    0  501    0  0.00000000000E+00  0.00000000000E+00  0.14771773077E+04  0.14771773077E+04  0.25500000920E-02 0. -1.
       -2   -1    0    0    0  501  0.00000000000E+00  0.00000000000E+00 -0.48858175851E+03  0.48858175852E+03  0.25500000920E-02 0.  1.
    10030    2    1    2    0    0  0.00000000000E+00  0.00000000000E+00  0.98859554918E+03  0.19657590662E+04  0.16990843259E+04 0.  0.
        2    1    3    3  502    0  0.60235571452E+03 -0.20299532221E+03  0.11463943463E+04  0.13108239793E+04  0.25500000920E-02 0. -1.
       -2    1    3    3    0  502 -0.60235571452E+03  0.20299532221E+03 -0.15779879708E+03  0.65493508688E+03  0.25500000920E-02 0.  1.
</event>
<event>
 5   0  0.1435301E-05  0.1699626E+04  0.7818609E-02  0.8761578E-01
       -2   -1    0    0    0  501  0.00000000000E+00  0.00000000000E+00  0.69692379627E+03  0.69692379628E+03  0.25500000920E-02 0. -1.
        2   -1    0    0  501    0  0.00000000000E+00  0.00000000000E+00 -0.10362427824E+04  0.10362427824E+04  0.25500000920E-02 0.  1.
    10030    2    1    2    0    0  0.00000000000E+00  0.00000000000E+00 -0.33931898616E+03  0.17331665787E+04  0.16996261398E+04 0.  0.
        2    1    3    3  502    0  0.66357561202E+03 -0.46850732814E+03  0.84969017035E+02  0.81673217351E+03  0.25500000920E-02 0. -1.
       -2    1    3    3    0  502 -0.66357561202E+03  0.46850732814E+03 -0.42428800320E+03  0.91643440521E+03  0.25500000920E-02 0.  1.
</event>
<event>
 5   0  0.7461128E-06  0.1700754E+04  0.7818609E-02  0.8760934E-01
        1   -1    0    0  501    0  0.00000000000E+00  0.00000000000E+00  0.87544894709E+03  0.87544894710E+03  0.50400001928E-02 0.  1.
       -1   -1    0    0    0  501  0.00000000000E+00  0.00000000000E+00 -0.82602332321E+03  0.82602332323E+03  0.50400001928E-02 0. -1.
    10030    2    1    2    0    0  0.00000000000E+00  0.00000000000E+00  0.49425623876E+02  0.17014722703E+04  0.17007542428E+04 0.  0.
        3    1    3    3  502    0  0.11932335270E+03  0.34851479160E+03 -0.74205751491E+03  0.82846242407E+03  0.10100000352E+00 0. -1.
       -3    1    3    3    0  502 -0.11932335270E+03 -0.34851479160E+03  0.79148313879E+03  0.87300984625E+03  0.10100000352E+00 0.  1.
</event>
<event>
 5   0  0.7476457E-06  0.1700027E+04  0.7818609E-02  0.8761349E-01
       -1   -1    0    0    0  501  0.00000000000E+00  0.00000000000E+00  0.98657955565E+03  0.98657955566E+03  0.50400001928E-02 0.  1.
        1   -1    0    0  501    0  0.00000000000E+00  0.00000000000E+00 -0.73235104765E+03  0.73235104766E+03  0.50400001928E-02 0. -1.
    10030    2    1    2    0    0  0.00000000000E+00  0.00000000000E+00  0.25422850800E+03  0.17189306033E+04  0.17000265541E+04 0.  0.
        2    1    3    3  502    0  0.21244206687E+03 -0.34781089873E+03 -0.62711509221E+03  0.74791536415E+03  0.25500000920E-02 0. -1.
       -2    1    3    3    0  502 -0.21244206687E+03  0.34781089873E+03  0.88134360021E+03  0.97101523917E+03  0.25500000920E-02 0.  1.
</event>
<event>
 5   0  0.1374441E-05  0.1696567E+04  0.7818609E-02  0.8763325E-01
       -2   -1    0    0    0  501  0.00000000000E+00  0.00000000000E+00  0.46526759454E+03  0.46526759454E+03  0.25500000920E-02 0. -1.
        2   -1    0    0  501    0  0.00000000000E+00  0.00000000000E+00 -0.15466045938E+04  0.15466045938E+04  0.25500000920E-02 0.  1.
    10030    2    1    2    0    0  0.00000000000E+00  0.00000000000E+00 -0.10813369992E+04  0.20118721883E+04  0.16965671210E+04 0.  0.
        1    1    3    3  502    0 -0.28277212202E+02 -0.81645693653E+03 -0.26977672742E+03  0.86033773171E+03  0.50400001928E-02 0. -1.
       -1    1    3    3    0  502  0.28277212202E+02  0.81645693653E+03 -0.81156027182E+03  0.11515344566E+04  0.50400001928E-02 0.  1.
</event>
<event>
 5   0  0.5229750E-06  0.1697411E+04  0.7818609E-02  0.8762842E-01
       -4   -1    0    0    0  501  0.00000000000E+00  0.00000000000E+00  0.76353568402E+03  0.76353674022E+03  0.12699999809E+01 0. -1.
        4   -1    0    0  501    0  0.00000000000E+00  0.00000000000E+00 -0.94337400478E+03  0.94337485963E+03  0.12699999809E+01 0.  1.
    10030    2    1    2    0    0  0.00000000000E+00  0.00000000000E+00 -0.17983832076E+03  0.17069115999E+04  0.16974113786E+04 0.  0.
        5    1    3    3  502    0 -0.77497330765E+03  0.32830638993E+03 -0.19966541700E+03  0.86501854430E+03  0.46999998093E+01 0. -1.
       -5    1    3    3    0  502  0.77497330765E+03 -0.32830638993E+03  0.19827096246E+02  0.84189305555E+03  0.46999998093E+01 0.  1.
</event>
<event>
 5   0  0.7583716E-06  0.1703065E+04  0.7818609E-02  0.8759618E-01
        1   -1    0    0  501    0  0.00000000000E+00  0.00000000000E+00  0.10777943151E+04  0.10777943151E+04  0.50400001928E-02 0. -1.
       -1   -1    0    0    0  501  0.00000000000E+00  0.00000000000E+00 -0.67276980802E+03  0.67276980804E+03  0.50400001928E-02 0.  1.
    10030    2    1    2    0    0  0.00000000000E+00  0.00000000000E+00  0.40502450704E+03  0.17505641231E+04  0.17030648543E+04 0.  0.
        5    1    3    3  502    0  0.24663302142E+03  0.56383070238E+03 -0.40241894809E+03  0.73532034379E+03  0.46999998093E+01 0.  1.
       -5    1    3    3    0  502 -0.24663302142E+03 -0.56383070238E+03  0.80744345513E+03  0.10152437793E+04  0.46999998093E+01 0. -1.
</event>
<event>
 5   0  0.1441756E-05  0.1700547E+04  0.7818609E-02  0.8761052E-01
        2   -1    0    0  501    0  0.00000000000E+00  0.00000000000E+00  0.19337075807E+04  0.19337075807E+04  0.25500000920E-02 0. -1.
       -2   -1    0    0    0  501  0.00000000000E+00  0.00000000000E+00 -0.37387502393E+03  0.37387502393E+03  0.25500000920E-02 0.  1.
    10030    2    1    2    0    0  0.00000000000E+00  0.00000000000E+00  0.15598325568E+04  0.23075826047E+04  0.17005469332E+04 0.  0.
        5    1    3    3  502    0  0.79748175680E+03 -0.86707028704E+02  0.39743597874E+03  0.89525008151E+03  0.46999998093E+01 0.  1.
       -5    1    3    3    0  502 -0.79748175680E+03  0.86707028704E+02  0.11623965781E+04  0.14123325232E+04  0.46999998093E+01 0. -1.
</event>
<event>
 5   0  0.7476457E-06  0.1697930E+04  0.7818609E-02  0.8762546E-01
        1   -1    0    0  501    0  0.00000000000E+00  0.00000000000E+00  0.25178381468E+04  0.25178381468E+04  0.50400001928E-02 0. -1.
       -1   -1    0    0    0  501  0.00000000000E+00  0.00000000000E+00 -0.28625422973E+03  0.28625422978E+03  0.50400001928E-02 0.  1.
    10030    2    1    2    0    0  0.00000000000E+00  0.00000000000E+00  0.22315839170E+04  0.28040923766E+04  0.16979302923E+04 0.  0.
        2    1    3    3  502    0  0.58588188572E+03 -0.33313300850E+03  0.19683549414E+04  0.20805423237E+04  0.25500000920E-02 0. -1.
       -2    1    3    3    0  502 -0.58588188572E+03  0.33313300850E+03  0.26322897565E+03  0.72355005286E+03  0.25500000920E-02 0.  1.
</event>
<event>
 5   0  0.7461128E-06  0.1699209E+04  0.7818609E-02  0.8761816E-01
        1   -1    0    0  501    0  0.00000000000E+00  0.00000000000E+00  0.13579867469E+04  0.13579867469E+04  0.50400001928E-02 0.  1.
       -1   -1    0    0    0  501  0.00000000000E+00  0.00000000000E+00 -0.53154244967E+03  0.53154244969E+03  0.50400001928E-02 0. -1.
    10030    2    1    2    0    0  0.00000000000E+00  0.00000000000E+00  0.82644429722E+03  0.18895291966E+04  0.16992087595E+04 0.  0.
        3    1    3    3  502    0 -0.52408171096E+03 -0.62280887808E+02 -0.32714883119E+03  0.62094034875E+03  0.10100000352E+00 0. -1.
       -3    1    3    3    0  502  0.52408171096E+03  0.62280887808E+02  0.11535931284E+04  0.12685888478E+04  0.10100000352E+00 0.  1.
</event>
<event>
 5   0  0.7583716E-06  0.1712561E+04  0.7818609E-02  0.8754233E-01
        1   -1    0    0  501    0  0.00000000000E+00  0.00000000000E+00  0.94205542845E+03  0.94205542846E+03  0.50400001928E-02 0. -1.
       -1   -1    0    0    0  501  0.00000000000E+00  0.00000000000E+00 -0.77831510620E+03  0.77831510622E+03  0.50400001928E-02 0.  1.
    10030    2    1    2    0    0  0.00000000000E+00  0.00000000000E+00  0.16374032225E+03  0.17203705347E+04  0.17125606218E+04 0.  0.
        5    1    3    3  502    0  0.26458238352E+03 -0.50161630525E+03 -0.56259358456E+03  0.79884691071E+03  0.46999998093E+01 0.  1.
       -5    1    3    3    0  502 -0.26458238352E+03  0.50161630525E+03  0.72633390681E+03  0.92152362397E+03  0.46999998093E+01 0. -1.
</event>
<event>
 5   0  0.1435301E-05  0.1699732E+04  0.7818609E-02  0.8761517E-01
        2   -1    0    0  501    0  0.00000000000E+00  0.00000000000E+00  0.56598321330E+03  0.56598321331E+03  0.25500000920E-02 0. -1.
       -2   -1    0    0    0  501  0.00000000000E+00  0.00000000000E+00 -0.12761369611E+04  0.12761369612E+04  0.25500000920E-02 0.  1.
    10030    2    1    2    0    0  0.00000000000E+00  0.00000000000E+00 -0.71015374784E+03  0.18421201745E+04  0.16997318587E+04 0.  0.
        2    1    3    3  502    0 -0.37747027791E+03 -0.58045112862E+03  0.17901972016E+03  0.71516108929E+03  0.25500000920E-02 0. -1.
       -2    1    3    3    0  502  0.37747027791E+03  0.58045112862E+03 -0.88917346801E+03  0.11269590852E+04  0.25500000920E-02 0.  1.
</event>
<event>
 5   0  0.1374441E-05  0.1698776E+04  0.7818609E-02  0.8762062E-01
       -2   -1    0    0    0  501  0.00000000000E+00  0.00000000000E+00  0.10284749970E+04  0.10284749970E+04  0.25500000920E-02 0. -1.
        2   -1    0    0  501    0  0.00000000000E+00  0.00000000000E+00 -0.70148556835E+03  0.70148556835E+03  0.25500000920E-02 0.  1.
    10030    2    1    2    0    0  0.00000000000E+00  0.00000000000E+00  0.32698942862E+03  0.17299605653E+04  0.16987764630E+04 0.  0.
        1    1    3    3  502    0 -0.30634719405E+03 -0.74919482657E+03  0.42574655665E+03  0.91454995598E+03  0.50400001928E-02 0. -1.
       -1    1    3    3    0  502  0.30634719405E+03  0.74919482657E+03 -0.98757128027E+02  0.81541060934E+03  0.50400001928E-02 0.  1.
</event>
<event>
 5   0  0.7461128E-06  0.1699964E+04  0.7818609E-02  0.8761385E-01
       -1   -1    0    0    0  501  0.00000000000E+00  0.00000000000E+00  0.49369730890E+03  0.49369730893E+03  0.50400001928E-02 0. -1.
        1   -1    0    0  501    0  0.00000000000E+00  0.00000000000E+00 -0.14633857806E+04  0.14633857807E+04  0.50400001928E-02 0.  1.
    10030    2    1    2    0    0  0.00000000000E+00  0.00000000000E+00 -0.96968847175E+03  0.19570830896E+04  0.16999642606E+04 0.  0.
        3    1    3    3  502    0 -0.15572175080E+03 -0.58612079217E+02  0.47476557948E+03  0.50307753395E+03  0.10100000352E+00 0. -1.
       -3    1    3    3    0  502  0.15572175080E+03  0.58612079217E+02 -0.14444540512E+04  0.14540055556E+04  0.10100000352E+00 0.  1.
</event>
<event>
 5   0  0.1374441E-05  0.1700309E+04  0.7818609E-02  0.8761188E-01
       -2   -1    0    0    0  501  0.00000000000E+00  0.00000000000E+00  0.60118640891E+03  0.60118640891E+03  0.25500000920E-02 0.  1.
        2   -1    0    0  501    0  0.00000000000E+00  0.00000000000E+00 -0.12022272481E+04  0.12022272481E+04  0.25500000920E-02 0. -1.
    10030    2    1    2    0    0  0.00000000000E+00  0.00000000000E+00 -0.60104083922E+03  0.18034136570E+04  0.17003090096E+04 0.  0.
        1    1    3    3  502    0 -0.31166064931E+03 -0.53937293261E+03  0.31310027840E+03  0.69719961640E+03  0.50400001928E-02 0. -1.
       -1    1    3    3    0  502  0.31166064931E+03  0.53937293261E+03 -0.91414111762E+03  0.11062140406E+04  0.50400001928E-02 0.  1.
</event>
<event>
 5   0  0.1374441E-05  0.1700472E+04  0.7818609E-02  0.8761095E-01
       -2   -1    0    0    0  501  0.00000000000E+00  0.00000000000E+00  0.41833239808E+03  0.41833239809E+03  0.25500000920E-02 0. -1.
        2   -1    0    0  501    0  0.00000000000E+00  0.00000000000E+00 -0.17280554206E+04  0.17280554206E+04  0.25500000920E-02 0.  1.
    10030    2    1    2    0    0  0.00000000000E+00  0.00000000000E+00 -0.13097230226E+04  0.21463878187E+04  0.17004723675E+04 0.  0.
        1    1    3    3  502    0 -0.61225973243E+03  0.58509856080E+03 -0.55957137701E+03  0.10150479948E+04  0.50400001928E-02 0.  1.
       -1    1    3    3    0  502  0.61225973243E+03 -0.58509856080E+03 -0.75015164556E+03  0.11313398239E+04  0.50400001928E-02 0. -1.
</event>
<event>
 5   0  0.1441756E-05  0.1700061E+04  0.7818609E-02  0.8761329E-01
       -2   -1    0    0    0  501  0.00000000000E+00  0.00000000000E+00  0.12541911644E+04  0.12541911644E+04  0.25500000920E-02 0. -1.
        2   -1    0    0  501    0  0.00000000000E+00  0.00000000000E+00 -0.57611012087E+03  0.57611012088E+03  0.25500000920E-02 0.  1.
    10030    2    1    2    0    0  0.00000000000E+00  0.00000000000E+00  0.67808104354E+03  0.18303012853E+04  0.17000614381E+04 0.  0.
        5    1    3    3  502    0 -0.14089405226E+03 -0.80459718623E+03  0.85860268922E+02  0.82135366428E+03  0.46999998093E+01 0.  1.
       -5    1    3    3    0  502  0.14089405226E+03  0.80459718623E+03  0.59222077462E+03  0.10089476210E+04  0.46999998093E+01 0. -1.
</event>
<event>
 5   0  0.1423543E-05  0.1701042E+04  0.7818609E-02  0.8760770E-01
       -2   -1    0    0    0  501  0.00000000000E+00  0.00000000000E+00  0.37875583216E+03  0.37875583216E+03  0.25500000920E-02 0. -1.
        2   -1    0    0  501    0  0.00000000000E+00  0.00000000000E+00 -0.19099003489E+04  0.19099003489E+04  0.25500000920E-02 0.  1.
    10030    2    1    2    0    0  0.00000000000E+00  0.00000000000E+00 -0.15311445167E+04  0.22886561810E+04  0.17010419113E+04 0.  0.
        3    1    3    3  502    0  0.75368672909E+02 -0.81515257375E+03 -0.45515144495E+03  0.93665201830E+03  0.10100000352E+00 0.  1.
       -3    1    3    3    0  502 -0.75368672909E+02  0.81515257375E+03 -0.10759930718E+04  0.13520041627E+04  0.10100000352E+00 0. -1.
</event>
<event>
 5   0  0.7082527E-06  0.1699862E+04  0.7818609E-02  0.8761443E-01
       -1   -1    0    0    0  501  0.00000000000E+00  0.00000000000E+00  0.52512795866E+03  0.52512795868E+03  0.50400001928E-02 0.  1.
        1   -1    0    0  501    0  0.00000000000E+00  0.00000000000E+00 -0.13756315147E+04  0.13756315147E+04  0.50400001928E-02 0. -1.
    10030    2    1    2    0    0  0.00000000000E+00  0.00000000000E+00 -0.85050355606E+03  0.19007594734E+04  0.16998618405E+04 0.  0.
        1    1    3    3  502    0 -0.32849751484E+02 -0.51972866344E+01  0.52440006539E+03  0.52545365787E+03  0.50400001928E-02 0.  1.
       -1    1    3    3    0  502  0.32849751484E+02  0.51972866344E+01 -0.13749036214E+04  0.13753058155E+04  0.50400001928E-02 0. -1.
</event>
<event>
 5   0  0.7082527E-06  0.1700508E+04  0.7818609E-02  0.8761075E-01
        1   -1    0    0  501    0  0.00000000000E+00  0.00000000000E+00  0.78437926178E+03  0.78437926180E+03  0.50400001928E-02 0.  1.
       -1   -1    0    0    0  501  0.00000000000E+00  0.00000000000E+00 -0.92166098162E+03  0.92166098164E+03  0.50400001928E-02 0. -1.
    10030    2    1    2    0    0  0.00000000000E+00  0.00000000000E+00 -0.13728171984E+03  0.17060402434E+04  0.17005078775E+04 0.  0.
        1    1    3    3  502    0 -0.40805699816E+03  0.64571868241E+03 -0.44331083415E+03  0.88316908135E+03  0.50400001928E-02 0.  1.
       -1    1    3    3    0  502  0.40805699816E+03 -0.64571868241E+03  0.30602911430E+03  0.82287116208E+03  0.50400001928E-02 0. -1.
</event>
<event>
 5   0  0.7082527E-06  0.1700292E+04  0.7818609E-02  0.8761198E-01
       -1   -1    0    0    0  501  0.00000000000E+00  0.00000000000E+00  0.84213015210E+03  0.84213015212E+03  0.50400001928E-02 0.  1.
        1   -1    0    0  501    0  0.00000000000E+00  0.00000000000E+00 -0.85823845631E+03  0.85823845633E+03  0.50400001928E-02 0. -1.
    10030    2    1    2    0    0  0.00000000000E+00  0.00000000000E+00 -0.16108304212E+02  0.17003686084E+04  0.17002923064E+04 0.  0.
        1    1    3    3  502    0  0.38712870027E+03  0.16730213405E+03 -0.74625382226E+03  0.85717757897E+03  0.50400001928E-02 0. -1.
       -1    1    3    3    0  502 -0.38712870027E+03 -0.16730213405E+03  0.73014551805E+03  0.84319102947E+03  0.50400001928E-02 0.  1.
</event>
<event>
 5   0  0.1441756E-05  0.1699609E+04  0.7818609E-02  0.8761587E-01
       -2   -1    0    0    0  501  0.00000000000E+00  0.00000000000E+00  0.50862311486E+03  0.50862311486E+03  0.25500000920E-02 0.  1.
        2   -1    0    0  501    0  0.00000000000E+00  0.00000000000E+00 -0.14198480228E+04  0.14198480228E+04  0.25500000920E-02 0. -1.
    10030    2    1    2    0    0  0.00000000000E+00  0.00000000000E+00 -0.91122490793E+03  0.19284711376E+04  0.16996088067E+04 0.  0.
        5    1    3    3  502    0 -0.29512177026E+03 -0.35468194190E+03  0.35409733326E+03  0.58163833317E+03  0.46999998093E+01 0.  1.
       -5    1    3    3    0  502  0.29512177026E+03  0.35468194190E+03 -0.12653222412E+04  0.13468328045E+04  0.46999998093E+01 0. -1.
</event>
<event>
 5   0  0.1374441E-05  0.1700202E+04  0.7818609E-02  0.8761249E-01
       -2   -1    0    0    0  501  0.00000000000E+00  0.00000000000E+00  0.38760152763E+03  0.38760152764E+03  0.25500000920E-02 0.  1.
        2   -1    0    0  501    0  0.00000000000E+00  0.00000000000E+00 -0.18644702175E+04  0.18644702175E+04  0.25500000920E-02 0. -1.
    10030    2    1    2    0    0  0.00000000000E+00  0.00000000000E+00 -0.14768686898E+04  0.22520717451E+04  0.17002017581E+04 0.  0.
        1    1    3    3  502    0 -0.19136468565E+03 -0.56035642193E+03 -0.15463823856E+04  0.16558738615E+04  0.50400001928E-02 0. -1.
       -1    1    3    3    0  502  0.19136468565E+03  0.56035642193E+03  0.69513695796E+02  0.59619788363E+03  0.50400001928E-02 0.  1.
</event>
<event>
 5   0  0.7583716E-06  0.1699395E+04  0.7818609E-02  0.8761710E-01
       -1   -1    0    0    0  501  0.00000000000E+00  0.00000000000E+00  0.85969641132E+03  0.85969641133E+03  0.50400001928E-02 0.  1.
        1   -1    0    0  501    0  0.00000000000E+00  0.00000000000E+00 -0.83981480578E+03  0.83981480579E+03  0.50400001928E-02 0. -1.
    10030    2    1    2    0    0  0.00000000000E+00  0.00000000000E+00  0.19881605542E+02  0.16995112171E+04  0.16993949214E+04 0.  0.
        5    1    3    3  502    0 -0.84732318873E+03 -0.47946469750E+02 -0.31392820428E+02  0.84927207025E+03  0.46999998093E+01 0.  1.
       -5    1    3    3    0  502  0.84732318873E+03  0.47946469750E+02  0.51274425970E+02  0.85023914688E+03  0.46999998093E+01 0. -1.
</event>
<event>
 5   0  0.7461128E-06  0.1700359E+04  0.7818609E-02  0.8761159E-01
       -1   -1    0    0    0  501  0.00000000000E+00  0.00000000000E+00  0.44963093105E+03  0.44963093108E+03  0.50400001928E-02 0. -1.
        1   -1    0    0  501    0  0.00000000000E+00  0.00000000000E+00 -0.16075531013E+04  0.16075531014E+04  0.50400001928E-02 0.  1.
    10030    2    1    2    0    0  0.00000000000E+00  0.00000000000E+00 -0.11579221703E+04  0.20571840324E+04  0.17003594887E+04 0.  0.
        3    1    3    3  502    0 -0.39275273309E+03 -0.39945481663E+03  0.19476457948E+03  0.59308693418E+03  0.10100000352E+00 0. -1.
       -3    1    3    3    0  502  0.39275273309E+03  0.39945481663E+03 -0.13526867498E+04  0.14640970982E+04  0.10100000352E+00 0.  1.
</event>
<event>
 5   0  0.1374441E-05  0.1701297E+04  0.7818609E-02  0.8760625E-01
        2   -1    0    0  501    0  0.00000000000E+00  0.00000000000E+00  0.20132096752E+04  0.20132096752E+04  0.25500000920E-02 0.  1.
       -2   -1    0    0    0  501  0.00000000000E+00  0.00000000000E+00 -0.35942764448E+03  0.35942764449E+03  0.25500000920E-02 0. -1.
    10030    2    1    2    0    0  0.00000000000E+00  0.00000000000E+00  0.16537820307E+04  0.23726373197E+04  0.17012974007E+04 0.  0.
        1    1    3    3  502    0 -0.56038345749E+03  0.37085636614E+03  0.99501860685E+02  0.67931191955E+03  0.50400001928E-02 0. -1.
       -1    1    3    3    0  502  0.56038345749E+03 -0.37085636614E+03  0.15542801700E+04  0.16933254001E+04  0.50400001928E-02 0.  1.
</event>
<event>
 5   0  0.7082527E-06  0.1699503E+04  0.7818609E-02  0.8761648E-01
        1   -1    0    0  501    0  0.00000000000E+00  0.00000000000E+00  0.15558324892E+04  0.15558324892E+04  0.50400001928E-02 0. -1.
       -1   -1    0    0    0  501  0.00000000000E+00  0.00000000000E+00 -0.46411009451E+03  0.46411009454E+03  0.50400001928E-02 0.  1.
    10030    2    1    2    0    0  0.00000000000E+00  0.00000000000E+00  0.10917223947E+04  0.20199425838E+04  0.16995029434E+04 0.  0.
        1    1    3    3  502    0 -0.39278905574E+03 -0.68708521896E+03  0.17816280527E+03  0.81124060896E+03  0.50400001928E-02 0. -1.
       -1    1    3    3    0  502  0.39278905574E+03  0.68708521896E+03  0.91355958943E+03  0.12087019748E+04  0.50400001928E-02 0.  1.
</event>
<event>
 5   0  0.7476457E-06  0.1699412E+04  0.7818609E-02  0.8761700E-01
       -1   -1    0    0    0  501  0.00000000000E+00  0.00000000000E+00  0.91387651414E+03  0.91387651415E+03  0.50400001928E-02 0. -1.
        1   -1    0    0  501    0  0.00000000000E+00  0.00000000000E+00 -0.79004095438E+03  0.79004095439E+03  0.50400001928E-02 0.  1.
    10030    2    1    2    0    0  0.00000000000E+00  0.00000000000E+00  0.12383555976E+03  0.17039174685E+04  0.16994115140E+04 0.  0.
        2    1    3    3  502    0 -0.26774229723E+03  0.38582024043E+03  0.77193144684E+03  0.90356037667E+03  0.25500000920E-02 0. -1.
       -2    1    3    3    0  502  0.26774229723E+03 -0.38582024043E+03 -0.64809588708E+03  0.80035709187E+03  0.25500000920E-02 0.  1.
</event>
<event>
 5   0  0.7455669E-06  0.1699991E+04  0.7818609E-02  0.8761370E-01
       -1   -1    0    0    0  501  0.00000000000E+00  0.00000000000E+00  0.47653384605E+03  0.47653384608E+03  0.50400001928E-02 0.  1.
        1   -1    0    0  501    0  0.00000000000E+00  0.00000000000E+00 -0.15161401623E+04  0.15161401623E+04  0.50400001928E-02 0. -1.
    10030    2    1    2    0    0  0.00000000000E+00  0.00000000000E+00 -0.10396063162E+04  0.19926740083E+04  0.16999907090E+04 0.  0.
        4    1    3    3  502    0  0.26142360164E+03  0.71477692117E+03 -0.96343745491E+03  0.12277873142E+04  0.12699999809E+01 0. -1.
       -4    1    3    3    0  502 -0.26142360164E+03 -0.71477692117E+03 -0.76168861302E+02  0.76488669413E+03  0.12699999809E+01 0.  1.
</event>
<event>
 5   0  0.7455669E-06  0.1700475E+04  0.7818609E-02  0.8761093E-01
       -1   -1    0    0    0  501  0.00000000000E+00  0.00000000000E+00  0.43856242482E+03  0.43856242485E+03  0.50400001928E-02 0. -1.
        1   -1    0    0  501    0  0.00000000000E+00  0.00000000000E+00 -0.16483490478E+04  0.16483490478E+04  0.50400001928E-02 0.  1.
    10030    2    1    2    0    0  0.00000000000E+00  0.00000000000E+00 -0.12097866229E+04  0.20869114726E+04  0.17004751752E+04 0.  0.
        4    1    3    3  502    0 -0.49724147741E+03 -0.57504584672E+02 -0.14483524952E+04  0.15324106589E+04  0.12699999809E+01 0.  1.
       -4    1    3    3    0  502  0.49724147741E+03  0.57504584672E+02  0.23856587229E+03  0.55450081374E+03  0.12699999809E+01 0. -1.
</event>
<event>
 5   0  0.7082527E-06  0.1699471E+04  0.7818609E-02  0.8761666E-01
       -1   -1    0    0    0  501  0.00000000000E+00  0.00000000000E+00  0.12690898028E+04  0.12690898028E+04  0.50400001928E-02 0.  1.
        1   -1    0    0  501    0  0.00000000000E+00  0.00000000000E+00 -0.56895123657E+03  0.56895123659E+03  0.50400001928E-02 0. -1.
    10030    2    1    2    0    0  0.00000000000E+00  0.00000000000E+00  0.70013856625E+03  0.18380410394E+04  0.16994707560E+04 0.  0.
        1    1    3    3  502    0 -0.60613395673E+03 -0.37243174043E+03  0.85266007847E+03  0.11104652107E+04  0.50400001928E-02 0.  1.
       -1    1    3    3    0  502  0.60613395673E+03  0.37243174043E+03 -0.15252151222E+03  0.72757582869E+03  0.50400001928E-02 0. -1.
</event>
<event>
 5   0  0.7461128E-06  0.1700286E+04  0.7818609E-02  0.8761201E-01
        1   -1    0    0  501    0  0.00000000000E+00  0.00000000000E+00  0.85825270674E+03  0.85825270675E+03  0.50400001928E-02 0.  1.
       -1   -1    0    0    0  501  0.00000000000E+00  0.00000000000E+00 -0.84210990400E+03  0.84210990401E+03  0.50400001928E-02 0. -1.
    10030    2    1    2    0    0  0.00000000000E+00  0.00000000000E+00  0.16142802741E+02  0.17003626108E+04  0.17002859812E+04 0.  0.
        3    1    3    3  502    0 -0.43012365666E+03 -0.34044484036E+03  0.65758819773E+03  0.85634764982E+03  0.10100000352E+00 0.  1.
       -3    1    3    3    0  502  0.43012365666E+03  0.34044484036E+03 -0.64144539499E+03  0.84401496095E+03  0.10100000352E+00 0. -1.
</event>
<event>
 5   0  0.7455669E-06  0.1700423E+04  0.7818609E-02  0.8761123E-01
        1   -1    0    0  501    0  0.00000000000E+00  0.00000000000E+00  0.49177272543E+03  0.49177272545E+03  0.50400001928E-02 0.  1.
       -1   -1    0    0    0  501  0.00000000000E+00  0.00000000000E+00 -0.14699062774E+04  0.14699062775E+04  0.50400001928E-02 0. -1.
    10030    2    1    2    0    0  0.00000000000E+00  0.00000000000E+00 -0.97813355202E+03  0.19616790029E+04  0.17004232605E+04 0.  0.
        4    1    3    3  502    0  0.13044120862E+03  0.49603526914E+03  0.29319436361E+03  0.59078798641E+03  0.12699999809E+01 0.  1.
       -4    1    3    3    0  502 -0.13044120862E+03 -0.49603526914E+03 -0.12713279156E+04  0.13708910165E+04  0.12699999809E+01 0. -1.
</event>
<event>
 5   0  0.1423543E-05  0.1699092E+04  0.7818609E-02  0.8761882E-01
        2   -1    0    0  501    0  0.00000000000E+00  0.00000000000E+00  0.17074155138E+04  0.17074155138E+04  0.25500000920E-02 0.  1.
       -2   -1    0    0    0  501  0.00000000000E+00  0.00000000000E+00 -0.42270225506E+03  0.42270225506E+03  0.25500000920E-02 0. -1.
    10030    2    1    2    0    0  0.00000000000E+00  0.00000000000E+00  0.12847132588E+04  0.21301177689E+04  0.16990919787E+04 0.  0.
        3    1    3    3  502    0  0.55369685430E+03  0.31019742461E+03 -0.65640511836E+02  0.63805276874E+03  0.10100000352E+00 0.  1.
       -3    1    3    3    0  502 -0.55369685430E+03 -0.31019742461E+03  0.13503537706E+04  0.14920650002E+04  0.10100000352E+00 0. -1.
</event>
<event>
 5   0  0.7476457E-06  0.1698609E+04  0.7818609E-02  0.8762158E-01
        1   -1    0    0  501    0  0.00000000000E+00  0.00000000000E+00  0.84274589323E+03  0.84274589324E+03  0.50400001928E-02 0.  1.
       -1   -1    0    0    0  501  0.00000000000E+00  0.00000000000E+00 -0.85591406876E+03  0.85591406877E+03  0.50400001928E-02 0. -1.
    10030    2    1    2    0    0  0.00000000000E+00  0.00000000000E+00 -0.13168175532E+02  0.16986599620E+04  0.16986089208E+04 0.  0.
        2    1    3    3  502    0 -0.41113729264E+03 -0.70839083407E+03 -0.23123860519E+03  0.85107152445E+03  0.25500000920E-02 0.  1.
       -2    1    3    3    0  502  0.41113729264E+03  0.70839083407E+03  0.21807042966E+03  0.84758843757E+03  0.25500000920E-02 0. -1.
</event>
<event>
 5   0  0.7461128E-06  0.1699932E+04  0.7818609E-02  0.8761403E-01
       -1   -1    0    0    0  501  0.00000000000E+00  0.00000000000E+00  0.51342446008E+03  0.51342446010E+03  0.50400001928E-02 0. -1.
        1   -1    0    0  501    0  0.00000000000E+00  0.00000000000E+00 -0.14071050738E+04  0.14071050738E+04  0.50400001928E-02 0.  1.
    10030    2    1    2    0    0  0.00000000000E+00  0.00000000000E+00 -0.89368061372E+03  0.19205295339E+04  0.16999319549E+04 0.  0.
        3    1    3    3  502    0  0.31097836620E+03 -0.72451059134E+03 -0.80556450188E+03  0.11271900098E+04  0.10100000352E+00 0. -1.
       -3    1    3    3    0  502 -0.31097836620E+03  0.72451059134E+03 -0.88116111840E+02  0.79333952415E+03  0.10100000352E+00 0.  1.
</event>
<event>
 5   0  0.7476457E-06  0.1699910E+04  0.7818609E-02  0.8761415E-01
        1   -1    0    0  501    0  0.00000000000E+00  0.00000000000E+00  0.10762736193E+04  0.10762736194E+04  0.50400001928E-02 0. -1.
       -1   -1    0    0    0  501  0.00000000000E+00  0.00000000000E+00 -0.67122698923E+03  0.67122698925E+03  0.50400001928E-02 0.  1.
    10030    2    1    2    0    0  0.00000000000E+00  0.00000000000E+00  0.40504663011E+03  0.17475006086E+04  0.16999104696E+04 0.  0.
        2    1    3    3  502    0  0.42375715191E+03  0.56925248878E+03  0.68338512466E+03  0.98520746464E+03  0.25500000920E-02 0. -1.
       -2    1    3    3    0  502 -0.42375715191E+03 -0.56925248878E+03 -0.27833849455E+03  0.76229314396E+03  0.25500000920E-02 0.  1.
</event>
<event>
 5   0  0.1374441E-05  0.1699623E+04  0.7818609E-02  0.8761580E-01
        2   -1    0    0  501    0  0.00000000000E+00  0.00000000000E+00  0.18393374952E+04  0.18393374952E+04  0.25500000920E-02 0. -1.
       -2   -1    0    0    0  501  0.00000000000E+00  0.00000000000E+00 -0.39263008043E+03  0.39263008044E+03  0.25500000920E-02 0.  1.
    10030    2    1    2    0    0  0.00000000000E+00  0.00000000000E+00  0.14467074147E+04  0.22319675756E+04  0.16996225801E+04 0.  0.
        1    1    3    3  502    0 -0.21388953675E+03  0.52511923617E+03  0.15546089065E+04  0.16547833086E+04  0.50400001928E-02 0. -1.
       -1    1    3    3    0  502  0.21388953675E+03 -0.52511923617E+03 -0.10790149179E+03  0.57718426701E+03  0.50400001928E-02 0.  1.
</event>
<event>
 5   0  0.7082527E-06  0.1699769E+04  0.7818609E-02  0.8761496E-01
       -1   -1    0    0    0  501  0.00000000000E+00  0.00000000000E+00  0.94308037719E+03  0.94308037721E+03  0.50400001928E-02 0. -1.
        1   -1    0    0  501    0  0.00000000000E+00  0.00000000000E+00 -0.76589790686E+03  0.76589790688E+03  0.50400001928E-02 0.  1.
    10030    2    1    2    0    0  0.00000000000E+00  0.00000000000E+00  0.17718247033E+03  0.17089782841E+04  0.16997685571E+04 0.  0.
        1    1    3    3  502    0 -0.28472627274E+03  0.57126949848E+03  0.65277815459E+03  0.91298258988E+03  0.50400001928E-02 0. -1.
       -1    1    3    3    0  502  0.28472627274E+03 -0.57126949848E+03 -0.47559568426E+03  0.79599569421E+03  0.50400001928E-02 0.  1.
</event>
<event>
 5   0  0.1435301E-05  0.1700016E+04  0.7818609E-02  0.8761355E-01
       -2   -1    0    0    0  501  0.00000000000E+00  0.00000000000E+00  0.84457916534E+03  0.84457916535E+03  0.25500000920E-02 0.  1.
        2   -1    0    0  501    0  0.00000000000E+00  0.00000000000E+00 -0.85547184715E+03  0.85547184715E+03  0.25500000920E-02 0. -1.
    10030    2    1    2    0    0  0.00000000000E+00  0.00000000000E+00 -0.10892681808E+02  0.17000510125E+04  0.17000161160E+04 0.  0.
        2    1    3    3  502    0 -0.52520764938E+03 -0.47397543320E+03 -0.47664378071E+03  0.85304459435E+03  0.25500000920E-02 0. -1.
       -2    1    3    3    0  502  0.52520764938E+03  0.47397543320E+03  0.46575109891E+03  0.84700641815E+03  0.25500000920E-02 0.  1.
</event>
<event>
 5   0  0.5229750E-06  0.1699258E+04  0.7818609E-02  0.8761787E-01
        3   -1    0    0  501    0  0.00000000000E+00  0.00000000000E+00  0.79806226761E+03  0.79806227400E+03  0.10100000352E+00 0.  1.
       -3   -1    0    0    0  501  0.00000000000E+00  0.00000000000E+00 -0.90452823049E+03  0.90452823613E+03  0.10100000352E+00 0. -1.
    10030    2    1    2    0    0  0.00000000000E+00  0.00000000000E+00 -0.10646596287E+03  0.17025905101E+04  0.16992584983E+04 0.  0.
        2    1    3    3  502    0 -0.62146864331E+03  0.56384765950E+02 -0.63096342740E+03  0.88742175045E+03  0.25500000920E-02 0. -1.
       -2    1    3    3    0  502  0.62146864331E+03 -0.56384765950E+02  0.52449746453E+03  0.81516875968E+03  0.25500000920E-02 0.  1.
</event>
<event>
 5   0  0.7082527E-06  0.1700841E+04  0.7818609E-02  0.8760885E-01
       -1   -1    0    0    0  501  0.00000000000E+00  0.00000000000E+00  0.69718756998E+03  0.69718756999E+03  0.50400001928E-02 0.  1.
        1   -1    0    0  501    0  0.00000000000E+00  0.00000000000E+00 -0.10373323805E+04  0.10373323805E+04  0.50400001928E-02 0. -1.
    10030    2    1    2    0    0  0.00000000000E+00  0.00000000000E+00 -0.34014481048E+03  0.17345199505E+04  0.17008412526E+04 0.  0.
        1    1    3    3  502    0  0.74403985903E+03 -0.35386016913E+03 -0.38496489492E+03  0.90940106744E+03  0.50400001928E-02 0. -1.
       -1    1    3    3    0  502 -0.74403985903E+03  0.35386016913E+03  0.44820084437E+02  0.82511888302E+03  0.50400001928E-02 0.  1.
</event>
<event>
 5   0  0.7461128E-06  0.1699755E+04  0.7818609E-02  0.8761504E-01
       -1   -1    0    0    0  501  0.00000000000E+00  0.00000000000E+00  0.70807553813E+03  0.70807553815E+03  0.50400001928E-02 0.  1.
        1   -1    0    0  501    0  0.00000000000E+00  0.00000000000E+00 -0.10200776643E+04  0.10200776643E+04  0.50400001928E-02 0. -1.
    10030    2    1    2    0    0  0.00000000000E+00  0.00000000000E+00 -0.31200212613E+03  0.17281532024E+04  0.16997553249E+04 0.  0.
        3    1    3    3  502    0  0.82865319509E+03  0.79886567701E+02 -0.32986703193E+03  0.89546649875E+03  0.10100000352E+00 0. -1.
       -3    1    3    3    0  502 -0.82865319509E+03 -0.79886567701E+02  0.17864905798E+02  0.83268670368E+03  0.10100000352E+00 0.  1.
</event>
<event>
 5   0  0.1423543E-05  0.1701047E+04  0.7818609E-02  0.8760768E-01
        2   -1    0    0  501    0  0.00000000000E+00  0.00000000000E+00  0.20769750876E+04  0.20769750876E+04  0.25500000920E-02 0. -1.
       -2   -1    0    0    0  501  0.00000000000E+00  0.00000000000E+00 -0.34829011701E+03  0.34829011702E+03  0.25500000920E-02 0.  1.
    10030    2    1    2    0    0  0.00000000000E+00  0.00000000000E+00  0.17286849706E+04  0.24252652046E+04  0.17010466146E+04 0.  0.
        3    1    3    3  502    0  0.14062044221E+03  0.59507833262E+02  0.20572730883E+04  0.20629318604E+04  0.10100000352E+00 0. -1.
       -3    1    3    3    0  502 -0.14062044221E+03 -0.59507833262E+02 -0.32858811769E+03  0.36233334414E+03  0.10100000352E+00 0.  1.
</event>
<event>
 5   0  0.1419012E-05  0.1699574E+04  0.7818609E-02  0.8761607E-01
       -2   -1    0    0    0  501  0.00000000000E+00  0.00000000000E+00  0.57020967848E+03  0.57020967849E+03  0.25500000920E-02 0. -1.
        2   -1    0    0  501    0  0.00000000000E+00  0.00000000000E+00 -0.12664426714E+04  0.12664426714E+04  0.25500000920E-02 0.  1.
    10030    2    1    2    0    0  0.00000000000E+00  0.00000000000E+00 -0.69623299294E+03  0.18366523499E+04  0.16995739095E+04 0.  0.
        4    1    3    3  502    0  0.29965600065E+03  0.65295375304E+03  0.14235538930E+03  0.73239947576E+03  0.12699999809E+01 0. -1.
       -4    1    3    3    0  502 -0.29965600065E+03 -0.65295375304E+03 -0.83858838224E+03  0.11042528741E+04  0.12699999809E+01 0.  1.
</event>
<event>
 5   0  0.7082527E-06  0.1700174E+04  0.7818609E-02  0.8761265E-01
        1   -1    0    0  501    0  0.00000000000E+00  0.00000000000E+00  0.20138263995E+04  0.20138263995E+04  0.50400001928E-02 0. -1.
       -1   -1    0    0    0  501  0.00000000000E+00  0.00000000000E+00 -0.35884299618E+03  0.35884299621E+03  0.50400001928E-02 0.  1.
    10030    2    1    2    0    0  0.00000000000E+00  0.00000000000E+00  0.16549834033E+04  0.23726693957E+04  0.17001735194E+04 0.  0.
        1    1    3    3  502    0 -0.49625052600E+03 -0.33236035066E+03  0.16716750176E+04  0.17751691051E+04  0.50400001928E-02 0. -1.
       -1    1    3    3    0  502  0.49625052600E+03  0.33236035066E+03 -0.16691614300E+02  0.59750029059E+03  0.50400001928E-02 0.  1.
</event>
<event>
 5   0  0.7583716E-06  0.1699532E+04  0.7818609E-02  0.8761631E-01
       -1   -1    0    0    0  501  0.00000000000E+00  0.00000000000E+00  0.74737345094E+03  0.74737345095E+03  0.50400001928E-02 0.  1.
        1   -1    0    0  501    0  0.00000000000E+00  0.00000000000E+00 -0.96618650768E+03  0.96618650769E+03  0.50400001928E-02 0. -1.
    10030    2    1    2    0    0  0.00000000000E+00  0.00000000000E+00 -0.21881305674E+03  0.17135599586E+04  0.16995318703E+04 0.  0.
        5    1    3    3  502    0 -0.71390667488E+03  0.44529567353E+03  0.10440395527E+02  0.84147612513E+03  0.46999998093E+01 0.  1.
       -5    1    3    3    0  502  0.71390667488E+03 -0.44529567353E+03 -0.22925345227E+03  0.87208383352E+03  0.46999998093E+01 0. -1.
</event>
<event>
 5   0  0.1423543E-05  0.1699173E+04  0.7818609E-02  0.8761836E-01
       -2   -1    0    0    0  501  0.00000000000E+00  0.00000000000E+00  0.64142470727E+03  0.64142470728E+03  0.25500000920E-02 0.  1.
        2   -1    0    0  501    0  0.00000000000E+00  0.00000000000E+00 -0.11253033126E+04  0.11253033126E+04  0.25500000920E-02 0. -1.
    10030    2    1    2    0    0  0.00000000000E+00  0.00000000000E+00 -0.48387860529E+03  0.17667280198E+04  0.16991731493E+04 0.  0.
        3    1    3    3  502    0 -0.20581938623E+03  0.25684903517E+03 -0.10563185616E+04  0.11064094904E+04  0.10100000352E+00 0. -1.
       -3    1    3    3    0  502  0.20581938623E+03 -0.25684903517E+03  0.57243995629E+03  0.66031852948E+03  0.10100000352E+00 0.  1.
</event>
<event>
 5   0  0.7455669E-06  0.1700304E+04  0.7818609E-02  0.8761191E-01
       -1   -1    0    0    0  501  0.00000000000E+00  0.00000000000E+00  0.34940783986E+03  0.34940783990E+03  0.50400001928E-02 0.  1.
        1   -1    0    0  501    0  0.00000000000E+00  0.00000000000E+00 -0.20685245550E+04  0.20685245550E+04  0.50400001928E-02 0. -1.
    10030    2    1    2    0    0  0.00000000000E+00  0.00000000000E+00 -0.17191167151E+04  0.24179323949E+04  0.17003043216E+04 0.  0.
        4    1    3    3  502    0  0.38113993301E+02  0.71002574802E+03 -0.19686097484E+03  0.73779746248E+03  0.12699999809E+01 0.  1.
       -4    1    3    3    0  502 -0.38113993301E+02 -0.71002574802E+03 -0.15222557403E+04  0.16801349324E+04  0.12699999809E+01 0. -1.
</event>
<event>
 5   0  0.1423543E-05  0.1700151E+04  0.7818609E-02  0.8761278E-01
        2   -1    0    0  501    0  0.00000000000E+00  0.00000000000E+00  0.56130749792E+03  0.56130749792E+03  0.25500000920E-02 0.  1.
       -2   -1    0    0    0  501  0.00000000000E+00  0.00000000000E+00 -0.12874023230E+04  0.12874023230E+04  0.25500000920E-02 0. -1.
    10030    2    1    2    0    0  0.00000000000E+00  0.00000000000E+00 -0.72609482508E+03  0.18487098209E+04  0.17001512600E+04 0.  0.
        3    1    3    3  502    0  0.26332644489E+03  0.23383410369E+03  0.47825655886E+03  0.59392638510E+03  0.10100000352E+00 0.  1.
       -3    1    3    3    0  502 -0.26332644489E+03 -0.23383410369E+03 -0.12043513839E+04  0.12547834358E+04  0.10100000352E+00 0. -1.
</event>
<event>
 5   0  0.7583716E-06  0.1700488E+04  0.7818609E-02  0.8761086E-01
        1   -1    0    0  501    0  0.00000000000E+00  0.00000000000E+00  0.56696673172E+03  0.56696673174E+03  0.50400001928E-02 0. -1.
       -1   -1    0    0    0  501  0.00000000000E+00  0.00000000000E+00 -0.12750565278E+04  0.12750565278E+04  0.50400001928E-02 0.  1.
    10030    2    1    2    0    0  0.00000000000E+00  0.00000000000E+00 -0.70808979609E+03  0.18420232596E+04  0.17004877328E+04 0.  0.
        5    1    3    3  502    0  0.44902109281E+03 -0.67120228153E+03 -0.64219303694E+03  0.10317782859E+04  0.46999998093E+01 0.  1.
       -5    1    3    3    0  502 -0.44902109281E+03  0.67120228153E+03 -0.65896759150E+02  0.81024497369E+03  0.46999998093E+01 0. -1.
</event>
<event>
 5   0  0.7476457E-06  0.1700087E+04  0.7818609E-02  0.8761315E-01
       -1   -1    0    0    0  501  0.00000000000E+00  0.00000000000E+00  0.73340993730E+03  0.73340993732E+03  0.50400001928E-02 0. -1.
        1   -1    0    0  501    0  0.00000000000E+00  0.00000000000E+00 -0.98522510323E+03  0.98522510324E+03  0.50400001928E-02 0.  1.
    10030    2    1    2    0    0  0.00000000000E+00  0.00000000000E+00 -0.25181516593E+03  0.17186350406E+04  0.17000869169E+04 0.  0.
        2    1    3    3  502    0 -0.49402280895E+03  0.68958400766E+03 -0.70637125228E+02  0.85121926838E+03  0.25500000920E-02 0.  1.
       -2    1    3    3    0  502  0.49402280895E+03 -0.68958400766E+03 -0.18117804070E+03  0.86741577218E+03  0.25500000920E-02 0. -1.
</event>
<event>
 5   0  0.1441756E-05  0.1700168E+04  0.7818609E-02  0.8761269E-01
       -2   -1    0    0    0  501  0.00000000000E+00  0.00000000000E+00  0.75752896205E+03  0.75752896206E+03  0.25500000920E-02 0. -1.
        2   -1    0    0  501    0  0.00000000000E+00  0.00000000000E+00 -0.95394750695E+03  0.95394750695E+03  0.25500000920E-02 0.  1.
    10030    2    1    2    0    0  0.00000000000E+00  0.00000000000E+00 -0.19641854490E+03  0.17114764690E+04  0.17001680679E+04 0.  0.
        5    1    3    3  502    0  0.13543266158E+03 -0.80693473124E+03 -0.33025301592E+03  0.88236886325E+03  0.46999998093E+01 0. -1.
       -5    1    3    3    0  502 -0.13543266158E+03  0.80693473124E+03  0.13383447102E+03  0.82910760576E+03  0.46999998093E+01 0.  1.
</event>
<event>
 5   0  0.7082527E-06  0.1700206E+04  0.7818609E-02  0.8761247E-01
       -1   -1    0    0    0  501  0.00000000000E+00  0.00000000000E+00  0.43200548706E+03  0.43200548709E+03  0.50400001928E-02 0.  1.
        1   -1    0    0  501    0  0.00000000000E+00  0.00000000000E+00 -0.16728372692E+04  0.16728372692E+04  0.50400001928E-02 0. -1.
    10030    2    1    2    0    0  0.00000000000E+00  0.00000000000E+00 -0.12408317821E+04  0.21048427563E+04  0.17002057279E+04 0.  0.
        1    1    3    3  502    0  0.78626450236E+02  0.75837003713E+03 -0.15494428129E+03  0.77801989834E+03  0.50400001928E-02 0.  1.
       -1    1    3    3    0  502 -0.78626450236E+02 -0.75837003713E+03 -0.10858875009E+04  0.13268228580E+04  0.50400001928E-02 0. -1.
</event>
<event>
 5   0  0.7082527E-06  0.1698615E+04  0.7818609E-02  0.8762155E-01
        1   -1    0    0  501    0  0.00000000000E+00  0.00000000000E+00  0.77935914786E+03  0.77935914788E+03  0.50400001928E-02 0.  1.
       -1   -1    0    0    0  501  0.00000000000E+00  0.00000000000E+00 -0.92553384488E+03  0.92553384489E+03  0.50400001928E-02 0. -1.
    10030    2    1    2    0    0  0.00000000000E+00  0.00000000000E+00 -0.14617469701E+03  0.17048929928E+04  0.16986150461E+04 0.  0.
        1    1    3    3  502    0  0.53553296189E+02 -0.34833361234E+03  0.70250337689E+03  0.78594863419E+03  0.50400001928E-02 0.  1.
       -1    1    3    3    0  502 -0.53553296189E+02  0.34833361234E+03 -0.84867807390E+03  0.91894435858E+03  0.50400001928E-02 0. -1.
</event>
<event>
 5   0  0.1423543E-05  0.1699404E+04  0.7818609E-02  0.8761704E-01
       -2   -1    0    0    0  501  0.00000000000E+00  0.00000000000E+00  0.38929091248E+03  0.38929091249E+03  0.25500000920E-02 0.  1.
        2   -1    0    0  501    0  0.00000000000E+00  0.00000000000E+00 -0.18546379232E+04  0.18546379232E+04  0.25500000920E-02 0. -1.
    10030    2    1    2    0    0  0.00000000000E+00  0.00000000000E+00 -0.14653470107E+04  0.22439288357E+04  0.16994042361E+04 0.  0.
        3    1    3    3  502    0 -0.83565138576E+03 -0.12307981896E+03 -0.85463779426E+03  0.12016104402E+04  0.10100000352E+00 0. -1.
       -3    1    3    3    0  502  0.83565138576E+03  0.12307981896E+03 -0.61070921645E+03  0.10423183955E+04  0.10100000352E+00 0.  1.
</event>
<event>
 5   0  0.7455669E-06  0.1700002E+04  0.7818609E-02  0.8761363E-01
       -1   -1    0    0    0  501  0.00000000000E+00  0.00000000000E+00  0.64168158554E+03  0.64168158556E+03  0.50400001928E-02 0.  1.
        1   -1    0    0  501    0  0.00000000000E+00  0.00000000000E+00 -0.11259504578E+04  0.11259504578E+04  0.50400001928E-02 0. -1.
    10030    2    1    2    0    0  0.00000000000E+00  0.00000000000E+00 -0.48426887222E+03  0.17676320433E+04  0.17000019706E+04 0.  0.
        4    1    3    3  502    0  0.18896547418E+02  0.46761773514E+03 -0.97992331068E+03  0.10859441668E+04  0.12699999809E+01 0. -1.
       -4    1    3    3    0  502 -0.18896547418E+02 -0.46761773514E+03  0.49565443846E+03  0.68168787651E+03  0.12699999809E+01 0.  1.
</event>
<event>
 5   0  0.7082527E-06  0.1701027E+04  0.7818609E-02  0.8760779E-01
       -1   -1    0    0    0  501  0.00000000000E+00  0.00000000000E+00  0.15477347391E+04  0.15477347391E+04  0.50400001928E-02 0. -1.
        1   -1    0    0  501    0  0.00000000000E+00  0.00000000000E+00 -0.46737560923E+03  0.46737560925E+03  0.50400001928E-02 0.  1.
    10030    2    1    2    0    0  0.00000000000E+00  0.00000000000E+00  0.10803591299E+04  0.20151103483E+04  0.17010272974E+04 0.  0.
        1    1    3    3  502    0  0.23812242112E+03  0.35076461178E+03 -0.33327717685E+03  0.53926966997E+03  0.50400001928E-02 0.  1.
       -1    1    3    3    0  502 -0.23812242112E+03 -0.35076461178E+03  0.14136363067E+04  0.14758406784E+04  0.50400001928E-02 0. -1.
</event>
<event>
 5   0  0.1441756E-05  0.1699632E+04  0.7818609E-02  0.8761575E-01
        2   -1    0    0  501    0  0.00000000000E+00  0.00000000000E+00  0.14007449861E+04  0.14007449861E+04  0.25500000920E-02 0. -1.
       -2   -1    0    0    0  501  0.00000000000E+00  0.00000000000E+00 -0.51557341125E+03  0.51557341125E+03  0.25500000920E-02 0.  1.
    10030    2    1    2    0    0  0.00000000000E+00  0.00000000000E+00  0.88517157484E+03  0.19163183973E+04  0.16996315727E+04 0.  0.
        5    1    3    3  502    0 -0.41623908723E+03  0.19514132717E+03  0.12484297083E+04  0.13303886432E+04  0.46999998093E+01 0. -1.
       -5    1    3    3    0  502  0.41623908723E+03 -0.19514132717E+03 -0.36325813346E+03  0.58592975418E+03  0.46999998093E+01 0.  1.
</event>
<event>
 5   0  0.7583716E-06  0.1700479E+04  0.7818609E-02  0.8761091E-01
        1   -1    0    0  501    0  0.00000000000E+00  0.00000000000E+00  0.90422982784E+03  0.90422982785E+03  0.50400001928E-02 0. -1.
       -1   -1    0    0    0  501  0.00000000000E+00  0.00000000000E+00 -0.79947254331E+03  0.79947254333E+03  0.50400001928E-02 0.  1.
    10030    2    1    2    0    0  0.00000000000E+00  0.00000000000E+00  0.10475728453E+03  0.17037023712E+04  0.17004786623E+04 0.  0.
        5    1    3    3  502    0  0.65991712899E+03 -0.18989835163E+02 -0.48439219120E+03  0.81884621015E+03  0.46999998093E+01 0.  1.
       -5    1    3    3    0  502 -0.65991712899E+03  0.18989835163E+02  0.58914947573E+03  0.88485616104E+03  0.46999998093E+01 0. -1.
</event>
<event>
 5   0  0.1423543E-05  0.1699430E+04  0.7818609E-02  0.8761690E-01
       -2   -1    0    0    0  501  0.00000000000E+00  0.00000000000E+00  0.13176591433E+04  0.13176591433E+04  0.25500000920E-02 0. -1.
        2   -1    0    0  501    0  0.00000000000E+00  0.00000000000E+00 -0.54795297947E+03  0.54795297948E+03  0.25500000920E-02 0.  1.
    10030    2    1    2    0    0  0.00000000000E+00  0.00000000000E+00  0.76970616383E+03  0.18656121228E+04  0.16994296143E+04 0.  0.
        3    1    3    3  502    0 -0.40093604282E+03 -0.52034996166E+03 -0.20683432422E+03  0.68869023581E+03  0.10100000352E+00 0.  1.
       -3    1    3    3    0  502  0.40093604282E+03  0.52034996166E+03  0.97654048805E+03  0.11769218870E+04  0.10100000352E+00 0. -1.
</event>
<event>
 5   0  0.7476457E-06  0.1698800E+04  0.7818609E-02  0.8762049E-01
       -1   -1    0    0    0  501  0.00000000000E+00  0.00000000000E+00  0.65631095317E+03  0.65631095319E+03  0.50400001928E-02 0. -1.
        1   -1    0    0  501    0  0.00000000000E+00  0.00000000000E+00 -0.10992964195E+04  0.10992964195E+04  0.50400001928E-02 0.  1.
    10030    2    1    2    0    0  0.00000000000E+00  0.00000000000E+00 -0.44298546629E+03  0.17556073727E+04  0.16987999069E+04 0.  0.
        2    1    3    3  502    0 -0.78577074002E+03  0.29272952537E+03 -0.81485290542E+02  0.84247616196E+03  0.25500000920E-02 0. -1.
       -2    1    3    3    0  502  0.78577074002E+03 -0.29272952537E+03 -0.36150017575E+03  0.91313121070E+03  0.25500000920E-02 0.  1.
</event>
<event>
 5   0  0.7455669E-06  0.1700147E+04  0.7818609E-02  0.8761280E-01
       -1   -1    0    0    0  501  0.00000000000E+00  0.00000000000E+00  0.87405433852E+03  0.87405433854E+03  0.50400001928E-02 0. -1.
        1   -1    0    0  501    0  0.00000000000E+00  0.00000000000E+00 -0.82675108107E+03  0.82675108108E+03  0.50400001928E-02 0.  1.
    10030    2    1    2    0    0  0.00000000000E+00  0.00000000000E+00  0.47303257457E+02  0.17008054196E+04  0.17001474869E+04 0.  0.
        4    1    3    3  502    0  0.33662172512E+03  0.58049485605E+03  0.54571112072E+03  0.86492236872E+03  0.12699999809E+01 0. -1.
       -4    1    3    3    0  502 -0.33662172512E+03 -0.58049485605E+03 -0.49840786327E+03  0.83588305090E+03  0.12699999809E+01 0.  1.
</event>
<event>
 5   0  0.7082527E-06  0.1699034E+04  0.7818609E-02  0.8761916E-01
       -1   -1    0    0    0  501  0.00000000000E+00  0.00000000000E+00  0.97680004654E+03  0.97680004655E+03  0.50400001928E-02 0.  1.
        1   -1    0    0  501    0  0.00000000000E+00  0.00000000000E+00 -0.73881965519E+03  0.73881965521E+03  0.50400001928E-02 0. -1.
    10030    2    1    2    0    0  0.00000000000E+00  0.00000000000E+00  0.23798039135E+03  0.17156197018E+04  0.16990339297E+04 0.  0.
        1    1    3    3  502    0  0.73859023630E+03 -0.26020505176E+03 -0.21355256772E+03  0.81168152950E+03  0.50400001928E-02 0.  1.
       -1    1    3    3    0  502 -0.73859023630E+03  0.26020505176E+03  0.45153295907E+03  0.90393817226E+03  0.50400001928E-02 0. -1.
</event>
<event>
 5   0  0.7455669E-06  0.1699800E+04  0.7818609E-02  0.8761478E-01
       -1   -1    0    0    0  501  0.00000000000E+00  0.00000000000E+00  0.67597880533E+03  0.67597880535E+03  0.50400001928E-02 0.  1.
        1   -1    0    0  501    0  0.00000000000E+00  0.00000000000E+00 -0.10685695361E+04  0.10685695361E+04  0.50400001928E-02 0. -1.
    10030    2    1    2    0    0  0.00000000000E+00  0.00000000000E+00 -0.39259073075E+03  0.17445483415E+04  0.16998004100E+04 0.  0.
        4    1    3    3  502    0  0.71290141244E+03 -0.44996267562E+03 -0.30699545439E+03  0.89718596469E+03  0.12699999809E+01 0. -1.
       -4    1    3    3    0  502 -0.71290141244E+03  0.44996267562E+03 -0.85595276363E+02  0.84736237676E+03  0.12699999809E+01 0.  1.
</event>
<event>
 5   0  0.1435301E-05  0.1699331E+04  0.7818609E-02  0.8761746E-01
        2   -1    0    0  501    0  0.00000000000E+00  0.00000000000E+00  0.16290529887E+04  0.16290529887E+04  0.25500000920E-02 0. -1.
       -2   -1    0    0    0  501  0.00000000000E+00  0.00000000000E+00 -0.44316013895E+03  0.44316013896E+03  0.25500000920E-02 0.  1.
    10030    2    1    2    0    0  0.00000000000E+00  0.00000000000E+00  0.11858928497E+04  0.20722131276E+04  0.16993308669E+04 0.  0.
        2    1    3    3  502    0  0.13068530171E+03  0.50643965732E+03 -0.22358990107E+03  0.56881650685E+03  0.25500000920E-02 0.  1.
       -2    1    3    3    0  502 -0.13068530171E+03 -0.50643965732E+03  0.14094827508E+04  0.15033966208E+04  0.25500000920E-02 0. -1.
</event>
<event>
 5   0  0.1374441E-05  0.1700148E+04  0.7818609E-02  0.8761280E-01
       -2   -1    0    0    0  501  0.00000000000E+00  0.00000000000E+00  0.66731144141E+03  0.66731144141E+03  0.25500000920E-02 0. -1.
        2   -1    0    0  501    0  0.00000000000E+00  0.00000000000E+00 -0.10828913968E+04  0.10828913968E+04  0.25500000920E-02 0.  1.
    10030    2    1    2    0    0  0.00000000000E+00  0.00000000000E+00 -0.41557995541E+03  0.17502028382E+04  0.17001480158E+04 0.  0.
        1    1    3    3  502    0 -0.22521309964E+03 -0.24606592840E+03  0.59712293705E+03  0.68397747284E+03  0.50400001928E-02 0. -1.
       -1    1    3    3    0  502  0.22521309964E+03  0.24606592840E+03 -0.10127028925E+04  0.10662253654E+04  0.50400001928E-02 0.  1.
</event>
<event>
 5   0  0.1423543E-05  0.1699745E+04  0.7818609E-02  0.8761510E-01
        2   -1    0    0  501    0  0.00000000000E+00  0.00000000000E+00  0.14384540872E+04  0.14384540872E+04  0.25500000920E-02 0. -1.
       -2   -1    0    0    0  501  0.00000000000E+00  0.00000000000E+00 -0.50212478574E+03  0.50212478574E+03  0.25500000920E-02 0.  1.
    10030    2    1    2    0    0  0.00000000000E+00  0.00000000000E+00  0.93632930148E+03  0.19405788730E+04  0.16997452166E+04 0.  0.
        3    1    3    3  502    0 -0.42015951101E+03  0.67488978066E+03  0.12513875057E+03  0.80477944049E+03  0.10100000352E+00 0.  1.
       -3    1    3    3    0  502  0.42015951101E+03 -0.67488978066E+03  0.81119055091E+03  0.11357994325E+04  0.10100000352E+00 0. -1.
</event>
<event>
 5   0  0.1374441E-05  0.1698311E+04  0.7818609E-02  0.8762328E-01
        2   -1    0    0  501    0  0.00000000000E+00  0.00000000000E+00  0.95722749117E+03  0.95722749117E+03  0.25500000920E-02 0. -1.
       -2   -1    0    0    0  501  0.00000000000E+00  0.00000000000E+00 -0.75328474314E+03  0.75328474315E+03  0.25500000920E-02 0.  1.
    10030    2    1    2    0    0  0.00000000000E+00  0.00000000000E+00  0.20394274803E+03  0.17105122343E+04  0.16983107664E+04 0.  0.
        1    1    3    3  502    0  0.17930789592E+03 -0.67146935802E+03 -0.38942983732E+03  0.79666681776E+03  0.50400001928E-02 0.  1.
       -1    1    3    3    0  502 -0.17930789592E+03  0.67146935802E+03  0.59337258534E+03  0.91384541656E+03  0.50400001928E-02 0. -1.
</event>
<event>
 5   0  0.1419012E-05  0.1698899E+04  0.7818609E-02  0.8761992E-01
       -2   -1    0    0    0  501  0.00000000000E+00  0.00000000000E+00  0.40778992637E+03  0.40778992638E+03  0.25500000920E-02 0.  1.
        2   -1    0    0  501    0  0.00000000000E+00  0.00000000000E+00 -0.17694521075E+04  0.17694521075E+04  0.25500000920E-02 0. -1.
    10030    2    1    2    0    0  0.00000000000E+00  0.00000000000E+00 -0.13616621812E+04  0.21772420339E+04  0.16988993433E+04 0.  0.
        4    1    3    3  502    0  0.36518712869E+02  0.37549246631E+02  0.40571713717E+03  0.40908626304E+03  0.12699999809E+01 0.  1.
       -4    1    3    3    0  502 -0.36518712869E+02 -0.37549246631E+02 -0.17673793183E+04  0.17681557709E+04  0.12699999809E+01 0. -1.
</event>
<event>
 5   0  0.7461128E-06  0.1699378E+04  0.7818609E-02  0.8761719E-01
        1   -1    0    0  501    0  0.00000000000E+00  0.00000000000E+00  0.96780009091E+03  0.96780009092E+03  0.50400001928E-02 0. -1.
       -1   -1    0    0    0  501  0.00000000000E+00  0.00000000000E+00 -0.74599218891E+03  0.74599218892E+03  0.50400001928E-02 0.  1.
    10030    2    1    2    0    0  0.00000000000E+00  0.00000000000E+00  0.22180790200E+03  0.17137922798E+04  0.16993778959E+04 0.  0.
        3    1    3    3  502    0  0.67889490107E+01  0.59955820396E+02 -0.74382885437E+03  0.74627217892E+03  0.10100000352E+00 0.  1.
       -3    1    3    3    0  502 -0.67889490107E+01 -0.59955820396E+02  0.96563675638E+03  0.96752010093E+03  0.10100000352E+00 0. -1.
</event>
<event>
 5   0  0.7082527E-06  0.1699836E+04  0.7818609E-02  0.8761458E-01
        1   -1    0    0  501    0  0.00000000000E+00  0.00000000000E+00  0.13296101382E+04  0.13296101382E+04  0.50400001928E-02 0. -1.
       -1   -1    0    0    0  501  0.00000000000E+00  0.00000000000E+00 -0.54328721738E+03  0.54328721741E+03  0.50400001928E-02 0.  1.
    10030    2    1    2    0    0  0.00000000000E+00  0.00000000000E+00  0.78632292077E+03  0.18728973556E+04  0.16998355123E+04 0.  0.
        1    1    3    3  502    0 -0.29917189424E+03 -0.17128722480E+03 -0.46279535177E+03  0.57708116702E+03  0.50400001928E-02 0.  1.
       -1    1    3    3    0  502  0.29917189424E+03  0.17128722480E+03  0.12491182725E+04  0.12958161885E+04  0.50400001928E-02 0. -1.
</event>
<event>
 5   0  0.5229750E-06  0.1700476E+04  0.7818609E-02  0.8761093E-01
       -3   -1    0    0    0  501  0.00000000000E+00  0.00000000000E+00  0.86762275698E+03  0.86762276286E+03  0.10100000352E+00 0.  1.
        3   -1    0    0  501    0  0.00000000000E+00  0.00000000000E+00 -0.83320136809E+03  0.83320137422E+03  0.10100000352E+00 0. -1.
    10030    2    1    2    0    0  0.00000000000E+00  0.00000000000E+00  0.34421388890E+02  0.17008241371E+04  0.17004757903E+04 0.  0.
        2    1    3    3  502    0  0.59886724734E+03  0.60114839497E+03  0.70916252296E+02  0.85149896509E+03  0.25500000920E-02 0.  1.
       -2    1    3    3    0  502 -0.59886724734E+03 -0.60114839497E+03 -0.36494863406E+02  0.84932517199E+03  0.25500000920E-02 0. -1.
</event>
<event>
 5   0  0.7082527E-06  0.1699504E+04  0.7818609E-02  0.8761647E-01
       -1   -1    0    0    0  501  0.00000000000E+00  0.00000000000E+00  0.53739386381E+03  0.53739386383E+03  0.50400001928E-02 0.  1.
        1   -1    0    0  501    0  0.00000000000E+00  0.00000000000E+00 -0.13436677352E+04  0.13436677352E+04  0.50400001928E-02 0. -1.
    10030    2    1    2    0    0  0.00000000000E+00  0.00000000000E+00 -0.80627387142E+03  0.18810615991E+04  0.16995043936E+04 0.  0.
        1    1    3    3  502    0 -0.22367347202E+03 -0.80839204767E+03 -0.25238338087E+03  0.87591374906E+03  0.50400001928E-02 0.  1.
       -1    1    3    3    0  502  0.22367347202E+03  0.80839204767E+03 -0.55389049054E+03  0.10051478500E+04  0.50400001928E-02 0. -1.
</event>
<event>
 5   0  0.7455669E-06  0.1700739E+04  0.7818609E-02  0.8760943E-01
       -1   -1    0    0    0  501  0.00000000000E+00  0.00000000000E+00  0.10398583210E+04  0.10398583210E+04  0.50400001928E-02 0.  1.
        1   -1    0    0  501    0  0.00000000000E+00  0.00000000000E+00 -0.69541068566E+03  0.69541068567E+03  0.50400001928E-02 0. -1.
    10030    2    1    2    0    0  0.00000000000E+00  0.00000000000E+00  0.34444763532E+03  0.17352690067E+04  0.17007393545E+04 0.  0.
        4    1    3    3  502    0  0.56053258187E+03 -0.15153959552E+03  0.80609870383E+03  0.99345747648E+03  0.12699999809E+01 0.  1.
       -4    1    3    3    0  502 -0.56053258187E+03  0.15153959552E+03 -0.46165106851E+03  0.74181153018E+03  0.12699999809E+01 0. -1.
</event>
<event>
 5   0  0.7461128E-06  0.1700745E+04  0.7818609E-02  0.8760940E-01
        1   -1    0    0  501    0  0.00000000000E+00  0.00000000000E+00  0.98908736541E+03  0.98908736543E+03  0.50400001928E-02 0.  1.
       -1   -1    0    0    0  501  0.00000000000E+00  0.00000000000E+00 -0.73111134488E+03  0.73111134490E+03  0.50400001928E-02 0. -1.
    10030    2    1    2    0    0  0.00000000000E+00  0.00000000000E+00  0.25797602053E+03  0.17201987103E+04  0.17007445357E+04 0.  0.
        3    1    3    3  502    0  0.72431109001E+03 -0.24885524609E+03 -0.24480321760E+03  0.80404235844E+03  0.10100000352E+00 0. -1.
       -3    1    3    3    0  502 -0.72431109001E+03  0.24885524609E+03  0.50277923813E+03  0.91615635189E+03  0.10100000352E+00 0.  1.
</event>
<event>
 5   0  0.1419012E-05  0.1701627E+04  0.7818609E-02  0.8760437E-01
       -2   -1    0    0    0  501  0.00000000000E+00  0.00000000000E+00  0.77022279280E+03  0.77022279281E+03  0.25500000920E-02 0.  1.
        2   -1    0    0  501    0  0.00000000000E+00  0.00000000000E+00 -0.93983697403E+03  0.93983697404E+03  0.25500000920E-02 0. -1.
    10030    2    1    2    0    0  0.00000000000E+00  0.00000000000E+00 -0.16961418123E+03  0.17100597668E+04  0.17016272905E+04 0.  0.
        4    1    3    3  502    0 -0.61981855196E+03 -0.26203324355E+03 -0.60800762462E+03  0.90692411070E+03  0.12699999809E+01 0. -1.
       -4    1    3    3    0  502  0.61981855196E+03  0.26203324355E+03  0.43839344339E+03  0.80313565615E+03  0.12699999809E+01 0.  1.
</event>
<event>
 5   0  0.7476457E-06  0.1699247E+04  0.7818609E-02  0.8761794E-01
       -1   -1    0    0    0  501  0.00000000000E+00  0.00000000000E+00  0.83770854804E+03  0.83770854806E+03  0.50400001928E-02 0. -1.
        1   -1    0    0  501    0  0.00000000000E+00  0.00000000000E+00 -0.86170811183E+03  0.86170811185E+03  0.50400001928E-02 0.  1.
    10030    2    1    2    0    0  0.00000000000E+00  0.00000000000E+00 -0.23999563792E+02  0.16994166599E+04  0.16992471877E+04 0.  0.
        2    1    3    3  502    0  0.47963558406E+03 -0.14916231027E+03 -0.69731301656E+03  0.85938648545E+03  0.25500000920E-02 0.  1.
       -2    1    3    3    0  502 -0.47963558406E+03  0.14916231027E+03  0.67331345277E+03  0.84003017445E+03  0.25500000920E-02 0. -1.
</event>
<event>
 5   0  0.7461128E-06  0.1700159E+04  0.7818609E-02  0.8761274E-01
        1   -1    0    0  501    0  0.00000000000E+00  0.00000000000E+00  0.13072934818E+04  0.13072934818E+04  0.50400001928E-02 0.  1.
       -1   -1    0    0    0  501  0.00000000000E+00  0.00000000000E+00 -0.55277164548E+03  0.55277164551E+03  0.50400001928E-02 0. -1.
    10030    2    1    2    0    0  0.00000000000E+00  0.00000000000E+00  0.75452183634E+03  0.18600651273E+04  0.17001585445E+04 0.  0.
        3    1    3    3  502    0  0.59138270570E+03  0.16888863886E+03  0.10192924435E+04  0.11904679637E+04  0.10100000352E+00 0.  1.
       -3    1    3    3    0  502 -0.59138270570E+03 -0.16888863886E+03 -0.26477060718E+03  0.66959716365E+03  0.10100000352E+00 0. -1.
</event>
<event>
 5   0  0.1441756E-05  0.1699553E+04  0.7818609E-02  0.8761619E-01
        2   -1    0    0  501    0  0.00000000000E+00  0.00000000000E+00  0.13478422033E+04  0.13478422033E+04  0.25500000920E-02 0. -1.
       -2   -1    0    0    0  501  0.00000000000E+00  0.00000000000E+00 -0.53575995034E+03  0.53575995035E+03  0.25500000920E-02 0.  1.
    10030    2    1    2    0    0  0.00000000000E+00  0.00000000000E+00  0.81208225293E+03  0.18836021536E+04  0.16995527316E+04 0.  0.
        5    1    3    3  502    0 -0.67261937851E+03  0.45931093533E+03  0.13749003890E+03  0.82601995403E+03  0.46999998093E+01 0.  1.
       -5    1    3    3    0  502  0.67261937851E+03 -0.45931093533E+03  0.67459221403E+03  0.10575821996E+04  0.46999998093E+01 0. -1.
</event>
<event>
 5   0  0.7476457E-06  0.1700793E+04  0.7818609E-02  0.8760912E-01
       -1   -1    0    0    0  501  0.00000000000E+00  0.00000000000E+00  0.78315733561E+03  0.78315733563E+03  0.50400001928E-02 0.  1.
        1   -1    0    0  501    0  0.00000000000E+00  0.00000000000E+00 -0.92340828768E+03  0.92340828770E+03  0.50400001928E-02 0. -1.
    10030    2    1    2    0    0  0.00000000000E+00  0.00000000000E+00 -0.14025095207E+03  0.17065656233E+04  0.17007927261E+04 0.  0.
        2    1    3    3  502    0 -0.79959341350E+03  0.28785586294E+03 -0.10126869869E+03  0.85584226005E+03  0.25500000920E-02 0.  1.
       -2    1    3    3    0  502  0.79959341350E+03 -0.28785586294E+03 -0.38982253380E+02  0.85072336328E+03  0.25500000920E-02 0. -1.
</event>
<event>
 5   0  0.7583716E-06  0.1699474E+04  0.7818609E-02  0.8761665E-01
       -1   -1    0    0    0  501  0.00000000000E+00  0.00000000000E+00  0.98488022644E+03  0.98488022645E+03  0.50400001928E-02 0. -1.
        1   -1    0    0  501    0  0.00000000000E+00  0.00000000000E+00 -0.73313749040E+03  0.73313749042E+03  0.50400001928E-02 0.  1.
    10030    2    1    2    0    0  0.00000000000E+00  0.00000000000E+00  0.25174273603E+03  0.17180177169E+04  0.16994735862E+04 0.  0.
        5    1    3    3  502    0  0.34628567677E+03  0.49362830955E+03 -0.47936666169E+03  0.77032276629E+03  0.46999998093E+01 0.  1.
       -5    1    3    3    0  502 -0.34628567677E+03 -0.49362830955E+03  0.73110939772E+03  0.94769495058E+03  0.46999998093E+01 0. -1.
</event>
<event>
 5   0  0.7583716E-06  0.1699826E+04  0.7818609E-02  0.8761464E-01
       -1   -1    0    0    0  501  0.00000000000E+00  0.00000000000E+00  0.38375181680E+03  0.38375181684E+03  0.50400001928E-02 0.  1.
        1   -1    0    0  501    0  0.00000000000E+00  0.00000000000E+00 -0.18823413370E+04  0.18823413370E+04  0.50400001928E-02 0. -1.
    10030    2    1    2    0    0  0.00000000000E+00  0.00000000000E+00 -0.14985895202E+04  0.22660931539E+04  0.16998257652E+04 0.  0.
        5    1    3    3  502    0 -0.18764891625E+03 -0.18056865612E+03 -0.18278251270E+04  0.18462892352E+04  0.46999998093E+01 0. -1.
       -5    1    3    3    0  502  0.18764891625E+03  0.18056865612E+03  0.32923560676E+03  0.41980391863E+03  0.46999998093E+01 0.  1.
</event>
<event>
 5   0  0.1435301E-05  0.1700119E+04  0.7818609E-02  0.8761297E-01
       -2   -1    0    0    0  501  0.00000000000E+00  0.00000000000E+00  0.96711734729E+03  0.96711734729E+03  0.25500000920E-02 0. -1.
        2   -1    0    0  501    0  0.00000000000E+00  0.00000000000E+00 -0.74717003769E+03  0.74717003770E+03  0.25500000920E-02 0.  1.
    10030    2    1    2    0    0  0.00000000000E+00  0.00000000000E+00  0.21994730959E+03  0.17142873850E+04  0.17001189427E+04 0.  0.
        2    1    3    3  502    0 -0.83652381579E+03  0.10048568217E+03 -0.38012461086E+01  0.84254609143E+03  0.25500000920E-02 0. -1.
       -2    1    3    3    0  502  0.83652381579E+03 -0.10048568217E+03  0.22374855570E+03  0.87174129356E+03  0.25500000920E-02 0.  1.
</event>
<event>
 5   0  0.1435301E-05  0.1698566E+04  0.7818609E-02  0.8762182E-01
       -2   -1    0    0    0  501  0.00000000000E+00  0.00000000000E+00  0.58239967585E+03  0.58239967586E+03  0.25500000920E-02 0.  1.
        2   -1    0    0  501    0  0.00000000000E+00  0.00000000000E+00 -0.12384654976E+04  0.12384654976E+04  0.25500000920E-02 0. -1.
    10030    2    1    2    0    0  0.00000000000E+00  0.00000000000E+00 -0.65606582174E+03  0.18208651735E+04  0.16985663418E+04 0.  0.
        2    1    3    3  502    0  0.36941996088E+03  0.41395522394E+03 -0.10173320808E+04  0.11587901438E+04  0.25500000920E-02 0. -1.
       -2    1    3    3    0  502 -0.36941996088E+03 -0.41395522394E+03  0.36126625901E+03  0.66207502961E+03  0.25500000920E-02 0.  1.
</event>
<event>
 5   0  0.1423543E-05  0.1698207E+04  0.7818609E-02  0.8762388E-01
        2   -1    0    0  501    0  0.00000000000E+00  0.00000000000E+00  0.88553175005E+03  0.88553175005E+03  0.25500000920E-02 0. -1.
       -2   -1    0    0    0  501  0.00000000000E+00  0.00000000000E+00 -0.81417397080E+03  0.81417397080E+03  0.25500000920E-02 0.  1.
    10030    2    1    2    0    0  0.00000000000E+00  0.00000000000E+00  0.71357779252E+02  0.16997057209E+04  0.16982071737E+04 0.  0.
        3    1    3    3  502    0  0.68696587545E+03  0.49893520690E+03  0.46571336985E+02  0.85031015186E+03  0.10100000352E+00 0. -1.
       -3    1    3    3    0  502 -0.68696587545E+03 -0.49893520690E+03  0.24786442267E+02  0.84939556900E+03  0.10100000352E+00 0.  1.
</event>
<event>
 5   0  0.1419012E-05  0.1699805E+04  0.7818609E-02  0.8761476E-01
        2   -1    0    0  501    0  0.00000000000E+00  0.00000000000E+00  0.86746932097E+03  0.86746932097E+03  0.25500000920E-02 0.  1.
       -2   -1    0    0    0  501  0.00000000000E+00  0.00000000000E+00 -0.83269150622E+03  0.83269150622E+03  0.25500000920E-02 0. -1.
    10030    2    1    2    0    0  0.00000000000E+00  0.00000000000E+00  0.34777814750E+02  0.17001608272E+04  0.16998050894E+04 0.  0.
        4    1    3    3  502    0 -0.59288531406E+03 -0.24973092435E+03 -0.53811384996E+03  0.83871726978E+03  0.12699999809E+01 0. -1.
       -4    1    3    3    0  502  0.59288531406E+03  0.24973092435E+03  0.57289166471E+03  0.86144355741E+03  0.12699999809E+01 0.  1.
</event>
<event>
 5   0  0.7082527E-06  0.1701183E+04  0.7818609E-02  0.8760690E-01
       -1   -1    0    0    0  501  0.00000000000E+00  0.00000000000E+00  0.47675541742E+03  0.47675541744E+03  0.50400001928E-02 0.  1.
        1   -1    0    0  501    0  0.00000000000E+00  0.00000000000E+00 -0.15175622363E+04  0.15175622363E+04  0.50400001928E-02 0. -1.
    10030    2    1    2    0    0  0.00000000000E+00  0.00000000000E+00 -0.10408068189E+04  0.19943176537E+04  0.17011831382E+04 0.  0.
        1    1    3    3  502    0  0.75288132159E+03 -0.24530887257E+01 -0.98442243898E+03  0.12393239449E+04  0.50400001928E-02 0.  1.
       -1    1    3    3    0  502 -0.75288132159E+03  0.24530887257E+01 -0.56384379879E+02  0.75499370882E+03  0.50400001928E-02 0. -1.
</event>
<event>
 5   0  0.1419012E-05  0.1699394E+04  0.7818609E-02  0.8761710E-01
        2   -1    0    0  501    0  0.00000000000E+00  0.00000000000E+00  0.13393226393E+04  0.13393226393E+04  0.25500000920E-02 0. -1.
       -2   -1    0    0    0  501  0.00000000000E+00  0.00000000000E+00 -0.53906746050E+03  0.53906746050E+03  0.25500000920E-02 0.  1.
    10030    2    1    2    0    0  0.00000000000E+00  0.00000000000E+00  0.80025517883E+03  0.18783900998E+04  0.16993943085E+04 0.  0.
        4    1    3    3  502    0 -0.46267441361E+03 -0.30050551997E+03  0.11144238152E+04  0.12435084372E+04  0.12699999809E+01 0. -1.
       -4    1    3    3    0  502  0.46267441361E+03  0.30050551997E+03 -0.31416863641E+03  0.63488166263E+03  0.12699999809E+01 0.  1.
</event>
<event>
 5   0  0.7455669E-06  0.1698996E+04  0.7818609E-02  0.8761937E-01
       -1   -1    0    0    0  501  0.00000000000E+00  0.00000000000E+00  0.67592085837E+03  0.67592085839E+03  0.50400001928E-02 0.  1.
        1   -1    0    0  501    0  0.00000000000E+00  0.00000000000E+00 -0.10676494735E+04  0.10676494735E+04  0.50400001928E-02 0. -1.
    10030    2    1    2    0    0  0.00000000000E+00  0.00000000000E+00 -0.39172861516E+03  0.17435703319E+04  0.16989956429E+04 0.  0.
        4    1    3    3  502    0 -0.44224472741E+02  0.54412732451E+03  0.47206831962E+03  0.72172048645E+03  0.12699999809E+01 0.  1.
       -4    1    3    3    0  502  0.44224472741E+02 -0.54412732451E+03 -0.86379693478E+03  0.10218498455E+04  0.12699999809E+01 0. -1.
</event>
<event>
 5   0  0.1374441E-05  0.1700351E+04  0.7818609E-02  0.8761164E-01
        2   -1    0    0  501    0  0.00000000000E+00  0.00000000000E+00  0.65618962121E+03  0.65618962121E+03  0.25500000920E-02 0.  1.
       -2   -1    0    0    0  501  0.00000000000E+00  0.00000000000E+00 -0.11015086344E+04  0.11015086344E+04  0.25500000920E-02 0. -1.
    10030    2    1    2    0    0  0.00000000000E+00  0.00000000000E+00 -0.44531901316E+03  0.17576982556E+04  0.17003511797E+04 0.  0.
        1    1    3    3  502    0 -0.49781056294E+03  0.47189965216E+03  0.29656964283E+03  0.74730060307E+03  0.50400001928E-02 0.  1.
       -1    1    3    3    0  502  0.49781056294E+03 -0.47189965216E+03 -0.74188865599E+03  0.10103976525E+04  0.50400001928E-02 0. -1.
</event>
<event>
 5   0  0.7461128E-06  0.1699407E+04  0.7818609E-02  0.8761703E-01
        1   -1    0    0  501    0  0.00000000000E+00  0.00000000000E+00  0.12067544968E+04  0.12067544968E+04  0.50400001928E-02 0. -1.
       -1   -1    0    0    0  501  0.00000000000E+00  0.00000000000E+00 -0.59829558657E+03  0.59829558659E+03  0.50400001928E-02 0.  1.
    10030    2    1    2    0    0  0.00000000000E+00  0.00000000000E+00  0.60845891020E+03  0.18050500834E+04  0.16994068254E+04 0.  0.
        3    1    3    3  502    0  0.24148921201E+03  0.46783810030E+03 -0.40416864602E+03  0.66373325382E+03  0.10100000352E+00 0.  1.
       -3    1    3    3    0  502 -0.24148921201E+03 -0.46783810030E+03  0.10126275562E+04  0.11413168295E+04  0.10100000352E+00 0. -1.
</event>
<event>
 5   0  0.1423543E-05  0.1695476E+04  0.7818609E-02  0.8763949E-01
       -2   -1    0    0    0  501  0.00000000000E+00  0.00000000000E+00  0.29613463774E+03  0.29613463776E+03  0.25500000920E-02 0.  1.
        2   -1    0    0  501    0  0.00000000000E+00  0.00000000000E+00 -0.24268014019E+04  0.24268014020E+04  0.25500000920E-02 0. -1.
    10030    2    1    2    0    0  0.00000000000E+00  0.00000000000E+00 -0.21306667642E+04  0.27229360397E+04  0.16954762801E+04 0.  0.
        3    1    3    3  502    0  0.92140892928E+02 -0.45214498045E+03 -0.22074414283E+04  0.22551546947E+04  0.10100000352E+00 0. -1.
       -3    1    3    3    0  502 -0.92140892928E+02  0.45214498045E+03  0.76774664081E+02  0.46778134501E+03  0.10100000352E+00 0.  1.
</event>
<event>
 5   0  0.7583716E-06  0.1698119E+04  0.7818609E-02  0.8762438E-01
        1   -1    0    0  501    0  0.00000000000E+00  0.00000000000E+00  0.12105188756E+04  0.12105188756E+04  0.50400001928E-02 0.  1.
       -1   -1    0    0    0  501  0.00000000000E+00  0.00000000000E+00 -0.59553111002E+03  0.59553111005E+03  0.50400001928E-02 0. -1.
    10030    2    1    2    0    0  0.00000000000E+00  0.00000000000E+00  0.61498776556E+03  0.18060499856E+04  0.16981185468E+04 0.  0.
        5    1    3    3  502    0  0.59990822444E+03 -0.48836436519E+03  0.67972437938E+03  0.10297751953E+04  0.46999998093E+01 0.  1.
       -5    1    3    3    0  502 -0.59990822444E+03  0.48836436519E+03 -0.64736613819E+02  0.77627479034E+03  0.46999998093E+01 0. -1.
</event>
<event>
 5   0  0.1374441E-05  0.1699585E+04  0.7818609E-02  0.8761601E-01
       -2   -1    0    0    0  501  0.00000000000E+00  0.00000000000E+00  0.49685636538E+03  0.49685636538E+03  0.25500000920E-02 0.  1.
        2   -1    0    0  501    0  0.00000000000E+00  0.00000000000E+00 -0.14534320232E+04  0.14534320232E+04  0.25500000920E-02 0. -1.
    10030    2    1    2    0    0  0.00000000000E+00  0.00000000000E+00 -0.95657565783E+03  0.19502883886E+04  0.16995845991E+04 0.  0.
        1    1    3    3  502    0 -0.44650612191E+03  0.31271451409E+03 -0.12263622848E+04  0.13420590664E+04  0.50400001928E-02 0. -1.
       -1    1    3    3    0  502  0.44650612191E+03 -0.31271451409E+03  0.26978662695E+03  0.60822932216E+03  0.50400001928E-02 0.  1.
</event>
<event>
 5   0  0.1423543E-05  0.1699332E+04  0.7818609E-02  0.8761745E-01
       -2   -1    0    0    0  501  0.00000000000E+00  0.00000000000E+00  0.44528187657E+03  0.44528187658E+03  0.25500000920E-02 0. -1.
        2   -1    0    0  501    0  0.00000000000E+00  0.00000000000E+00 -0.16212929068E+04  0.16212929068E+04  0.25500000920E-02 0.  1.
    10030    2    1    2    0    0  0.00000000000E+00  0.00000000000E+00 -0.11760110303E+04  0.20665747834E+04  0.16993320429E+04 0.  0.
        3    1    3    3  502    0 -0.59149417419E+03  0.36855212700E+03  0.30744020263E+01  0.69692574250E+03  0.10100000352E+00 0. -1.
       -3    1    3    3    0  502  0.59149417419E+03 -0.36855212700E+03 -0.11790854323E+04  0.13696490409E+04  0.10100000352E+00 0.  1.
</event>
<event>
 5   0  0.5229750E-06  0.1698177E+04  0.7818609E-02  0.8762405E-01
        3   -1    0    0  501    0  0.00000000000E+00  0.00000000000E+00  0.95085456929E+03  0.95085457466E+03  0.10100000352E+00 0. -1.
       -3   -1    0    0    0  501  0.00000000000E+00  0.00000000000E+00 -0.75821377801E+03  0.75821378474E+03  0.10100000352E+00 0.  1.
    10030    2    1    2    0    0  0.00000000000E+00  0.00000000000E+00  0.19264079128E+03  0.17090683594E+04  0.16981767230E+04 0.  0.
        2    1    3    3  502    0 -0.42025500718E+03  0.32077854709E+03  0.76498965522E+03  0.92990446817E+03  0.25500000920E-02 0. -1.
       -2    1    3    3    0  502  0.42025500718E+03 -0.32077854709E+03 -0.57234886394E+03  0.77916389123E+03  0.25500000920E-02 0.  1.
</event>
<event>
 5   0  0.7455669E-06  0.1699458E+04  0.7818609E-02  0.8761673E-01
       -1   -1    0    0    0  501  0.00000000000E+00  0.00000000000E+00  0.73840058556E+03  0.73840058557E+03  0.50400001928E-02 0.  1.
        1   -1    0    0  501    0  0.00000000000E+00  0.00000000000E+00 -0.97784279118E+03  0.97784279119E+03  0.50400001928E-02 0. -1.
    10030    2    1    2    0    0  0.00000000000E+00  0.00000000000E+00 -0.23944220562E+03  0.17162433768E+04  0.16994583721E+04 0.  0.
        4    1    3    3  502    0 -0.74304452398E+03  0.67486254907E+02  0.29095058175E+03  0.80082670606E+03  0.12699999809E+01 0.  1.
       -4    1    3    3    0  502  0.74304452398E+03 -0.67486254907E+02 -0.53039278737E+03  0.91541667071E+03  0.12699999809E+01 0. -1.
</event>
<event>
 5   0  0.7476457E-06  0.1699925E+04  0.7818609E-02  0.8761407E-01
        1   -1    0    0  501    0  0.00000000000E+00  0.00000000000E+00  0.83127092872E+03  0.83127092874E+03  0.50400001928E-02 0. -1.
       -1   -1    0    0    0  501  0.00000000000E+00  0.00000000000E+00 -0.86907419508E+03  0.86907419510E+03  0.50400001928E-02 0.  1.
    10030    2    1    2    0    0  0.00000000000E+00  0.00000000000E+00 -0.37803266362E+02  0.17003451238E+04  0.16999248375E+04 0.  0.
        2    1    3    3  502    0  0.54734093776E+03 -0.43989622400E+03  0.46011688746E+03  0.83952268592E+03  0.25500000920E-02 0. -1.
       -2    1    3    3    0  502 -0.54734093776E+03  0.43989622400E+03 -0.49792015382E+03  0.86082243792E+03  0.25500000920E-02 0.  1.
</event>
<event>
 5   0  0.1419012E-05  0.1700622E+04  0.7818609E-02  0.8761010E-01
       -2   -1    0    0    0  501  0.00000000000E+00  0.00000000000E+00  0.34100198759E+03  0.34100198760E+03  0.25500000920E-02 0.  1.
        2   -1    0    0  501    0  0.00000000000E+00  0.00000000000E+00 -0.21203061982E+04  0.21203061982E+04  0.25500000920E-02 0. -1.
    10030    2    1    2    0    0  0.00000000000E+00  0.00000000000E+00 -0.17793042106E+04  0.24613081858E+04  0.17006218015E+04 0.  0.
        4    1    3    3  502    0 -0.12221078726E+03  0.84117504062E+03 -0.92253127036E+03  0.12544227689E+04  0.12699999809E+01 0.  1.
       -4    1    3    3    0  502  0.12221078726E+03 -0.84117504062E+03 -0.85677294027E+03  0.12068854169E+04  0.12699999809E+01 0. -1.
</event>
<event>
 5   0  0.1374441E-05  0.1699796E+04  0.7818609E-02  0.8761481E-01
        2   -1    0    0  501    0  0.00000000000E+00  0.00000000000E+00  0.71088571698E+03  0.71088571698E+03  0.25500000920E-02 0.  1.
       -2   -1    0    0    0  501  0.00000000000E+00  0.00000000000E+00 -0.10160942049E+04  0.10160942049E+04  0.25500000920E-02 0. -1.
    10030    2    1    2    0    0  0.00000000000E+00  0.00000000000E+00 -0.30520848790E+03  0.17269799219E+04  0.16997962906E+04 0.  0.
        1    1    3    3  502    0  0.17178913818E+03 -0.31245067405E+02  0.69246629446E+03  0.71414097434E+03  0.50400001928E-02 0.  1.
       -1    1    3    3    0  502 -0.17178913818E+03  0.31245067405E+02 -0.99767478236E+03  0.10128389475E+04  0.50400001928E-02 0. -1.
</event>
<event>
 5   0  0.7082527E-06  0.1700171E+04  0.7818609E-02  0.8761267E-01
       -1   -1    0    0    0  501  0.00000000000E+00  0.00000000000E+00  0.92272267621E+03  0.92272267622E+03  0.50400001928E-02 0. -1.
        1   -1    0    0  501    0  0.00000000000E+00  0.00000000000E+00 -0.78316634489E+03  0.78316634490E+03  0.50400001928E-02 0.  1.
    10030    2    1    2    0    0  0.00000000000E+00  0.00000000000E+00  0.13955633132E+03  0.17058890211E+04  0.17001709863E+04 0.  0.
        1    1    3    3  502    0  0.75118813923E+03 -0.14147823713E+03  0.44297753558E+03  0.88347541514E+03  0.50400001928E-02 0. -1.
       -1    1    3    3    0  502 -0.75118813923E+03  0.14147823713E+03 -0.30342120426E+03  0.82241360599E+03  0.50400001928E-02 0.  1.
</event>
<event>
 5   0  0.1441756E-05  0.1700583E+04  0.7818609E-02  0.8761032E-01
       -2   -1    0    0    0  501  0.00000000000E+00  0.00000000000E+00  0.73875947177E+03  0.73875947177E+03  0.25500000920E-02 0. -1.
        2   -1    0    0  501    0  0.00000000000E+00  0.00000000000E+00 -0.97866208952E+03  0.97866208952E+03  0.25500000920E-02 0.  1.
    10030    2    1    2    0    0  0.00000000000E+00  0.00000000000E+00 -0.23990261775E+03  0.17174215613E+04  0.17005832979E+04 0.  0.
        5    1    3    3  502    0  0.63213573146E+03 -0.52273465070E+02  0.45191131387E+03  0.77882862283E+03  0.46999998093E+01 0. -1.
       -5    1    3    3    0  502 -0.63213573146E+03  0.52273465070E+02 -0.69181393162E+03  0.93859293846E+03  0.46999998093E+01 0.  1.
</event>
<event>
 5   0  0.7455669E-06  0.1698846E+04  0.7818609E-02  0.8762023E-01
       -1   -1    0    0    0  501  0.00000000000E+00  0.00000000000E+00  0.11691707168E+04  0.11691707168E+04  0.50400001928E-02 0.  1.
        1   -1    0    0  501    0  0.00000000000E+00  0.00000000000E+00 -0.61712051581E+03  0.61712051583E+03  0.50400001928E-02 0. -1.
    10030    2    1    2    0    0  0.00000000000E+00  0.00000000000E+00  0.55205020100E+03  0.17862912326E+04  0.16988457680E+04 0.  0.
        4    1    3    3  502    0 -0.68966627596E+03 -0.19083096349E+03 -0.20520248689E+03  0.74442306678E+03  0.12699999809E+01 0. -1.
       -4    1    3    3    0  502  0.68966627596E+03  0.19083096349E+03  0.75725268789E+03  0.10418681659E+04  0.12699999809E+01 0.  1.
</event>
<event>
 5   0  0.7461128E-06  0.1699858E+04  0.7818609E-02  0.8761445E-01
        1   -1    0    0  501    0  0.00000000000E+00  0.00000000000E+00  0.13202106402E+04  0.13202106402E+04  0.50400001928E-02 0.  1.
       -1   -1    0    0    0  501  0.00000000000E+00  0.00000000000E+00 -0.54716985316E+03  0.54716985318E+03  0.50400001928E-02 0. -1.
    10030    2    1    2    0    0  0.00000000000E+00  0.00000000000E+00  0.77304078707E+03  0.18673804934E+04  0.16998581849E+04 0.  0.
        3    1    3    3  502    0  0.34856369741E+03  0.49725312001E+03  0.10397860821E+04  0.12041230931E+04  0.10100000352E+00 0.  1.
       -3    1    3    3    0  502 -0.34856369741E+03 -0.49725312001E+03 -0.26674529503E+03  0.66325740036E+03  0.10100000352E+00 0. -1.
</event>
<event>
 5   0  0.7476457E-06  0.1698696E+04  0.7818609E-02  0.8762109E-01
       -1   -1    0    0    0  501  0.00000000000E+00  0.00000000000E+00  0.86115018353E+03  0.86115018355E+03  0.50400001928E-02 0. -1.
        1   -1    0    0  501    0  0.00000000000E+00  0.00000000000E+00 -0.83770733953E+03  0.83770733955E+03  0.50400001928E-02 0.  1.
    10030    2    1    2    0    0  0.00000000000E+00  0.00000000000E+00  0.23442844001E+02  0.16988575231E+04  0.16986957694E+04 0.  0.
        2    1    3    3  502    0 -0.13023137580E+03  0.61147326119E+03 -0.56325250773E+03  0.84149459170E+03  0.25500000920E-02 0.  1.
       -2    1    3    3    0  502  0.13023137580E+03 -0.61147326119E+03  0.58669535173E+03  0.85736293140E+03  0.25500000920E-02 0. -1.
</event>
<event>
 5   0  0.1419012E-05  0.1701087E+04  0.7818609E-02  0.8760745E-01
        2   -1    0    0  501    0  0.00000000000E+00  0.00000000000E+00  0.15457085912E+04  0.15457085912E+04  0.25500000920E-02 0. -1.
       -2   -1    0    0    0  501  0.00000000000E+00  0.00000000000E+00 -0.46802110379E+03  0.46802110380E+03  0.25500000920E-02 0.  1.
    10030    2    1    2    0    0  0.00000000000E+00  0.00000000000E+00  0.10776874874E+04  0.20137296950E+04  0.17010869949E+04 0.  0.
        4    1    3    3  502    0  0.65737552356E+03 -0.51884787120E+03  0.36295257026E+03  0.91273318861E+03  0.12699999809E+01 0.  1.
       -4    1    3    3    0  502 -0.65737552356E+03  0.51884787120E+03  0.71473491717E+03  0.11009965064E+04  0.12699999809E+01 0. -1.
</event>
<event>
 5   0  0.7082527E-06  0.1699121E+04  0.7818609E-02  0.8761866E-01
        1   -1    0    0  501    0  0.00000000000E+00  0.00000000000E+00  0.20275407111E+04  0.20275407111E+04  0.50400001928E-02 0.  1.
       -1   -1    0    0    0  501  0.00000000000E+00  0.00000000000E+00 -0.35597453971E+03  0.35597453974E+03  0.50400001928E-02 0. -1.
    10030    2    1    2    0    0  0.00000000000E+00  0.00000000000E+00  0.16715661714E+04  0.23835152509E+04  0.16991207979E+04 0.  0.
        1    1    3    3  502    0 -0.16793828575E+03  0.46946656140E+03  0.18007078362E+04  0.18684621568E+04  0.50400001928E-02 0.  1.
       -1    1    3    3    0  502  0.16793828575E+03 -0.46946656140E+03 -0.12914166477E+03  0.51505309406E+03  0.50400001928E-02 0. -1.
</event>
<event>
 5   0  0.7461128E-06  0.1703014E+04  0.7818609E-02  0.8759647E-01
        1   -1    0    0  501    0  0.00000000000E+00  0.00000000000E+00  0.24091413599E+04  0.24091413599E+04  0.50400001928E-02 0.  1.
       -1   -1    0    0    0  501  0.00000000000E+00  0.00000000000E+00 -0.30096365595E+03  0.30096365599E+03  0.50400001928E-02 0. -1.
    10030    2    1    2    0    0  0.00000000000E+00  0.00000000000E+00  0.21081777039E+04  0.27101050159E+04  0.17030137891E+04 0.  0.
        3    1    3    3  502    0  0.39514265020E+03  0.97569081896E+02 -0.13614343184E+03  0.42917651845E+03  0.10100000352E+00 0. -1.
       -3    1    3    3    0  502 -0.39514265020E+03 -0.97569081896E+02  0.22443211358E+04  0.22809284974E+04  0.10100000352E+00 0.  1.
</event>
<event>
 5   0  0.1435301E-05  0.1700266E+04  0.7818609E-02  0.8761212E-01
       -2   -1    0    0    0  501  0.00000000000E+00  0.00000000000E+00  0.13578234078E+04  0.13578234078E+04  0.25500000920E-02 0. -1.
        2   -1    0    0  501    0  0.00000000000E+00  0.00000000000E+00 -0.53226839415E+03  0.53226839416E+03  0.25500000920E-02 0.  1.
    10030    2    1    2    0    0  0.00000000000E+00  0.00000000000E+00  0.82555501363E+03  0.18900918019E+04  0.17002664318E+04 0.  0.
        2    1    3    3  502    0  0.53774989161E+03 -0.65715845388E+03  0.36702006246E+03  0.92505994708E+03  0.25500000920E-02 0.  1.
       -2    1    3    3    0  502 -0.53774989161E+03  0.65715845388E+03  0.45853495117E+03  0.96503185486E+03  0.25500000920E-02 0. -1.
</event>
<event>
 5   0  0.1419012E-05  0.1699828E+04  0.7818609E-02  0.8761462E-01
       -2   -1    0    0    0  501  0.00000000000E+00  0.00000000000E+00  0.64629109084E+03  0.64629109085E+03  0.25500000920E-02 0.  1.
        2   -1    0    0  501    0  0.00000000000E+00  0.00000000000E+00 -0.11176912759E+04  0.11176912759E+04  0.25500000920E-02 0. -1.
    10030    2    1    2    0    0  0.00000000000E+00  0.00000000000E+00 -0.47140018502E+03  0.17639823667E+04  0.16998281253E+04 0.  0.
        4    1    3    3  502    0 -0.69319544561E+02 -0.60975216117E+03 -0.84589692453E+03  0.10450579492E+04  0.12699999809E+01 0. -1.
       -4    1    3    3    0  502  0.69319544561E+02  0.60975216117E+03  0.37449673951E+03  0.71892441753E+03  0.12699999809E+01 0.  1.
</event>
<event>
 5   0  0.7583716E-06  0.1699903E+04  0.7818609E-02  0.8761420E-01
       -1   -1    0    0    0  501  0.00000000000E+00  0.00000000000E+00  0.80622349936E+03  0.80622349937E+03  0.50400001928E-02 0.  1.
        1   -1    0    0  501    0  0.00000000000E+00  0.00000000000E+00 -0.89605093995E+03  0.89605093996E+03  0.50400001928E-02 0. -1.
    10030    2    1    2    0    0  0.00000000000E+00  0.00000000000E+00 -0.89827440590E+02  0.17022744393E+04  0.16999027318E+04 0.  0.
        5    1    3    3  502    0 -0.37416455614E+03  0.22181068306E+03  0.68630786765E+03  0.81255133585E+03  0.46999998093E+01 0.  1.
       -5    1    3    3    0  502  0.37416455614E+03 -0.22181068306E+03 -0.77613530824E+03  0.88972310349E+03  0.46999998093E+01 0. -1.
</event>
<event>
 5   0  0.1419012E-05  0.1700594E+04  0.7818609E-02  0.8761026E-01
       -2   -1    0    0    0  501  0.00000000000E+00  0.00000000000E+00  0.10168159316E+04  0.10168159316E+04  0.25500000920E-02 0. -1.
        2   -1    0    0  501    0  0.00000000000E+00  0.00000000000E+00 -0.71104768068E+03  0.71104768069E+03  0.25500000920E-02 0.  1.
    10030    2    1    2    0    0  0.00000000000E+00  0.00000000000E+00  0.30576825093E+03  0.17278636123E+04  0.17005935550E+04 0.  0.
        4    1    3    3  502    0 -0.37783633594E+03 -0.15357791327E+03 -0.60517413036E+03  0.72978340154E+03  0.12699999809E+01 0.  1.
       -4    1    3    3    0  502  0.37783633594E+03  0.15357791327E+03  0.91094238129E+03  0.99808021077E+03  0.12699999809E+01 0. -1.
</event>
<event>
 5   0  0.7476457E-06  0.1699730E+04  0.7818609E-02  0.8761518E-01
        1   -1    0    0  501    0  0.00000000000E+00  0.00000000000E+00  0.14113057230E+04  0.14113057230E+04  0.50400001928E-02 0. -1.
       -1   -1    0    0    0  501  0.00000000000E+00  0.00000000000E+00 -0.51177468498E+03  0.51177468501E+03  0.50400001928E-02 0.  1.
    10030    2    1    2    0    0  0.00000000000E+00  0.00000000000E+00  0.89953103798E+03  0.19230804080E+04  0.16997300278E+04 0.  0.
        2    1    3    3  502    0 -0.17098821362E+03 -0.30746877603E+01  0.13916370524E+04  0.14021055982E+04  0.25500000920E-02 0. -1.
       -2    1    3    3    0  502  0.17098821362E+03  0.30746877603E+01 -0.49210601446E+03  0.52097480973E+03  0.25500000920E-02 0.  1.
</event>
<event>
 5   0  0.1441756E-05  0.1698072E+04  0.7818609E-02  0.8762465E-01
        2   -1    0    0  501    0  0.00000000000E+00  0.00000000000E+00  0.79186989324E+03  0.79186989324E+03  0.25500000920E-02 0.  1.
       -2   -1    0    0    0  501  0.00000000000E+00  0.00000000000E+00 -0.91032854112E+03  0.91032854112E+03  0.25500000920E-02 0. -1.
    10030    2    1    2    0    0  0.00000000000E+00  0.00000000000E+00 -0.11845864789E+03  0.17021984344E+04  0.16980715705E+04 0.  0.
        5    1    3    3  502    0 -0.83167640119E+03  0.22373488999E+02  0.11045541022E+03  0.83929059148E+03  0.46999998093E+01 0.  1.
       -5    1    3    3    0  502  0.83167640119E+03 -0.22373488999E+02 -0.22891405810E+03  0.86290784288E+03  0.46999998093E+01 0. -1.
</event>
<event>
 5   0  0.7455669E-06  0.1699862E+04  0.7818609E-02  0.8761443E-01
        1   -1    0    0  501    0  0.00000000000E+00  0.00000000000E+00  0.59845466681E+03  0.59845466683E+03  0.50400001928E-02 0.  1.
       -1   -1    0    0    0  501  0.00000000000E+00  0.00000000000E+00 -0.12070797195E+04  0.12070797195E+04  0.50400001928E-02 0. -1.
    10030    2    1    2    0    0  0.00000000000E+00  0.00000000000E+00 -0.60862505266E+03  0.18055343863E+04  0.16998617489E+04 0.  0.
        4    1    3    3  502    0 -0.45969544590E+02 -0.21121061108E+03 -0.11773955549E+04  0.11970735261E+04  0.12699999809E+01 0. -1.
       -4    1    3    3    0  502  0.45969544590E+02  0.21121061108E+03  0.56877050226E+03  0.60846086020E+03  0.12699999809E+01 0.  1.
</event>
<event>
 5   0  0.1423543E-05  0.1701860E+04  0.7818609E-02  0.8760304E-01
        2   -1    0    0  501    0  0.00000000000E+00  0.00000000000E+00  0.91590389917E+03  0.91590389917E+03  0.25500000920E-02 0.  1.
       -2   -1    0    0    0  501  0.00000000000E+00  0.00000000000E+00 -0.79056501947E+03  0.79056501948E+03  0.25500000920E-02 0. -1.
    10030    2    1    2    0    0  0.00000000000E+00  0.00000000000E+00  0.12533887970E+03  0.17064689187E+04  0.17018596698E+04 0.  0.
        3    1    3    3  502    0  0.68528340314E+03 -0.58775751559E+02 -0.43970009946E+03  0.81633578830E+03  0.10100000352E+00 0. -1.
       -3    1    3    3    0  502 -0.68528340314E+03  0.58775751559E+02  0.56503897916E+03  0.89013313036E+03  0.10100000352E+00 0.  1.
</event>
<event>
 5   0  0.5229750E-06  0.1699837E+04  0.7818609E-02  0.8761457E-01
        4   -1    0    0  501    0  0.00000000000E+00  0.00000000000E+00  0.60154161427E+03  0.60154295491E+03  0.12699999809E+01 0.  1.
       -4   -1    0    0    0  501  0.00000000000E+00  0.00000000000E+00 -0.12008478322E+04  0.12008485037E+04  0.12699999809E+01 0. -1.
    10030    2    1    2    0    0  0.00000000000E+00  0.00000000000E+00 -0.59930621790E+03  0.18023914586E+04  0.16998373532E+04 0.  0.
        1    1    3    3  502    0  0.42043202146E+03 -0.50936851453E+03  0.26754248854E+03  0.71259971334E+03  0.50400001928E-02 0.  1.
       -1    1    3    3    0  502 -0.42043202146E+03  0.50936851453E+03 -0.86684870643E+03  0.10897917453E+04  0.50400001928E-02 0. -1.
</event>
<event>
 5   0  0.1435301E-05  0.1699938E+04  0.7818609E-02  0.8761400E-01
       -2   -1    0    0    0  501  0.00000000000E+00  0.00000000000E+00  0.36492836312E+03  0.36492836313E+03  0.25500000920E-02 0.  1.
        2   -1    0    0  501    0  0.00000000000E+00  0.00000000000E+00 -0.19796955166E+04  0.19796955166E+04  0.25500000920E-02 0. -1.
    10030    2    1    2    0    0  0.00000000000E+00  0.00000000000E+00 -0.16147671535E+04  0.23446238797E+04  0.16999376981E+04 0.  0.
        2    1    3    3  502    0  0.58576457259E+03 -0.96166998752E+02  0.31665363527E+02  0.59445010001E+03  0.25500000920E-02 0.  1.
       -2    1    3    3    0  502 -0.58576457259E+03  0.96166998752E+02 -0.16464325170E+04  0.17501737797E+04  0.25500000920E-02 0. -1.
</event>
<event>
 5   0  0.5229750E-06  0.1702518E+04  0.7818609E-02  0.8759930E-01
        3   -1    0    0  501    0  0.00000000000E+00  0.00000000000E+00  0.74637284239E+03  0.74637284923E+03  0.10100000352E+00 0.  1.
       -3   -1    0    0    0  501  0.00000000000E+00  0.00000000000E+00 -0.97088418908E+03  0.97088419434E+03  0.10100000352E+00 0. -1.
    10030    2    1    2    0    0  0.00000000000E+00  0.00000000000E+00 -0.22451134669E+03  0.17172570436E+04  0.17025176677E+04 0.  0.
        1    1    3    3  502    0 -0.27017501537E+03  0.42260893354E+02 -0.92537436196E+03  0.96493431478E+03  0.50400001928E-02 0. -1.
       -1    1    3    3    0  502  0.27017501537E+03 -0.42260893354E+02  0.70086301527E+03  0.75232272878E+03  0.50400001928E-02 0.  1.
</event>
<event>
 5   0  0.1419012E-05  0.1695822E+04  0.7818609E-02  0.8763751E-01
        2   -1    0    0  501    0  0.00000000000E+00  0.00000000000E+00  0.10320856187E+04  0.10320856187E+04  0.25500000920E-02 0. -1.
       -2   -1    0    0    0  501  0.00000000000E+00  0.00000000000E+00 -0.69660243064E+03  0.69660243065E+03  0.25500000920E-02 0.  1.
    10030    2    1    2    0    0  0.00000000000E+00  0.00000000000E+00  0.33548318808E+03  0.17286880494E+04  0.16958223381E+04 0.  0.
        4    1    3    3  502    0 -0.79514541383E+03 -0.29279432462E+03  0.13604243539E+03  0.85819222951E+03  0.12699999809E+01 0. -1.
       -4    1    3    3    0  502  0.79514541383E+03  0.29279432462E+03  0.19944075269E+03  0.87049581986E+03  0.12699999809E+01 0.  1.
</event>
<event>
 5   0  0.1441756E-05  0.1703506E+04  0.7818609E-02  0.8759367E-01
       -2   -1    0    0    0  501  0.00000000000E+00  0.00000000000E+00  0.69803163049E+03  0.69803163050E+03  0.25500000920E-02 0. -1.
        2   -1    0    0  501    0  0.00000000000E+00  0.00000000000E+00 -0.10393269185E+04  0.10393269185E+04  0.25500000920E-02 0.  1.
    10030    2    1    2    0    0  0.00000000000E+00  0.00000000000E+00 -0.34129528802E+03  0.17373585490E+04  0.17035058715E+04 0.  0.
        5    1    3    3  502    0  0.26545692005E+03 -0.55134378446E+03  0.43359004436E+03  0.74997984082E+03  0.46999998093E+01 0. -1.
       -5    1    3    3    0  502 -0.26545692005E+03  0.55134378446E+03 -0.77488533238E+03  0.98737870819E+03  0.46999998093E+01 0.  1.
</event>
<event>
 5   0  0.7455669E-06  0.1699650E+04  0.7818609E-02  0.8761564E-01
       -1   -1    0    0    0  501  0.00000000000E+00  0.00000000000E+00  0.35003076019E+03  0.35003076023E+03  0.50400001928E-02 0.  1.
        1   -1    0    0  501    0  0.00000000000E+00  0.00000000000E+00 -0.20632537994E+04  0.20632537994E+04  0.50400001928E-02 0. -1.
    10030    2    1    2    0    0  0.00000000000E+00  0.00000000000E+00 -0.17132230392E+04  0.24132845597E+04  0.16996497238E+04 0.  0.
        4    1    3    3  502    0  0.49066782044E+03  0.47793231769E+03 -0.15708316504E+04  0.17136767189E+04  0.12699999809E+01 0. -1.
       -4    1    3    3    0  502 -0.49066782044E+03 -0.47793231769E+03 -0.14239138889E+03  0.69960784075E+03  0.12699999809E+01 0.  1.
</event>
<event>
 5   0  0.5229750E-06  0.1700579E+04  0.7818609E-02  0.8761034E-01
       -4   -1    0    0    0  501  0.00000000000E+00  0.00000000000E+00  0.48118900698E+03  0.48119068293E+03  0.12699999809E+01 0.  1.
        4   -1    0    0  501    0  0.00000000000E+00  0.00000000000E+00 -0.15025065467E+04  0.15025070835E+04  0.12699999809E+01 0. -1.
    10030    2    1    2    0    0  0.00000000000E+00  0.00000000000E+00 -0.10213175397E+04  0.19836977664E+04  0.17005785226E+04 0.  0.
        5    1    3    3  502    0 -0.75019442414E+03 -0.11477622060E+03 -0.63415201339E+02  0.76158310944E+03  0.46999998093E+01 0. -1.
       -5    1    3    3    0  502  0.75019442414E+03  0.11477622060E+03 -0.95790233840E+03  0.12221146570E+04  0.46999998093E+01 0.  1.
</event>
<event>
 5   0  0.1441756E-05  0.1697337E+04  0.7818609E-02  0.8762885E-01
        2   -1    0    0  501    0  0.00000000000E+00  0.00000000000E+00  0.76525300454E+03  0.76525300454E+03  0.25500000920E-02 0.  1.
       -2   -1    0    0    0  501  0.00000000000E+00  0.00000000000E+00 -0.94117678651E+03  0.94117678651E+03  0.25500000920E-02 0. -1.
    10030    2    1    2    0    0  0.00000000000E+00  0.00000000000E+00 -0.17592378197E+03  0.17064297911E+04  0.16973371659E+04 0.  0.
        5    1    3    3  502    0 -0.16828482415E+03  0.37115943910E+03  0.66042977366E+03  0.77605971884E+03  0.46999998093E+01 0.  1.
       -5    1    3    3    0  502  0.16828482415E+03 -0.37115943910E+03 -0.83635355563E+03  0.93037007222E+03  0.46999998093E+01 0. -1.
</event>
<event>
 5   0  0.7461128E-06  0.1694796E+04  0.7818609E-02  0.8764338E-01
        1   -1    0    0  501    0  0.00000000000E+00  0.00000000000E+00  0.16207706582E+04  0.16207706582E+04  0.50400001928E-02 0.  1.
       -1   -1    0    0    0  501  0.00000000000E+00  0.00000000000E+00 -0.44305034059E+03  0.44305034062E+03  0.50400001928E-02 0. -1.
    10030    2    1    2    0    0  0.00000000000E+00  0.00000000000E+00  0.11777203176E+04  0.20638209988E+04  0.16947955536E+04 0.  0.
        3    1    3    3  502    0 -0.15595571143E+03  0.66524266145E+03 -0.21485367287E+02  0.68361656924E+03  0.10100000352E+00 0. -1.
       -3    1    3    3    0  502  0.15595571143E+03 -0.66524266145E+03  0.11992056849E+04  0.13802044296E+04  0.10100000352E+00 0.  1.
</event>
<event>
 5   0  0.1374441E-05  0.1699984E+04  0.7818609E-02  0.8761374E-01
       -2   -1    0    0    0  501  0.00000000000E+00  0.00000000000E+00  0.91625724397E+03  0.91625724397E+03  0.25500000920E-02 0. -1.
        2   -1    0    0  501    0  0.00000000000E+00  0.00000000000E+00 -0.78851879528E+03  0.78851879529E+03  0.25500000920E-02 0.  1.
    10030    2    1    2    0    0  0.00000000000E+00  0.00000000000E+00  0.12773844869E+03  0.17047760393E+04  0.16999835978E+04 0.  0.
        1    1    3    3  502    0 -0.14618126937E+03 -0.26472425856E+03 -0.73274932251E+03  0.79269758814E+03  0.50400001928E-02 0.  1.
       -1    1    3    3    0  502  0.14618126937E+03  0.26472425856E+03  0.86048777120E+03  0.91207845112E+03  0.50400001928E-02 0. -1.
</event>
<event>
 5   0  0.7082527E-06  0.1700042E+04  0.7818609E-02  0.8761341E-01
        1   -1    0    0  501    0  0.00000000000E+00  0.00000000000E+00  0.62258520243E+03  0.62258520245E+03  0.50400001928E-02 0.  1.
       -1   -1    0    0    0  501  0.00000000000E+00  0.00000000000E+00 -0.11605405894E+04  0.11605405894E+04  0.50400001928E-02 0. -1.
    10030    2    1    2    0    0  0.00000000000E+00  0.00000000000E+00 -0.53795538701E+03  0.17831257919E+04  0.17000416440E+04 0.  0.
        1    1    3    3  502    0  0.73437571060E+03 -0.38029212541E+03 -0.47506329368E+03  0.95373734225E+03  0.50400001928E-02 0.  1.
       -1    1    3    3    0  502 -0.73437571060E+03  0.38029212541E+03 -0.62892093333E+02  0.82938844965E+03  0.50400001928E-02 0. -1.
</event>
<event>
 5   0  0.1374441E-05  0.1700091E+04  0.7818609E-02  0.8761312E-01
        2   -1    0    0  501    0  0.00000000000E+00  0.00000000000E+00  0.23845211021E+04  0.23845211021E+04  0.25500000920E-02 0.  1.
       -2   -1    0    0    0  501  0.00000000000E+00  0.00000000000E+00 -0.30302832660E+03  0.30302832661E+03  0.25500000920E-02 0. -1.
    10030    2    1    2    0    0  0.00000000000E+00  0.00000000000E+00  0.20814927755E+04  0.26875494287E+04  0.17000911026E+04 0.  0.
        1    1    3    3  502    0  0.27411717432E+03  0.40801616637E+03  0.21370699682E+04  0.21928715116E+04  0.50400001928E-02 0.  1.
       -1    1    3    3    0  502 -0.27411717432E+03 -0.40801616637E+03 -0.55577192744E+02  0.49467791709E+03  0.50400001928E-02 0. -1.
</event>
<event>
 5   0  0.1374441E-05  0.1700600E+04  0.7818609E-02  0.8761022E-01
        2   -1    0    0  501    0  0.00000000000E+00  0.00000000000E+00  0.14614121397E+04  0.14614121397E+04  0.25500000920E-02 0.  1.
       -2   -1    0    0    0  501  0.00000000000E+00  0.00000000000E+00 -0.49473372862E+03  0.49473372862E+03  0.25500000920E-02 0. -1.
    10030    2    1    2    0    0  0.00000000000E+00  0.00000000000E+00  0.96667841110E+03  0.19561458683E+04  0.17005997494E+04 0.  0.
        1    1    3    3  502    0  0.20515108264E+03  0.47078833291E+03 -0.29620094136E+03  0.59284367147E+03  0.50400001928E-02 0. -1.
       -1    1    3    3    0  502 -0.20515108264E+03 -0.47078833291E+03  0.12628793525E+04  0.13633021969E+04  0.50400001928E-02 0.  1.
</event>
<event>
 5   0  0.1441756E-05  0.1700468E+04  0.7818609E-02  0.8761097E-01
        2   -1    0    0  501    0  0.00000000000E+00  0.00000000000E+00  0.12212849921E+04  0.12212849921E+04  0.25500000920E-02 0. -1.
       -2   -1    0    0    0  501  0.00000000000E+00  0.00000000000E+00 -0.59191585269E+03  0.59191585270E+03  0.25500000920E-02 0.  1.
    10030    2    1    2    0    0  0.00000000000E+00  0.00000000000E+00  0.62936913937E+03  0.18132008448E+04  0.17004681090E+04 0.  0.
        5    1    3    3  502    0  0.24758696688E+03 -0.55227634339E+02 -0.55061011525E+03  0.60625323651E+03  0.46999998093E+01 0.  1.
       -5    1    3    3    0  502 -0.24758696688E+03  0.55227634339E+02  0.11799792546E+04  0.12069476083E+04  0.46999998093E+01 0. -1.
</event>
<event>
 5   0  0.1423543E-05  0.1700192E+04  0.7818609E-02  0.8761255E-01
        2   -1    0    0  501    0  0.00000000000E+00  0.00000000000E+00  0.16531209232E+04  0.16531209232E+04  0.25500000920E-02 0.  1.
       -2   -1    0    0    0  501  0.00000000000E+00  0.00000000000E+00 -0.43715100799E+03  0.43715100800E+03  0.25500000920E-02 0. -1.
    10030    2    1    2    0    0  0.00000000000E+00  0.00000000000E+00  0.12159699152E+04  0.20902719312E+04  0.17001923161E+04 0.  0.
        3    1    3    3  502    0  0.25744212559E+03 -0.54566226179E+03 -0.12827966042E+03  0.61683014960E+03  0.10100000352E+00 0. -1.
       -3    1    3    3    0  502 -0.25744212559E+03  0.54566226179E+03  0.13442495756E+04  0.14734417816E+04  0.10100000352E+00 0.  1.
</event>
<event>
 5   0  0.7476457E-06  0.1700358E+04  0.7818609E-02  0.8761160E-01
        1   -1    0    0  501    0  0.00000000000E+00  0.00000000000E+00  0.10336643428E+04  0.10336643428E+04  0.50400001928E-02 0.  1.
       -1   -1    0    0    0  501  0.00000000000E+00  0.00000000000E+00 -0.69926425384E+03  0.69926425385E+03  0.50400001928E-02 0. -1.
    10030    2    1    2    0    0  0.00000000000E+00  0.00000000000E+00  0.33440008900E+03  0.17329285967E+04  0.17003582275E+04 0.  0.
        2    1    3    3  502    0  0.54976656780E+03  0.63981941271E+03  0.27502050517E+03  0.88727021713E+03  0.25500000920E-02 0. -1.
       -2    1    3    3    0  502 -0.54976656780E+03 -0.63981941271E+03  0.59379583829E+02  0.84565837956E+03  0.25500000920E-02 0.  1.
</event>
<event>
 5   0  0.7461128E-06  0.1699869E+04  0.7818609E-02  0.8761439E-01
       -1   -1    0    0    0  501  0.00000000000E+00  0.00000000000E+00  0.12067407264E+04  0.12067407264E+04  0.50400001928E-02 0. -1.
        1   -1    0    0  501    0  0.00000000000E+00  0.00000000000E+00 -0.59862785949E+03  0.59862785951E+03  0.50400001928E-02 0.  1.
    10030    2    1    2    0    0  0.00000000000E+00  0.00000000000E+00  0.60811286692E+03  0.18053685859E+04  0.16998689574E+04 0.  0.
        3    1    3    3  502    0  0.63366805072E+03 -0.29197281060E+03 -0.21146052266E+03  0.72903969952E+03  0.10100000352E+00 0.  1.
       -3    1    3    3    0  502 -0.63366805072E+03  0.29197281060E+03  0.81957338958E+03  0.10763288864E+04  0.10100000352E+00 0. -1.
</event>
<event>
 5   0  0.5229750E-06  0.1699734E+04  0.7818609E-02  0.8761516E-01
        3   -1    0    0  501    0  0.00000000000E+00  0.00000000000E+00  0.73106425134E+03  0.73106425831E+03  0.10100000352E+00 0. -1.
       -3   -1    0    0    0  501  0.00000000000E+00  0.00000000000E+00 -0.98797543706E+03  0.98797544222E+03  0.10100000352E+00 0.  1.
    10030    2    1    2    0    0  0.00000000000E+00  0.00000000000E+00 -0.25691118572E+03  0.17190397005E+04  0.16997335481E+04 0.  0.
        3    1    3    3  502    0  0.43259159456E+03 -0.55585245362E+03 -0.60942649273E+03  0.93140114780E+03  0.10100000352E+00 0.  1.
       -3    1    3    3    0  502 -0.43259159456E+03  0.55585245362E+03  0.35251530701E+03  0.78763855274E+03  0.10100000352E+00 0. -1.
</event>
<event>
 5   0  0.7476457E-06  0.1700324E+04  0.7818609E-02  0.8761180E-01
        1   -1    0    0  501    0  0.00000000000E+00  0.00000000000E+00  0.12726696373E+04  0.12726696373E+04  0.50400001928E-02 0.  1.
       -1   -1    0    0    0  501  0.00000000000E+00  0.00000000000E+00 -0.56792077706E+03  0.56792077708E+03  0.50400001928E-02 0. -1.
    10030    2    1    2    0    0  0.00000000000E+00  0.00000000000E+00  0.70474886025E+03  0.18405904144E+04  0.17003241213E+04 0.  0.
        2    1    3    3  502    0 -0.32986643413E+02 -0.49380935500E+03  0.11006586194E+04  0.12068078530E+04  0.25500000920E-02 0.  1.
       -2    1    3    3    0  502  0.32986643413E+02  0.49380935500E+03 -0.39590975912E+03  0.63378256137E+03  0.25500000920E-02 0. -1.
</event>
<event>
 5   0  0.7082527E-06  0.1700180E+04  0.7818609E-02  0.8761262E-01
        1   -1    0    0  501    0  0.00000000000E+00  0.00000000000E+00  0.61396482991E+03  0.61396482993E+03  0.50400001928E-02 0. -1.
       -1   -1    0    0    0  501  0.00000000000E+00  0.00000000000E+00 -0.11770263428E+04  0.11770263428E+04  0.50400001928E-02 0.  1.
    10030    2    1    2    0    0  0.00000000000E+00  0.00000000000E+00 -0.56306151289E+03  0.17909911727E+04  0.17001797298E+04 0.  0.
        1    1    3    3  502    0 -0.18931345591E+03  0.53706114773E+03  0.38335429185E+03  0.68646542090E+03  0.50400001928E-02 0. -1.
       -1    1    3    3    0  502  0.18931345591E+03 -0.53706114773E+03 -0.94641580475E+03  0.11045257518E+04  0.50400001928E-02 0.  1.
</event>
<event>
 5   0  0.1374441E-05  0.1699102E+04  0.7818609E-02  0.8761877E-01
        2   -1    0    0  501    0  0.00000000000E+00  0.00000000000E+00  0.14887481134E+04  0.14887481134E+04  0.25500000920E-02 0. -1.
       -2   -1    0    0    0  501  0.00000000000E+00  0.00000000000E+00 -0.48479451987E+03  0.48479451988E+03  0.25500000920E-02 0.  1.
    10030    2    1    2    0    0  0.00000000000E+00  0.00000000000E+00  0.10039535935E+04  0.19735426333E+04  0.16991020297E+04 0.  0.
        1    1    3    3  502    0 -0.65785707928E+02  0.14558438559E+02  0.14856398343E+04  0.14871669122E+04  0.50400001928E-02 0. -1.
       -1    1    3    3    0  502  0.65785707928E+02 -0.14558438559E+02 -0.48168624076E+03  0.48637572108E+03  0.50400001928E-02 0.  1.
</event>
<event>
 5   0  0.7461128E-06  0.1700409E+04  0.7818609E-02  0.8761131E-01
       -1   -1    0    0    0  501  0.00000000000E+00  0.00000000000E+00  0.12246142726E+04  0.12246142726E+04  0.50400001928E-02 0. -1.
        1   -1    0    0  501    0  0.00000000000E+00  0.00000000000E+00 -0.59026547677E+03  0.59026547679E+03  0.50400001928E-02 0.  1.
    10030    2    1    2    0    0  0.00000000000E+00  0.00000000000E+00  0.63434879580E+03  0.18148797494E+04  0.17004088067E+04 0.  0.
        3    1    3    3  502    0 -0.44945387075E+03 -0.11658667460E+03  0.10773325296E+04  0.11731353819E+04  0.10100000352E+00 0. -1.
       -3    1    3    3    0  502  0.44945387075E+03  0.11658667460E+03 -0.44298373380E+03  0.64174436751E+03  0.10100000352E+00 0.  1.
</event>
<event>
 5   0  0.1435301E-05  0.1701416E+04  0.7818609E-02  0.8760557E-01
       -2   -1    0    0    0  501  0.00000000000E+00  0.00000000000E+00  0.47952667992E+03  0.47952667992E+03  0.25500000920E-02 0.  1.
        2   -1    0    0  501    0  0.00000000000E+00  0.00000000000E+00 -0.15092043593E+04  0.15092043593E+04  0.25500000920E-02 0. -1.
    10030    2    1    2    0    0  0.00000000000E+00  0.00000000000E+00 -0.10296776794E+04  0.19887310392E+04  0.17014155938E+04 0.  0.
        2    1    3    3  502    0  0.29098909478E+03 -0.60611869796E+03  0.94375166551E+02  0.67894123557E+03  0.25500000920E-02 0.  1.
       -2    1    3    3    0  502 -0.29098909478E+03  0.60611869796E+03 -0.11240528460E+04  0.13097898037E+04  0.25500000920E-02 0. -1.
</event>
<event>
 5   0  0.7583716E-06  0.1700279E+04  0.7818609E-02  0.8761205E-01
       -1   -1    0    0    0  501  0.00000000000E+00  0.00000000000E+00  0.12675014850E+04  0.12675014850E+04  0.50400001928E-02 0. -1.
        1   -1    0    0  501    0  0.00000000000E+00  0.00000000000E+00 -0.57020594566E+03  0.57020594568E+03  0.50400001928E-02 0.  1.
    10030    2    1    2    0    0  0.00000000000E+00  0.00000000000E+00  0.69729553932E+03  0.18377074307E+04  0.17002786629E+04 0.  0.
        5    1    3    3  502    0  0.64776993757E+03  0.50263737437E+03  0.59144825937E+03  0.10109813824E+04  0.46999998093E+01 0.  1.
       -5    1    3    3    0  502 -0.64776993757E+03 -0.50263737437E+03  0.10584727995E+03  0.82672604822E+03  0.46999998093E+01 0. -1.
</event>
<event>
 5   0  0.1419012E-05  0.1699778E+04  0.7818609E-02  0.8761491E-01
       -2   -1    0    0    0  501  0.00000000000E+00  0.00000000000E+00  0.81471181967E+03  0.81471181967E+03  0.25500000920E-02 0. -1.
        2   -1    0    0  501    0  0.00000000000E+00  0.00000000000E+00 -0.88658479981E+03  0.88658479982E+03  0.25500000920E-02 0.  1.
    10030    2    1    2    0    0  0.00000000000E+00  0.00000000000E+00 -0.71872980146E+02  0.17012966195E+04  0.16997777685E+04 0.  0.
        4    1    3    3  502    0 -0.26712145383E+03 -0.17508647326E+03  0.75235876117E+03  0.81734598710E+03  0.12699999809E+01 0. -1.
       -4    1    3    3    0  502  0.26712145383E+03  0.17508647326E+03 -0.82423174132E+03  0.88395063239E+03  0.12699999809E+01 0.  1.
</event>
<event>
 5   0  0.1374441E-05  0.1700074E+04  0.7818609E-02  0.8761322E-01
        2   -1    0    0  501    0  0.00000000000E+00  0.00000000000E+00  0.12492188367E+04  0.12492188367E+04  0.25500000920E-02 0. -1.
       -2   -1    0    0    0  501  0.00000000000E+00  0.00000000000E+00 -0.57841184824E+03  0.57841184824E+03  0.25500000920E-02 0.  1.
    10030    2    1    2    0    0  0.00000000000E+00  0.00000000000E+00  0.67080698843E+03  0.18276306849E+04  0.17000740880E+04 0.  0.
        1    1    3    3  502    0  0.17335825309E+03 -0.92097244364E+01 -0.55915137868E+03  0.58548114166E+03  0.50400001928E-02 0.  1.
       -1    1    3    3    0  502 -0.17335825309E+03  0.92097244364E+01  0.12299583671E+04  0.12421495432E+04  0.50400001928E-02 0. -1.
</event>
<event>
 5   0  0.1374441E-05  0.1700561E+04  0.7818609E-02  0.8761045E-01
        2   -1    0    0  501    0  0.00000000000E+00  0.00000000000E+00  0.61667555515E+03  0.61667555516E+03  0.25500000920E-02 0.  1.
       -2   -1    0    0    0  501  0.00000000000E+00  0.00000000000E+00 -0.11723779108E+04  0.11723779108E+04  0.25500000920E-02 0. -1.
    10030    2    1    2    0    0  0.00000000000E+00  0.00000000000E+00 -0.55570235568E+03  0.17890534660E+04  0.17005608475E+04 0.  0.
        1    1    3    3  502    0  0.35816174550E+03 -0.10005429070E+03 -0.10822890880E+04  0.11443951971E+04  0.50400001928E-02 0. -1.
       -1    1    3    3    0  502 -0.35816174550E+03  0.10005429070E+03  0.52658673232E+03  0.64465826894E+03  0.50400001928E-02 0.  1.
</event>
<event>
 5   0  0.7455669E-06  0.1696719E+04  0.7818609E-02  0.8763238E-01
       -1   -1    0    0    0  501  0.00000000000E+00  0.00000000000E+00  0.83276182942E+03  0.83276182944E+03  0.50400001928E-02 0.  1.
        1   -1    0    0  501    0  0.00000000000E+00  0.00000000000E+00 -0.86424913706E+03  0.86424913707E+03  0.50400001928E-02 0. -1.
    10030    2    1    2    0    0  0.00000000000E+00  0.00000000000E+00 -0.31487307633E+02  0.16970109665E+04  0.16967188246E+04 0.  0.
        4    1    3    3  502    0 -0.44851213212E+03  0.69021497746E+03 -0.22108909116E+03  0.85231557941E+03  0.12699999809E+01 0.  1.
       -4    1    3    3    0  502  0.44851213212E+03 -0.69021497746E+03  0.18960178353E+03  0.84469538710E+03  0.12699999809E+01 0. -1.
</event>
<event>
 5   0  0.1419012E-05  0.1700192E+04  0.7818609E-02  0.8761255E-01
       -2   -1    0    0    0  501  0.00000000000E+00  0.00000000000E+00  0.73890768880E+03  0.73890768880E+03  0.25500000920E-02 0.  1.
        2   -1    0    0  501    0  0.00000000000E+00  0.00000000000E+00 -0.97801593176E+03  0.97801593177E+03  0.25500000920E-02 0. -1.
    10030    2    1    2    0    0  0.00000000000E+00  0.00000000000E+00 -0.23910824297E+03  0.17169236206E+04  0.17001923324E+04 0.  0.
        4    1    3    3  502    0 -0.78771767112E+03  0.22564444795E+03 -0.34816061108E+03  0.89029880956E+03  0.12699999809E+01 0. -1.
       -4    1    3    3    0  502  0.78771767112E+03 -0.22564444795E+03  0.10905236811E+03  0.82662481101E+03  0.12699999809E+01 0.  1.
</event>
<event>
 5   0  0.1419012E-05  0.1699516E+04  0.7818609E-02  0.8761640E-01
       -2   -1    0    0    0  501  0.00000000000E+00  0.00000000000E+00  0.34979257017E+03  0.34979257018E+03  0.25500000920E-02 0.  1.
        2   -1    0    0  501    0  0.00000000000E+00  0.00000000000E+00 -0.20643339657E+04  0.20643339657E+04  0.25500000920E-02 0. -1.
    10030    2    1    2    0    0  0.00000000000E+00  0.00000000000E+00 -0.17145413956E+04  0.24141265359E+04  0.16995160294E+04 0.  0.
        4    1    3    3  502    0  0.34474753711E+03  0.60821281422E+03 -0.15433978189E+04  0.16943589148E+04  0.12699999809E+01 0. -1.
       -4    1    3    3    0  502 -0.34474753711E+03 -0.60821281422E+03 -0.17114357664E+03  0.71976762114E+03  0.12699999809E+01 0.  1.
</event>
<event>
 5   0  0.7476457E-06  0.1698661E+04  0.7818609E-02  0.8762129E-01
       -1   -1    0    0    0  501  0.00000000000E+00  0.00000000000E+00  0.50833802857E+03  0.50833802859E+03  0.50400001928E-02 0. -1.
        1   -1    0    0  501    0  0.00000000000E+00  0.00000000000E+00 -0.14190595154E+04  0.14190595155E+04  0.50400001928E-02 0.  1.
    10030    2    1    2    0    0  0.00000000000E+00  0.00000000000E+00 -0.91072148688E+03  0.19273975440E+04  0.16986605506E+04 0.  0.
        2    1    3    3  502    0 -0.52921475798E+02 -0.66439197281E+03  0.14197412147E+03  0.68144994483E+03  0.25500000920E-02 0. -1.
       -2    1    3    3    0  502  0.52921475798E+02  0.66439197281E+03 -0.10526956083E+04  0.12459475992E+04  0.25500000920E-02 0.  1.
</event>
<event>
 5   0  0.1374441E-05  0.1700219E+04  0.7818609E-02  0.8761239E-01
        2   -1    0    0  501    0  0.00000000000E+00  0.00000000000E+00  0.13075525080E+04  0.13075525080E+04  0.25500000920E-02 0. -1.
       -2   -1    0    0    0  501  0.00000000000E+00  0.00000000000E+00 -0.55270164798E+03  0.55270164799E+03  0.25500000920E-02 0.  1.
    10030    2    1    2    0    0  0.00000000000E+00  0.00000000000E+00  0.75485086003E+03  0.18602541560E+04  0.17002193106E+04 0.  0.
        1    1    3    3  502    0 -0.46628828142E+03  0.57185872844E+03  0.83934783041E+03  0.11175651870E+04  0.50400001928E-02 0. -1.
       -1    1    3    3    0  502  0.46628828142E+03 -0.57185872844E+03 -0.84496970380E+02  0.74268896903E+03  0.50400001928E-02 0.  1.
</event>
<event>
 5   0  0.7583716E-06  0.1699749E+04  0.7818609E-02  0.8761508E-01
        1   -1    0    0  501    0  0.00000000000E+00  0.00000000000E+00  0.15507050935E+04  0.15507050935E+04  0.50400001928E-02 0. -1.
       -1   -1    0    0    0  501  0.00000000000E+00  0.00000000000E+00 -0.46577924388E+03  0.46577924391E+03  0.50400001928E-02 0.  1.
    10030    2    1    2    0    0  0.00000000000E+00  0.00000000000E+00  0.10849258496E+04  0.20164843374E+04  0.16997485060E+04 0.  0.
        5    1    3    3  502    0 -0.27852234996E+03 -0.78008093755E+03  0.31686061808E+03  0.88686171969E+03  0.46999998093E+01 0.  1.
       -5    1    3    3    0  502  0.27852234996E+03  0.78008093755E+03  0.76806523148E+03  0.11296226177E+04  0.46999998093E+01 0. -1.
</event>
<event>
 5   0  0.7583716E-06  0.1700108E+04  0.7818609E-02  0.8761303E-01
       -1   -1    0    0    0  501  0.00000000000E+00  0.00000000000E+00  0.43224228688E+03  0.43224228691E+03  0.50400001928E-02 0.  1.
        1   -1    0    0  501    0  0.00000000000E+00  0.00000000000E+00 -0.16717277512E+04  0.16717277513E+04  0.50400001928E-02 0. -1.
    10030    2    1    2    0    0  0.00000000000E+00  0.00000000000E+00 -0.12394854644E+04  0.21039700382E+04  0.17001075569E+04 0.  0.
        5    1    3    3  502    0  0.33807856838E+02 -0.82375651499E+03 -0.36356196746E+03  0.90106446016E+03  0.46999998093E+01 0.  1.
       -5    1    3    3    0  502 -0.33807856838E+02  0.82375651499E+03 -0.87592349690E+03  0.12029055780E+04  0.46999998093E+01 0. -1.
</event>
<event>
 5   0  0.7583716E-06  0.1699868E+04  0.7818609E-02  0.8761440E-01
        1   -1    0    0  501    0  0.00000000000E+00  0.00000000000E+00  0.13620322877E+04  0.13620322877E+04  0.50400001928E-02 0.  1.
       -1   -1    0    0    0  501  0.00000000000E+00  0.00000000000E+00 -0.53037499141E+03  0.53037499143E+03  0.50400001928E-02 0. -1.
    10030    2    1    2    0    0  0.00000000000E+00  0.00000000000E+00  0.83165729625E+03  0.18924072791E+04  0.16998680689E+04 0.  0.
        5    1    3    3  502    0 -0.34554843752E+03  0.35299026690E+03  0.11858039362E+04  0.12845851145E+04  0.46999998093E+01 0.  1.
       -5    1    3    3    0  502  0.34554843752E+03 -0.35299026690E+03 -0.35414663997E+03  0.60782216461E+03  0.46999998093E+01 0. -1.
</event>
<event>
 5   0  0.7476457E-06  0.1699092E+04  0.7818609E-02  0.8761882E-01
        1   -1    0    0  501    0  0.00000000000E+00  0.00000000000E+00  0.11801009833E+04  0.11801009833E+04  0.50400001928E-02 0. -1.
       -1   -1    0    0    0  501  0.00000000000E+00  0.00000000000E+00 -0.61158190452E+03  0.61158190454E+03  0.50400001928E-02 0.  1.
    10030    2    1    2    0    0  0.00000000000E+00  0.00000000000E+00  0.56851907880E+03  0.17916828879E+04  0.16990920010E+04 0.  0.
        2    1    3    3  502    0  0.62023937506E+03  0.57822003833E+03  0.33898273407E+03  0.91320566638E+03  0.25500000920E-02 0. -1.
       -2    1    3    3    0  502 -0.62023937506E+03 -0.57822003833E+03  0.22953634473E+03  0.87847722148E+03  0.25500000920E-02 0.  1.
</event>
<event>
 5   0  0.1423543E-05  0.1700078E+04  0.7818609E-02  0.8761320E-01
        2   -1    0    0  501    0  0.00000000000E+00  0.00000000000E+00  0.16009408384E+04  0.16009408384E+04  0.25500000920E-02 0. -1.
       -2   -1    0    0    0  501  0.00000000000E+00  0.00000000000E+00 -0.45133849880E+03  0.45133849881E+03  0.25500000920E-02 0.  1.
    10030    2    1    2    0    0  0.00000000000E+00  0.00000000000E+00  0.11496023396E+04  0.20522793372E+04  0.17000779214E+04 0.  0.
        3    1    3    3  502    0  0.21414019588E+03  0.22568042653E+03 -0.38014299710E+03  0.49121928592E+03  0.10100000352E+00 0.  1.
       -3    1    3    3    0  502 -0.21414019588E+03 -0.22568042653E+03  0.15297453367E+04  0.15610600513E+04  0.10100000352E+00 0. -1.
</event>
<event>
 5   0  0.1441756E-05  0.1702255E+04  0.7818609E-02  0.8760079E-01
        2   -1    0    0  501    0  0.00000000000E+00  0.00000000000E+00  0.55905268686E+03  0.55905268687E+03  0.25500000920E-02 0. -1.
       -2   -1    0    0    0  501  0.00000000000E+00  0.00000000000E+00 -0.12957953120E+04  0.12957953120E+04  0.25500000920E-02 0.  1.
    10030    2    1    2    0    0  0.00000000000E+00  0.00000000000E+00 -0.73674262517E+03  0.18548479989E+04  0.17022547998E+04 0.  0.
        5    1    3    3  502    0  0.49088103877E+03 -0.59484569180E+03 -0.76062748611E+03  0.10832275171E+04  0.46999998093E+01 0. -1.
       -5    1    3    3    0  502 -0.49088103877E+03  0.59484569180E+03  0.23884860937E+02  0.77162048175E+03  0.46999998093E+01 0.  1.
</event>
<event>
 5   0  0.1435301E-05  0.1700140E+04  0.7818609E-02  0.8761285E-01
       -2   -1    0    0    0  501  0.00000000000E+00  0.00000000000E+00  0.28705898847E+03  0.28705898848E+03  0.25500000920E-02 0.  1.
        2   -1    0    0  501    0  0.00000000000E+00  0.00000000000E+00 -0.25173173889E+04  0.25173173889E+04  0.25500000920E-02 0. -1.
    10030    2    1    2    0    0  0.00000000000E+00  0.00000000000E+00 -0.22302584005E+04  0.28043763774E+04  0.17001395041E+04 0.  0.
        2    1    3    3  502    0  0.11010792639E+03  0.56513869010E+03 -0.83549193023E+02  0.58179546420E+03  0.25500000920E-02 0.  1.
       -2    1    3    3    0  502 -0.11010792639E+03 -0.56513869010E+03 -0.21467092074E+04  0.22225809132E+04  0.25500000920E-02 0. -1.
</event>
<event>
 5   0  0.7476457E-06  0.1699490E+04  0.7818609E-02  0.8761655E-01
        1   -1    0    0  501    0  0.00000000000E+00  0.00000000000E+00  0.24785788402E+04  0.24785788402E+04  0.50400001928E-02 0. -1.
       -1   -1    0    0    0  501  0.00000000000E+00  0.00000000000E+00 -0.29132273539E+03  0.29132273544E+03  0.50400001928E-02 0.  1.
    10030    2    1    2    0    0  0.00000000000E+00  0.00000000000E+00  0.21872561048E+04  0.27699015756E+04  0.16994897678E+04 0.  0.
        2    1    3    3  502    0  0.66682981907E+03  0.33887406125E+03  0.43647838776E+03  0.86603176615E+03  0.25500000920E-02 0.  1.
       -2    1    3    3    0  502 -0.66682981907E+03 -0.33887406125E+03  0.17507777170E+04  0.19038698095E+04  0.25500000920E-02 0. -1.
</event>
<event>
 5   0  0.1374441E-05  0.1699764E+04  0.7818609E-02  0.8761499E-01
        2   -1    0    0  501    0  0.00000000000E+00  0.00000000000E+00  0.73661997155E+03  0.73661997156E+03  0.25500000920E-02 0.  1.
       -2   -1    0    0    0  501  0.00000000000E+00  0.00000000000E+00 -0.98055914463E+03  0.98055914464E+03  0.25500000920E-02 0. -1.
    10030    2    1    2    0    0  0.00000000000E+00  0.00000000000E+00 -0.24393917308E+03  0.17171791162E+04  0.16997640415E+04 0.  0.
        1    1    3    3  502    0 -0.83949106130E+03 -0.12625713953E+03 -0.81391630300E+02  0.85282513143E+03  0.50400001928E-02 0.  1.
       -1    1    3    3    0  502  0.83949106130E+03  0.12625713953E+03 -0.16254754278E+03  0.86435398476E+03  0.50400001928E-02 0. -1.
</event>
<event>
 5   0  0.5229750E-06  0.1701438E+04  0.7818609E-02  0.8760545E-01
        3   -1    0    0  501    0  0.00000000000E+00  0.00000000000E+00  0.10084761296E+04  0.10084761347E+04  0.10100000352E+00 0. -1.
       -3   -1    0    0    0  501  0.00000000000E+00  0.00000000000E+00 -0.71763990965E+03  0.71763991676E+03  0.10100000352E+00 0.  1.
    10030    2    1    2    0    0  0.00000000000E+00  0.00000000000E+00  0.29083621996E+03  0.17261160514E+04  0.17014378966E+04 0.  0.
        5    1    3    3  502    0 -0.30042710529E+03  0.78876033717E+03  0.25326771312E+03  0.88122978819E+03  0.46999998093E+01 0.  1.
       -5    1    3    3    0  502  0.30042710529E+03 -0.78876033717E+03  0.37568506841E+02  0.84488626323E+03  0.46999998093E+01 0. -1.
</event>
<event>
 5   0  0.5229750E-06  0.1700573E+04  0.7818609E-02  0.8761038E-01
       -4   -1    0    0    0  501  0.00000000000E+00  0.00000000000E+00  0.12511416338E+04  0.12511422784E+04  0.12699999809E+01 0.  1.
        4   -1    0    0  501    0  0.00000000000E+00  0.00000000000E+00 -0.57786021375E+03  0.57786160933E+03  0.12699999809E+01 0. -1.
    10030    2    1    2    0    0  0.00000000000E+00  0.00000000000E+00  0.67328142007E+03  0.18290038877E+04  0.17005726538E+04 0.  0.
        5    1    3    3  502    0  0.59279727205E+03  0.23373952298E+03  0.94211487368E+03  0.11373852890E+04  0.46999998093E+01 0.  1.
       -5    1    3    3    0  502 -0.59279727205E+03 -0.23373952298E+03 -0.26883345362E+03  0.69161859875E+03  0.46999998093E+01 0. -1.
</event>
<event>
 5   0  0.7082527E-06  0.1700765E+04  0.7818609E-02  0.8760928E-01
        1   -1    0    0  501    0  0.00000000000E+00  0.00000000000E+00  0.14094259175E+04  0.14094259175E+04  0.50400001928E-02 0. -1.
       -1   -1    0    0    0  501  0.00000000000E+00  0.00000000000E+00 -0.51308125549E+03  0.51308125551E+03  0.50400001928E-02 0.  1.
    10030    2    1    2    0    0  0.00000000000E+00  0.00000000000E+00  0.89634466197E+03  0.19225071730E+04  0.17007645566E+04 0.  0.
        1    1    3    3  502    0  0.29588038849E+03 -0.48056201284E+03  0.11672430029E+04  0.12965111956E+04  0.50400001928E-02 0. -1.
       -1    1    3    3    0  502 -0.29588038849E+03  0.48056201284E+03 -0.27089834098E+03  0.62599597734E+03  0.50400001928E-02 0.  1.
</event>
<event>
 5   0  0.7461128E-06  0.1700987E+04  0.7818609E-02  0.8760802E-01
       -1   -1    0    0    0  501  0.00000000000E+00  0.00000000000E+00  0.11339317705E+04  0.11339317705E+04  0.50400001928E-02 0.  1.
        1   -1    0    0  501    0  0.00000000000E+00  0.00000000000E+00 -0.63790336167E+03  0.63790336169E+03  0.50400001928E-02 0. -1.
    10030    2    1    2    0    0  0.00000000000E+00  0.00000000000E+00  0.49602840879E+03  0.17718351322E+04  0.17009866411E+04 0.  0.
        3    1    3    3  502    0 -0.73763925110E+03 -0.13069782396E+03  0.66745877546E+03  0.10033418227E+04  0.10100000352E+00 0.  1.
       -3    1    3    3    0  502  0.73763925110E+03  0.13069782396E+03 -0.17143036667E+03  0.76849330951E+03  0.10100000352E+00 0. -1.
</event>
<event>
 5   0  0.7476457E-06  0.1699331E+04  0.7818609E-02  0.8761746E-01
       -1   -1    0    0    0  501  0.00000000000E+00  0.00000000000E+00  0.64947472728E+03  0.64947472730E+03  0.50400001928E-02 0.  1.
        1   -1    0    0  501    0  0.00000000000E+00  0.00000000000E+00 -0.11115618106E+04  0.11115618106E+04  0.50400001928E-02 0. -1.
    10030    2    1    2    0    0  0.00000000000E+00  0.00000000000E+00 -0.46208708333E+03  0.17610365379E+04  0.16993308140E+04 0.  0.
        2    1    3    3  502    0  0.68508617051E+03 -0.38483285628E+03 -0.56603349286E+03  0.96841793836E+03  0.25500000920E-02 0. -1.
       -2    1    3    3    0  502 -0.68508617051E+03  0.38483285628E+03  0.10394640953E+03  0.79261859955E+03  0.25500000920E-02 0.  1.
</event>
<event>
 5   0  0.7461128E-06  0.1700824E+04  0.7818609E-02  0.8760895E-01
        1   -1    0    0  501    0  0.00000000000E+00  0.00000000000E+00  0.91899763990E+03  0.91899763992E+03  0.50400001928E-02 0. -1.
       -1   -1    0    0    0  501  0.00000000000E+00  0.00000000000E+00 -0.78694465826E+03  0.78694465828E+03  0.50400001928E-02 0.  1.
    10030    2    1    2    0    0  0.00000000000E+00  0.00000000000E+00  0.13205298164E+03  0.17059422982E+04  0.17008236636E+04 0.  0.
        3    1    3    3  502    0  0.67898519739E+02 -0.13775408661E+03  0.90497296901E+03  0.91791202312E+03  0.10100000352E+00 0. -1.
       -3    1    3    3    0  502 -0.67898519739E+02  0.13775408661E+03 -0.77291998736E+03  0.78803027507E+03  0.10100000352E+00 0.  1.
</event>
<event>
 5   0  0.7455669E-06  0.1700266E+04  0.7818609E-02  0.8761213E-01
       -1   -1    0    0    0  501  0.00000000000E+00  0.00000000000E+00  0.26108222841E+03  0.26108222846E+03  0.50400001928E-02 0. -1.
        1   -1    0    0  501    0  0.00000000000E+00  0.00000000000E+00 -0.27681928610E+04  0.27681928610E+04  0.50400001928E-02 0.  1.
    10030    2    1    2    0    0  0.00000000000E+00  0.00000000000E+00 -0.25071106326E+04  0.30292750895E+04  0.17002658156E+04 0.  0.
        4    1    3    3  502    0  0.34051749140E+03  0.17207332222E+03  0.99984748719E+02  0.39441089367E+03  0.12699999809E+01 0. -1.
       -4    1    3    3    0  502 -0.34051749140E+03 -0.17207332222E+03 -0.26070953813E+04  0.26348641958E+04  0.12699999809E+01 0.  1.
</event>
<event>
 5   0  0.7476457E-06  0.1699934E+04  0.7818609E-02  0.8761402E-01
        1   -1    0    0  501    0  0.00000000000E+00  0.00000000000E+00  0.14335451484E+04  0.14335451484E+04  0.50400001928E-02 0.  1.
       -1   -1    0    0    0  501  0.00000000000E+00  0.00000000000E+00 -0.50395626150E+03  0.50395626152E+03  0.50400001928E-02 0. -1.
    10030    2    1    2    0    0  0.00000000000E+00  0.00000000000E+00  0.92958888689E+03  0.19375014099E+04  0.16999341796E+04 0.  0.
        2    1    3    3  502    0 -0.43284115945E+03 -0.41062415727E+03  0.11547725160E+04  0.12997935342E+04  0.25500000920E-02 0.  1.
       -2    1    3    3    0  502  0.43284115945E+03  0.41062415727E+03 -0.22518362916E+03  0.63770787567E+03  0.25500000920E-02 0. -1.
</event>
<event>
 5   0  0.1435301E-05  0.1699612E+04  0.7818609E-02  0.8761586E-01
       -2   -1    0    0    0  501  0.00000000000E+00  0.00000000000E+00  0.80993031760E+03  0.80993031760E+03  0.25500000920E-02 0.  1.
        2   -1    0    0  501    0  0.00000000000E+00  0.00000000000E+00 -0.89164489187E+03  0.89164489187E+03  0.25500000920E-02 0. -1.
    10030    2    1    2    0    0  0.00000000000E+00  0.00000000000E+00 -0.81714574271E+02  0.17015752095E+04  0.16996119916E+04 0.  0.
        2    1    3    3  502    0  0.11661186380E+03 -0.55366247307E+03 -0.67564786152E+03  0.88127208832E+03  0.25500000920E-02 0. -1.
       -2    1    3    3    0  502 -0.11661186380E+03  0.55366247307E+03  0.59393328725E+03  0.82030312115E+03  0.25500000920E-02 0.  1.
</event>
<event>
 5   0  0.7476457E-06  0.1699539E+04  0.7818609E-02  0.8761627E-01
       -1   -1    0    0    0  501  0.00000000000E+00  0.00000000000E+00  0.77587286826E+03  0.77587286828E+03  0.50400001928E-02 0. -1.
        1   -1    0    0  501    0  0.00000000000E+00  0.00000000000E+00 -0.93070477075E+03  0.93070477076E+03  0.50400001928E-02 0.  1.
    10030    2    1    2    0    0  0.00000000000E+00  0.00000000000E+00 -0.15483190249E+03  0.17065776390E+04  0.16995394435E+04 0.  0.
        2    1    3    3  502    0 -0.64131959500E+03  0.28964047350E+03  0.40092446610E+03  0.80989064345E+03  0.25500000920E-02 0. -1.
       -2    1    3    3    0  502  0.64131959500E+03 -0.28964047350E+03 -0.55575636859E+03  0.89668699559E+03  0.25500000920E-02 0.  1.
</event>
<event>
 5   0  0.7583716E-06  0.1700094E+04  0.7818609E-02  0.8761311E-01
        1   -1    0    0  501    0  0.00000000000E+00  0.00000000000E+00  0.68397498373E+03  0.68397498375E+03  0.50400001928E-02 0.  1.
       -1   -1    0    0    0  501  0.00000000000E+00  0.00000000000E+00 -0.10564425063E+04  0.10564425063E+04  0.50400001928E-02 0. -1.
    10030    2    1    2    0    0  0.00000000000E+00  0.00000000000E+00 -0.37246752252E+03  0.17404174900E+04  0.17000944045E+04 0.  0.
        5    1    3    3  502    0 -0.46032623572E+02  0.55488530059E+03 -0.84376168334E+03  0.10109265886E+04  0.46999998093E+01 0. -1.
       -5    1    3    3    0  502  0.46032623572E+02 -0.55488530059E+03  0.47129416082E+03  0.72949090142E+03  0.46999998093E+01 0.  1.
</event>
<event>
 5   0  0.5229750E-06  0.1701535E+04  0.7818609E-02  0.8760489E-01
        3   -1    0    0  501    0  0.00000000000E+00  0.00000000000E+00  0.44712308225E+03  0.44712309366E+03  0.10100000352E+00 0.  1.
       -3   -1    0    0    0  501  0.00000000000E+00  0.00000000000E+00 -0.16188054193E+04  0.16188054225E+04  0.10100000352E+00 0. -1.
    10030    2    1    2    0    0  0.00000000000E+00  0.00000000000E+00 -0.11716823371E+04  0.20659285162E+04  0.17015349349E+04 0.  0.
        3    1    3    3  502    0  0.58203918831E+03 -0.26453225107E+03  0.95665192308E+02  0.64645090131E+03  0.10100000352E+00 0.  1.
       -3    1    3    3    0  502 -0.58203918831E+03  0.26453225107E+03 -0.12673475294E+04  0.14194776148E+04  0.10100000352E+00 0. -1.
</event>
<event>
 5   0  0.1423543E-05  0.1700296E+04  0.7818609E-02  0.8761196E-01
       -2   -1    0    0    0  501  0.00000000000E+00  0.00000000000E+00  0.32105351402E+03  0.32105351403E+03  0.25500000920E-02 0. -1.
        2   -1    0    0  501    0  0.00000000000E+00  0.00000000000E+00 -0.22511865158E+04  0.22511865158E+04  0.25500000920E-02 0.  1.
    10030    2    1    2    0    0  0.00000000000E+00  0.00000000000E+00 -0.19301330018E+04  0.25722400298E+04  0.17002956703E+04 0.  0.
        3    1    3    3  502    0  0.33725499564E+03 -0.42010057608E+03 -0.19599978279E+04  0.20326871185E+04  0.10100000352E+00 0.  1.
       -3    1    3    3    0  502 -0.33725499564E+03  0.42010057608E+03  0.29864826103E+02  0.53955291135E+03  0.10100000352E+00 0. -1.
</event>
<event>
 5   0  0.1423543E-05  0.1699422E+04  0.7818609E-02  0.8761694E-01
       -2   -1    0    0    0  501  0.00000000000E+00  0.00000000000E+00  0.34976053336E+03  0.34976053337E+03  0.25500000920E-02 0. -1.
        2   -1    0    0  501    0  0.00000000000E+00  0.00000000000E+00 -0.20642936050E+04  0.20642936050E+04  0.25500000920E-02 0.  1.
    10030    2    1    2    0    0  0.00000000000E+00  0.00000000000E+00 -0.17145330716E+04  0.24140541384E+04  0.16994215867E+04 0.  0.
        3    1    3    3  502    0 -0.26362050284E+03 -0.17785350745E+03  0.26204243342E+03  0.41206053772E+03  0.10100000352E+00 0. -1.
       -3    1    3    3    0  502  0.26362050284E+03  0.17785350745E+03 -0.19765755051E+04  0.20019936006E+04  0.10100000352E+00 0.  1.
</event>
<event>
 5   0  0.1419012E-05  0.1701101E+04  0.7818609E-02  0.8760737E-01
       -2   -1    0    0    0  501  0.00000000000E+00  0.00000000000E+00  0.47431034464E+03  0.47431034465E+03  0.25500000920E-02 0.  1.
        2   -1    0    0  501    0  0.00000000000E+00  0.00000000000E+00 -0.15252382979E+04  0.15252382979E+04  0.25500000920E-02 0. -1.
    10030    2    1    2    0    0  0.00000000000E+00  0.00000000000E+00 -0.10509279532E+04  0.19995486425E+04  0.17011011760E+04 0.  0.
        4    1    3    3  502    0 -0.28765586594E+03 -0.71979244079E+03 -0.93701639846E+03  0.12160791088E+04  0.12699999809E+01 0. -1.
       -4    1    3    3    0  502  0.28765586594E+03  0.71979244079E+03 -0.11391155476E+03  0.78346953370E+03  0.12699999809E+01 0.  1.
</event>
<event>
 5   0  0.1423543E-05  0.1699255E+04  0.7818609E-02  0.8761790E-01
        2   -1    0    0  501    0  0.00000000000E+00  0.00000000000E+00  0.23007285308E+04  0.23007285308E+04  0.25500000920E-02 0. -1.
       -2   -1    0    0    0  501  0.00000000000E+00  0.00000000000E+00 -0.31375563223E+03  0.31375563224E+03  0.25500000920E-02 0.  1.
    10030    2    1    2    0    0  0.00000000000E+00  0.00000000000E+00  0.19869728986E+04  0.26144841631E+04  0.16992545834E+04 0.  0.
        3    1    3    3  502    0  0.52023571978E+03  0.53200824024E+03  0.36249164639E+03  0.82769449420E+03  0.10100000352E+00 0.  1.
       -3    1    3    3    0  502 -0.52023571978E+03 -0.53200824024E+03  0.16244812522E+04  0.17867896689E+04  0.10100000352E+00 0. -1.
</event>
<event>
 5   0  0.1374441E-05  0.1700536E+04  0.7818609E-02  0.8761059E-01
       -2   -1    0    0    0  501  0.00000000000E+00  0.00000000000E+00  0.76989493211E+03  0.76989493212E+03  0.25500000920E-02 0.  1.
        2   -1    0    0  501    0  0.00000000000E+00  0.00000000000E+00 -0.93903178973E+03  0.93903178973E+03  0.25500000920E-02 0. -1.
    10030    2    1    2    0    0  0.00000000000E+00  0.00000000000E+00 -0.16913685761E+03  0.17089267218E+04  0.17005361696E+04 0.  0.
        1    1    3    3  502    0 -0.72405317274E+03 -0.32217752631E+03 -0.39415411994E+03  0.88510385024E+03  0.50400001928E-02 0. -1.
       -1    1    3    3    0  502  0.72405317274E+03  0.32217752631E+03  0.22501726233E+03  0.82382287161E+03  0.50400001928E-02 0.  1.
</event>
<event>
 5   0  0.1423543E-05  0.1700937E+04  0.7818609E-02  0.8760830E-01
        2   -1    0    0  501    0  0.00000000000E+00  0.00000000000E+00  0.11905315862E+04  0.11905315862E+04  0.25500000920E-02 0. -1.
       -2   -1    0    0    0  501  0.00000000000E+00  0.00000000000E+00 -0.60754077565E+03  0.60754077566E+03  0.25500000920E-02 0.  1.
    10030    2    1    2    0    0  0.00000000000E+00  0.00000000000E+00  0.58299081055E+03  0.17980723619E+04  0.17009367811E+04 0.  0.
        3    1    3    3  502    0 -0.63961694711E+03  0.55605357127E+03  0.36617731023E+03  0.92325037010E+03  0.10100000352E+00 0. -1.
       -3    1    3    3    0  502  0.63961694711E+03 -0.55605357127E+03  0.21681350031E+03  0.87482199176E+03  0.10100000352E+00 0.  1.
</event>
<event>
 5   0  0.1441756E-05  0.1697711E+04  0.7818609E-02  0.8762671E-01
       -2   -1    0    0    0  501  0.00000000000E+00  0.00000000000E+00  0.64856740098E+03  0.64856740099E+03  0.25500000920E-02 0.  1.
        2   -1    0    0  501    0  0.00000000000E+00  0.00000000000E+00 -0.11109953248E+04  0.11109953248E+04  0.25500000920E-02 0. -1.
    10030    2    1    2    0    0  0.00000000000E+00  0.00000000000E+00 -0.46242792384E+03  0.17595627258E+04  0.16977106353E+04 0.  0.
        5    1    3    3  502    0 -0.27742769732E+03  0.32302102474E+02  0.59956532927E+03  0.66144555870E+03  0.46999998093E+01 0.  1.
       -5    1    3    3    0  502  0.27742769732E+03 -0.32302102474E+02 -0.10619932531E+04  0.10981171671E+04  0.46999998093E+01 0. -1.
</event>
<event>
 5   0  0.7461128E-06  0.1700083E+04  0.7818609E-02  0.8761317E-01
       -1   -1    0    0    0  501  0.00000000000E+00  0.00000000000E+00  0.90016278155E+03  0.90016278156E+03  0.50400001928E-02 0.  1.
        1   -1    0    0  501    0  0.00000000000E+00  0.00000000000E+00 -0.80271096425E+03  0.80271096426E+03  0.50400001928E-02 0. -1.
    10030    2    1    2    0    0  0.00000000000E+00  0.00000000000E+00  0.97451817305E+02  0.17028737458E+04  0.17000829796E+04 0.  0.
        3    1    3    3  502    0 -0.50034256356E+03  0.34319424438E+03 -0.54760469356E+03  0.81731014975E+03  0.10100000352E+00 0. -1.
       -3    1    3    3    0  502  0.50034256356E+03 -0.34319424438E+03  0.64505651086E+03  0.88556359607E+03  0.10100000352E+00 0.  1.
</event>
<event>
 5   0  0.7082527E-06  0.1699865E+04  0.7818609E-02  0.8761441E-01
        1   -1    0    0  501    0  0.00000000000E+00  0.00000000000E+00  0.74996745054E+03  0.74996745056E+03  0.50400001928E-02 0. -1.
       -1   -1    0    0    0  501  0.00000000000E+00  0.00000000000E+00 -0.96322219226E+03  0.96322219227E+03  0.50400001928E-02 0.  1.
    10030    2    1    2    0    0  0.00000000000E+00  0.00000000000E+00 -0.21325474172E+03  0.17131896428E+04  0.16998650439E+04 0.  0.
        1    1    3    3  502    0  0.44185545531E+03  0.70693913756E+03  0.60157297422E+02  0.83583376819E+03  0.50400001928E-02 0. -1.
       -1    1    3    3    0  502 -0.44185545531E+03 -0.70693913756E+03 -0.27341203914E+03  0.87735587464E+03  0.50400001928E-02 0.  1.
</event>
<event>
 5   0  0.7461128E-06  0.1700602E+04  0.7818609E-02  0.8761021E-01
       -1   -1    0    0    0  501  0.00000000000E+00  0.00000000000E+00  0.86011893331E+03  0.86011893333E+03  0.50400001928E-02 0.  1.
        1   -1    0    0  501    0  0.00000000000E+00  0.00000000000E+00 -0.84059475797E+03  0.84059475798E+03  0.50400001928E-02 0. -1.
    10030    2    1    2    0    0  0.00000000000E+00  0.00000000000E+00  0.19524175344E+02  0.17007136913E+04  0.17006016190E+04 0.  0.
        3    1    3    3  502    0  0.11947272407E+03 -0.30624355008E+03  0.79400291039E+03  0.85935992208E+03  0.10100000352E+00 0.  1.
       -3    1    3    3    0  502 -0.11947272407E+03  0.30624355008E+03 -0.77447873504E+03  0.84135376923E+03  0.10100000352E+00 0. -1.
</event>
<event>
 5   0  0.7082527E-06  0.1704205E+04  0.7818609E-02  0.8758970E-01
       -1   -1    0    0    0  501  0.00000000000E+00  0.00000000000E+00  0.98888350415E+03  0.98888350416E+03  0.50400001928E-02 0.  1.
        1   -1    0    0  501    0  0.00000000000E+00  0.00000000000E+00 -0.73424111506E+03  0.73424111507E+03  0.50400001928E-02 0. -1.
    10030    2    1    2    0    0  0.00000000000E+00  0.00000000000E+00  0.25464238909E+03  0.17231246192E+04  0.17042053007E+04 0.  0.
        1    1    3    3  502    0 -0.29484406025E+03 -0.40475537913E+03 -0.56976640710E+03  0.75854709510E+03  0.50400001928E-02 0. -1.
       -1    1    3    3    0  502  0.29484406025E+03  0.40475537913E+03  0.82440879619E+03  0.96457752413E+03  0.50400001928E-02 0.  1.
</event>
<event>
 5   0  0.7455669E-06  0.1699065E+04  0.7818609E-02  0.8761898E-01
        1   -1    0    0  501    0  0.00000000000E+00  0.00000000000E+00  0.80751556367E+03  0.80751556368E+03  0.50400001928E-02 0.  1.
       -1   -1    0    0    0  501  0.00000000000E+00  0.00000000000E+00 -0.89373598598E+03  0.89373598599E+03  0.50400001928E-02 0. -1.
    10030    2    1    2    0    0  0.00000000000E+00  0.00000000000E+00 -0.86220422313E+02  0.17012515497E+04  0.16990652942E+04 0.  0.
        4    1    3    3  502    0 -0.27768249725E+03  0.19981793480E+03 -0.82171565358E+03  0.89008595348E+03  0.12699999809E+01 0. -1.
       -4    1    3    3    0  502  0.27768249725E+03 -0.19981793480E+03  0.73549523126E+03  0.81116559620E+03  0.12699999809E+01 0.  1.
</event>
<event>
 5   0  0.1419012E-05  0.1700441E+04  0.7818609E-02  0.8761113E-01
       -2   -1    0    0    0  501  0.00000000000E+00  0.00000000000E+00  0.76064553302E+03  0.76064553302E+03  0.25500000920E-02 0. -1.
        2   -1    0    0  501    0  0.00000000000E+00  0.00000000000E+00 -0.95034411172E+03  0.95034411172E+03  0.25500000920E-02 0.  1.
    10030    2    1    2    0    0  0.00000000000E+00  0.00000000000E+00 -0.18969857870E+03  0.17109896447E+04  0.17004411233E+04 0.  0.
        4    1    3    3  502    0  0.48332023332E+03 -0.61844506600E+03 -0.42368026066E+03  0.89195253448E+03  0.12699999809E+01 0.  1.
       -4    1    3    3    0  502 -0.48332023332E+03  0.61844506600E+03  0.23398168196E+03  0.81903711026E+03  0.12699999809E+01 0. -1.
</event>
<event>
 5   0  0.1441756E-05  0.1700666E+04  0.7818609E-02  0.8760985E-01
        2   -1    0    0  501    0  0.00000000000E+00  0.00000000000E+00  0.20750348123E+04  0.20750348123E+04  0.25500000920E-02 0. -1.
       -2   -1    0    0    0  501  0.00000000000E+00  0.00000000000E+00 -0.34845963612E+03  0.34845963613E+03  0.25500000920E-02 0.  1.
    10030    2    1    2    0    0  0.00000000000E+00  0.00000000000E+00  0.17265751762E+04  0.24234944484E+04  0.17006656057E+04 0.  0.
        5    1    3    3  502    0 -0.82785303410E+02 -0.27734220190E+03  0.20026603530E+04  0.20234729262E+04  0.46999998093E+01 0. -1.
       -5    1    3    3    0  502  0.82785303410E+02  0.27734220190E+03 -0.27608517682E+03  0.40002152226E+03  0.46999998093E+01 0.  1.
</event>
<event>
 5   0  0.7082527E-06  0.1700573E+04  0.7818609E-02  0.8761037E-01
       -1   -1    0    0    0  501  0.00000000000E+00  0.00000000000E+00  0.83579334642E+03  0.83579334643E+03  0.50400001928E-02 0. -1.
        1   -1    0    0  501    0  0.00000000000E+00  0.00000000000E+00 -0.86503143773E+03  0.86503143775E+03  0.50400001928E-02 0.  1.
    10030    2    1    2    0    0  0.00000000000E+00  0.00000000000E+00 -0.29238091319E+02  0.17008247842E+04  0.17005734564E+04 0.  0.
        1    1    3    3  502    0 -0.55116714764E+03  0.52542565666E+03  0.36376235496E+03  0.84390781264E+03  0.50400001928E-02 0. -1.
       -1    1    3    3    0  502  0.55116714764E+03 -0.52542565666E+03 -0.39300044628E+03  0.85691697154E+03  0.50400001928E-02 0.  1.
</event>
<event>
 5   0  0.1423543E-05  0.1698949E+04  0.7818609E-02  0.8761964E-01
        2   -1    0    0  501    0  0.00000000000E+00  0.00000000000E+00  0.10169165448E+04  0.10169165448E+04  0.25500000920E-02 0. -1.
       -2   -1    0    0    0  501  0.00000000000E+00  0.00000000000E+00 -0.70960278419E+03  0.70960278419E+03  0.25500000920E-02 0.  1.
    10030    2    1    2    0    0  0.00000000000E+00  0.00000000000E+00  0.30731376058E+03  0.17265193290E+04  0.16989488650E+04 0.  0.
        3    1    3    3  502    0 -0.71898716878E+03  0.38090789946E+03  0.40169442292E+03  0.90740938740E+03  0.10100000352E+00 0.  1.
       -3    1    3    3    0  502  0.71898716878E+03 -0.38090789946E+03 -0.94380662343E+02  0.81910994156E+03  0.10100000352E+00 0. -1.
</event>
<event>
 5   0  0.1374441E-05  0.1700349E+04  0.7818609E-02  0.8761165E-01
       -2   -1    0    0    0  501  0.00000000000E+00  0.00000000000E+00  0.60834421813E+03  0.60834421814E+03  0.25500000920E-02 0. -1.
        2   -1    0    0  501    0  0.00000000000E+00  0.00000000000E+00 -0.11881382022E+04  0.11881382022E+04  0.25500000920E-02 0.  1.
    10030    2    1    2    0    0  0.00000000000E+00  0.00000000000E+00 -0.57979398404E+03  0.17964824203E+04  0.17003493825E+04 0.  0.
        1    1    3    3  502    0  0.66101434425E+03 -0.19949689549E+02  0.27459360678E+03  0.71605837913E+03  0.50400001928E-02 0. -1.
       -1    1    3    3    0  502 -0.66101434425E+03  0.19949689549E+02 -0.85438759082E+03  0.10804240412E+04  0.50400001928E-02 0.  1.
</event>
<event>
 5   0  0.1435301E-05  0.1699185E+04  0.7818609E-02  0.8761830E-01
        2   -1    0    0  501    0  0.00000000000E+00  0.00000000000E+00  0.10234742696E+04  0.10234742696E+04  0.25500000920E-02 0.  1.
       -2   -1    0    0    0  501  0.00000000000E+00  0.00000000000E+00 -0.70525182690E+03  0.70525182690E+03  0.25500000920E-02 0. -1.
    10030    2    1    2    0    0  0.00000000000E+00  0.00000000000E+00  0.31822244265E+03  0.17287260965E+04  0.16991846261E+04 0.  0.
        2    1    3    3  502    0 -0.74647168321E-01 -0.54147736046E+03 -0.50695351918E+03  0.74175441224E+03  0.25500000920E-02 0. -1.
       -2    1    3    3    0  502  0.74647168321E-01  0.54147736046E+03  0.82517596183E+03  0.98697168422E+03  0.25500000920E-02 0.  1.
</event>
<event>
 5   0  0.5229750E-06  0.1699993E+04  0.7818609E-02  0.8761368E-01
        4   -1    0    0  501    0  0.00000000000E+00  0.00000000000E+00  0.10026546543E+04  0.10026554587E+04  0.12699999809E+01 0.  1.
       -4   -1    0    0    0  501  0.00000000000E+00  0.00000000000E+00 -0.72057928661E+03  0.72058040578E+03  0.12699999809E+01 0. -1.
    10030    2    1    2    0    0  0.00000000000E+00  0.00000000000E+00  0.28207536773E+03  0.17232358644E+04  0.16999927445E+04 0.  0.
        5    1    3    3  502    0 -0.67591620259E+03 -0.51514339045E+03  0.15662047786E+03  0.86416866972E+03  0.46999998093E+01 0.  1.
       -5    1    3    3    0  502  0.67591620259E+03  0.51514339045E+03  0.12545488987E+03  0.85906719471E+03  0.46999998093E+01 0. -1.
</event>
<event>
 5   0  0.7455669E-06  0.1699736E+04  0.7818609E-02  0.8761515E-01
       -1   -1    0    0    0  501  0.00000000000E+00  0.00000000000E+00  0.11239747942E+04  0.11239747942E+04  0.50400001928E-02 0.  1.
        1   -1    0    0  501    0  0.00000000000E+00  0.00000000000E+00 -0.64260848418E+03  0.64260848420E+03  0.50400001928E-02 0. -1.
    10030    2    1    2    0    0  0.00000000000E+00  0.00000000000E+00  0.48136631000E+03  0.17665832784E+04  0.16997361428E+04 0.  0.
        4    1    3    3  502    0  0.80028731300E+03  0.67486631677E+02  0.52957126570E+03  0.96200913050E+03  0.12699999809E+01 0.  1.
       -4    1    3    3    0  502 -0.80028731300E+03 -0.67486631677E+02 -0.48204955702E+02  0.80457414789E+03  0.12699999809E+01 0. -1.
</event>
<event>
 5   0  0.1441756E-05  0.1699605E+04  0.7818609E-02  0.8761589E-01
       -2   -1    0    0    0  501  0.00000000000E+00  0.00000000000E+00  0.75356537687E+03  0.75356537687E+03  0.25500000920E-02 0.  1.
        2   -1    0    0  501    0  0.00000000000E+00  0.00000000000E+00 -0.95833047535E+03  0.95833047535E+03  0.25500000920E-02 0. -1.
    10030    2    1    2    0    0  0.00000000000E+00  0.00000000000E+00 -0.20476509848E+03  0.17118958522E+04  0.16996054434E+04 0.  0.
        5    1    3    3  502    0  0.48765162710E+03 -0.69011496602E+03 -0.11844833261E+02  0.84511843301E+03  0.46999998093E+01 0.  1.
       -5    1    3    3    0  502 -0.48765162710E+03  0.69011496602E+03 -0.19292026522E+03  0.86677741922E+03  0.46999998093E+01 0. -1.
</event>
<event>
 5   0  0.5229750E-06  0.1699136E+04  0.7818609E-02  0.8761857E-01
        4   -1    0    0  501    0  0.00000000000E+00  0.00000000000E+00  0.68003906143E+03  0.68004024732E+03  0.12699999809E+01 0. -1.
       -4   -1    0    0    0  501  0.00000000000E+00  0.00000000000E+00 -0.10613570184E+04  0.10613577782E+04  0.12699999809E+01 0.  1.
    10030    2    1    2    0    0  0.00000000000E+00  0.00000000000E+00 -0.38131795699E+03  0.17413980256E+04  0.16991361626E+04 0.  0.
        4    1    3    3  502    0 -0.27732123887E+03 -0.95740510576E+02  0.62647429462E+03  0.69176944831E+03  0.12699999809E+01 0. -1.
       -4    1    3    3    0  502  0.27732123887E+03  0.95740510576E+02 -0.10077922516E+04  0.10496285773E+04  0.12699999809E+01 0.  1.
</event>
<event>
 5   0  0.7583716E-06  0.1699943E+04  0.7818609E-02  0.8761397E-01
        1   -1    0    0  501    0  0.00000000000E+00  0.00000000000E+00  0.15874088215E+04  0.15874088215E+04  0.50400001928E-02 0. -1.
       -1   -1    0    0    0  501  0.00000000000E+00  0.00000000000E+00 -0.45511351210E+03  0.45511351213E+03  0.50400001928E-02 0.  1.
    10030    2    1    2    0    0  0.00000000000E+00  0.00000000000E+00  0.11322953094E+04  0.20425223336E+04  0.16999425919E+04 0.  0.
        5    1    3    3  502    0 -0.48725877865E+03  0.55502657900E+03  0.60716359649E+02  0.74106962365E+03  0.46999998093E+01 0.  1.
       -5    1    3    3    0  502  0.48725877865E+03 -0.55502657900E+03  0.10715789497E+04  0.13014527100E+04  0.46999998093E+01 0. -1.
</event>
<event>
 5   0  0.7455669E-06  0.1699738E+04  0.7818609E-02  0.8761514E-01
        1   -1    0    0  501    0  0.00000000000E+00  0.00000000000E+00  0.10866171763E+04  0.10866171763E+04  0.50400001928E-02 0.  1.
       -1   -1    0    0    0  501  0.00000000000E+00  0.00000000000E+00 -0.66470281172E+03  0.66470281174E+03  0.50400001928E-02 0. -1.
    10030    2    1    2    0    0  0.00000000000E+00  0.00000000000E+00  0.42191436462E+03  0.17513199881E+04  0.16997382062E+04 0.  0.
        4    1    3    3  502    0 -0.71723675569E+03 -0.13630846118E+03  0.65920819902E+03  0.98364913605E+03  0.12699999809E+01 0.  1.
       -4    1    3    3    0  502  0.71723675569E+03  0.13630846118E+03 -0.23729383440E+03  0.76767085203E+03  0.12699999809E+01 0. -1.
</event>
<event>
 5   0  0.7461128E-06  0.1700860E+04  0.7818609E-02  0.8760874E-01
        1   -1    0    0  501    0  0.00000000000E+00  0.00000000000E+00  0.19913125527E+04  0.19913125527E+04  0.50400001928E-02 0.  1.
       -1   -1    0    0    0  501  0.00000000000E+00  0.00000000000E+00 -0.36319315423E+03  0.36319315427E+03  0.50400001928E-02 0. -1.
    10030    2    1    2    0    0  0.00000000000E+00  0.00000000000E+00  0.16281193985E+04  0.23545057070E+04  0.17008598850E+04 0.  0.
        3    1    3    3  502    0 -0.80151277365E+03 -0.82543052511E+02  0.43750126286E+03  0.91686610094E+03  0.10100000352E+00 0. -1.
       -3    1    3    3    0  502  0.80151277365E+03  0.82543052511E+02  0.11906181356E+04  0.14376396061E+04  0.10100000352E+00 0.  1.
</event>
<event>
 5   0  0.7583716E-06  0.1700961E+04  0.7818609E-02  0.8760816E-01
       -1   -1    0    0    0  501  0.00000000000E+00  0.00000000000E+00  0.10060683361E+04  0.10060683361E+04  0.50400001928E-02 0. -1.
        1   -1    0    0  501    0  0.00000000000E+00  0.00000000000E+00 -0.71895459826E+03  0.71895459827E+03  0.50400001928E-02 0.  1.
    10030    2    1    2    0    0  0.00000000000E+00  0.00000000000E+00  0.28711373781E+03  0.17250229343E+04  0.17009614415E+04 0.  0.
        5    1    3    3  502    0 -0.47594674894E+03 -0.42185099542E+03 -0.42906455908E+03  0.76720405110E+03  0.46999998093E+01 0.  1.
       -5    1    3    3    0  502  0.47594674894E+03  0.42185099542E+03  0.71617829689E+03  0.95781888325E+03  0.46999998093E+01 0. -1.
</event>
<event>
 5   0  0.7082527E-06  0.1696425E+04  0.7818609E-02  0.8763406E-01
        1   -1    0    0  501    0  0.00000000000E+00  0.00000000000E+00  0.99569256962E+03  0.99569256964E+03  0.50400001928E-02 0. -1.
       -1   -1    0    0    0  501  0.00000000000E+00  0.00000000000E+00 -0.72257686639E+03  0.72257686641E+03  0.50400001928E-02 0.  1.
    10030    2    1    2    0    0  0.00000000000E+00  0.00000000000E+00  0.27311570323E+03  0.17182694360E+04  0.16964249667E+04 0.  0.
        1    1    3    3  502    0 -0.11954167474E+02  0.81588501199E+02 -0.71850743082E+03  0.72322369556E+03  0.50400001928E-02 0.  1.
       -1    1    3    3    0  502  0.11954167474E+02 -0.81588501199E+02  0.99162313405E+03  0.99504574049E+03  0.50400001928E-02 0. -1.
</event>
<event>
 5   0  0.5229750E-06  0.1702118E+04  0.7818609E-02  0.8760157E-01
        3   -1    0    0  501    0  0.00000000000E+00  0.00000000000E+00  0.13449469890E+04  0.13449469928E+04  0.10100000352E+00 0. -1.
       -3   -1    0    0    0  501  0.00000000000E+00  0.00000000000E+00 -0.53853555411E+03  0.53853556358E+03  0.10100000352E+00 0.  1.
    10030    2    1    2    0    0  0.00000000000E+00  0.00000000000E+00  0.80641143489E+03  0.18834825564E+04  0.17021184265E+04 0.  0.
        3    1    3    3  502    0  0.50775356841E+03 -0.19511738674E+03  0.11274837709E+04  0.12518403032E+04  0.10100000352E+00 0. -1.
       -3    1    3    3    0  502 -0.50775356841E+03  0.19511738674E+03 -0.32107233602E+03  0.63164225318E+03  0.10100000352E+00 0.  1.
</event>
<event>
 5   0  0.1374441E-05  0.1700190E+04  0.7818609E-02  0.8761256E-01
       -2   -1    0    0    0  501  0.00000000000E+00  0.00000000000E+00  0.59583842564E+03  0.59583842565E+03  0.25500000920E-02 0.  1.
        2   -1    0    0  501    0  0.00000000000E+00  0.00000000000E+00 -0.12128485500E+04  0.12128485500E+04  0.25500000920E-02 0. -1.
    10030    2    1    2    0    0  0.00000000000E+00  0.00000000000E+00 -0.61701012437E+03  0.18086869757E+04  0.17001903077E+04 0.  0.
        1    1    3    3  502    0  0.22765550026E+03  0.75938117015E+03 -0.63496782265E+03  0.10157120282E+04  0.50400001928E-02 0. -1.
       -1    1    3    3    0  502 -0.22765550026E+03 -0.75938117015E+03  0.17957698274E+02  0.79297494748E+03  0.50400001928E-02 0.  1.
</event>
<event>
 5   0  0.7082527E-06  0.1699920E+04  0.7818609E-02  0.8761410E-01
        1   -1    0    0  501    0  0.00000000000E+00  0.00000000000E+00  0.18044484842E+04  0.18044484842E+04  0.50400001928E-02 0. -1.
       -1   -1    0    0    0  501  0.00000000000E+00  0.00000000000E+00 -0.40036147842E+03  0.40036147845E+03  0.50400001928E-02 0.  1.
    10030    2    1    2    0    0  0.00000000000E+00  0.00000000000E+00  0.14040870057E+04  0.22048099626E+04  0.16999196015E+04 0.  0.
        1    1    3    3  502    0 -0.76929725398E+03 -0.17939351725E+03  0.29512303773E+03  0.84326621327E+03  0.50400001928E-02 0.  1.
       -1    1    3    3    0  502  0.76929725398E+03  0.17939351725E+03  0.11089639680E+04  0.13615437493E+04  0.50400001928E-02 0. -1.
</event>
<event>
 5   0  0.1419012E-05  0.1699498E+04  0.7818609E-02  0.8761651E-01
       -2   -1    0    0    0  501  0.00000000000E+00  0.00000000000E+00  0.37422967381E+03  0.37422967381E+03  0.25500000920E-02 0. -1.
        2   -1    0    0  501    0  0.00000000000E+00  0.00000000000E+00 -0.19294921331E+04  0.19294921331E+04  0.25500000920E-02 0.  1.
    10030    2    1    2    0    0  0.00000000000E+00  0.00000000000E+00 -0.15552624593E+04  0.23037218069E+04  0.16994978218E+04 0.  0.
        4    1    3    3  502    0  0.52644513716E+03 -0.47916469134E+03 -0.14861769290E+03  0.72720844014E+03  0.12699999809E+01 0. -1.
       -4    1    3    3    0  502 -0.52644513716E+03  0.47916469134E+03 -0.14066447664E+04  0.15765133667E+04  0.12699999809E+01 0.  1.
</event>
<event>
 5   0  0.1441756E-05  0.1700135E+04  0.7818609E-02  0.8761287E-01
        2   -1    0    0  501    0  0.00000000000E+00  0.00000000000E+00  0.13738653096E+04  0.13738653096E+04  0.25500000920E-02 0.  1.
       -2   -1    0    0    0  501  0.00000000000E+00  0.00000000000E+00 -0.52597216564E+03  0.52597216565E+03  0.25500000920E-02 0. -1.
    10030    2    1    2    0    0  0.00000000000E+00  0.00000000000E+00  0.84789314398E+03  0.18998374753E+04  0.17001351855E+04 0.  0.
        5    1    3    3  502    0  0.67714570430E+03 -0.38657884113E+03  0.80227543964E+03  0.11187660507E+04  0.46999998093E+01 0.  1.
       -5    1    3    3    0  502 -0.67714570430E+03  0.38657884113E+03  0.45617704342E+02  0.78107142452E+03  0.46999998093E+01 0. -1.
</event>
<event>
 5   0  0.7476457E-06  0.1699219E+04  0.7818609E-02  0.8761810E-01
       -1   -1    0    0    0  501  0.00000000000E+00  0.00000000000E+00  0.24564243254E+04  0.24564243254E+04  0.50400001928E-02 0.  1.
        1   -1    0    0  501    0  0.00000000000E+00  0.00000000000E+00 -0.29385662690E+03  0.29385662695E+03  0.50400001928E-02 0. -1.
    10030    2    1    2    0    0  0.00000000000E+00  0.00000000000E+00  0.21625676985E+04  0.27502809524E+04  0.16992193108E+04 0.  0.
        2    1    3    3  502    0 -0.32052648334E+03 -0.77611224521E+03  0.87181296763E+03  0.12104318627E+04  0.25500000920E-02 0. -1.
       -2    1    3    3    0  502  0.32052648334E+03  0.77611224521E+03  0.12907547309E+04  0.15398490897E+04  0.25500000920E-02 0.  1.
</event>
<event>
 5   0  0.7082527E-06  0.1701031E+04  0.7818609E-02  0.8760776E-01
        1   -1    0    0  501    0  0.00000000000E+00  0.00000000000E+00  0.15624732295E+04  0.15624732295E+04  0.50400001928E-02 0. -1.
       -1   -1    0    0    0  501  0.00000000000E+00  0.00000000000E+00 -0.46296916962E+03  0.46296916965E+03  0.50400001928E-02 0.  1.
    10030    2    1    2    0    0  0.00000000000E+00  0.00000000000E+00  0.10995040598E+04  0.20254423991E+04  0.17010313738E+04 0.  0.
        1    1    3    3  502    0 -0.70619041509E+01  0.13786464236E+03 -0.44954065432E+03  0.47025879047E+03  0.50400001928E-02 0.  1.
       -1    1    3    3    0  502  0.70619041509E+01 -0.13786464236E+03  0.15490447142E+04  0.15551836086E+04  0.50400001928E-02 0. -1.
</event>
<event>
 5   0  0.1435301E-05  0.1699687E+04  0.7818609E-02  0.8761543E-01
        2   -1    0    0  501    0  0.00000000000E+00  0.00000000000E+00  0.13707134975E+04  0.13707134975E+04  0.25500000920E-02 0. -1.
       -2   -1    0    0    0  501  0.00000000000E+00  0.00000000000E+00 -0.52690373835E+03  0.52690373836E+03  0.25500000920E-02 0.  1.
    10030    2    1    2    0    0  0.00000000000E+00  0.00000000000E+00  0.84380975916E+03  0.18976172359E+04  0.16996871077E+04 0.  0.
        2    1    3    3  502    0 -0.39509427094E+03 -0.53898052950E+03 -0.16424203126E+03  0.68816781308E+03  0.25500000920E-02 0.  1.
       -2    1    3    3    0  502  0.39509427094E+03  0.53898052950E+03  0.10080517904E+04  0.12094494228E+04  0.25500000920E-02 0. -1.
</event>
<event>
 5   0  0.7461128E-06  0.1700213E+04  0.7818609E-02  0.8761243E-01
       -1   -1    0    0    0  501  0.00000000000E+00  0.00000000000E+00  0.93335141030E+03  0.93335141031E+03  0.50400001928E-02 0. -1.
        1   -1    0    0  501    0  0.00000000000E+00  0.00000000000E+00 -0.77428593896E+03  0.77428593898E+03  0.50400001928E-02 0.  1.
    10030    2    1    2    0    0  0.00000000000E+00  0.00000000000E+00  0.15906547133E+03  0.17076373493E+04  0.17002127786E+04 0.  0.
        3    1    3    3  502    0 -0.31202163231E+03  0.31510341722E+03 -0.64891592106E+03  0.78596408657E+03  0.10100000352E+00 0.  1.
       -3    1    3    3    0  502  0.31202163231E+03 -0.31510341722E+03  0.80798139239E+03  0.92167326272E+03  0.10100000352E+00 0. -1.
</event>
<event>
 5   0  0.7461128E-06  0.1697488E+04  0.7818609E-02  0.8762798E-01
        1   -1    0    0  501    0  0.00000000000E+00  0.00000000000E+00  0.51014502120E+03  0.51014502123E+03  0.50400001928E-02 0.  1.
       -1   -1    0    0    0  501  0.00000000000E+00  0.00000000000E+00 -0.14120816408E+04  0.14120816408E+04  0.50400001928E-02 0. -1.
    10030    2    1    2    0    0  0.00000000000E+00  0.00000000000E+00 -0.90193661959E+03  0.19222266620E+04  0.16974880484E+04 0.  0.
        3    1    3    3  502    0  0.16718583183E+03 -0.68959698244E+03 -0.97831827398E+03  0.12085535801E+04  0.10100000352E+00 0. -1.
       -3    1    3    3    0  502 -0.16718583183E+03  0.68959698244E+03  0.76381654384E+02  0.71367308194E+03  0.10100000352E+00 0.  1.
</event>
<event>
 5   0  0.1435301E-05  0.1702266E+04  0.7818609E-02  0.8760073E-01
        2   -1    0    0  501    0  0.00000000000E+00  0.00000000000E+00  0.68471936365E+03  0.68471936366E+03  0.25500000920E-02 0.  1.
       -2   -1    0    0    0  501  0.00000000000E+00  0.00000000000E+00 -0.10579913684E+04  0.10579913684E+04  0.25500000920E-02 0. -1.
    10030    2    1    2    0    0  0.00000000000E+00  0.00000000000E+00 -0.37327200473E+03  0.17427107320E+04  0.17022657566E+04 0.  0.
        2    1    3    3  502    0  0.39998610892E+03  0.51184070069E+03  0.37639205855E+03  0.75076012944E+03  0.25500000920E-02 0.  1.
       -2    1    3    3    0  502 -0.39998610892E+03 -0.51184070069E+03 -0.74966406329E+03  0.99195060260E+03  0.25500000920E-02 0. -1.
</event>
<event>
 5   0  0.7583716E-06  0.1699584E+04  0.7818609E-02  0.8761602E-01
       -1   -1    0    0    0  501  0.00000000000E+00  0.00000000000E+00  0.59749215849E+03  0.59749215851E+03  0.50400001928E-02 0.  1.
        1   -1    0    0  501    0  0.00000000000E+00  0.00000000000E+00 -0.12086290551E+04  0.12086290551E+04  0.50400001928E-02 0. -1.
    10030    2    1    2    0    0  0.00000000000E+00  0.00000000000E+00 -0.61113689664E+03  0.18061212136E+04  0.16995839291E+04 0.  0.
        5    1    3    3  502    0  0.22795526703E+03  0.44947716030E+03 -0.10326581029E+04  0.11490857970E+04  0.46999998093E+01 0. -1.
       -5    1    3    3    0  502 -0.22795526703E+03 -0.44947716030E+03  0.42152120625E+03  0.65703541664E+03  0.46999998093E+01 0.  1.
</event>
<event>
 5   0  0.1423543E-05  0.1701306E+04  0.7818609E-02  0.8760620E-01
       -2   -1    0    0    0  501  0.00000000000E+00  0.00000000000E+00  0.44785471103E+03  0.44785471104E+03  0.25500000920E-02 0.  1.
        2   -1    0    0  501    0  0.00000000000E+00  0.00000000000E+00 -0.16157265463E+04  0.16157265463E+04  0.25500000920E-02 0. -1.
    10030    2    1    2    0    0  0.00000000000E+00  0.00000000000E+00 -0.11678718353E+04  0.20635812574E+04  0.17013062576E+04 0.  0.
        3    1    3    3  502    0  0.42453755915E+03  0.70852631974E+03 -0.83064029275E+03  0.11714115379E+04  0.10100000352E+00 0. -1.
       -3    1    3    3    0  502 -0.42453755915E+03 -0.70852631974E+03 -0.33723154253E+03  0.89216971949E+03  0.10100000352E+00 0.  1.
</event>
<event>
 5   0  0.1423543E-05  0.1697548E+04  0.7818609E-02  0.8762764E-01
       -2   -1    0    0    0  501  0.00000000000E+00  0.00000000000E+00  0.51324585562E+03  0.51324585563E+03  0.25500000920E-02 0.  1.
        2   -1    0    0  501    0  0.00000000000E+00  0.00000000000E+00 -0.14036489619E+04  0.14036489619E+04  0.25500000920E-02 0. -1.
    10030    2    1    2    0    0  0.00000000000E+00  0.00000000000E+00 -0.89040310629E+03  0.19168948175E+04  0.16975476576E+04 0.  0.
        3    1    3    3  502    0  0.21422546854E+03  0.45289376400E+03  0.32846399476E+03  0.59907755666E+03  0.10100000352E+00 0.  1.
       -3    1    3    3    0  502 -0.21422546854E+03 -0.45289376400E+03 -0.12188671011E+04  0.13178172609E+04  0.10100000352E+00 0. -1.
</event>
<event>
 5   0  0.1435301E-05  0.1700367E+04  0.7818609E-02  0.8761155E-01
       -2   -1    0    0    0  501  0.00000000000E+00  0.00000000000E+00  0.95959303521E+03  0.95959303522E+03  0.25500000920E-02 0.  1.
        2   -1    0    0  501    0  0.00000000000E+00  0.00000000000E+00 -0.75324836966E+03  0.75324836966E+03  0.25500000920E-02 0. -1.
    10030    2    1    2    0    0  0.00000000000E+00  0.00000000000E+00  0.20634466556E+03  0.17128414049E+04  0.17003668890E+04 0.  0.
        2    1    3    3  502    0  0.80123040057E+03  0.32358175274E+02 -0.18137956746E+03  0.82214095738E+03  0.25500000920E-02 0. -1.
       -2    1    3    3    0  502 -0.80123040057E+03 -0.32358175274E+02  0.38772423301E+03  0.89070044750E+03  0.25500000920E-02 0.  1.
</event>
<event>
 5   0  0.7455669E-06  0.1700172E+04  0.7818609E-02  0.8761266E-01
       -1   -1    0    0    0  501  0.00000000000E+00  0.00000000000E+00  0.89206142289E+03  0.89206142291E+03  0.50400001928E-02 0.  1.
        1   -1    0    0  501    0  0.00000000000E+00  0.00000000000E+00 -0.81008541755E+03  0.81008541757E+03  0.50400001928E-02 0. -1.
    10030    2    1    2    0    0  0.00000000000E+00  0.00000000000E+00  0.81976005338E+02  0.17021468405E+04  0.17001716975E+04 0.  0.
        4    1    3    3  502    0 -0.64579733370E+02 -0.77088297567E+03 -0.31186041480E+03  0.83408011328E+03  0.12699999809E+01 0. -1.
       -4    1    3    3    0  502  0.64579733370E+02  0.77088297567E+03  0.39383642014E+03  0.86806672720E+03  0.12699999809E+01 0.  1.
</event>
<event>
 5   0  0.1374441E-05  0.1700147E+04  0.7818609E-02  0.8761281E-01
        2   -1    0    0  501    0  0.00000000000E+00  0.00000000000E+00  0.61625741576E+03  0.61625741576E+03  0.25500000920E-02 0.  1.
       -2   -1    0    0    0  501  0.00000000000E+00  0.00000000000E+00 -0.11726021722E+04  0.11726021722E+04  0.25500000920E-02 0. -1.
    10030    2    1    2    0    0  0.00000000000E+00  0.00000000000E+00 -0.55634475649E+03  0.17888595880E+04  0.17001467988E+04 0.  0.
        1    1    3    3  502    0  0.69959230333E+03  0.16856733523E+03 -0.75431172777E+03  0.10425116403E+04  0.50400001928E-02 0. -1.
       -1    1    3    3    0  502 -0.69959230333E+03 -0.16856733523E+03  0.19796697128E+03  0.74634794776E+03  0.50400001928E-02 0.  1.
</event>
<event>
 5   0  0.1435301E-05  0.1700055E+04  0.7818609E-02  0.8761333E-01
        2   -1    0    0  501    0  0.00000000000E+00  0.00000000000E+00  0.10552778781E+04  0.10552778781E+04  0.25500000920E-02 0. -1.
       -2   -1    0    0    0  501  0.00000000000E+00  0.00000000000E+00 -0.68469822422E+03  0.68469822423E+03  0.25500000920E-02 0.  1.
    10030    2    1    2    0    0  0.00000000000E+00  0.00000000000E+00  0.37057965387E+03  0.17399761023E+04  0.17000551629E+04 0.  0.
        2    1    3    3  502    0  0.70662122972E+03  0.42692644815E+03  0.39244608872E+03  0.91410813746E+03  0.25500000920E-02 0. -1.
       -2    1    3    3    0  502 -0.70662122972E+03 -0.42692644815E+03 -0.21866434845E+02  0.82586796487E+03  0.25500000920E-02 0.  1.
</event>
<event>
 5   0  0.1374441E-05  0.1702244E+04  0.7818609E-02  0.8760086E-01
        2   -1    0    0  501    0  0.00000000000E+00  0.00000000000E+00  0.18149391672E+04  0.18149391672E+04  0.25500000920E-02 0. -1.
       -2   -1    0    0    0  501  0.00000000000E+00  0.00000000000E+00 -0.39913653333E+03  0.39913653334E+03  0.25500000920E-02 0.  1.
    10030    2    1    2    0    0  0.00000000000E+00  0.00000000000E+00  0.14158026339E+04  0.22140757006E+04  0.17022438455E+04 0.  0.
        1    1    3    3  502    0  0.29002701856E+03  0.35437065196E+03  0.16410563627E+04  0.17037488711E+04  0.50400001928E-02 0. -1.
       -1    1    3    3    0  502 -0.29002701856E+03 -0.35437065196E+03 -0.22525372877E+03  0.51032682941E+03  0.50400001928E-02 0.  1.
</event>
<event>
 5   0  0.1423543E-05  0.1699850E+04  0.7818609E-02  0.8761450E-01
       -2   -1    0    0    0  501  0.00000000000E+00  0.00000000000E+00  0.69929731802E+03  0.69929731803E+03  0.25500000920E-02 0.  1.
        2   -1    0    0  501    0  0.00000000000E+00  0.00000000000E+00 -0.10329977061E+04  0.10329977061E+04  0.25500000920E-02 0. -1.
    10030    2    1    2    0    0  0.00000000000E+00  0.00000000000E+00 -0.33370038804E+03  0.17322950241E+04  0.16998500232E+04 0.  0.
        3    1    3    3  502    0 -0.42683388084E+03 -0.72802184335E+03 -0.26961918629E+03  0.88594440121E+03  0.10100000352E+00 0. -1.
       -3    1    3    3    0  502  0.42683388084E+03  0.72802184335E+03 -0.64081201749E+02  0.84635062288E+03  0.10100000352E+00 0.  1.
</event>
<event>
 5   0  0.7476457E-06  0.1699567E+04  0.7818609E-02  0.8761611E-01
        1   -1    0    0  501    0  0.00000000000E+00  0.00000000000E+00  0.22799248122E+04  0.22799248122E+04  0.50400001928E-02 0. -1.
       -1   -1    0    0    0  501  0.00000000000E+00  0.00000000000E+00 -0.31673500265E+03  0.31673500269E+03  0.50400001928E-02 0.  1.
    10030    2    1    2    0    0  0.00000000000E+00  0.00000000000E+00  0.19631898095E+04  0.25966598149E+04  0.16995669937E+04 0.  0.
        2    1    3    3  502    0 -0.46041025374E+03  0.31526810566E+03  0.19607941244E+04  0.20386478799E+04  0.25500000920E-02 0. -1.
       -2    1    3    3    0  502  0.46041025374E+03 -0.31526810566E+03  0.23956851294E+01  0.55801193492E+03  0.25500000920E-02 0.  1.
</event>
<event>
 5   0  0.1374441E-05  0.1702329E+04  0.7818609E-02  0.8760037E-01
       -2   -1    0    0    0  501  0.00000000000E+00  0.00000000000E+00  0.54578846230E+03  0.54578846230E+03  0.25500000920E-02 0.  1.
        2   -1    0    0  501    0  0.00000000000E+00  0.00000000000E+00 -0.13274029488E+04  0.13274029488E+04  0.25500000920E-02 0. -1.
    10030    2    1    2    0    0  0.00000000000E+00  0.00000000000E+00 -0.78161448647E+03  0.18731914111E+04  0.17023292446E+04 0.  0.
        1    1    3    3  502    0 -0.51942391792E+02 -0.82509144084E+03 -0.16797949457E+03  0.84361780946E+03  0.50400001928E-02 0.  1.
       -1    1    3    3    0  502  0.51942391792E+02  0.82509144084E+03 -0.61363499190E+03  0.10295736016E+04  0.50400001928E-02 0. -1.
</event>
<event>
 5   0  0.1419012E-05  0.1698208E+04  0.7818609E-02  0.8762387E-01
       -2   -1    0    0    0  501  0.00000000000E+00  0.00000000000E+00  0.42587169590E+03  0.42587169590E+03  0.25500000920E-02 0.  1.
        2   -1    0    0  501    0  0.00000000000E+00  0.00000000000E+00 -0.16929447011E+04  0.16929447011E+04  0.25500000920E-02 0. -1.
    10030    2    1    2    0    0  0.00000000000E+00  0.00000000000E+00 -0.12670730052E+04  0.21188163970E+04  0.16982075620E+04 0.  0.
        4    1    3    3  502    0 -0.59376649899E+03  0.60479687194E+03 -0.69761551066E+03  0.10977280744E+04  0.12699999809E+01 0. -1.
       -4    1    3    3    0  502  0.59376649899E+03 -0.60479687194E+03 -0.56945749452E+03  0.10210883226E+04  0.12699999809E+01 0.  1.
</event>
<event>
 5   0  0.7082527E-06  0.1700519E+04  0.7818609E-02  0.8761068E-01
       -1   -1    0    0    0  501  0.00000000000E+00  0.00000000000E+00  0.29293873626E+03  0.29293873630E+03  0.50400001928E-02 0. -1.
        1   -1    0    0  501    0  0.00000000000E+00  0.00000000000E+00 -0.24678927637E+04  0.24678927637E+04  0.50400001928E-02 0.  1.
    10030    2    1    2    0    0  0.00000000000E+00  0.00000000000E+00 -0.21749540275E+04  0.27608315000E+04  0.17005192001E+04 0.  0.
        1    1    3    3  502    0  0.19070475040E+03  0.34061474875E+03  0.13885198237E+03  0.41432666089E+03  0.50400001928E-02 0. -1.
       -1    1    3    3    0  502 -0.19070475040E+03 -0.34061474875E+03 -0.23138060099E+04  0.23465048391E+04  0.50400001928E-02 0.  1.
</event>
<event>
 5   0  0.7476457E-06  0.1700242E+04  0.7818609E-02  0.8761226E-01
        1   -1    0    0  501    0  0.00000000000E+00  0.00000000000E+00  0.12689394135E+04  0.12689394135E+04  0.50400001928E-02 0.  1.
       -1   -1    0    0    0  501  0.00000000000E+00  0.00000000000E+00 -0.56953511233E+03  0.56953511235E+03  0.50400001928E-02 0. -1.
    10030    2    1    2    0    0  0.00000000000E+00  0.00000000000E+00  0.69940430114E+03  0.18384745258E+04  0.17002418080E+04 0.  0.
        2    1    3    3  502    0  0.26911474728E+03 -0.66945780622E+03  0.83581802761E+03  0.11041685907E+04  0.25500000920E-02 0.  1.
       -2    1    3    3    0  502 -0.26911474728E+03  0.66945780622E+03 -0.13641372647E+03  0.73430593507E+03  0.25500000920E-02 0. -1.
</event>
<event>
 5   0  0.7583716E-06  0.1698897E+04  0.7818609E-02  0.8761993E-01
       -1   -1    0    0    0  501  0.00000000000E+00  0.00000000000E+00  0.89995473538E+03  0.89995473539E+03  0.50400001928E-02 0. -1.
        1   -1    0    0  501    0  0.00000000000E+00  0.00000000000E+00 -0.80177710591E+03  0.80177710593E+03  0.50400001928E-02 0.  1.
    10030    2    1    2    0    0  0.00000000000E+00  0.00000000000E+00  0.98177629464E+02  0.17017318413E+04  0.16988974109E+04 0.  0.
        5    1    3    3  502    0  0.51418386758E+03 -0.67611549626E+03  0.44202227939E+02  0.85058399992E+03  0.46999998093E+01 0. -1.
       -5    1    3    3    0  502 -0.51418386758E+03  0.67611549626E+03  0.53975401524E+02  0.85114784141E+03  0.46999998093E+01 0.  1.
</event>
<event>
 5   0  0.5229750E-06  0.1699997E+04  0.7818609E-02  0.8761366E-01
       -3   -1    0    0    0  501  0.00000000000E+00  0.00000000000E+00  0.55855429329E+03  0.55855430242E+03  0.10100000352E+00 0.  1.
        3   -1    0    0  501    0  0.00000000000E+00  0.00000000000E+00 -0.12935135734E+04  0.12935135774E+04  0.10100000352E+00 0. -1.
    10030    2    1    2    0    0  0.00000000000E+00  0.00000000000E+00 -0.73495928015E+03  0.18520678798E+04  0.16999971435E+04 0.  0.
        1    1    3    3  502    0  0.19768802553E+03 -0.48098618186E+03  0.36502641718E+03  0.63535230214E+03  0.50400001928E-02 0.  1.
       -1    1    3    3    0  502 -0.19768802553E+03  0.48098618186E+03 -0.10999856973E+04  0.12167155777E+04  0.50400001928E-02 0. -1.
</event>
<event>
 5   0  0.7461128E-06  0.1700081E+04  0.7818609E-02  0.8761318E-01
        1   -1    0    0  501    0  0.00000000000E+00  0.00000000000E+00  0.13334803729E+04  0.13334803729E+04  0.50400001928E-02 0. -1.
       -1   -1    0    0    0  501  0.00000000000E+00  0.00000000000E+00 -0.54186683351E+03  0.54186683353E+03  0.50400001928E-02 0.  1.
    10030    2    1    2    0    0  0.00000000000E+00  0.00000000000E+00  0.79161353935E+03  0.18753472064E+04  0.17000809242E+04 0.  0.
        3    1    3    3  502    0  0.67393501445E+03  0.79844889467E+02  0.96044076111E+03  0.11760144880E+04  0.10100000352E+00 0. -1.
       -3    1    3    3    0  502 -0.67393501445E+03 -0.79844889467E+02 -0.16882722176E+03  0.69933271845E+03  0.10100000352E+00 0.  1.
</event>
<event>
 5   0  0.1419012E-05  0.1710997E+04  0.7818609E-02  0.8755117E-01
       -2   -1    0    0    0  501  0.00000000000E+00  0.00000000000E+00  0.58040582088E+03  0.58040582088E+03  0.25500000920E-02 0. -1.
        2   -1    0    0  501    0  0.00000000000E+00  0.00000000000E+00 -0.12609755924E+04  0.12609755924E+04  0.25500000920E-02 0.  1.
    10030    2    1    2    0    0  0.00000000000E+00  0.00000000000E+00 -0.68056977155E+03  0.18413814133E+04  0.17109968718E+04 0.  0.
        4    1    3    3  502    0  0.16849878670E+03  0.79902746667E+03 -0.61474688733E+03  0.10221311472E+04  0.12699999809E+01 0.  1.
       -4    1    3    3    0  502 -0.16849878670E+03 -0.79902746667E+03 -0.65822884222E+02  0.81925026616E+03  0.12699999809E+01 0. -1.
</event>
<event>
 5   0  0.7082527E-06  0.1709000E+04  0.7818609E-02  0.8756248E-01
        1   -1    0    0  501    0  0.00000000000E+00  0.00000000000E+00  0.41715453326E+03  0.41715453329E+03  0.50400001928E-02 0.  1.
       -1   -1    0    0    0  501  0.00000000000E+00  0.00000000000E+00 -0.17503590669E+04  0.17503590669E+04  0.50400001928E-02 0. -1.
    10030    2    1    2    0    0  0.00000000000E+00  0.00000000000E+00 -0.13332045337E+04  0.21675136002E+04  0.17089999645E+04 0.  0.
        1    1    3    3  502    0 -0.51810777936E+03 -0.66646817870E+03 -0.83464381472E+03  0.11871165915E+04  0.50400001928E-02 0.  1.
       -1    1    3    3    0  502  0.51810777936E+03  0.66646817870E+03 -0.49856071894E+03  0.98039700875E+03  0.50400001928E-02 0. -1.
</event>
<event>
 5   0  0.1441756E-05  0.1699385E+04  0.7818609E-02  0.8761715E-01
       -2   -1    0    0    0  501  0.00000000000E+00  0.00000000000E+00  0.36359801727E+03  0.36359801728E+03  0.25500000920E-02 0. -1.
        2   -1    0    0  501    0  0.00000000000E+00  0.00000000000E+00 -0.19856476067E+04  0.19856476068E+04  0.25500000920E-02 0.  1.
    10030    2    1    2    0    0  0.00000000000E+00  0.00000000000E+00 -0.16220495895E+04  0.23492456240E+04  0.16993852216E+04 0.  0.
        5    1    3    3  502    0 -0.16930440997E+03 -0.52750475325E+02  0.33771380130E+03  0.38146991686E+03  0.46999998093E+01 0. -1.
       -5    1    3    3    0  502  0.16930440997E+03  0.52750475325E+02 -0.19597633908E+04  0.19677757072E+04  0.46999998093E+01 0.  1.
</event>
<event>
 5   0  0.1441756E-05  0.1700040E+04  0.7818609E-02  0.8761342E-01
        2   -1    0    0  501    0  0.00000000000E+00  0.00000000000E+00  0.17395274557E+04  0.17395274557E+04  0.25500000920E-02 0.  1.
       -2   -1    0    0    0  501  0.00000000000E+00  0.00000000000E+00 -0.41536206624E+03  0.41536206625E+03  0.25500000920E-02 0. -1.
    10030    2    1    2    0    0  0.00000000000E+00  0.00000000000E+00  0.13241653894E+04  0.21548895219E+04  0.17000396681E+04 0.  0.
        5    1    3    3  502    0 -0.13003664559E+03  0.62838393095E+03  0.13686630424E+04  0.15116337214E+04  0.46999998093E+01 0.  1.
       -5    1    3    3    0  502  0.13003664559E+03 -0.62838393095E+03 -0.44497652970E+02  0.64325580059E+03  0.46999998093E+01 0. -1.
</event>
<event>
 5   0  0.1441756E-05  0.1700287E+04  0.7818609E-02  0.8761201E-01
        2   -1    0    0  501    0  0.00000000000E+00  0.00000000000E+00  0.41110102863E+03  0.41110102864E+03  0.25500000920E-02 0. -1.
       -2   -1    0    0    0  501  0.00000000000E+00  0.00000000000E+00 -0.17580685908E+04  0.17580685908E+04  0.25500000920E-02 0.  1.
    10030    2    1    2    0    0  0.00000000000E+00  0.00000000000E+00 -0.13469675622E+04  0.21691696195E+04  0.17002868065E+04 0.  0.
        5    1    3    3  502    0 -0.41384360916E+03 -0.16149993424E+02 -0.16206445715E+04  0.16727337721E+04  0.46999998093E+01 0.  1.
       -5    1    3    3    0  502  0.41384360916E+03  0.16149993424E+02  0.27367700932E+03  0.49643584737E+03  0.46999998093E+01 0. -1.
</event>
<event>
 5   0  0.1435301E-05  0.1699883E+04  0.7818609E-02  0.8761431E-01
       -2   -1    0    0    0  501  0.00000000000E+00  0.00000000000E+00  0.43742770434E+03  0.43742770435E+03  0.25500000920E-02 0.  1.
        2   -1    0    0  501    0  0.00000000000E+00  0.00000000000E+00 -0.16514741121E+04  0.16514741121E+04  0.25500000920E-02 0. -1.
    10030    2    1    2    0    0  0.00000000000E+00  0.00000000000E+00 -0.12140464077E+04  0.20889018164E+04  0.16998829720E+04 0.  0.
        2    1    3    3  502    0 -0.19012332276E+03 -0.65572928017E+03 -0.12291089200E+04  0.14060001793E+04  0.25500000920E-02 0.  1.
       -2    1    3    3    0  502  0.19012332276E+03  0.65572928017E+03  0.15062512327E+02  0.68290163715E+03  0.25500000920E-02 0. -1.
</event>
<event>
 5   0  0.7455669E-06  0.1698257E+04  0.7818609E-02  0.8762359E-01
        1   -1    0    0  501    0  0.00000000000E+00  0.00000000000E+00  0.12962394462E+04  0.12962394462E+04  0.50400001928E-02 0.  1.
       -1   -1    0    0    0  501  0.00000000000E+00  0.00000000000E+00 -0.55623939345E+03  0.55623939347E+03  0.50400001928E-02 0. -1.
    10030    2    1    2    0    0  0.00000000000E+00  0.00000000000E+00  0.74000005274E+03  0.18524788397E+04  0.16982572754E+04 0.  0.
        4    1    3    3  502    0  0.89954026301E+02 -0.30617035318E+03  0.12283418461E+04  0.12691167463E+04  0.12699999809E+01 0.  1.
       -4    1    3    3    0  502 -0.89954026301E+02  0.30617035318E+03 -0.48834179331E+03  0.58336209339E+03  0.12699999809E+01 0. -1.
</event>
<event>
 5   0  0.1374441E-05  0.1700346E+04  0.7818609E-02  0.8761167E-01
       -2   -1    0    0    0  501  0.00000000000E+00  0.00000000000E+00  0.64687855483E+03  0.64687855484E+03  0.25500000920E-02 0. -1.
        2   -1    0    0  501    0  0.00000000000E+00  0.00000000000E+00 -0.11173562191E+04  0.11173562191E+04  0.25500000920E-02 0.  1.
    10030    2    1    2    0    0  0.00000000000E+00  0.00000000000E+00 -0.47047766428E+03  0.17642347740E+04  0.17003455840E+04 0.  0.
        1    1    3    3  502    0 -0.50574221324E+03  0.68317865015E+03 -0.21770653033E+03  0.87744195686E+03  0.50400001928E-02 0.  1.
       -1    1    3    3    0  502  0.50574221324E+03 -0.68317865015E+03 -0.25277113395E+03  0.88679281710E+03  0.50400001928E-02 0. -1.
</event>
<event>
 5   0  0.1441756E-05  0.1698680E+04  0.7818609E-02  0.8762118E-01
        2   -1    0    0  501    0  0.00000000000E+00  0.00000000000E+00  0.15632988970E+04  0.15632988970E+04  0.25500000920E-02 0. -1.
       -2   -1    0    0    0  501  0.00000000000E+00  0.00000000000E+00 -0.46144627823E+03  0.46144627824E+03  0.25500000920E-02 0.  1.
    10030    2    1    2    0    0  0.00000000000E+00  0.00000000000E+00  0.11018526187E+04  0.20247451752E+04  0.16986800261E+04 0.  0.
        5    1    3    3  502    0  0.66304376917E+03  0.21322562212E+03 -0.28445977407E+02  0.69708211094E+03  0.46999998093E+01 0.  1.
       -5    1    3    3    0  502 -0.66304376917E+03 -0.21322562212E+03  0.11302985961E+04  0.13276630643E+04  0.46999998093E+01 0. -1.
</event>
<event>
 5   0  0.1419012E-05  0.1700721E+04  0.7818609E-02  0.8760953E-01
        2   -1    0    0  501    0  0.00000000000E+00  0.00000000000E+00  0.85930659295E+03  0.85930659295E+03  0.25500000920E-02 0. -1.
       -2   -1    0    0    0  501  0.00000000000E+00  0.00000000000E+00 -0.84150768072E+03  0.84150768073E+03  0.25500000920E-02 0.  1.
    10030    2    1    2    0    0  0.00000000000E+00  0.00000000000E+00  0.17798912225E+02  0.17008142737E+04  0.17007211389E+04 0.  0.
        4    1    3    3  502    0  0.23603165746E+03  0.25418857084E+03 -0.76753774925E+03  0.84228177131E+03  0.12699999809E+01 0.  1.
       -4    1    3    3    0  502 -0.23603165746E+03 -0.25418857084E+03  0.78533666147E+03  0.85853250237E+03  0.12699999809E+01 0. -1.
</event>
<event>
 5   0  0.1423543E-05  0.1700439E+04  0.7818609E-02  0.8761114E-01
       -2   -1    0    0    0  501  0.00000000000E+00  0.00000000000E+00  0.39189325162E+03  0.39189325163E+03  0.25500000920E-02 0.  1.
        2   -1    0    0  501    0  0.00000000000E+00  0.00000000000E+00 -0.18445668669E+04  0.18445668669E+04  0.25500000920E-02 0. -1.
    10030    2    1    2    0    0  0.00000000000E+00  0.00000000000E+00 -0.14526736152E+04  0.22364601185E+04  0.17004391283E+04 0.  0.
        3    1    3    3  502    0 -0.52499725040E+02  0.79680287488E+03 -0.11102884926E+04  0.13676226049E+04  0.10100000352E+00 0.  1.
       -3    1    3    3    0  502  0.52499725040E+02 -0.79680287488E+03 -0.34238512263E+03  0.86883751355E+03  0.10100000352E+00 0. -1.
</event>
<event>
 5   0  0.1441756E-05  0.1702749E+04  0.7818609E-02  0.8759798E-01
       -2   -1    0    0    0  501  0.00000000000E+00  0.00000000000E+00  0.48540339429E+03  0.48540339430E+03  0.25500000920E-02 0.  1.
        2   -1    0    0  501    0  0.00000000000E+00  0.00000000000E+00 -0.14932702533E+04  0.14932702533E+04  0.25500000920E-02 0. -1.
    10030    2    1    2    0    0  0.00000000000E+00  0.00000000000E+00 -0.10078668590E+04  0.19786736476E+04  0.17027488946E+04 0.  0.
        5    1    3    3  502    0  0.60163722983E+03 -0.38880233891E+03  0.30711270194E+02  0.71700759213E+03  0.46999998093E+01 0.  1.
       -5    1    3    3    0  502 -0.60163722983E+03  0.38880233891E+03 -0.10385781292E+04  0.12616660555E+04  0.46999998093E+01 0. -1.
</event>
<event>
 5   0  0.7455669E-06  0.1699849E+04  0.7818609E-02  0.8761450E-01
       -1   -1    0    0    0  501  0.00000000000E+00  0.00000000000E+00  0.69622883704E+03  0.69622883706E+03  0.50400001928E-02 0.  1.
        1   -1    0    0  501    0  0.00000000000E+00  0.00000000000E+00 -0.10375491691E+04  0.10375491691E+04  0.50400001928E-02 0. -1.
    10030    2    1    2    0    0  0.00000000000E+00  0.00000000000E+00 -0.34132033206E+03  0.17337780062E+04  0.16998489950E+04 0.  0.
        4    1    3    3  502    0  0.52402930285E+03  0.65919551564E+03 -0.28795379581E+03  0.88998002197E+03  0.12699999809E+01 0.  1.
       -4    1    3    3    0  502 -0.52402930285E+03 -0.65919551564E+03 -0.53366536250E+02  0.84379798422E+03  0.12699999809E+01 0. -1.
</event>
<event>
 5   0  0.7461128E-06  0.1708131E+04  0.7818609E-02  0.8756741E-01
        1   -1    0    0  501    0  0.00000000000E+00  0.00000000000E+00  0.63612083270E+03  0.63612083272E+03  0.50400001928E-02 0.  1.
       -1   -1    0    0    0  501  0.00000000000E+00  0.00000000000E+00 -0.11466809227E+04  0.11466809227E+04  0.50400001928E-02 0. -1.
    10030    2    1    2    0    0  0.00000000000E+00  0.00000000000E+00 -0.51056009004E+03  0.17828017555E+04  0.17081307016E+04 0.  0.
        3    1    3    3  502    0 -0.31689758521E+03 -0.75032206383E+03 -0.52345660386E+03  0.96820147971E+03  0.10100000352E+00 0. -1.
       -3    1    3    3    0  502  0.31689758521E+03  0.75032206383E+03  0.12896513827E+02  0.81460027575E+03  0.10100000352E+00 0.  1.
</event>
<event>
 5   0  0.7583716E-06  0.1701156E+04  0.7818609E-02  0.8760705E-01
       -1   -1    0    0    0  501  0.00000000000E+00  0.00000000000E+00  0.73675816177E+03  0.73675816179E+03  0.50400001928E-02 0.  1.
        1   -1    0    0  501    0  0.00000000000E+00  0.00000000000E+00 -0.98198194815E+03  0.98198194816E+03  0.50400001928E-02 0. -1.
    10030    2    1    2    0    0  0.00000000000E+00  0.00000000000E+00 -0.24522378637E+03  0.17187401099E+04  0.17011563303E+04 0.  0.
        5    1    3    3  502    0  0.61886686887E+01 -0.53150615771E+03 -0.79349656679E+03  0.95508951770E+03  0.46999998093E+01 0. -1.
       -5    1    3    3    0  502 -0.61886686887E+01  0.53150615771E+03  0.54827278042E+03  0.76365059225E+03  0.46999998093E+01 0.  1.
</event>
<event>
 5   0  0.1374441E-05  0.1700389E+04  0.7818609E-02  0.8761143E-01
        2   -1    0    0  501    0  0.00000000000E+00  0.00000000000E+00  0.20881090908E+04  0.20881090908E+04  0.25500000920E-02 0.  1.
       -2   -1    0    0    0  501  0.00000000000E+00  0.00000000000E+00 -0.34616504518E+03  0.34616504518E+03  0.25500000920E-02 0. -1.
    10030    2    1    2    0    0  0.00000000000E+00  0.00000000000E+00  0.17419440456E+04  0.24342741359E+04  0.17003886353E+04 0.  0.
        1    1    3    3  502    0  0.22446002031E+03  0.77225356770E+03  0.47611929059E+03  0.93458410667E+03  0.50400001928E-02 0. -1.
       -1    1    3    3    0  502 -0.22446002031E+03 -0.77225356770E+03  0.12658247550E+04  0.14996900293E+04  0.50400001928E-02 0.  1.
</event>
<event>
 5   0  0.1441756E-05  0.1700335E+04  0.7818609E-02  0.8761173E-01
        2   -1    0    0  501    0  0.00000000000E+00  0.00000000000E+00  0.75776811078E+03  0.75776811078E+03  0.25500000920E-02 0.  1.
       -2   -1    0    0    0  501  0.00000000000E+00  0.00000000000E+00 -0.95383398018E+03  0.95383398019E+03  0.25500000920E-02 0. -1.
    10030    2    1    2    0    0  0.00000000000E+00  0.00000000000E+00 -0.19606586940E+03  0.17116020910E+04  0.17003352295E+04 0.  0.
        5    1    3    3  502    0  0.71580270774E+03  0.39399870124E+02 -0.55804793746E+03  0.90849626123E+03  0.46999998093E+01 0. -1.
       -5    1    3    3    0  502 -0.71580270774E+03 -0.39399870124E+02  0.36198206805E+03  0.80310582974E+03  0.46999998093E+01 0.  1.
</event>
<event>
 5   0  0.7583716E-06  0.1700926E+04  0.7818609E-02  0.8760836E-01
       -1   -1    0    0    0  501  0.00000000000E+00  0.00000000000E+00  0.49304928973E+03  0.49304928976E+03  0.50400001928E-02 0. -1.
        1   -1    0    0  501    0  0.00000000000E+00  0.00000000000E+00 -0.14669678159E+04  0.14669678159E+04  0.50400001928E-02 0.  1.
    10030    2    1    2    0    0  0.00000000000E+00  0.00000000000E+00 -0.97391852617E+03  0.19600171057E+04  0.17009261474E+04 0.  0.
        5    1    3    3  502    0  0.40735208624E+03 -0.55061686854E+03 -0.10678842437E+04  0.12686660341E+04  0.46999998093E+01 0.  1.
       -5    1    3    3    0  502 -0.40735208624E+03  0.55061686854E+03  0.93965717561E+02  0.69135107157E+03  0.46999998093E+01 0. -1.
</event>
<event>
 5   0  0.7082527E-06  0.1699950E+04  0.7818609E-02  0.8761393E-01
        1   -1    0    0  501    0  0.00000000000E+00  0.00000000000E+00  0.52850002758E+03  0.52850002761E+03  0.50400001928E-02 0.  1.
       -1   -1    0    0    0  501  0.00000000000E+00  0.00000000000E+00 -0.13669968103E+04  0.13669968103E+04  0.50400001928E-02 0. -1.
    10030    2    1    2    0    0  0.00000000000E+00  0.00000000000E+00 -0.83849678268E+03  0.18954968379E+04  0.16999504134E+04 0.  0.
        1    1    3    3  502    0  0.79465847655E+02  0.33351658300E+02 -0.13621126096E+04  0.13648362229E+04  0.50400001928E-02 0. -1.
       -1    1    3    3    0  502 -0.79465847655E+02 -0.33351658300E+02  0.52361582693E+03  0.53066061498E+03  0.50400001928E-02 0.  1.
</event>
<event>
 5   0  0.1419012E-05  0.1700192E+04  0.7818609E-02  0.8761255E-01
        2   -1    0    0  501    0  0.00000000000E+00  0.00000000000E+00  0.23744681986E+04  0.23744681986E+04  0.25500000920E-02 0.  1.
       -2   -1    0    0    0  501  0.00000000000E+00  0.00000000000E+00 -0.30434734490E+03  0.30434734491E+03  0.25500000920E-02 0. -1.
    10030    2    1    2    0    0  0.00000000000E+00  0.00000000000E+00  0.20701208537E+04  0.26788155435E+04  0.17001918619E+04 0.  0.
        4    1    3    3  502    0  0.37181888009E+03  0.13631416874E+03 -0.15012993272E+03  0.42352265794E+03  0.12699999809E+01 0. -1.
       -4    1    3    3    0  502 -0.37181888009E+03 -0.13631416874E+03  0.22202507864E+04  0.22552928856E+04  0.12699999809E+01 0.  1.
</event>
<event>
 5   0  0.7082527E-06  0.1699942E+04  0.7818609E-02  0.8761397E-01
       -1   -1    0    0    0  501  0.00000000000E+00  0.00000000000E+00  0.68128294245E+03  0.68128294247E+03  0.50400001928E-02 0. -1.
        1   -1    0    0  501    0  0.00000000000E+00  0.00000000000E+00 -0.10604271318E+04  0.10604271318E+04  0.50400001928E-02 0.  1.
    10030    2    1    2    0    0  0.00000000000E+00  0.00000000000E+00 -0.37914418930E+03  0.17417100742E+04  0.16999422539E+04 0.  0.
        1    1    3    3  502    0  0.23736563211E+02 -0.76207766590E+03 -0.57446850622E+03  0.95464121950E+03  0.50400001928E-02 0.  1.
       -1    1    3    3    0  502 -0.23736563211E+02  0.76207766590E+03  0.19532431692E+03  0.78706885474E+03  0.50400001928E-02 0. -1.
</event>
<event>
 5   0  0.1419012E-05  0.1700174E+04  0.7818609E-02  0.8761265E-01
       -2   -1    0    0    0  501  0.00000000000E+00  0.00000000000E+00  0.75726964672E+03  0.75726964673E+03  0.25500000920E-02 0.  1.
        2   -1    0    0  501    0  0.00000000000E+00  0.00000000000E+00 -0.95428138565E+03  0.95428138566E+03  0.25500000920E-02 0. -1.
    10030    2    1    2    0    0  0.00000000000E+00  0.00000000000E+00 -0.19701173893E+03  0.17115510324E+04  0.17001744943E+04 0.  0.
        4    1    3    3  502    0  0.54589623328E+03  0.21027748191E+03 -0.71942100943E+03  0.92724728019E+03  0.12699999809E+01 0. -1.
       -4    1    3    3    0  502 -0.54589623328E+03 -0.21027748191E+03  0.52240927050E+03  0.78430375220E+03  0.12699999809E+01 0.  1.
</event>
<event>
 5   0  0.1374441E-05  0.1698350E+04  0.7818609E-02  0.8762306E-01
       -2   -1    0    0    0  501  0.00000000000E+00  0.00000000000E+00  0.31431263068E+03  0.31431263069E+03  0.25500000920E-02 0. -1.
        2   -1    0    0  501    0  0.00000000000E+00  0.00000000000E+00 -0.22942065243E+04  0.22942065243E+04  0.25500000920E-02 0.  1.
    10030    2    1    2    0    0  0.00000000000E+00  0.00000000000E+00 -0.19798938936E+04  0.26085191550E+04  0.16983498909E+04 0.  0.
        1    1    3    3  502    0  0.67556026733E+02 -0.66904278421E+03 -0.17864275491E+04  0.19087968599E+04  0.50400001928E-02 0.  1.
       -1    1    3    3    0  502 -0.67556026733E+02  0.66904278421E+03 -0.19346634448E+03  0.69972229514E+03  0.50400001928E-02 0. -1.
</event>
<event>
 5   0  0.5229750E-06  0.1699710E+04  0.7818609E-02  0.8761529E-01
        4   -1    0    0  501    0  0.00000000000E+00  0.00000000000E+00  0.16518827199E+04  0.16518832081E+04  0.12699999809E+01 0. -1.
       -4   -1    0    0    0  501  0.00000000000E+00  0.00000000000E+00 -0.43722928951E+03  0.43723113396E+03  0.12699999809E+01 0.  1.
    10030    2    1    2    0    0  0.00000000000E+00  0.00000000000E+00  0.12146534304E+04  0.20891143421E+04  0.16997104984E+04 0.  0.
        4    1    3    3  502    0  0.49191423145E+02 -0.63928813692E+03 -0.78267935140E+02  0.64593854250E+03  0.12699999809E+01 0.  1.
       -4    1    3    3    0  502 -0.49191423145E+02  0.63928813692E+03  0.12929213656E+04  0.14431757996E+04  0.12699999809E+01 0. -1.
</event>
<event>
 5   0  0.7082527E-06  0.1699477E+04  0.7818609E-02  0.8761663E-01
        1   -1    0    0  501    0  0.00000000000E+00  0.00000000000E+00  0.20198047614E+04  0.20198047614E+04  0.50400001928E-02 0. -1.
       -1   -1    0    0    0  501  0.00000000000E+00  0.00000000000E+00 -0.35748769244E+03  0.35748769247E+03  0.50400001928E-02 0.  1.
    10030    2    1    2    0    0  0.00000000000E+00  0.00000000000E+00  0.16623170689E+04  0.23772924538E+04  0.16994767940E+04 0.  0.
        1    1    3    3  502    0  0.93941897575E+01  0.10208156068E+03  0.20111231945E+04  0.20137341929E+04  0.50400001928E-02 0. -1.
       -1    1    3    3    0  502 -0.93941897575E+01 -0.10208156068E+03 -0.34880612562E+03  0.36355826098E+03  0.50400001928E-02 0.  1.
</event>
<event>
 5   0  0.5229750E-06  0.1700134E+04  0.7818609E-02  0.8761288E-01
       -3   -1    0    0    0  501  0.00000000000E+00  0.00000000000E+00  0.94638578014E+03  0.94638578553E+03  0.10100000352E+00 0. -1.
        3   -1    0    0  501    0  0.00000000000E+00  0.00000000000E+00 -0.76355091030E+03  0.76355091698E+03  0.10100000352E+00 0.  1.
    10030    2    1    2    0    0  0.00000000000E+00  0.00000000000E+00  0.18283486984E+03  0.17099367025E+04  0.17001337997E+04 0.  0.
        4    1    3    3  502    0 -0.34730166057E+03 -0.48066653193E+03  0.70398865528E+03  0.92046748884E+03  0.12699999809E+01 0. -1.
       -4    1    3    3    0  502  0.34730166057E+03  0.48066653193E+03 -0.52115378545E+03  0.78946921367E+03  0.12699999809E+01 0.  1.
</event>
<event>
 5   0  0.1419012E-05  0.1700222E+04  0.7818609E-02  0.8761238E-01
       -2   -1    0    0    0  501  0.00000000000E+00  0.00000000000E+00  0.99395506738E+03  0.99395506739E+03  0.25500000920E-02 0.  1.
        2   -1    0    0  501    0  0.00000000000E+00  0.00000000000E+00 -0.72708352702E+03  0.72708352703E+03  0.25500000920E-02 0. -1.
    10030    2    1    2    0    0  0.00000000000E+00  0.00000000000E+00  0.26687154036E+03  0.17210385944E+04  0.17002215810E+04 0.  0.
        4    1    3    3  502    0 -0.37615175125E+03  0.67330406013E+03 -0.22851495912E+03  0.80439368272E+03  0.12699999809E+01 0. -1.
       -4    1    3    3    0  502  0.37615175125E+03 -0.67330406013E+03  0.49538649948E+03  0.91664491169E+03  0.12699999809E+01 0.  1.
</event>
<event>
 5   0  0.7455669E-06  0.1699676E+04  0.7818609E-02  0.8761549E-01
        1   -1    0    0  501    0  0.00000000000E+00  0.00000000000E+00  0.79350288688E+03  0.79350288690E+03  0.50400001928E-02 0.  1.
       -1   -1    0    0    0  501  0.00000000000E+00  0.00000000000E+00 -0.91017264823E+03  0.91017264824E+03  0.50400001928E-02 0. -1.
    10030    2    1    2    0    0  0.00000000000E+00  0.00000000000E+00 -0.11666976135E+03  0.17036755351E+04  0.16996759973E+04 0.  0.
        4    1    3    3  502    0 -0.47934833596E+03 -0.24697843286E+03 -0.71672893529E+03  0.89692538880E+03  0.12699999809E+01 0. -1.
       -4    1    3    3    0  502  0.47934833596E+03  0.24697843286E+03  0.60005917395E+03  0.80675014634E+03  0.12699999809E+01 0.  1.
</event>
<event>
 5   0  0.1419012E-05  0.1700536E+04  0.7818609E-02  0.8761058E-01
       -2   -1    0    0    0  501  0.00000000000E+00  0.00000000000E+00  0.46538698418E+03  0.46538698419E+03  0.25500000920E-02 0.  1.
        2   -1    0    0  501    0  0.00000000000E+00  0.00000000000E+00 -0.15534512911E+04  0.15534512911E+04  0.25500000920E-02 0. -1.
    10030    2    1    2    0    0  0.00000000000E+00  0.00000000000E+00 -0.10880643069E+04  0.20188382752E+04  0.17005363994E+04 0.  0.
        4    1    3    3  502    0  0.65683107729E+03  0.47493430893E+03 -0.84894204537E+03  0.11737520484E+04  0.12699999809E+01 0. -1.
       -4    1    3    3    0  502 -0.65683107729E+03 -0.47493430893E+03 -0.23912226150E+03  0.84508622681E+03  0.12699999809E+01 0.  1.
</event>
<event>
 5   0  0.7476457E-06  0.1701167E+04  0.7818609E-02  0.8760699E-01
        1   -1    0    0  501    0  0.00000000000E+00  0.00000000000E+00  0.13127504815E+04  0.13127504815E+04  0.50400001928E-02 0. -1.
       -1   -1    0    0    0  501  0.00000000000E+00  0.00000000000E+00 -0.55112681069E+03  0.55112681071E+03  0.50400001928E-02 0.  1.
    10030    2    1    2    0    0  0.00000000000E+00  0.00000000000E+00  0.76162367079E+03  0.18638772922E+04  0.17011666422E+04 0.  0.
        2    1    3    3  502    0  0.37999252374E+03 -0.47756506848E+02 -0.45131490619E+03  0.59191227948E+03  0.25500000920E-02 0.  1.
       -2    1    3    3    0  502 -0.37999252374E+03  0.47756506848E+02  0.12129385770E+04  0.12719650127E+04  0.25500000920E-02 0. -1.
</event>
<event>
 5   0  0.1374441E-05  0.1700002E+04  0.7818609E-02  0.8761363E-01
       -2   -1    0    0    0  501  0.00000000000E+00  0.00000000000E+00  0.33606280788E+03  0.33606280789E+03  0.25500000920E-02 0.  1.
        2   -1    0    0  501    0  0.00000000000E+00  0.00000000000E+00 -0.21499018386E+04  0.21499018386E+04  0.25500000920E-02 0. -1.
    10030    2    1    2    0    0  0.00000000000E+00  0.00000000000E+00 -0.18138390307E+04  0.24859646465E+04  0.17000024101E+04 0.  0.
        1    1    3    3  502    0  0.44625101568E+02  0.74932450958E+03 -0.14900637240E+04  0.16684629219E+04  0.50400001928E-02 0.  1.
       -1    1    3    3    0  502 -0.44625101568E+02 -0.74932450958E+03 -0.32377530670E+03  0.81750172452E+03  0.50400001928E-02 0. -1.
</event>
<event>
 5   0  0.7461128E-06  0.1702985E+04  0.7818609E-02  0.8759664E-01
        1   -1    0    0  501    0  0.00000000000E+00  0.00000000000E+00  0.51996933992E+03  0.51996933994E+03  0.50400001928E-02 0. -1.
       -1   -1    0    0    0  501  0.00000000000E+00  0.00000000000E+00 -0.13943883624E+04  0.13943883624E+04  0.50400001928E-02 0.  1.
    10030    2    1    2    0    0  0.00000000000E+00  0.00000000000E+00 -0.87441902251E+03  0.19143577024E+04  0.17029846698E+04 0.  0.
        3    1    3    3  502    0 -0.71678370097E+02 -0.41670080812E+03  0.39362165741E+03  0.57768102930E+03  0.10100000352E+00 0. -1.
       -3    1    3    3    0  502  0.71678370097E+02  0.41670080812E+03 -0.12680406799E+04  0.13366766731E+04  0.10100000352E+00 0.  1.
</event>
<event>
 5   0  0.7082527E-06  0.1699562E+04  0.7818609E-02  0.8761614E-01
        1   -1    0    0  501    0  0.00000000000E+00  0.00000000000E+00  0.92071643990E+03  0.92071643992E+03  0.50400001928E-02 0.  1.
       -1   -1    0    0    0  501  0.00000000000E+00  0.00000000000E+00 -0.78431108821E+03  0.78431108822E+03  0.50400001928E-02 0. -1.
    10030    2    1    2    0    0  0.00000000000E+00  0.00000000000E+00  0.13640535170E+03  0.17050275281E+04  0.16995624295E+04 0.  0.
        1    1    3    3  502    0 -0.37469107813E+03  0.30446721586E+03  0.76976133336E+03  0.90863975256E+03  0.50400001928E-02 0.  1.
       -1    1    3    3    0  502  0.37469107813E+03 -0.30446721586E+03 -0.63335598166E+03  0.79638777558E+03  0.50400001928E-02 0. -1.
</event>
<event>
 5   0  0.7461128E-06  0.1698615E+04  0.7818609E-02  0.8762154E-01
        1   -1    0    0  501    0  0.00000000000E+00  0.00000000000E+00  0.58584791230E+03  0.58584791232E+03  0.50400001928E-02 0.  1.
       -1   -1    0    0    0  501  0.00000000000E+00  0.00000000000E+00 -0.12312472129E+04  0.12312472129E+04  0.50400001928E-02 0. -1.
    10030    2    1    2    0    0  0.00000000000E+00  0.00000000000E+00 -0.64539930058E+03  0.18170951252E+04  0.16986154470E+04 0.  0.
        3    1    3    3  502    0 -0.70287038984E+02  0.80110002028E+03 -0.30475372147E+02  0.80475478802E+03  0.10100000352E+00 0.  1.
       -3    1    3    3    0  502  0.70287038984E+02 -0.80110002028E+03 -0.61492392843E+03  0.10123403372E+04  0.10100000352E+00 0. -1.
</event>
<event>
 5   0  0.1423543E-05  0.1698937E+04  0.7818609E-02  0.8761971E-01
        2   -1    0    0  501    0  0.00000000000E+00  0.00000000000E+00  0.10220309941E+04  0.10220309941E+04  0.25500000920E-02 0.  1.
       -2   -1    0    0    0  501  0.00000000000E+00  0.00000000000E+00 -0.70604208262E+03  0.70604208262E+03  0.25500000920E-02 0. -1.
    10030    2    1    2    0    0  0.00000000000E+00  0.00000000000E+00  0.31598891143E+03  0.17280730767E+04  0.16989371872E+04 0.  0.
        3    1    3    3  502    0 -0.23334236894E+03  0.71961302475E+02  0.98556279431E+03  0.10153625569E+04  0.10100000352E+00 0.  1.
       -3    1    3    3    0  502  0.23334236894E+03 -0.71961302475E+02 -0.66957388287E+03  0.71271051979E+03  0.10100000352E+00 0. -1.
</event>
<event>
 5   0  0.1435301E-05  0.1699506E+04  0.7818609E-02  0.8761646E-01
        2   -1    0    0  501    0  0.00000000000E+00  0.00000000000E+00  0.94857689733E+03  0.94857689733E+03  0.25500000920E-02 0. -1.
       -2   -1    0    0    0  501  0.00000000000E+00  0.00000000000E+00 -0.76122465024E+03  0.76122465024E+03  0.25500000920E-02 0.  1.
    10030    2    1    2    0    0  0.00000000000E+00  0.00000000000E+00  0.18735224709E+03  0.17098015476E+04  0.16995059481E+04 0.  0.
        2    1    3    3  502    0  0.72341201973E+03 -0.22159177946E+02  0.54164217151E+03  0.90398684803E+03  0.25500000920E-02 0. -1.
       -2    1    3    3    0  502 -0.72341201973E+03  0.22159177946E+02 -0.35428992441E+03  0.80581469955E+03  0.25500000920E-02 0.  1.
</event>
<event>
 5   0  0.7455669E-06  0.1698990E+04  0.7818609E-02  0.8761941E-01
       -1   -1    0    0    0  501  0.00000000000E+00  0.00000000000E+00  0.44834795976E+03  0.44834795979E+03  0.50400001928E-02 0. -1.
        1   -1    0    0  501    0  0.00000000000E+00  0.00000000000E+00 -0.16095564546E+04  0.16095564546E+04  0.50400001928E-02 0.  1.
    10030    2    1    2    0    0  0.00000000000E+00  0.00000000000E+00 -0.11612084948E+04  0.20579044144E+04  0.16989895262E+04 0.  0.
        4    1    3    3  502    0  0.27383826657E+03  0.10737242854E+03 -0.15459071010E+04  0.15736411956E+04  0.12699999809E+01 0.  1.
       -4    1    3    3    0  502 -0.27383826657E+03 -0.10737242854E+03  0.38469860614E+03  0.48426321883E+03  0.12699999809E+01 0. -1.
</event>
<event>
 5   0  0.1374441E-05  0.1699943E+04  0.7818609E-02  0.8761397E-01
        2   -1    0    0  501    0  0.00000000000E+00  0.00000000000E+00  0.60221625357E+03  0.60221625358E+03  0.25500000920E-02 0. -1.
       -2   -1    0    0    0  501  0.00000000000E+00  0.00000000000E+00 -0.11996550030E+04  0.11996550030E+04  0.25500000920E-02 0.  1.
    10030    2    1    2    0    0  0.00000000000E+00  0.00000000000E+00 -0.59743874946E+03  0.18018712566E+04  0.16999432244E+04 0.  0.
        1    1    3    3  502    0 -0.17450075523E+03  0.15384892784E+03 -0.11652529256E+04  0.11882484533E+04  0.50400001928E-02 0.  1.
       -1    1    3    3    0  502  0.17450075523E+03 -0.15384892784E+03  0.56781417610E+03  0.61362280334E+03  0.50400001928E-02 0. -1.
</event>
<event>
 5   0  0.1441756E-05  0.1700028E+04  0.7818609E-02  0.8761349E-01
        2   -1    0    0  501    0  0.00000000000E+00  0.00000000000E+00  0.14523240452E+04  0.14523240452E+04  0.25500000920E-02 0. -1.
       -2   -1    0    0    0  501  0.00000000000E+00  0.00000000000E+00 -0.49749464589E+03  0.49749464589E+03  0.25500000920E-02 0.  1.
    10030    2    1    2    0    0  0.00000000000E+00  0.00000000000E+00  0.95482939933E+03  0.19498186911E+04  0.17000275722E+04 0.  0.
        5    1    3    3  502    0 -0.22046340724E+03  0.67789325001E+03  0.10084312856E+04  0.12349490355E+04  0.46999998093E+01 0. -1.
       -5    1    3    3    0  502  0.22046340724E+03 -0.67789325001E+03 -0.53601886315E+02  0.71486965564E+03  0.46999998093E+01 0.  1.
</event>
<event>
 5   0  0.7455669E-06  0.1699679E+04  0.7818609E-02  0.8761547E-01
       -1   -1    0    0    0  501  0.00000000000E+00  0.00000000000E+00  0.69099798720E+03  0.69099798722E+03  0.50400001928E-02 0.  1.
        1   -1    0    0  501    0  0.00000000000E+00  0.00000000000E+00 -0.10451943156E+04  0.10451943156E+04  0.50400001928E-02 0. -1.
    10030    2    1    2    0    0  0.00000000000E+00  0.00000000000E+00 -0.35419632837E+03  0.17361923028E+04  0.16996789912E+04 0.  0.
        4    1    3    3  502    0 -0.21704809075E+03 -0.49445360029E+03  0.49322422614E+03  0.73134532656E+03  0.12699999809E+01 0.  1.
       -4    1    3    3    0  502  0.21704809075E+03  0.49445360029E+03 -0.84742055451E+03  0.10048469762E+04  0.12699999809E+01 0. -1.
</event>
<event>
 5   0  0.1374441E-05  0.1699596E+04  0.7818609E-02  0.8761595E-01
       -2   -1    0    0    0  501  0.00000000000E+00  0.00000000000E+00  0.42688964380E+03  0.42688964380E+03  0.25500000920E-02 0. -1.
        2   -1    0    0  501    0  0.00000000000E+00  0.00000000000E+00 -0.16916713042E+04  0.16916713042E+04  0.25500000920E-02 0.  1.
    10030    2    1    2    0    0  0.00000000000E+00  0.00000000000E+00 -0.12647816604E+04  0.21185609480E+04  0.16995963762E+04 0.  0.
        1    1    3    3  502    0  0.51908660643E+03 -0.44032297404E+03 -0.12665460001E+04  0.14378713422E+04  0.50400001928E-02 0.  1.
       -1    1    3    3    0  502 -0.51908660643E+03  0.44032297404E+03  0.17643397196E+01  0.68068960574E+03  0.50400001928E-02 0. -1.
</event>
<event>
 5   0  0.7082527E-06  0.1699908E+04  0.7818609E-02  0.8761417E-01
        1   -1    0    0  501    0  0.00000000000E+00  0.00000000000E+00  0.12023369520E+04  0.12023369520E+04  0.50400001928E-02 0. -1.
       -1   -1    0    0    0  501  0.00000000000E+00  0.00000000000E+00 -0.60084776733E+03  0.60084776735E+03  0.50400001928E-02 0.  1.
    10030    2    1    2    0    0  0.00000000000E+00  0.00000000000E+00  0.60148918465E+03  0.18031847194E+04  0.16999076130E+04 0.  0.
        1    1    3    3  502    0 -0.36947702189E+03 -0.66143145661E+03  0.70939899768E+03  0.10379074041E+04  0.50400001928E-02 0. -1.
       -1    1    3    3    0  502  0.36947702189E+03  0.66143145661E+03 -0.10790981303E+03  0.76527731527E+03  0.50400001928E-02 0.  1.
</event>
<event>
 5   0  0.1374441E-05  0.1696477E+04  0.7818609E-02  0.8763376E-01
       -2   -1    0    0    0  501  0.00000000000E+00  0.00000000000E+00  0.71888989297E+03  0.71888989297E+03  0.25500000920E-02 0.  1.
        2   -1    0    0  501    0  0.00000000000E+00  0.00000000000E+00 -0.10008607845E+04  0.10008607845E+04  0.25500000920E-02 0. -1.
    10030    2    1    2    0    0  0.00000000000E+00  0.00000000000E+00 -0.28197089153E+03  0.17197506775E+04  0.16964771761E+04 0.  0.
        1    1    3    3  502    0  0.27377513487E+03 -0.48889119683E+03  0.50457215580E+03  0.75402950025E+03  0.50400001928E-02 0.  1.
       -1    1    3    3    0  502 -0.27377513487E+03  0.48889119683E+03 -0.78654304733E+03  0.96572117722E+03  0.50400001928E-02 0. -1.
</event>
<event>
 5   0  0.7455669E-06  0.1699607E+04  0.7818609E-02  0.8761589E-01
        1   -1    0    0  501    0  0.00000000000E+00  0.00000000000E+00  0.50793179532E+03  0.50793179534E+03  0.50400001928E-02 0.  1.
       -1   -1    0    0    0  501  0.00000000000E+00  0.00000000000E+00 -0.14217768384E+04  0.14217768384E+04  0.50400001928E-02 0. -1.
    10030    2    1    2    0    0  0.00000000000E+00  0.00000000000E+00 -0.91384504308E+03  0.19297086338E+04  0.16996066158E+04 0.  0.
        4    1    3    3  502    0  0.58210257704E+03 -0.48510173672E+03 -0.20135524710E+02  0.75800670011E+03  0.12699999809E+01 0.  1.
       -4    1    3    3    0  502 -0.58210257704E+03  0.48510173672E+03 -0.89370951837E+03  0.11717019336E+04  0.12699999809E+01 0. -1.
</event>
<event>
 5   0  0.1435301E-05  0.1699771E+04  0.7818609E-02  0.8761495E-01
        2   -1    0    0  501    0  0.00000000000E+00  0.00000000000E+00  0.11900440328E+04  0.11900440328E+04  0.25500000920E-02 0.  1.
       -2   -1    0    0    0  501  0.00000000000E+00  0.00000000000E+00 -0.60695704193E+03  0.60695704193E+03  0.25500000920E-02 0. -1.
    10030    2    1    2    0    0  0.00000000000E+00  0.00000000000E+00  0.58308699083E+03  0.17970010747E+04  0.16997712857E+04 0.  0.
        2    1    3    3  502    0 -0.29529711982E+03  0.34848629894E+03 -0.46615562995E+03  0.65264397711E+03  0.25500000920E-02 0. -1.
       -2    1    3    3    0  502  0.29529711982E+03 -0.34848629894E+03  0.10492426208E+04  0.11443570976E+04  0.25500000920E-02 0.  1.
</event>
<event>
 5   0  0.1435301E-05  0.1699985E+04  0.7818609E-02  0.8761373E-01
        2   -1    0    0  501    0  0.00000000000E+00  0.00000000000E+00  0.70568662340E+03  0.70568662340E+03  0.25500000920E-02 0.  1.
       -2   -1    0    0    0  501  0.00000000000E+00  0.00000000000E+00 -0.10238078828E+04  0.10238078828E+04  0.25500000920E-02 0. -1.
    10030    2    1    2    0    0  0.00000000000E+00  0.00000000000E+00 -0.31812125940E+03  0.17294945062E+04  0.16999853268E+04 0.  0.
        2    1    3    3  502    0  0.83337457565E+03  0.13987508681E+03 -0.65766556434E+02  0.84758684700E+03  0.25500000920E-02 0.  1.
       -2    1    3    3    0  502 -0.83337457565E+03 -0.13987508681E+03 -0.25235470297E+03  0.88190765921E+03  0.25500000920E-02 0. -1.
</event>
<event>
 5   0  0.7455669E-06  0.1699331E+04  0.7818609E-02  0.8761746E-01
        1   -1    0    0  501    0  0.00000000000E+00  0.00000000000E+00  0.96313902886E+03  0.96313902888E+03  0.50400001928E-02 0. -1.
       -1   -1    0    0    0  501  0.00000000000E+00  0.00000000000E+00 -0.74956122425E+03  0.74956122427E+03  0.50400001928E-02 0.  1.
    10030    2    1    2    0    0  0.00000000000E+00  0.00000000000E+00  0.21357780461E+03  0.17127002531E+04  0.16993312445E+04 0.  0.
        4    1    3    3  502    0 -0.65706593776E+02 -0.52348280307E+03 -0.56446765524E+03  0.77264283358E+03  0.12699999809E+01 0.  1.
       -4    1    3    3    0  502  0.65706593776E+02  0.52348280307E+03  0.77804545985E+03  0.94005741956E+03  0.12699999809E+01 0. -1.
</event>
<event>
 5   0  0.7583716E-06  0.1699185E+04  0.7818609E-02  0.8761829E-01
       -1   -1    0    0    0  501  0.00000000000E+00  0.00000000000E+00  0.75982977631E+03  0.75982977632E+03  0.50400001928E-02 0. -1.
        1   -1    0    0  501    0  0.00000000000E+00  0.00000000000E+00 -0.94995927806E+03  0.94995927807E+03  0.50400001928E-02 0.  1.
    10030    2    1    2    0    0  0.00000000000E+00  0.00000000000E+00 -0.19012950175E+03  0.17097890544E+04  0.16991849173E+04 0.  0.
        5    1    3    3  502    0 -0.52840592769E+03 -0.62439844725E+03  0.13593053566E+03  0.82920772178E+03  0.46999998093E+01 0. -1.
       -5    1    3    3    0  502  0.52840592769E+03  0.62439844725E+03 -0.32606003742E+03  0.88058133261E+03  0.46999998093E+01 0.  1.
</event>
<event>
 5   0  0.7476457E-06  0.1700461E+04  0.7818609E-02  0.8761101E-01
       -1   -1    0    0    0  501  0.00000000000E+00  0.00000000000E+00  0.70104794634E+03  0.70104794636E+03  0.50400001928E-02 0.  1.
        1   -1    0    0  501    0  0.00000000000E+00  0.00000000000E+00 -0.10311589865E+04  0.10311589865E+04  0.50400001928E-02 0. -1.
    10030    2    1    2    0    0  0.00000000000E+00  0.00000000000E+00 -0.33011104014E+03  0.17322069329E+04  0.17004609844E+04 0.  0.
        2    1    3    3  502    0  0.83325626518E+03 -0.86394220901E+02 -0.31306755090E+03  0.89431049211E+03  0.25500000920E-02 0.  1.
       -2    1    3    3    0  502 -0.83325626518E+03  0.86394220901E+02 -0.17043489240E+02  0.83789644074E+03  0.25500000920E-02 0. -1.
</event>
<event>
 5   0  0.1423543E-05  0.1700095E+04  0.7818609E-02  0.8761310E-01
       -2   -1    0    0    0  501  0.00000000000E+00  0.00000000000E+00  0.71459319869E+03  0.71459319869E+03  0.25500000920E-02 0. -1.
        2   -1    0    0  501    0  0.00000000000E+00  0.00000000000E+00 -0.10111776084E+04  0.10111776084E+04  0.25500000920E-02 0.  1.
    10030    2    1    2    0    0  0.00000000000E+00  0.00000000000E+00 -0.29658440971E+03  0.17257708071E+04  0.17000948699E+04 0.  0.
        3    1    3    3  502    0 -0.40012421504E+03 -0.31696275772E+03  0.54169081129E+03  0.74430754563E+03  0.10100000352E+00 0. -1.
       -3    1    3    3    0  502  0.40012421504E+03  0.31696275772E+03 -0.83827522100E+03  0.98146326146E+03  0.10100000352E+00 0.  1.
</event>
<event>
 5   0  0.7476457E-06  0.1697402E+04  0.7818609E-02  0.8762848E-01
        1   -1    0    0  501    0  0.00000000000E+00  0.00000000000E+00  0.21905819829E+04  0.21905819829E+04  0.50400001928E-02 0. -1.
       -1   -1    0    0    0  501  0.00000000000E+00  0.00000000000E+00 -0.32881363703E+03  0.32881363707E+03  0.50400001928E-02 0.  1.
    10030    2    1    2    0    0  0.00000000000E+00  0.00000000000E+00  0.18617683459E+04  0.25193956200E+04  0.16974018134E+04 0.  0.
        2    1    3    3  502    0  0.45086703312E+03 -0.70628591704E+03  0.73079791354E+03  0.11118392279E+04  0.25500000920E-02 0.  1.
       -2    1    3    3    0  502 -0.45086703312E+03  0.70628591704E+03  0.11309704323E+04  0.14075563921E+04  0.25500000920E-02 0. -1.
</event>
<event>
 5   0  0.7082527E-06  0.1700102E+04  0.7818609E-02  0.8761306E-01
       -1   -1    0    0    0  501  0.00000000000E+00  0.00000000000E+00  0.69163439874E+03  0.69163439876E+03  0.50400001928E-02 0.  1.
        1   -1    0    0  501    0  0.00000000000E+00  0.00000000000E+00 -0.10447530076E+04  0.10447530076E+04  0.50400001928E-02 0. -1.
    10030    2    1    2    0    0  0.00000000000E+00  0.00000000000E+00 -0.35311860888E+03  0.17363874064E+04  0.17001024890E+04 0.  0.
        1    1    3    3  502    0  0.20445188897E+03  0.81619632506E+03 -0.30001131088E+03  0.89329939137E+03  0.50400001928E-02 0. -1.
       -1    1    3    3    0  502 -0.20445188897E+03 -0.81619632506E+03 -0.53107297993E+02  0.84308801502E+03  0.50400001928E-02 0.  1.
</event>
<event>
 5   0  0.1374441E-05  0.1697826E+04  0.7818609E-02  0.8762605E-01
       -2   -1    0    0    0  501  0.00000000000E+00  0.00000000000E+00  0.10560652295E+04  0.10560652295E+04  0.25500000920E-02 0.  1.
        2   -1    0    0  501    0  0.00000000000E+00  0.00000000000E+00 -0.68239486145E+03  0.68239486146E+03  0.25500000920E-02 0. -1.
    10030    2    1    2    0    0  0.00000000000E+00  0.00000000000E+00  0.37367036804E+03  0.17384600910E+04  0.16978262408E+04 0.  0.
        1    1    3    3  502    0 -0.71979356285E+03 -0.35871353235E+03  0.46514027776E+03  0.92904986380E+03  0.50400001928E-02 0.  1.
       -1    1    3    3    0  502  0.71979356285E+03  0.35871353235E+03 -0.91469909716E+02  0.80941022715E+03  0.50400001928E-02 0. -1.
</event>
<event>
 5   0  0.7583716E-06  0.1698616E+04  0.7818609E-02  0.8762154E-01
       -1   -1    0    0    0  501  0.00000000000E+00  0.00000000000E+00  0.18613572088E+04  0.18613572088E+04  0.50400001928E-02 0.  1.
        1   -1    0    0  501    0  0.00000000000E+00  0.00000000000E+00 -0.38752609412E+03  0.38752609416E+03  0.50400001928E-02 0. -1.
    10030    2    1    2    0    0  0.00000000000E+00  0.00000000000E+00  0.14738311146E+04  0.22488833029E+04  0.16986164828E+04 0.  0.
        5    1    3    3  502    0 -0.48086376839E+03 -0.47033463267E+03  0.14234034479E+04  0.15743392569E+04  0.46999998093E+01 0.  1.
       -5    1    3    3    0  502  0.48086376839E+03  0.47033463267E+03  0.50427666768E+02  0.67454404601E+03  0.46999998093E+01 0. -1.
</event>
<event>
 5   0  0.7583716E-06  0.1699918E+04  0.7818609E-02  0.8761411E-01
       -1   -1    0    0    0  501  0.00000000000E+00  0.00000000000E+00  0.58576568539E+03  0.58576568541E+03  0.50400001928E-02 0.  1.
        1   -1    0    0  501    0  0.00000000000E+00  0.00000000000E+00 -0.12333094782E+04  0.12333094782E+04  0.50400001928E-02 0. -1.
    10030    2    1    2    0    0  0.00000000000E+00  0.00000000000E+00 -0.64754379283E+03  0.18190751636E+04  0.16999180825E+04 0.  0.
        5    1    3    3  502    0 -0.32978554629E+03 -0.62140835141E+03  0.18663287066E+03  0.72784666253E+03  0.46999998093E+01 0.  1.
       -5    1    3    3    0  502  0.32978554629E+03  0.62140835141E+03 -0.83417666349E+03  0.10912285011E+04  0.46999998093E+01 0. -1.
</event>
<event>
 5   0  0.1435301E-05  0.1702032E+04  0.7818609E-02  0.8760206E-01
       -2   -1    0    0    0  501  0.00000000000E+00  0.00000000000E+00  0.10489198624E+04  0.10489198624E+04  0.25500000920E-02 0. -1.
        2   -1    0    0  501    0  0.00000000000E+00  0.00000000000E+00 -0.69045146150E+03  0.69045146151E+03  0.25500000920E-02 0.  1.
    10030    2    1    2    0    0  0.00000000000E+00  0.00000000000E+00  0.35846840085E+03  0.17393713239E+04  0.17020320232E+04 0.  0.
        2    1    3    3  502    0  0.31169870863E+03 -0.69701307436E+03  0.56330477038E+03  0.94883906703E+03  0.25500000920E-02 0.  1.
       -2    1    3    3    0  502 -0.31169870863E+03  0.69701307436E+03 -0.20483636953E+03  0.79053225683E+03  0.25500000920E-02 0. -1.
</event>
<event>
 5   0  0.1435301E-05  0.1700079E+04  0.7818609E-02  0.8761320E-01
       -2   -1    0    0    0  501  0.00000000000E+00  0.00000000000E+00  0.55197439713E+03  0.55197439713E+03  0.25500000920E-02 0. -1.
        2   -1    0    0  501    0  0.00000000000E+00  0.00000000000E+00 -0.13090584867E+04  0.13090584867E+04  0.25500000920E-02 0.  1.
    10030    2    1    2    0    0  0.00000000000E+00  0.00000000000E+00 -0.75708408957E+03  0.18610328838E+04  0.17000785500E+04 0.  0.
        2    1    3    3  502    0 -0.18468868998E+03  0.63979735960E+03 -0.95687451672E+03  0.11657870364E+04  0.25500000920E-02 0.  1.
       -2    1    3    3    0  502  0.18468868998E+03 -0.63979735960E+03  0.19979042715E+03  0.69524584741E+03  0.25500000920E-02 0. -1.
</event>
<event>
 5   0  0.7461128E-06  0.1700322E+04  0.7818609E-02  0.8761180E-01
        1   -1    0    0  501    0  0.00000000000E+00  0.00000000000E+00  0.96442709411E+03  0.96442709413E+03  0.50400001928E-02 0. -1.
       -1   -1    0    0    0  501  0.00000000000E+00  0.00000000000E+00 -0.74943361418E+03  0.74943361419E+03  0.50400001928E-02 0.  1.
    10030    2    1    2    0    0  0.00000000000E+00  0.00000000000E+00  0.21499347994E+03  0.17138607083E+04  0.17003224198E+04 0.  0.
        3    1    3    3  502    0 -0.73627725332E+03 -0.42069053010E+03  0.16872043888E+03  0.86461049761E+03  0.10100000352E+00 0. -1.
       -3    1    3    3    0  502  0.73627725332E+03  0.42069053010E+03  0.46273041051E+02  0.84925021072E+03  0.10100000352E+00 0.  1.
</event>
<event>
 5   0  0.1441756E-05  0.1699226E+04  0.7818609E-02  0.8761806E-01
       -2   -1    0    0    0  501  0.00000000000E+00  0.00000000000E+00  0.41638787776E+03  0.41638787776E+03  0.25500000920E-02 0.  1.
        2   -1    0    0  501    0  0.00000000000E+00  0.00000000000E+00 -0.17335808720E+04  0.17335808720E+04  0.25500000920E-02 0. -1.
    10030    2    1    2    0    0  0.00000000000E+00  0.00000000000E+00 -0.13171929943E+04  0.21499687498E+04  0.16992257769E+04 0.  0.
        5    1    3    3  502    0  0.80696497377E+03  0.26466678458E+03 -0.62815133624E+03  0.10563319398E+04  0.46999998093E+01 0.  1.
       -5    1    3    3    0  502 -0.80696497377E+03 -0.26466678458E+03 -0.68904165806E+03  0.10936368100E+04  0.46999998093E+01 0. -1.
</event>
<event>
 5   0  0.7455669E-06  0.1699747E+04  0.7818609E-02  0.8761509E-01
        1   -1    0    0  501    0  0.00000000000E+00  0.00000000000E+00  0.12787383153E+04  0.12787383153E+04  0.50400001928E-02 0. -1.
       -1   -1    0    0    0  501  0.00000000000E+00  0.00000000000E+00 -0.56484183270E+03  0.56484183272E+03  0.50400001928E-02 0.  1.
    10030    2    1    2    0    0  0.00000000000E+00  0.00000000000E+00  0.71389648259E+03  0.18435801480E+04  0.16997469148E+04 0.  0.
        4    1    3    3  502    0  0.41612992390E+03 -0.58732601887E+03  0.84703263129E+03  0.11115672977E+04  0.12699999809E+01 0. -1.
       -4    1    3    3    0  502 -0.41612992390E+03  0.58732601887E+03 -0.13313614870E+03  0.73201285030E+03  0.12699999809E+01 0.  1.
</event>
<event>
 5   0  0.1435301E-05  0.1699792E+04  0.7818609E-02  0.8761483E-01
        2   -1    0    0  501    0  0.00000000000E+00  0.00000000000E+00  0.94390839935E+03  0.94390839936E+03  0.25500000920E-02 0. -1.
       -2   -1    0    0    0  501  0.00000000000E+00  0.00000000000E+00 -0.76524732169E+03  0.76524732169E+03  0.25500000920E-02 0.  1.
    10030    2    1    2    0    0  0.00000000000E+00  0.00000000000E+00  0.17866107766E+03  0.17091557211E+04  0.16997921926E+04 0.  0.
        2    1    3    3  502    0 -0.35731283708E+02 -0.79074185092E+03  0.40050902200E+03  0.88710589906E+03  0.25500000920E-02 0. -1.
       -2    1    3    3    0  502  0.35731283708E+02  0.79074185092E+03 -0.22184794434E+03  0.82204982200E+03  0.25500000920E-02 0.  1.
</event>
<event>
 5   0  0.7461128E-06  0.1700146E+04  0.7818609E-02  0.8761281E-01
       -1   -1    0    0    0  501  0.00000000000E+00  0.00000000000E+00  0.69350647257E+03  0.69350647259E+03  0.50400001928E-02 0.  1.
        1   -1    0    0  501    0  0.00000000000E+00  0.00000000000E+00 -0.10419856333E+04  0.10419856333E+04  0.50400001928E-02 0. -1.
    10030    2    1    2    0    0  0.00000000000E+00  0.00000000000E+00 -0.34847916071E+03  0.17354921059E+04  0.17001456185E+04 0.  0.
        3    1    3    3  502    0 -0.39773420804E+03  0.73275945681E+03 -0.34350264180E+03  0.90173332916E+03  0.10100000352E+00 0. -1.
       -3    1    3    3    0  502  0.39773420804E+03 -0.73275945681E+03 -0.49765189056E+01  0.83375877671E+03  0.10100000352E+00 0.  1.
</event>
<event>
 5   0  0.7583716E-06  0.1699830E+04  0.7818609E-02  0.8761462E-01
        1   -1    0    0  501    0  0.00000000000E+00  0.00000000000E+00  0.12752909281E+04  0.12752909281E+04  0.50400001928E-02 0.  1.
       -1   -1    0    0    0  501  0.00000000000E+00  0.00000000000E+00 -0.56642378329E+03  0.56642378332E+03  0.50400001928E-02 0. -1.
    10030    2    1    2    0    0  0.00000000000E+00  0.00000000000E+00  0.70886714479E+03  0.18417147114E+04  0.16998295354E+04 0.  0.
        5    1    3    3  502    0 -0.61883079511E+03  0.58006312522E+03  0.41286306514E+03  0.94334658676E+03  0.46999998093E+01 0.  1.
       -5    1    3    3    0  502  0.61883079511E+03 -0.58006312522E+03  0.29600407966E+03  0.89836812465E+03  0.46999998093E+01 0. -1.
</event>
<event>
 5   0  0.7476457E-06  0.1700785E+04  0.7818609E-02  0.8760917E-01
        1   -1    0    0  501    0  0.00000000000E+00  0.00000000000E+00  0.41248103694E+03  0.41248103697E+03  0.50400001928E-02 0.  1.
       -1   -1    0    0    0  501  0.00000000000E+00  0.00000000000E+00 -0.17532146383E+04  0.17532146383E+04  0.50400001928E-02 0. -1.
    10030    2    1    2    0    0  0.00000000000E+00  0.00000000000E+00 -0.13407336014E+04  0.21656956753E+04  0.17007854562E+04 0.  0.
        2    1    3    3  502    0  0.37773493515E+03  0.76052766056E+03 -0.61226813200E+03  0.10468802554E+04  0.25500000920E-02 0.  1.
       -2    1    3    3    0  502 -0.37773493515E+03 -0.76052766056E+03 -0.72846546939E+03  0.11188154199E+04  0.25500000920E-02 0. -1.
</event>
<event>
 5   0  0.7583716E-06  0.1699760E+04  0.7818609E-02  0.8761501E-01
       -1   -1    0    0    0  501  0.00000000000E+00  0.00000000000E+00  0.96494406452E+03  0.96494406454E+03  0.50400001928E-02 0. -1.
        1   -1    0    0  501    0  0.00000000000E+00  0.00000000000E+00 -0.74853629405E+03  0.74853629406E+03  0.50400001928E-02 0.  1.
    10030    2    1    2    0    0  0.00000000000E+00  0.00000000000E+00  0.21640777048E+03  0.17134803586E+04  0.16997595760E+04 0.  0.
        5    1    3    3  502    0 -0.80090503728E+03 -0.26455732616E+03  0.32766610279E+01  0.84348816474E+03  0.46999998093E+01 0. -1.
       -5    1    3    3    0  502  0.80090503728E+03  0.26455732616E+03  0.21313110945E+03  0.86999219386E+03  0.46999998093E+01 0.  1.
</event>
<event>
 5   0  0.1435301E-05  0.1705024E+04  0.7818609E-02  0.8758504E-01
       -2   -1    0    0    0  501  0.00000000000E+00  0.00000000000E+00  0.33510630792E+03  0.33510630793E+03  0.25500000920E-02 0. -1.
        2   -1    0    0  501    0  0.00000000000E+00  0.00000000000E+00 -0.21687935060E+04  0.21687935060E+04  0.25500000920E-02 0.  1.
    10030    2    1    2    0    0  0.00000000000E+00  0.00000000000E+00 -0.18336871981E+04  0.25038998140E+04  0.17050236180E+04 0.  0.
        2    1    3    3  502    0  0.77586235946E+03 -0.30720908589E+02 -0.39998709639E+03  0.87343909481E+03  0.25500000920E-02 0. -1.
       -2    1    3    3    0  502 -0.77586235946E+03  0.30720908589E+02 -0.14337001017E+04  0.16304607192E+04  0.25500000920E-02 0.  1.
</event>
<event>
 5   0  0.1435301E-05  0.1698915E+04  0.7818609E-02  0.8761983E-01
       -2   -1    0    0    0  501  0.00000000000E+00  0.00000000000E+00  0.33264678684E+03  0.33264678685E+03  0.25500000920E-02 0. -1.
        2   -1    0    0  501    0  0.00000000000E+00  0.00000000000E+00 -0.21692025035E+04  0.21692025035E+04  0.25500000920E-02 0.  1.
    10030    2    1    2    0    0  0.00000000000E+00  0.00000000000E+00 -0.18365557167E+04  0.25018492904E+04  0.16989152337E+04 0.  0.
        2    1    3    3  502    0  0.82147531121E+03  0.82726194000E+02 -0.12124802872E+04  0.14668925513E+04  0.25500000920E-02 0.  1.
       -2    1    3    3    0  502 -0.82147531121E+03 -0.82726194000E+02 -0.62407542946E+03  0.10349567391E+04  0.25500000920E-02 0. -1.
</event>
<event>
 5   0  0.7455669E-06  0.1699058E+04  0.7818609E-02  0.8761902E-01
       -1   -1    0    0    0  501  0.00000000000E+00  0.00000000000E+00  0.55678974646E+03  0.55678974648E+03  0.50400001928E-02 0. -1.
        1   -1    0    0  501    0  0.00000000000E+00  0.00000000000E+00 -0.12961798423E+04  0.12961798423E+04  0.50400001928E-02 0.  1.
    10030    2    1    2    0    0  0.00000000000E+00  0.00000000000E+00 -0.73939009587E+03  0.18529695888E+04  0.16990581459E+04 0.  0.
        4    1    3    3  502    0  0.64935130443E+03 -0.36162903798E+03 -0.81838266960E+03  0.11055245291E+04  0.12699999809E+01 0.  1.
       -4    1    3    3    0  502 -0.64935130443E+03  0.36162903798E+03  0.78992573730E+02  0.74744505970E+03  0.12699999809E+01 0. -1.
</event>
<event>
 5   0  0.1419012E-05  0.1699762E+04  0.7818609E-02  0.8761500E-01
       -2   -1    0    0    0  501  0.00000000000E+00  0.00000000000E+00  0.13838728785E+04  0.13838728785E+04  0.25500000920E-02 0. -1.
        2   -1    0    0  501    0  0.00000000000E+00  0.00000000000E+00 -0.52193929831E+03  0.52193929832E+03  0.25500000920E-02 0.  1.
    10030    2    1    2    0    0  0.00000000000E+00  0.00000000000E+00  0.86193358018E+03  0.19058121768E+04  0.16997619117E+04 0.  0.
        4    1    3    3  502    0 -0.52832548142E+03  0.20719430367E+03 -0.27836849088E+03  0.63209803307E+03  0.12699999809E+01 0.  1.
       -4    1    3    3    0  502  0.52832548142E+03 -0.20719430367E+03  0.11403020711E+04  0.12737141437E+04  0.12699999809E+01 0. -1.
</event>
<event>
 5   0  0.5229750E-06  0.1699275E+04  0.7818609E-02  0.8761778E-01
       -3   -1    0    0    0  501  0.00000000000E+00  0.00000000000E+00  0.13692917636E+04  0.13692917673E+04  0.10100000352E+00 0.  1.
        3   -1    0    0  501    0  0.00000000000E+00  0.00000000000E+00 -0.52719490166E+03  0.52719491134E+03  0.10100000352E+00 0. -1.
    10030    2    1    2    0    0  0.00000000000E+00  0.00000000000E+00  0.84209686194E+03  0.18964866787E+04  0.16992747269E+04 0.  0.
        1    1    3    3  502    0  0.19605428405E+03  0.78603973003E+03  0.13522482517E+03  0.82132910143E+03  0.50400001928E-02 0.  1.
       -1    1    3    3    0  502 -0.19605428405E+03 -0.78603973003E+03  0.70687203678E+03  0.10751575772E+04  0.50400001928E-02 0. -1.
</event>
<event>
 5   0  0.7583716E-06  0.1699110E+04  0.7818609E-02  0.8761872E-01
       -1   -1    0    0    0  501  0.00000000000E+00  0.00000000000E+00  0.14646286135E+04  0.14646286135E+04  0.50400001928E-02 0. -1.
        1   -1    0    0  501    0  0.00000000000E+00  0.00000000000E+00 -0.49278264319E+03  0.49278264322E+03  0.50400001928E-02 0.  1.
    10030    2    1    2    0    0  0.00000000000E+00  0.00000000000E+00  0.97184597029E+03  0.19574112567E+04  0.16991098369E+04 0.  0.
        5    1    3    3  502    0 -0.18096922658E+03  0.81926844521E+03  0.33235015062E+03  0.90245740005E+03  0.46999998093E+01 0. -1.
       -5    1    3    3    0  502  0.18096922658E+03 -0.81926844521E+03  0.63949581967E+03  0.10549538567E+04  0.46999998093E+01 0.  1.
</event>
<event>
 5   0  0.7461128E-06  0.1701260E+04  0.7818609E-02  0.8760646E-01
       -1   -1    0    0    0  501  0.00000000000E+00  0.00000000000E+00  0.65407107274E+03  0.65407107276E+03  0.50400001928E-02 0. -1.
        1   -1    0    0  501    0  0.00000000000E+00  0.00000000000E+00 -0.11062579390E+04  0.11062579390E+04  0.50400001928E-02 0.  1.
    10030    2    1    2    0    0  0.00000000000E+00  0.00000000000E+00 -0.45218686625E+03  0.17603290118E+04  0.17012599060E+04 0.  0.
        3    1    3    3  502    0 -0.83282346628E+02 -0.24472583883E+03  0.61244204446E+03  0.66476458500E+03  0.10100000352E+00 0. -1.
       -3    1    3    3    0  502  0.83282346628E+02  0.24472583883E+03 -0.10646289107E+04  0.10955644268E+04  0.10100000352E+00 0.  1.
</event>
<event>
 5   0  0.1435301E-05  0.1699877E+04  0.7818609E-02  0.8761435E-01
       -2   -1    0    0    0  501  0.00000000000E+00  0.00000000000E+00  0.10764459599E+04  0.10764459599E+04  0.25500000920E-02 0.  1.
        2   -1    0    0  501    0  0.00000000000E+00  0.00000000000E+00 -0.67109302138E+03  0.67109302138E+03  0.25500000920E-02 0. -1.
    10030    2    1    2    0    0  0.00000000000E+00  0.00000000000E+00  0.40535293854E+03  0.17475389813E+04  0.16998769033E+04 0.  0.
        2    1    3    3  502    0 -0.28205194498E+03 -0.42005079596E+03 -0.49940642336E+03  0.71091683519E+03  0.25500000920E-02 0. -1.
       -2    1    3    3    0  502  0.28205194498E+03  0.42005079596E+03  0.90475936190E+03  0.10366221461E+04  0.25500000920E-02 0.  1.
</event>
<event>
 5   0  0.7082527E-06  0.1699289E+04  0.7818609E-02  0.8761770E-01
       -1   -1    0    0    0  501  0.00000000000E+00  0.00000000000E+00  0.55522499797E+03  0.55522499799E+03  0.50400001928E-02 0. -1.
        1   -1    0    0  501    0  0.00000000000E+00  0.00000000000E+00 -0.13001853317E+04  0.13001853317E+04  0.50400001928E-02 0.  1.
    10030    2    1    2    0    0  0.00000000000E+00  0.00000000000E+00 -0.74496033374E+03  0.18554103297E+04  0.16992885549E+04 0.  0.
        1    1    3    3  502    0 -0.50831252472E+03  0.60740900140E+03 -0.36707666635E+02  0.79289013778E+03  0.50400001928E-02 0. -1.
       -1    1    3    3    0  502  0.50831252472E+03 -0.60740900140E+03 -0.70825266710E+03  0.10625201919E+04  0.50400001928E-02 0.  1.
</event>
<event>
 5   0  0.1435301E-05  0.1699885E+04  0.7818609E-02  0.8761430E-01
       -2   -1    0    0    0  501  0.00000000000E+00  0.00000000000E+00  0.36992313191E+03  0.36992313192E+03  0.25500000920E-02 0.  1.
        2   -1    0    0  501    0  0.00000000000E+00  0.00000000000E+00 -0.19528435147E+04  0.19528435147E+04  0.25500000920E-02 0. -1.
    10030    2    1    2    0    0  0.00000000000E+00  0.00000000000E+00 -0.15829203828E+04  0.23227666466E+04  0.16998846892E+04 0.  0.
        2    1    3    3  502    0 -0.20868750611E+02  0.21007824331E+03  0.33352724035E+03  0.39472622554E+03  0.25500000920E-02 0.  1.
       -2    1    3    3    0  502  0.20868750611E+02 -0.21007824331E+03 -0.19164476232E+04  0.19280404211E+04  0.25500000920E-02 0. -1.
</event>
<event>
 5   0  0.1435301E-05  0.1700049E+04  0.7818609E-02  0.8761336E-01
        2   -1    0    0  501    0  0.00000000000E+00  0.00000000000E+00  0.11731441933E+04  0.11731441933E+04  0.25500000920E-02 0.  1.
       -2   -1    0    0    0  501  0.00000000000E+00  0.00000000000E+00 -0.61590217157E+03  0.61590217157E+03  0.25500000920E-02 0. -1.
    10030    2    1    2    0    0  0.00000000000E+00  0.00000000000E+00  0.55724202176E+03  0.17890463649E+04  0.17000494772E+04 0.  0.
        2    1    3    3  502    0  0.43194756814E+03  0.11252218405E+03 -0.48264471805E+03  0.65740844792E+03  0.25500000920E-02 0. -1.
       -2    1    3    3    0  502 -0.43194756814E+03 -0.11252218405E+03  0.10398867398E+04  0.11316379170E+04  0.25500000920E-02 0.  1.
</event>
<event>
 5   0  0.7461128E-06  0.1700498E+04  0.7818609E-02  0.8761080E-01
        1   -1    0    0  501    0  0.00000000000E+00  0.00000000000E+00  0.28680142385E+04  0.28680142385E+04  0.50400001928E-02 0.  1.
       -1   -1    0    0    0  501  0.00000000000E+00  0.00000000000E+00 -0.25206420461E+03  0.25206420466E+03  0.50400001928E-02 0. -1.
    10030    2    1    2    0    0  0.00000000000E+00  0.00000000000E+00  0.26159500339E+04  0.31200784431E+04  0.17004984304E+04 0.  0.
        3    1    3    3  502    0 -0.28344319865E+03 -0.59540409673E+03  0.22927659629E+04  0.23857120229E+04  0.10100000352E+00 0.  1.
       -3    1    3    3    0  502  0.28344319865E+03  0.59540409673E+03  0.32318407094E+03  0.73436642023E+03  0.10100000352E+00 0. -1.
</event>
<event>
 5   0  0.7082527E-06  0.1701516E+04  0.7818609E-02  0.8760500E-01
        1   -1    0    0  501    0  0.00000000000E+00  0.00000000000E+00  0.97114169857E+03  0.97114169858E+03  0.50400001928E-02 0.  1.
       -1   -1    0    0    0  501  0.00000000000E+00  0.00000000000E+00 -0.74529715751E+03  0.74529715753E+03  0.50400001928E-02 0. -1.
    10030    2    1    2    0    0  0.00000000000E+00  0.00000000000E+00  0.22584454106E+03  0.17164388561E+04  0.17015159682E+04 0.  0.
        1    1    3    3  502    0  0.73411701223E+03 -0.42901430958E+03  0.14159836676E+03  0.86199255389E+03  0.50400001928E-02 0.  1.
       -1    1    3    3    0  502 -0.73411701223E+03  0.42901430958E+03  0.84246174296E+02  0.85444630222E+03  0.50400001928E-02 0. -1.
</event>
<event>
 5   0  0.7461128E-06  0.1699912E+04  0.7818609E-02  0.8761415E-01
        1   -1    0    0  501    0  0.00000000000E+00  0.00000000000E+00  0.66390481608E+03  0.66390481609E+03  0.50400001928E-02 0.  1.
       -1   -1    0    0    0  501  0.00000000000E+00  0.00000000000E+00 -0.10881451956E+04  0.10881451956E+04  0.50400001928E-02 0. -1.
    10030    2    1    2    0    0  0.00000000000E+00  0.00000000000E+00 -0.42424037950E+03  0.17520500117E+04  0.16999115694E+04 0.  0.
        3    1    3    3  502    0 -0.20698808254E+03  0.80004422554E+03 -0.41698797169E+03  0.92563157242E+03  0.10100000352E+00 0.  1.
       -3    1    3    3    0  502  0.20698808254E+03 -0.80004422554E+03 -0.72524078155E+01  0.82641843926E+03  0.10100000352E+00 0. -1.
</event>
<event>
 5   0  0.5229750E-06  0.1699275E+04  0.7818609E-02  0.8761778E-01
       -3   -1    0    0    0  501  0.00000000000E+00  0.00000000000E+00  0.93197556668E+03  0.93197557215E+03  0.10100000352E+00 0.  1.
        3   -1    0    0  501    0  0.00000000000E+00  0.00000000000E+00 -0.77457375724E+03  0.77457376383E+03  0.10100000352E+00 0. -1.
    10030    2    1    2    0    0  0.00000000000E+00  0.00000000000E+00  0.15740180944E+03  0.17065493360E+04  0.16992749355E+04 0.  0.
        4    1    3    3  502    0 -0.62070543341E+03 -0.13507493972E+03 -0.48795005801E+03  0.80101020369E+03  0.12699999809E+01 0. -1.
       -4    1    3    3    0  502  0.62070543341E+03  0.13507493972E+03  0.64535186744E+03  0.90553913229E+03  0.12699999809E+01 0.  1.
</event>
<event>
 5   0  0.7455669E-06  0.1700335E+04  0.7818609E-02  0.8761173E-01
        1   -1    0    0  501    0  0.00000000000E+00  0.00000000000E+00  0.62904214802E+03  0.62904214804E+03  0.50400001928E-02 0. -1.
       -1   -1    0    0    0  501  0.00000000000E+00  0.00000000000E+00 -0.11490241481E+04  0.11490241482E+04  0.50400001928E-02 0.  1.
    10030    2    1    2    0    0  0.00000000000E+00  0.00000000000E+00 -0.51998200013E+03  0.17780662962E+04  0.17003348121E+04 0.  0.
        4    1    3    3  502    0 -0.51593363905E+03 -0.46675053844E+03 -0.77093766751E+03  0.10384556250E+04  0.12699999809E+01 0.  1.
       -4    1    3    3    0  502  0.51593363905E+03  0.46675053844E+03  0.25095566738E+03  0.73961067118E+03  0.12699999809E+01 0. -1.
</event>
<event>
 5   0  0.7455669E-06  0.1699003E+04  0.7818609E-02  0.8761933E-01
        1   -1    0    0  501    0  0.00000000000E+00  0.00000000000E+00  0.66316916788E+03  0.66316916790E+03  0.50400001928E-02 0. -1.
       -1   -1    0    0    0  501  0.00000000000E+00  0.00000000000E+00 -0.10881876573E+04  0.10881876573E+04  0.50400001928E-02 0.  1.
    10030    2    1    2    0    0  0.00000000000E+00  0.00000000000E+00 -0.42501848942E+03  0.17513568252E+04  0.16990026524E+04 0.  0.
        4    1    3    3  502    0  0.77578259936E+03  0.85918955401E+02  0.13312919748E+03  0.79179903036E+03  0.12699999809E+01 0.  1.
       -4    1    3    3    0  502 -0.77578259936E+03 -0.85918955401E+02 -0.55814768690E+03  0.95955779485E+03  0.12699999809E+01 0. -1.
</event>
<event>
 5   0  0.1374441E-05  0.1699587E+04  0.7818609E-02  0.8761600E-01
       -2   -1    0    0    0  501  0.00000000000E+00  0.00000000000E+00  0.39220540155E+03  0.39220540155E+03  0.25500000920E-02 0. -1.
        2   -1    0    0  501    0  0.00000000000E+00  0.00000000000E+00 -0.18412531070E+04  0.18412531070E+04  0.25500000920E-02 0.  1.
    10030    2    1    2    0    0  0.00000000000E+00  0.00000000000E+00 -0.14490477054E+04  0.22334585085E+04  0.16995874960E+04 0.  0.
        1    1    3    3  502    0 -0.83666658786E+03  0.10700305484E+03 -0.58866171164E+03  0.10285831244E+04  0.50400001928E-02 0.  1.
       -1    1    3    3    0  502  0.83666658786E+03 -0.10700305484E+03 -0.86038599379E+03  0.12048753841E+04  0.50400001928E-02 0. -1.
</event>
<event>
 5   0  0.1423543E-05  0.1699665E+04  0.7818609E-02  0.8761556E-01
       -2   -1    0    0    0  501  0.00000000000E+00  0.00000000000E+00  0.40498290643E+03  0.40498290644E+03  0.25500000920E-02 0.  1.
        2   -1    0    0  501    0  0.00000000000E+00  0.00000000000E+00 -0.17833221364E+04  0.17833221364E+04  0.25500000920E-02 0. -1.
    10030    2    1    2    0    0  0.00000000000E+00  0.00000000000E+00 -0.13783392300E+04  0.21883050429E+04  0.16996646515E+04 0.  0.
        3    1    3    3  502    0 -0.17034066854E+03  0.81335139974E+03 -0.46008813304E+03  0.94986185479E+03  0.10100000352E+00 0.  1.
       -3    1    3    3    0  502  0.17034066854E+03 -0.81335139974E+03 -0.91825109695E+03  0.12384431881E+04  0.10100000352E+00 0. -1.
</event>
<event>
 5   0  0.7583716E-06  0.1694028E+04  0.7818609E-02  0.8764778E-01
        1   -1    0    0  501    0  0.00000000000E+00  0.00000000000E+00  0.56517865676E+03  0.56517865678E+03  0.50400001928E-02 0. -1.
       -1   -1    0    0    0  501  0.00000000000E+00  0.00000000000E+00 -0.12693912564E+04  0.12693912564E+04  0.50400001928E-02 0.  1.
    10030    2    1    2    0    0  0.00000000000E+00  0.00000000000E+00 -0.70421259967E+03  0.18345699132E+04  0.16940281523E+04 0.  0.
        5    1    3    3  502    0  0.75175199467E+03  0.26274002160E+03 -0.39643070531E+02  0.79734374236E+03  0.46999998093E+01 0. -1.
       -5    1    3    3    0  502 -0.75175199467E+03 -0.26274002160E+03 -0.66456952914E+03  0.10372261709E+04  0.46999998093E+01 0.  1.
</event>
<event>
 5   0  0.1435301E-05  0.1700679E+04  0.7818609E-02  0.8760977E-01
       -2   -1    0    0    0  501  0.00000000000E+00  0.00000000000E+00  0.55714436938E+03  0.55714436938E+03  0.25500000920E-02 0.  1.
        2   -1    0    0  501    0  0.00000000000E+00  0.00000000000E+00 -0.12978279584E+04  0.12978279584E+04  0.25500000920E-02 0. -1.
    10030    2    1    2    0    0  0.00000000000E+00  0.00000000000E+00 -0.74068358907E+03  0.18549723278E+04  0.17006793225E+04 0.  0.
        2    1    3    3  502    0  0.19925229689E+03 -0.69153026442E+03  0.12369969030E+03  0.73021722645E+03  0.25500000920E-02 0.  1.
       -2    1    3    3    0  502 -0.19925229689E+03  0.69153026442E+03 -0.86438327937E+03  0.11247551014E+04  0.25500000920E-02 0. -1.
</event>
<event>
 5   0  0.1419012E-05  0.1699567E+04  0.7818609E-02  0.8761611E-01
        2   -1    0    0  501    0  0.00000000000E+00  0.00000000000E+00  0.22161335128E+04  0.22161335128E+04  0.25500000920E-02 0.  1.
       -2   -1    0    0    0  501  0.00000000000E+00  0.00000000000E+00 -0.32585228597E+03  0.32585228598E+03  0.25500000920E-02 0. -1.
    10030    2    1    2    0    0  0.00000000000E+00  0.00000000000E+00  0.18902812268E+04  0.25419857988E+04  0.16995672051E+04 0.  0.
        4    1    3    3  502    0 -0.12911268242E+03  0.72949831425E+03  0.32251799932E+03  0.80799588367E+03  0.12699999809E+01 0.  1.
       -4    1    3    3    0  502  0.12911268242E+03 -0.72949831425E+03  0.15677632275E+04  0.17339899151E+04  0.12699999809E+01 0. -1.
</event>
<event>
 5   0  0.7455669E-06  0.1700283E+04  0.7818609E-02  0.8761203E-01
       -1   -1    0    0    0  501  0.00000000000E+00  0.00000000000E+00  0.71138604777E+03  0.71138604779E+03  0.50400001928E-02 0. -1.
        1   -1    0    0  501    0  0.00000000000E+00  0.00000000000E+00 -0.10159614706E+04  0.10159614706E+04  0.50400001928E-02 0.  1.
    10030    2    1    2    0    0  0.00000000000E+00  0.00000000000E+00 -0.30457542286E+03  0.17273475184E+04  0.17002832885E+04 0.  0.
        4    1    3    3  502    0  0.53553138632E+03 -0.58546721477E+03  0.15781430169E+03  0.80899486526E+03  0.12699999809E+01 0. -1.
       -4    1    3    3    0  502 -0.53553138632E+03  0.58546721477E+03 -0.46238972455E+03  0.91835265317E+03  0.12699999809E+01 0.  1.
</event>
<event>
 5   0  0.1441756E-05  0.1699682E+04  0.7818609E-02  0.8761546E-01
       -2   -1    0    0    0  501  0.00000000000E+00  0.00000000000E+00  0.51036381174E+03  0.51036381174E+03  0.25500000920E-02 0. -1.
        2   -1    0    0  501    0  0.00000000000E+00  0.00000000000E+00 -0.14151271846E+04  0.14151271846E+04  0.25500000920E-02 0.  1.
    10030    2    1    2    0    0  0.00000000000E+00  0.00000000000E+00 -0.90476337286E+03  0.19254909963E+04  0.16996819750E+04 0.  0.
        5    1    3    3  502    0 -0.52695452333E+03 -0.14853720471E+03 -0.11887045531E+04  0.13087341118E+04  0.46999998093E+01 0.  1.
       -5    1    3    3    0  502  0.52695452333E+03  0.14853720471E+03  0.28394118020E+03  0.61675688457E+03  0.46999998093E+01 0. -1.
</event>
<event>
 5   0  0.1374441E-05  0.1697532E+04  0.7818609E-02  0.8762773E-01
        2   -1    0    0  501    0  0.00000000000E+00  0.00000000000E+00  0.17165903121E+04  0.17165903121E+04  0.25500000920E-02 0. -1.
       -2   -1    0    0    0  501  0.00000000000E+00  0.00000000000E+00 -0.41967149993E+03  0.41967149994E+03  0.25500000920E-02 0.  1.
    10030    2    1    2    0    0  0.00000000000E+00  0.00000000000E+00  0.12969188122E+04  0.21362618121E+04  0.16975323632E+04 0.  0.
        1    1    3    3  502    0 -0.50190564449E+03 -0.68435408312E+03  0.63283007007E+03  0.10586423781E+04  0.50400001928E-02 0.  1.
       -1    1    3    3    0  502  0.50190564449E+03  0.68435408312E+03  0.66408874213E+03  0.10776194340E+04  0.50400001928E-02 0. -1.
</event>
<event>
 5   0  0.7455669E-06  0.1699880E+04  0.7818609E-02  0.8761433E-01
       -1   -1    0    0    0  501  0.00000000000E+00  0.00000000000E+00  0.59681009468E+03  0.59681009470E+03  0.50400001928E-02 0.  1.
        1   -1    0    0  501    0  0.00000000000E+00  0.00000000000E+00 -0.12104323140E+04  0.12104323140E+04  0.50400001928E-02 0. -1.
    10030    2    1    2    0    0  0.00000000000E+00  0.00000000000E+00 -0.61362221930E+03  0.18072424087E+04  0.16998802592E+04 0.  0.
        4    1    3    3  502    0 -0.75894201475E+03  0.18811379913E+03 -0.66104693872E+03  0.10238966995E+04  0.12699999809E+01 0. -1.
       -4    1    3    3    0  502  0.75894201475E+03 -0.18811379913E+03  0.47424719422E+02  0.78334570918E+03  0.12699999809E+01 0.  1.
</event>
<event>
 5   0  0.7461128E-06  0.1698992E+04  0.7818609E-02  0.8761939E-01
        1   -1    0    0  501    0  0.00000000000E+00  0.00000000000E+00  0.49210443232E+03  0.49210443234E+03  0.50400001928E-02 0. -1.
       -1   -1    0    0    0  501  0.00000000000E+00  0.00000000000E+00 -0.14664438764E+04  0.14664438764E+04  0.50400001928E-02 0.  1.
    10030    2    1    2    0    0  0.00000000000E+00  0.00000000000E+00 -0.97433944405E+03  0.19585483087E+04  0.16989920910E+04 0.  0.
        3    1    3    3  502    0 -0.79537277265E+03  0.29330996184E+03 -0.42408314107E+03  0.94788981529E+03  0.10100000352E+00 0. -1.
       -3    1    3    3    0  502  0.79537277265E+03 -0.29330996184E+03 -0.55025630299E+03  0.10106584934E+04  0.10100000352E+00 0.  1.
</event>
<event>
 5   0  0.1419012E-05  0.1699893E+04  0.7818609E-02  0.8761425E-01
        2   -1    0    0  501    0  0.00000000000E+00  0.00000000000E+00  0.55345885468E+03  0.55345885469E+03  0.25500000920E-02 0.  1.
       -2   -1    0    0    0  501  0.00000000000E+00  0.00000000000E+00 -0.13052622380E+04  0.13052622380E+04  0.25500000920E-02 0. -1.
    10030    2    1    2    0    0  0.00000000000E+00  0.00000000000E+00 -0.75180338332E+03  0.18587210927E+04  0.16998928711E+04 0.  0.
        4    1    3    3  502    0 -0.39541430948E+03  0.72534517871E+03 -0.15740839340E+03  0.84098580228E+03  0.12699999809E+01 0.  1.
       -4    1    3    3    0  502  0.39541430948E+03 -0.72534517871E+03 -0.59439498992E+03  0.10177352904E+04  0.12699999809E+01 0. -1.
</event>
<event>
 5   0  0.1423543E-05  0.1700522E+04  0.7818609E-02  0.8761067E-01
        2   -1    0    0  501    0  0.00000000000E+00  0.00000000000E+00  0.19278529252E+04  0.19278529252E+04  0.25500000920E-02 0.  1.
       -2   -1    0    0    0  501  0.00000000000E+00  0.00000000000E+00 -0.37499937634E+03  0.37499937635E+03  0.25500000920E-02 0. -1.
    10030    2    1    2    0    0  0.00000000000E+00  0.00000000000E+00  0.15528535488E+04  0.23028523015E+04  0.17005218548E+04 0.  0.
        3    1    3    3  502    0 -0.48133851714E+03  0.26868803720E+03 -0.10021838482E+03  0.56028900067E+03  0.10100000352E+00 0. -1.
       -3    1    3    3    0  502  0.48133851714E+03 -0.26868803720E+03  0.16530719336E+04  0.17425633008E+04  0.10100000352E+00 0.  1.
</event>
<event>
 5   0  0.1435301E-05  0.1700869E+04  0.7818609E-02  0.8760869E-01
        2   -1    0    0  501    0  0.00000000000E+00  0.00000000000E+00  0.20414869544E+04  0.20414869544E+04  0.25500000920E-02 0.  1.
       -2   -1    0    0    0  501  0.00000000000E+00  0.00000000000E+00 -0.35427051464E+03  0.35427051465E+03  0.25500000920E-02 0. -1.
    10030    2    1    2    0    0  0.00000000000E+00  0.00000000000E+00  0.16872164398E+04  0.23957574690E+04  0.17008687592E+04 0.  0.
        2    1    3    3  502    0 -0.15085766032E+03  0.20778384183E+03 -0.29836521653E+03  0.39364191983E+03  0.25500000920E-02 0. -1.
       -2    1    3    3    0  502  0.15085766032E+03 -0.20778384183E+03  0.19855816563E+04  0.20021155492E+04  0.25500000920E-02 0.  1.
</event>
<event>
 5   0  0.1435301E-05  0.1700622E+04  0.7818609E-02  0.8761009E-01
       -2   -1    0    0    0  501  0.00000000000E+00  0.00000000000E+00  0.70815448639E+03  0.70815448639E+03  0.25500000920E-02 0.  1.
        2   -1    0    0  501    0  0.00000000000E+00  0.00000000000E+00 -0.10210048793E+04  0.10210048793E+04  0.25500000920E-02 0. -1.
    10030    2    1    2    0    0  0.00000000000E+00  0.00000000000E+00 -0.31285039292E+03  0.17291593657E+04  0.17006224577E+04 0.  0.
        2    1    3    3  502    0  0.13176184925E+03  0.39101199483E+03 -0.91239132579E+03  0.10013538318E+04  0.25500000920E-02 0. -1.
       -2    1    3    3    0  502 -0.13176184925E+03 -0.39101199483E+03  0.59954093287E+03  0.72780553393E+03  0.25500000920E-02 0.  1.
</event>
<event>
 5   0  0.1419012E-05  0.1702368E+04  0.7818609E-02  0.8760015E-01
        2   -1    0    0  501    0  0.00000000000E+00  0.00000000000E+00  0.22530925301E+04  0.22530925301E+04  0.25500000920E-02 0.  1.
       -2   -1    0    0    0  501  0.00000000000E+00  0.00000000000E+00 -0.32156439150E+03  0.32156439151E+03  0.25500000920E-02 0. -1.
    10030    2    1    2    0    0  0.00000000000E+00  0.00000000000E+00  0.19315281386E+04  0.25746569216E+04  0.17023681487E+04 0.  0.
        4    1    3    3  502    0  0.29220191955E+03  0.57126103880E+02  0.21717691808E+04  0.21920831054E+04  0.12699999809E+01 0.  1.
       -4    1    3    3    0  502 -0.29220191955E+03 -0.57126103880E+02 -0.24024104223E+03  0.38257381615E+03  0.12699999809E+01 0. -1.
</event>
<event>
 5   0  0.1441756E-05  0.1699899E+04  0.7818609E-02  0.8761422E-01
        2   -1    0    0  501    0  0.00000000000E+00  0.00000000000E+00  0.97186519240E+03  0.97186519241E+03  0.25500000920E-02 0.  1.
       -2   -1    0    0    0  501  0.00000000000E+00  0.00000000000E+00 -0.74332715902E+03  0.74332715902E+03  0.25500000920E-02 0. -1.
    10030    2    1    2    0    0  0.00000000000E+00  0.00000000000E+00  0.22853803338E+03  0.17151923514E+04  0.16998985763E+04 0.  0.
        5    1    3    3  502    0  0.46284524939E+03 -0.42875154436E+03  0.68889968284E+03  0.93416191031E+03  0.46999998093E+01 0.  1.
       -5    1    3    3    0  502 -0.46284524939E+03  0.42875154436E+03 -0.46036164945E+03  0.78103044112E+03  0.46999998093E+01 0. -1.
</event>
<event>
 5   0  0.1441756E-05  0.1701494E+04  0.7818609E-02  0.8760513E-01
       -2   -1    0    0    0  501  0.00000000000E+00  0.00000000000E+00  0.46113029075E+03  0.46113029076E+03  0.25500000920E-02 0.  1.
        2   -1    0    0  501    0  0.00000000000E+00  0.00000000000E+00 -0.15695569147E+04  0.15695569147E+04  0.25500000920E-02 0. -1.
    10030    2    1    2    0    0  0.00000000000E+00  0.00000000000E+00 -0.11084266240E+04  0.20306872055E+04  0.17014937396E+04 0.  0.
        5    1    3    3  502    0  0.73188269126E+03 -0.11854149366E+02 -0.10716295156E+04  0.12977691256E+04  0.46999998093E+01 0. -1.
       -5    1    3    3    0  502 -0.73188269126E+03  0.11854149366E+02 -0.36797108339E+02  0.73291807987E+03  0.46999998093E+01 0.  1.
</event>
<event>
 5   0  0.1423543E-05  0.1699723E+04  0.7818609E-02  0.8761522E-01
        2   -1    0    0  501    0  0.00000000000E+00  0.00000000000E+00  0.16107290648E+04  0.16107290648E+04  0.25500000920E-02 0.  1.
       -2   -1    0    0    0  501  0.00000000000E+00  0.00000000000E+00 -0.44840858495E+03  0.44840858496E+03  0.25500000920E-02 0. -1.
    10030    2    1    2    0    0  0.00000000000E+00  0.00000000000E+00  0.11623204798E+04  0.20591376497E+04  0.16997232018E+04 0.  0.
        3    1    3    3  502    0 -0.23529655151E+03  0.58391664723E+03 -0.11047494961E+03  0.63916182830E+03  0.10100000352E+00 0. -1.
       -3    1    3    3    0  502  0.23529655151E+03 -0.58391664723E+03  0.12727954294E+04  0.14199758214E+04  0.10100000352E+00 0.  1.
</event>
<event>
 5   0  0.7082527E-06  0.1699517E+04  0.7818609E-02  0.8761640E-01
       -1   -1    0    0    0  501  0.00000000000E+00  0.00000000000E+00  0.75413809912E+03  0.75413809914E+03  0.50400001928E-02 0.  1.
        1   -1    0    0  501    0  0.00000000000E+00  0.00000000000E+00 -0.95750291205E+03  0.95750291207E+03  0.50400001928E-02 0. -1.
    10030    2    1    2    0    0  0.00000000000E+00  0.00000000000E+00 -0.20336481293E+03  0.17116410112E+04  0.16995169031E+04 0.  0.
        1    1    3    3  502    0 -0.57608415555E+03  0.15112581476E+03 -0.71212306027E+03  0.92834865172E+03  0.50400001928E-02 0. -1.
       -1    1    3    3    0  502  0.57608415555E+03 -0.15112581476E+03  0.50875824733E+03  0.78329235948E+03  0.50400001928E-02 0.  1.
</event>
<event>
 5   0  0.7082527E-06  0.1700700E+04  0.7818609E-02  0.8760965E-01
        1   -1    0    0  501    0  0.00000000000E+00  0.00000000000E+00  0.97511024309E+03  0.97511024311E+03  0.50400001928E-02 0. -1.
       -1   -1    0    0    0  501  0.00000000000E+00  0.00000000000E+00 -0.74155234631E+03  0.74155234632E+03  0.50400001928E-02 0.  1.
    10030    2    1    2    0    0  0.00000000000E+00  0.00000000000E+00  0.23355789679E+03  0.17166625894E+04  0.17007001954E+04 0.  0.
        1    1    3    3  502    0 -0.19487704346E+03  0.73759569943E+03 -0.26234023690E+03  0.80675081519E+03  0.50400001928E-02 0. -1.
       -1    1    3    3    0  502  0.19487704346E+03 -0.73759569943E+03  0.49589813369E+03  0.90991177424E+03  0.50400001928E-02 0.  1.
</event>
<event>
 5   0  0.1435301E-05  0.1701005E+04  0.7818609E-02  0.8760791E-01
       -2   -1    0    0    0  501  0.00000000000E+00  0.00000000000E+00  0.81595600463E+03  0.81595600463E+03  0.25500000920E-02 0. -1.
        2   -1    0    0  501    0  0.00000000000E+00  0.00000000000E+00 -0.88651180945E+03  0.88651180945E+03  0.25500000920E-02 0.  1.
    10030    2    1    2    0    0  0.00000000000E+00  0.00000000000E+00 -0.70555804819E+02  0.17024678141E+04  0.17010051547E+04 0.  0.
        2    1    3    3  502    0 -0.61602162446E+03 -0.54541796202E+03  0.18029355916E+03  0.84229992436E+03  0.25500000920E-02 0. -1.
       -2    1    3    3    0  502  0.61602162446E+03  0.54541796202E+03 -0.25084936398E+03  0.86016788973E+03  0.25500000920E-02 0.  1.
</event>
<event>
 5   0  0.1419012E-05  0.1700563E+04  0.7818609E-02  0.8761043E-01
        2   -1    0    0  501    0  0.00000000000E+00  0.00000000000E+00  0.97481160068E+03  0.97481160068E+03  0.25500000920E-02 0.  1.
       -2   -1    0    0    0  501  0.00000000000E+00  0.00000000000E+00 -0.74165985905E+03  0.74165985906E+03  0.25500000920E-02 0. -1.
    10030    2    1    2    0    0  0.00000000000E+00  0.00000000000E+00  0.23315174163E+03  0.17164714597E+04  0.17005630060E+04 0.  0.
        4    1    3    3  502    0 -0.56087451141E+03 -0.21251348135E+03  0.72490357982E+03  0.94086609581E+03  0.12699999809E+01 0.  1.
       -4    1    3    3    0  502  0.56087451141E+03  0.21251348135E+03 -0.49175183819E+03  0.77560536394E+03  0.12699999809E+01 0. -1.
</event>
<event>
 5   0  0.7583716E-06  0.1699548E+04  0.7818609E-02  0.8761622E-01
       -1   -1    0    0    0  501  0.00000000000E+00  0.00000000000E+00  0.54724836443E+03  0.54724836445E+03  0.50400001928E-02 0.  1.
        1   -1    0    0  501    0  0.00000000000E+00  0.00000000000E+00 -0.13195401459E+04  0.13195401459E+04  0.50400001928E-02 0. -1.
    10030    2    1    2    0    0  0.00000000000E+00  0.00000000000E+00 -0.77229178146E+03  0.18667885104E+04  0.16995483949E+04 0.  0.
        5    1    3    3  502    0  0.80952310326E+03 -0.23615846713E+03 -0.27096738180E+03  0.88574482121E+03  0.46999998093E+01 0.  1.
       -5    1    3    3    0  502 -0.80952310326E+03  0.23615846713E+03 -0.50132439966E+03  0.98104368914E+03  0.46999998093E+01 0. -1.
</event>
<event>
 5   0  0.5229750E-06  0.1700011E+04  0.7818609E-02  0.8761358E-01
       -3   -1    0    0    0  501  0.00000000000E+00  0.00000000000E+00  0.66076921261E+03  0.66076922033E+03  0.10100000352E+00 0. -1.
        3   -1    0    0  501    0  0.00000000000E+00  0.00000000000E+00 -0.10934363040E+04  0.10934363087E+04  0.10100000352E+00 0.  1.
    10030    2    1    2    0    0  0.00000000000E+00  0.00000000000E+00 -0.43266709141E+03  0.17542055290E+04  0.17000106547E+04 0.  0.
        5    1    3    3  502    0  0.12009332057E+03 -0.44710245937E+03 -0.95191497954E+03  0.10585306954E+04  0.46999998093E+01 0.  1.
       -5    1    3    3    0  502 -0.12009332057E+03  0.44710245937E+03  0.51924788813E+03  0.69567483363E+03  0.46999998093E+01 0. -1.
</event>
<event>
 5   0  0.1374441E-05  0.1699849E+04  0.7818609E-02  0.8761451E-01
       -2   -1    0    0    0  501  0.00000000000E+00  0.00000000000E+00  0.35744775213E+03  0.35744775214E+03  0.25500000920E-02 0. -1.
        2   -1    0    0  501    0  0.00000000000E+00  0.00000000000E+00 -0.20209147629E+04  0.20209147629E+04  0.25500000920E-02 0.  1.
    10030    2    1    2    0    0  0.00000000000E+00  0.00000000000E+00 -0.16634670108E+04  0.23783625151E+04  0.16998487453E+04 0.  0.
        1    1    3    3  502    0  0.25314978936E+03 -0.39700872234E+03 -0.18217532582E+04  0.18816178345E+04  0.50400001928E-02 0.  1.
       -1    1    3    3    0  502 -0.25314978936E+03  0.39700872234E+03  0.15828624742E+03  0.49674468051E+03  0.50400001928E-02 0. -1.
</event>
<event>
 5   0  0.7583716E-06  0.1703683E+04  0.7818609E-02  0.8759266E-01
        1   -1    0    0  501    0  0.00000000000E+00  0.00000000000E+00  0.38561836124E+03  0.38561836127E+03  0.50400001928E-02 0. -1.
       -1   -1    0    0    0  501  0.00000000000E+00  0.00000000000E+00 -0.18817415584E+04  0.18817415584E+04  0.50400001928E-02 0.  1.
    10030    2    1    2    0    0  0.00000000000E+00  0.00000000000E+00 -0.14961231972E+04  0.22673599197E+04  0.17036831819E+04 0.  0.
        5    1    3    3  502    0 -0.51827740001E+02 -0.12595490753E+03  0.37101586090E+03  0.39525385818E+03  0.46999998093E+01 0. -1.
       -5    1    3    3    0  502  0.51827740001E+02  0.12595490753E+03 -0.18671390581E+04  0.18721060615E+04  0.46999998093E+01 0.  1.
</event>
<event>
 5   0  0.7455669E-06  0.1698108E+04  0.7818609E-02  0.8762444E-01
        1   -1    0    0  501    0  0.00000000000E+00  0.00000000000E+00  0.15278288941E+04  0.15278288941E+04  0.50400001928E-02 0.  1.
       -1   -1    0    0    0  501  0.00000000000E+00  0.00000000000E+00 -0.47184142269E+03  0.47184142272E+03  0.50400001928E-02 0. -1.
    10030    2    1    2    0    0  0.00000000000E+00  0.00000000000E+00  0.10559874714E+04  0.19996703168E+04  0.16981083111E+04 0.  0.
        4    1    3    3  502    0 -0.26160883072E+03 -0.79140593168E+03  0.33764373308E+03  0.89931497952E+03  0.12699999809E+01 0.  1.
       -4    1    3    3    0  502  0.26160883072E+03  0.79140593168E+03  0.71834373828E+03  0.11003553373E+04  0.12699999809E+01 0. -1.
</event>
<event>
 5   0  0.7082527E-06  0.1700683E+04  0.7818609E-02  0.8760975E-01
       -1   -1    0    0    0  501  0.00000000000E+00  0.00000000000E+00  0.17675686189E+04  0.17675686189E+04  0.50400001928E-02 0. -1.
        1   -1    0    0  501    0  0.00000000000E+00  0.00000000000E+00 -0.40908205201E+03  0.40908205204E+03  0.50400001928E-02 0.  1.
    10030    2    1    2    0    0  0.00000000000E+00  0.00000000000E+00  0.13584865669E+04  0.21766506710E+04  0.17006829190E+04 0.  0.
        1    1    3    3  502    0 -0.47908252363E+03  0.20914303553E+03 -0.17914668289E+03  0.55258882342E+03  0.50400001928E-02 0.  1.
       -1    1    3    3    0  502  0.47908252363E+03 -0.20914303553E+03  0.15376332498E+04  0.16240618476E+04  0.50400001928E-02 0. -1.
</event>
<event>
 5   0  0.7082527E-06  0.1700281E+04  0.7818609E-02  0.8761204E-01
       -1   -1    0    0    0  501  0.00000000000E+00  0.00000000000E+00  0.31730716611E+03  0.31730716615E+03  0.50400001928E-02 0. -1.
        1   -1    0    0  501    0  0.00000000000E+00  0.00000000000E+00 -0.22777265502E+04  0.22777265502E+04  0.50400001928E-02 0.  1.
    10030    2    1    2    0    0  0.00000000000E+00  0.00000000000E+00 -0.19604193840E+04  0.25950337163E+04  0.17002811025E+04 0.  0.
        1    1    3    3  502    0 -0.62759385433E+03  0.39227574846E+03 -0.34176651355E+03  0.81520467285E+03  0.50400001928E-02 0.  1.
       -1    1    3    3    0  502  0.62759385433E+03 -0.39227574846E+03 -0.16186528705E+04  0.17798290435E+04  0.50400001928E-02 0. -1.
</event>
<event>
 5   0  0.7082527E-06  0.1699525E+04  0.7818609E-02  0.8761635E-01
       -1   -1    0    0    0  501  0.00000000000E+00  0.00000000000E+00  0.52534991229E+03  0.52534991231E+03  0.50400001928E-02 0. -1.
        1   -1    0    0  501    0  0.00000000000E+00  0.00000000000E+00 -0.13745055384E+04  0.13745055384E+04  0.50400001928E-02 0.  1.
    10030    2    1    2    0    0  0.00000000000E+00  0.00000000000E+00 -0.84915562612E+03  0.18998554507E+04  0.16995250679E+04 0.  0.
        1    1    3    3  502    0  0.95074342701E+02 -0.24809898697E+03 -0.13268790852E+04  0.13532185133E+04  0.50400001928E-02 0.  1.
       -1    1    3    3    0  502 -0.95074342701E+02  0.24809898697E+03  0.47772345908E+03  0.54663693742E+03  0.50400001928E-02 0. -1.
</event>
<event>
 5   0  0.7476457E-06  0.1703386E+04  0.7818609E-02  0.8759435E-01
       -1   -1    0    0    0  501  0.00000000000E+00  0.00000000000E+00  0.85224212704E+03  0.85224212705E+03  0.50400001928E-02 0. -1.
        1   -1    0    0  501    0  0.00000000000E+00  0.00000000000E+00 -0.85114445814E+03  0.85114445815E+03  0.50400001928E-02 0.  1.
    10030    2    1    2    0    0  0.00000000000E+00  0.00000000000E+00  0.10976688991E+01  0.17033865852E+04  0.17033862315E+04 0.  0.
        2    1    3    3  502    0 -0.28250568397E+03 -0.80099031083E+02  0.80002123084E+03  0.85220847570E+03  0.25500000920E-02 0. -1.
       -2    1    3    3    0  502  0.28250568397E+03  0.80099031083E+02 -0.79892356194E+03  0.85117810950E+03  0.25500000920E-02 0.  1.
</event>
<event>
 5   0  0.7583716E-06  0.1699468E+04  0.7818609E-02  0.8761668E-01
       -1   -1    0    0    0  501  0.00000000000E+00  0.00000000000E+00  0.71344445516E+03  0.71344445518E+03  0.50400001928E-02 0. -1.
        1   -1    0    0  501    0  0.00000000000E+00  0.00000000000E+00 -0.10120590595E+04  0.10120590595E+04  0.50400001928E-02 0.  1.
    10030    2    1    2    0    0  0.00000000000E+00  0.00000000000E+00 -0.29861460432E+03  0.17255035147E+04  0.16994680630E+04 0.  0.
        5    1    3    3  502    0 -0.39177547485E+03  0.34079206803E+03  0.53360267267E+03  0.74456776629E+03  0.46999998093E+01 0. -1.
       -5    1    3    3    0  502  0.39177547485E+03 -0.34079206803E+03 -0.83221727699E+03  0.98093574838E+03  0.46999998093E+01 0.  1.
</event>
<event>
 5   0  0.1423543E-05  0.1699970E+04  0.7818609E-02  0.8761381E-01
       -2   -1    0    0    0  501  0.00000000000E+00  0.00000000000E+00  0.30540381805E+03  0.30540381806E+03  0.25500000920E-02 0. -1.
        2   -1    0    0  501    0  0.00000000000E+00  0.00000000000E+00 -0.23656373319E+04  0.23656373319E+04  0.25500000920E-02 0.  1.
    10030    2    1    2    0    0  0.00000000000E+00  0.00000000000E+00 -0.20602335138E+04  0.26710411499E+04  0.16999702036E+04 0.  0.
        3    1    3    3  502    0 -0.80223813177E+03 -0.20429632880E+03 -0.13329672888E+04  0.15691159336E+04  0.10100000352E+00 0.  1.
       -3    1    3    3    0  502  0.80223813177E+03  0.20429632880E+03 -0.72726622505E+03  0.11019252163E+04  0.10100000352E+00 0. -1.
</event>
<event>
 5   0  0.7461128E-06  0.1699561E+04  0.7818609E-02  0.8761615E-01
        1   -1    0    0  501    0  0.00000000000E+00  0.00000000000E+00  0.13337427558E+04  0.13337427558E+04  0.50400001928E-02 0. -1.
       -1   -1    0    0    0  501  0.00000000000E+00  0.00000000000E+00 -0.54142909377E+03  0.54142909380E+03  0.50400001928E-02 0.  1.
    10030    2    1    2    0    0  0.00000000000E+00  0.00000000000E+00  0.79231366204E+03  0.18751718496E+04  0.16995612747E+04 0.  0.
        3    1    3    3  502    0  0.74370176354E+03 -0.82584066946E+02 -0.48217869259E+02  0.74982492244E+03  0.10100000352E+00 0.  1.
       -3    1    3    3    0  502 -0.74370176354E+03  0.82584066946E+02  0.84053153130E+03  0.11253469272E+04  0.10100000352E+00 0. -1.
</event>
<event>
 5   0  0.7476457E-06  0.1699679E+04  0.7818609E-02  0.8761548E-01
       -1   -1    0    0    0  501  0.00000000000E+00  0.00000000000E+00  0.67499309751E+03  0.67499309753E+03  0.50400001928E-02 0. -1.
        1   -1    0    0  501    0  0.00000000000E+00  0.00000000000E+00 -0.10699768494E+04  0.10699768494E+04  0.50400001928E-02 0.  1.
    10030    2    1    2    0    0  0.00000000000E+00  0.00000000000E+00 -0.39498375191E+03  0.17449699470E+04  0.16996787789E+04 0.  0.
        2    1    3    3  502    0 -0.68903544795E+03  0.21012965838E+03 -0.66039769097E+03  0.97726630562E+03  0.25500000920E-02 0.  1.
       -2    1    3    3    0  502  0.68903544795E+03 -0.21012965838E+03  0.26541393906E+03  0.76770364133E+03  0.25500000920E-02 0. -1.
</event>
<event>
 5   0  0.1441756E-05  0.1699948E+04  0.7818609E-02  0.8761394E-01
       -2   -1    0    0    0  501  0.00000000000E+00  0.00000000000E+00  0.53117637763E+03  0.53117637764E+03  0.25500000920E-02 0.  1.
        2   -1    0    0  501    0  0.00000000000E+00  0.00000000000E+00 -0.13601049356E+04  0.13601049356E+04  0.25500000920E-02 0. -1.
    10030    2    1    2    0    0  0.00000000000E+00  0.00000000000E+00 -0.82892855793E+03  0.18912813132E+04  0.16999477791E+04 0.  0.
        5    1    3    3  502    0 -0.58220193762E+02  0.54032846281E+03  0.31261168358E+03  0.62697096694E+03  0.46999998093E+01 0.  1.
       -5    1    3    3    0  502  0.58220193762E+02 -0.54032846281E+03 -0.11415402415E+04  0.12643103463E+04  0.46999998093E+01 0. -1.
</event>
<event>
 5   0  0.1423543E-05  0.1700836E+04  0.7818609E-02  0.8760888E-01
        2   -1    0    0  501    0  0.00000000000E+00  0.00000000000E+00  0.21613452541E+04  0.21613452541E+04  0.25500000920E-02 0. -1.
       -2   -1    0    0    0  501  0.00000000000E+00  0.00000000000E+00 -0.33461125284E+03  0.33461125285E+03  0.25500000920E-02 0.  1.
    10030    2    1    2    0    0  0.00000000000E+00  0.00000000000E+00  0.18267340012E+04  0.24959565069E+04  0.17008356103E+04 0.  0.
        3    1    3    3  502    0 -0.10971209658E+03  0.68318626011E+03  0.18784242939E+03  0.71698326244E+03  0.10100000352E+00 0.  1.
       -3    1    3    3    0  502  0.10971209658E+03 -0.68318626011E+03  0.16388915718E+04  0.17789732445E+04  0.10100000352E+00 0. -1.
</event>
<event>
 5   0  0.7082527E-06  0.1700165E+04  0.7818609E-02  0.8761271E-01
        1   -1    0    0  501    0  0.00000000000E+00  0.00000000000E+00  0.96679407304E+03  0.96679407305E+03  0.50400001928E-02 0. -1.
       -1   -1    0    0    0  501  0.00000000000E+00  0.00000000000E+00 -0.74745993196E+03  0.74745993198E+03  0.50400001928E-02 0.  1.
    10030    2    1    2    0    0  0.00000000000E+00  0.00000000000E+00  0.21933414107E+03  0.17142540050E+04  0.17001645004E+04 0.  0.
        1    1    3    3  502    0 -0.66751748509E+03  0.49807751214E+03 -0.61975954157E+02  0.83516574398E+03  0.50400001928E-02 0.  1.
       -1    1    3    3    0  502  0.66751748509E+03 -0.49807751214E+03  0.28131009523E+03  0.87908826105E+03  0.50400001928E-02 0. -1.
</event>
<event>
 5   0  0.1419012E-05  0.1692850E+04  0.7818609E-02  0.8765453E-01
        2   -1    0    0  501    0  0.00000000000E+00  0.00000000000E+00  0.87209345325E+03  0.87209345325E+03  0.25500000920E-02 0.  1.
       -2   -1    0    0    0  501  0.00000000000E+00  0.00000000000E+00 -0.82151233320E+03  0.82151233320E+03  0.25500000920E-02 0. -1.
    10030    2    1    2    0    0  0.00000000000E+00  0.00000000000E+00  0.50581120050E+02  0.16936057864E+04  0.16928502917E+04 0.  0.
        4    1    3    3  502    0  0.45398926946E+03  0.67944578100E+03  0.24602694030E+03  0.85339539157E+03  0.12699999809E+01 0.  1.
       -4    1    3    3    0  502 -0.45398926946E+03 -0.67944578100E+03 -0.19544582025E+03  0.84021039488E+03  0.12699999809E+01 0. -1.
</event>
<event>
 5   0  0.1374441E-05  0.1700002E+04  0.7818609E-02  0.8761363E-01
        2   -1    0    0  501    0  0.00000000000E+00  0.00000000000E+00  0.77475040570E+03  0.77475040570E+03  0.25500000920E-02 0. -1.
       -2   -1    0    0    0  501  0.00000000000E+00  0.00000000000E+00 -0.93256036313E+03  0.93256036314E+03  0.25500000920E-02 0.  1.
    10030    2    1    2    0    0  0.00000000000E+00  0.00000000000E+00 -0.15780995744E+03  0.17073107688E+04  0.17000017879E+04 0.  0.
        1    1    3    3  502    0 -0.75288829798E+03  0.84693277602E+02  0.30809287588E+03  0.81788444214E+03  0.50400001928E-02 0.  1.
       -1    1    3    3    0  502  0.75288829798E+03 -0.84693277602E+02 -0.46590283331E+03  0.88942632670E+03  0.50400001928E-02 0. -1.
</event>
<event>
 5   0  0.1423543E-05  0.1699117E+04  0.7818609E-02  0.8761868E-01
       -2   -1    0    0    0  501  0.00000000000E+00  0.00000000000E+00  0.71572470604E+03  0.71572470605E+03  0.25500000920E-02 0.  1.
        2   -1    0    0  501    0  0.00000000000E+00  0.00000000000E+00 -0.10084174959E+04  0.10084174959E+04  0.25500000920E-02 0. -1.
    10030    2    1    2    0    0  0.00000000000E+00  0.00000000000E+00 -0.29269278987E+03  0.17241422020E+04  0.16991166126E+04 0.  0.
        3    1    3    3  502    0  0.68652715035E+03 -0.77206557250E+02  0.35537396774E+03  0.77689835101E+03  0.10100000352E+00 0. -1.
       -3    1    3    3    0  502 -0.68652715035E+03  0.77206557250E+02 -0.64806675761E+03  0.94724385096E+03  0.10100000352E+00 0.  1.
</event>
<event>
 5   0  0.7583716E-06  0.1702708E+04  0.7818609E-02  0.8759821E-01
        1   -1    0    0  501    0  0.00000000000E+00  0.00000000000E+00  0.73687832756E+03  0.73687832758E+03  0.50400001928E-02 0. -1.
       -1   -1    0    0    0  501  0.00000000000E+00  0.00000000000E+00 -0.98361394704E+03  0.98361394705E+03  0.50400001928E-02 0.  1.
    10030    2    1    2    0    0  0.00000000000E+00  0.00000000000E+00 -0.24673561947E+03  0.17204922746E+04  0.17027081961E+04 0.  0.
        5    1    3    3  502    0  0.45873528796E+03 -0.70494834972E+03  0.98863108348E+01  0.84113617764E+03  0.46999998093E+01 0.  1.
       -5    1    3    3    0  502 -0.45873528796E+03  0.70494834972E+03 -0.25662193031E+03  0.87935609699E+03  0.46999998093E+01 0. -1.
</event>
<event>
 5   0  0.7476457E-06  0.1701808E+04  0.7818609E-02  0.8760334E-01
       -1   -1    0    0    0  501  0.00000000000E+00  0.00000000000E+00  0.43761019118E+03  0.43761019121E+03  0.50400001928E-02 0.  1.
        1   -1    0    0  501    0  0.00000000000E+00  0.00000000000E+00 -0.16545254524E+04  0.16545254524E+04  0.50400001928E-02 0. -1.
    10030    2    1    2    0    0  0.00000000000E+00  0.00000000000E+00 -0.12169152612E+04  0.20921356436E+04  0.17018075092E+04 0.  0.
        2    1    3    3  502    0 -0.42628407390E+03  0.36463405130E+03  0.17810387214E+03  0.58855508859E+03  0.25500000920E-02 0.  1.
       -2    1    3    3    0  502  0.42628407390E+03 -0.36463405130E+03 -0.13950191334E+04  0.15035805550E+04  0.25500000920E-02 0. -1.
</event>
<event>
 5   0  0.7082527E-06  0.1698888E+04  0.7818609E-02  0.8761999E-01
        1   -1    0    0  501    0  0.00000000000E+00  0.00000000000E+00  0.13858356792E+04  0.13858356792E+04  0.50400001928E-02 0. -1.
       -1   -1    0    0    0  501  0.00000000000E+00  0.00000000000E+00 -0.52066417143E+03  0.52066417146E+03  0.50400001928E-02 0.  1.
    10030    2    1    2    0    0  0.00000000000E+00  0.00000000000E+00  0.86517150773E+03  0.19064998506E+04  0.16988878546E+04 0.  0.
        1    1    3    3  502    0  0.11522213966E+03 -0.16608632460E+03 -0.49328013025E+03  0.53309107628E+03  0.50400001928E-02 0.  1.
       -1    1    3    3    0  502 -0.11522213966E+03  0.16608632460E+03  0.13584516380E+04  0.13734087743E+04  0.50400001928E-02 0. -1.
</event>
<event>
 5   0  0.1435301E-05  0.1700306E+04  0.7818609E-02  0.8761190E-01
       -2   -1    0    0    0  501  0.00000000000E+00  0.00000000000E+00  0.22105815530E+04  0.22105815531E+04  0.25500000920E-02 0.  1.
        2   -1    0    0  501    0  0.00000000000E+00  0.00000000000E+00 -0.32695489649E+03  0.32695489650E+03  0.25500000920E-02 0. -1.
    10030    2    1    2    0    0  0.00000000000E+00  0.00000000000E+00  0.18836266566E+04  0.25375364495E+04  0.17003063993E+04 0.  0.
        2    1    3    3  502    0  0.51527795026E+03 -0.10204794576E+03 -0.55792192891E+02  0.52824039797E+03  0.25500000920E-02 0. -1.
       -2    1    3    3    0  502 -0.51527795026E+03  0.10204794576E+03  0.19394188495E+04  0.20092960516E+04  0.25500000920E-02 0.  1.
</event>
<event>
 5   0  0.1419012E-05  0.1698994E+04  0.7818609E-02  0.8761939E-01
        2   -1    0    0  501    0  0.00000000000E+00  0.00000000000E+00  0.89754633688E+03  0.89754633688E+03  0.25500000920E-02 0.  1.
       -2   -1    0    0    0  501  0.00000000000E+00  0.00000000000E+00 -0.80401963158E+03  0.80401963158E+03  0.25500000920E-02 0. -1.
    10030    2    1    2    0    0  0.00000000000E+00  0.00000000000E+00  0.93526705299E+02  0.17015659685E+04  0.16989936729E+04 0.  0.
        4    1    3    3  502    0  0.63545672183E+03 -0.56182480526E+03 -0.11461881125E+00  0.84820633290E+03  0.12699999809E+01 0. -1.
       -4    1    3    3    0  502 -0.63545672183E+03  0.56182480526E+03  0.93641324111E+02  0.85335963556E+03  0.12699999809E+01 0.  1.
</event>
<event>
 5   0  0.7476457E-06  0.1700036E+04  0.7818609E-02  0.8761344E-01
       -1   -1    0    0    0  501  0.00000000000E+00  0.00000000000E+00  0.36184987873E+03  0.36184987877E+03  0.50400001928E-02 0. -1.
        1   -1    0    0  501    0  0.00000000000E+00  0.00000000000E+00 -0.19967685902E+04  0.19967685902E+04  0.50400001928E-02 0.  1.
    10030    2    1    2    0    0  0.00000000000E+00  0.00000000000E+00 -0.16349187115E+04  0.23586184690E+04  0.17000358494E+04 0.  0.
        2    1    3    3  502    0 -0.24295047711E+03 -0.23552056016E+03 -0.18993020595E+04  0.19292079157E+04  0.25500000920E-02 0.  1.
       -2    1    3    3    0  502  0.24295047711E+03  0.23552056016E+03  0.26438334802E+03  0.42941055333E+03  0.25500000920E-02 0. -1.
</event>
<event>
 5   0  0.7583716E-06  0.1701570E+04  0.7818609E-02  0.8760469E-01
       -1   -1    0    0    0  501  0.00000000000E+00  0.00000000000E+00  0.86152657407E+03  0.86152657409E+03  0.50400001928E-02 0.  1.
        1   -1    0    0  501    0  0.00000000000E+00  0.00000000000E+00 -0.84017743574E+03  0.84017743575E+03  0.50400001928E-02 0. -1.
    10030    2    1    2    0    0  0.00000000000E+00  0.00000000000E+00  0.21349138334E+02  0.17017040098E+04  0.17015700842E+04 0.  0.
        5    1    3    3  502    0  0.35455764591E+03  0.53488668054E+03 -0.54793739583E+03  0.84384380370E+03  0.46999998093E+01 0. -1.
       -5    1    3    3    0  502 -0.35455764591E+03 -0.53488668054E+03  0.56928653417E+03  0.85786020614E+03  0.46999998093E+01 0.  1.
</event>
<event>
 5   0  0.7476457E-06  0.1700442E+04  0.7818609E-02  0.8761113E-01
       -1   -1    0    0    0  501  0.00000000000E+00  0.00000000000E+00  0.70020995820E+03  0.70020995822E+03  0.50400001928E-02 0. -1.
        1   -1    0    0  501    0  0.00000000000E+00  0.00000000000E+00 -0.10323694381E+04  0.10323694381E+04  0.50400001928E-02 0.  1.
    10030    2    1    2    0    0  0.00000000000E+00  0.00000000000E+00 -0.33215947991E+03  0.17325793963E+04  0.17004415440E+04 0.  0.
        2    1    3    3  502    0  0.37367001952E+02 -0.77294368805E+01  0.69933706521E+03  0.70037730390E+03  0.25500000920E-02 0. -1.
       -2    1    3    3    0  502 -0.37367001952E+02  0.77294368805E+01 -0.10314965451E+04  0.10322020924E+04  0.25500000920E-02 0.  1.
</event>
<event>
 5   0  0.5229750E-06  0.1698478E+04  0.7818609E-02  0.8762233E-01
       -3   -1    0    0    0  501  0.00000000000E+00  0.00000000000E+00  0.18988654836E+04  0.18988654863E+04  0.10100000352E+00 0. -1.
        3   -1    0    0  501    0  0.00000000000E+00  0.00000000000E+00 -0.37980943893E+03  0.37980945236E+03  0.10100000352E+00 0.  1.
    10030    2    1    2    0    0  0.00000000000E+00  0.00000000000E+00  0.15190560446E+04  0.22786749386E+04  0.16984782039E+04 0.  0.
        5    1    3    3  502    0 -0.34827836441E+03 -0.76646347679E+03  0.90904779027E+03  0.12390133395E+04  0.46999998093E+01 0. -1.
       -5    1    3    3    0  502  0.34827836441E+03  0.76646347679E+03  0.61000825437E+03  0.10396615992E+04  0.46999998093E+01 0.  1.
</event>
<event>
 5   0  0.1435301E-05  0.1701349E+04  0.7818609E-02  0.8760595E-01
        2   -1    0    0  501    0  0.00000000000E+00  0.00000000000E+00  0.25168594178E+04  0.25168594178E+04  0.25500000920E-02 0.  1.
       -2   -1    0    0    0  501  0.00000000000E+00  0.00000000000E+00 -0.28751995944E+03  0.28751995945E+03  0.25500000920E-02 0. -1.
    10030    2    1    2    0    0  0.00000000000E+00  0.00000000000E+00  0.22293394583E+04  0.28043793772E+04  0.17013492501E+04 0.  0.
        2    1    3    3  502    0  0.29540492744E+03 -0.10517660688E+02 -0.20014605821E+03  0.35697778217E+03  0.25500000920E-02 0. -1.
       -2    1    3    3    0  502 -0.29540492744E+03  0.10517660688E+02  0.24294855165E+04  0.24474015950E+04  0.25500000920E-02 0.  1.
</event>
<event>
 5   0  0.1423543E-05  0.1700561E+04  0.7818609E-02  0.8761044E-01
       -2   -1    0    0    0  501  0.00000000000E+00  0.00000000000E+00  0.40559179553E+03  0.40559179553E+03  0.25500000920E-02 0. -1.
        2   -1    0    0  501    0  0.00000000000E+00  0.00000000000E+00 -0.17825241639E+04  0.17825241639E+04  0.25500000920E-02 0.  1.
    10030    2    1    2    0    0  0.00000000000E+00  0.00000000000E+00 -0.13769323684E+04  0.21881159595E+04  0.17005612911E+04 0.  0.
        3    1    3    3  502    0  0.12914563751E+03 -0.78617413531E+03 -0.30627274378E+03  0.85355220725E+03  0.10100000352E+00 0. -1.
       -3    1    3    3    0  502 -0.12914563751E+03  0.78617413531E+03 -0.10706596246E+04  0.13345637522E+04  0.10100000352E+00 0.  1.
</event>
<event>
 5   0  0.1435301E-05  0.1699823E+04  0.7818609E-02  0.8761465E-01
        2   -1    0    0  501    0  0.00000000000E+00  0.00000000000E+00  0.13746030649E+04  0.13746030649E+04  0.25500000920E-02 0. -1.
       -2   -1    0    0    0  501  0.00000000000E+00  0.00000000000E+00 -0.52549676281E+03  0.52549676281E+03  0.25500000920E-02 0.  1.
    10030    2    1    2    0    0  0.00000000000E+00  0.00000000000E+00  0.84910630205E+03  0.19000998277E+04  0.16998228858E+04 0.  0.
        2    1    3    3  502    0 -0.84472400270E+03  0.59000732281E+02  0.34309977084E+03  0.91365046922E+03  0.25500000920E-02 0.  1.
       -2    1    3    3    0  502  0.84472400270E+03 -0.59000732281E+02  0.50600653121E+03  0.98644935845E+03  0.25500000920E-02 0. -1.
</event>
<event>
 5   0  0.7461128E-06  0.1699731E+04  0.7818609E-02  0.8761518E-01
       -1   -1    0    0    0  501  0.00000000000E+00  0.00000000000E+00  0.32618200520E+03  0.32618200524E+03  0.50400001928E-02 0.  1.
        1   -1    0    0  501    0  0.00000000000E+00  0.00000000000E+00 -0.22143188875E+04  0.22143188875E+04  0.50400001928E-02 0. -1.
    10030    2    1    2    0    0  0.00000000000E+00  0.00000000000E+00 -0.18881368823E+04  0.25405008927E+04  0.16997305374E+04 0.  0.
        3    1    3    3  502    0  0.36629756345E+03 -0.76545046902E+03 -0.87424033695E+03  0.12183531928E+04  0.10100000352E+00 0.  1.
       -3    1    3    3    0  502 -0.36629756345E+03  0.76545046902E+03 -0.10138965453E+04  0.13221476999E+04  0.10100000352E+00 0. -1.
</event>
<event>
 5   0  0.7583716E-06  0.1699289E+04  0.7818609E-02  0.8761770E-01
        1   -1    0    0  501    0  0.00000000000E+00  0.00000000000E+00  0.93445496598E+03  0.93445496600E+03  0.50400001928E-02 0. -1.
       -1   -1    0    0    0  501  0.00000000000E+00  0.00000000000E+00 -0.77253094272E+03  0.77253094273E+03  0.50400001928E-02 0.  1.
    10030    2    1    2    0    0  0.00000000000E+00  0.00000000000E+00  0.16192402326E+03  0.17069859087E+04  0.16992885286E+04 0.  0.
        5    1    3    3  502    0  0.33193919520E+03  0.66132303788E+03  0.50039558907E+03  0.89328026134E+03  0.46999998093E+01 0. -1.
       -5    1    3    3    0  502 -0.33193919520E+03 -0.66132303788E+03 -0.33847156581E+03  0.81370564739E+03  0.46999998093E+01 0.  1.
</event>
<event>
 5   0  0.1441756E-05  0.1699519E+04  0.7818609E-02  0.8761639E-01
        2   -1    0    0  501    0  0.00000000000E+00  0.00000000000E+00  0.19126755664E+04  0.19126755664E+04  0.25500000920E-02 0.  1.
       -2   -1    0    0    0  501  0.00000000000E+00  0.00000000000E+00 -0.37752915658E+03  0.37752915659E+03  0.25500000920E-02 0. -1.
    10030    2    1    2    0    0  0.00000000000E+00  0.00000000000E+00  0.15351464098E+04  0.22902047230E+04  0.16995185123E+04 0.  0.
        5    1    3    3  502    0 -0.32162998813E+02 -0.17202909180E+03  0.18881089901E+04  0.18962083524E+04  0.46999998093E+01 0.  1.
       -5    1    3    3    0  502  0.32162998813E+02  0.17202909180E+03 -0.35296258035E+03  0.39399637060E+03  0.46999998093E+01 0. -1.
</event>
<event>
 5   0  0.7583716E-06  0.1699173E+04  0.7818609E-02  0.8761836E-01
        1   -1    0    0  501    0  0.00000000000E+00  0.00000000000E+00  0.23418148117E+04  0.23418148117E+04  0.50400001928E-02 0.  1.
       -1   -1    0    0    0  501  0.00000000000E+00  0.00000000000E+00 -0.30822135898E+03  0.30822135902E+03  0.50400001928E-02 0. -1.
    10030    2    1    2    0    0  0.00000000000E+00  0.00000000000E+00  0.20335934527E+04  0.26500361707E+04  0.16991731446E+04 0.  0.
        5    1    3    3  502    0  0.69418041434E+03  0.24219579342E+03  0.16807373103E+04  0.18345149894E+04  0.46999998093E+01 0.  1.
       -5    1    3    3    0  502 -0.69418041434E+03 -0.24219579342E+03  0.35285614243E+03  0.81552118136E+03  0.46999998093E+01 0. -1.
</event>
<event>
 5   0  0.7476457E-06  0.1700222E+04  0.7818609E-02  0.8761238E-01
       -1   -1    0    0    0  501  0.00000000000E+00  0.00000000000E+00  0.42266382083E+03  0.42266382086E+03  0.50400001928E-02 0. -1.
        1   -1    0    0  501    0  0.00000000000E+00  0.00000000000E+00 -0.17098424893E+04  0.17098424893E+04  0.50400001928E-02 0.  1.
    10030    2    1    2    0    0  0.00000000000E+00  0.00000000000E+00 -0.12871786684E+04  0.21325063101E+04  0.17002218203E+04 0.  0.
        2    1    3    3  502    0  0.31227473232E+02  0.24682564471E+03  0.37597969931E+03  0.45084230976E+03  0.25500000920E-02 0. -1.
       -2    1    3    3    0  502 -0.31227473232E+02 -0.24682564471E+03 -0.16631583677E+04  0.16816640004E+04  0.25500000920E-02 0.  1.
</event>
<event>
 5   0  0.1441756E-05  0.1699014E+04  0.7818609E-02  0.8761927E-01
        2   -1    0    0  501    0  0.00000000000E+00  0.00000000000E+00  0.13837667897E+04  0.13837667897E+04  0.25500000920E-02 0.  1.
       -2   -1    0    0    0  501  0.00000000000E+00  0.00000000000E+00 -0.52152026069E+03  0.52152026070E+03  0.25500000920E-02 0. -1.
    10030    2    1    2    0    0  0.00000000000E+00  0.00000000000E+00  0.86224652906E+03  0.19052870504E+04  0.16990143224E+04 0.  0.
        5    1    3    3  502    0  0.41741107762E+03  0.44302127782E+03 -0.23339024839E+03  0.65191483981E+03  0.46999998093E+01 0. -1.
       -5    1    3    3    0  502 -0.41741107762E+03 -0.44302127782E+03  0.10956367774E+04  0.12533722106E+04  0.46999998093E+01 0.  1.
</event>
<event>
 5   0  0.7082527E-06  0.1699880E+04  0.7818609E-02  0.8761433E-01
        1   -1    0    0  501    0  0.00000000000E+00  0.00000000000E+00  0.75942038398E+03  0.75942038400E+03  0.50400001928E-02 0.  1.
       -1   -1    0    0    0  501  0.00000000000E+00  0.00000000000E+00 -0.95124948815E+03  0.95124948816E+03  0.50400001928E-02 0. -1.
    10030    2    1    2    0    0  0.00000000000E+00  0.00000000000E+00 -0.19182910417E+03  0.17106698722E+04  0.16998802918E+04 0.  0.
        1    1    3    3  502    0 -0.21893954217E+03 -0.64130341033E+02  0.72803193757E+03  0.76294018502E+03  0.50400001928E-02 0.  1.
       -1    1    3    3    0  502  0.21893954217E+03  0.64130341033E+02 -0.91986104174E+03  0.94772968715E+03  0.50400001928E-02 0. -1.
</event>
<event>
 5   0  0.1423543E-05  0.1699944E+04  0.7818609E-02  0.8761396E-01
       -2   -1    0    0    0  501  0.00000000000E+00  0.00000000000E+00  0.50682308238E+03  0.50682308238E+03  0.25500000920E-02 0. -1.
        2   -1    0    0  501    0  0.00000000000E+00  0.00000000000E+00 -0.14254525831E+04  0.14254525831E+04  0.25500000920E-02 0.  1.
    10030    2    1    2    0    0  0.00000000000E+00  0.00000000000E+00 -0.91862950074E+03  0.19322756655E+04  0.16999438484E+04 0.  0.
        3    1    3    3  502    0 -0.43839726979E+03 -0.63331227387E+03 -0.50783905833E+02  0.77191684635E+03  0.10100000352E+00 0. -1.
       -3    1    3    3    0  502  0.43839726979E+03  0.63331227387E+03 -0.86784559491E+03  0.11603588192E+04  0.10100000352E+00 0.  1.
</event>
<event>
 5   0  0.1374441E-05  0.1699929E+04  0.7818609E-02  0.8761405E-01
        2   -1    0    0  501    0  0.00000000000E+00  0.00000000000E+00  0.49695023824E+03  0.49695023825E+03  0.25500000920E-02 0. -1.
       -2   -1    0    0    0  501  0.00000000000E+00  0.00000000000E+00 -0.14537470901E+04  0.14537470901E+04  0.25500000920E-02 0.  1.
    10030    2    1    2    0    0  0.00000000000E+00  0.00000000000E+00 -0.95679685182E+03  0.19506973283E+04  0.16999293665E+04 0.  0.
        1    1    3    3  502    0 -0.42863289677E+03 -0.83527165141E+01 -0.13205881536E+04  0.13884340098E+04  0.50400001928E-02 0.  1.
       -1    1    3    3    0  502  0.42863289677E+03  0.83527165141E+01  0.36379130179E+03  0.56226331852E+03  0.50400001928E-02 0. -1.
</event>
<event>
 5   0  0.1423543E-05  0.1700492E+04  0.7818609E-02  0.8761084E-01
        2   -1    0    0  501    0  0.00000000000E+00  0.00000000000E+00  0.16708685295E+04  0.16708685295E+04  0.25500000920E-02 0.  1.
       -2   -1    0    0    0  501  0.00000000000E+00  0.00000000000E+00 -0.43266022187E+03  0.43266022188E+03  0.25500000920E-02 0. -1.
    10030    2    1    2    0    0  0.00000000000E+00  0.00000000000E+00  0.12382083076E+04  0.21035287514E+04  0.17004921037E+04 0.  0.
        3    1    3    3  502    0  0.10135697421E+03 -0.29351951498E+03 -0.36000562585E+03  0.47542717922E+03  0.10100000352E+00 0. -1.
       -3    1    3    3    0  502 -0.10135697421E+03  0.29351951498E+03  0.15982139335E+04  0.16281015722E+04  0.10100000352E+00 0.  1.
</event>
<event>
 5   0  0.7476457E-06  0.1699373E+04  0.7818609E-02  0.8761722E-01
       -1   -1    0    0    0  501  0.00000000000E+00  0.00000000000E+00  0.83236832895E+03  0.83236832896E+03  0.50400001928E-02 0. -1.
        1   -1    0    0  501    0  0.00000000000E+00  0.00000000000E+00 -0.86736537956E+03  0.86736537957E+03  0.50400001928E-02 0.  1.
    10030    2    1    2    0    0  0.00000000000E+00  0.00000000000E+00 -0.34997050610E+02  0.16997337085E+04  0.16993733805E+04 0.  0.
        2    1    3    3  502    0  0.24194618797E+03 -0.76959309342E+02 -0.82853837510E+03  0.86656594220E+03  0.25500000920E-02 0.  1.
       -2    1    3    3    0  502 -0.24194618797E+03  0.76959309342E+02  0.79354132449E+03  0.83316776633E+03  0.25500000920E-02 0. -1.
</event>
<event>
 5   0  0.1419012E-05  0.1699995E+04  0.7818609E-02  0.8761367E-01
       -2   -1    0    0    0  501  0.00000000000E+00  0.00000000000E+00  0.31172698971E+03  0.31172698972E+03  0.25500000920E-02 0.  1.
        2   -1    0    0  501    0  0.00000000000E+00  0.00000000000E+00 -0.23177205400E+04  0.23177205400E+04  0.25500000920E-02 0. -1.
    10030    2    1    2    0    0  0.00000000000E+00  0.00000000000E+00 -0.20059935503E+04  0.26294475297E+04  0.16999953493E+04 0.  0.
        4    1    3    3  502    0 -0.30291481775E+03 -0.58443472887E+03 -0.17124120640E+03  0.68018122790E+03  0.12699999809E+01 0.  1.
       -4    1    3    3    0  502  0.30291481775E+03  0.58443472887E+03 -0.18347523439E+04  0.19492663018E+04  0.12699999809E+01 0. -1.
</event>
<event>
 5   0  0.7583716E-06  0.1700031E+04  0.7818609E-02  0.8761347E-01
       -1   -1    0    0    0  501  0.00000000000E+00  0.00000000000E+00  0.89305984693E+03  0.89305984695E+03  0.50400001928E-02 0.  1.
        1   -1    0    0  501    0  0.00000000000E+00  0.00000000000E+00 -0.80904589954E+03  0.80904589955E+03  0.50400001928E-02 0. -1.
    10030    2    1    2    0    0  0.00000000000E+00  0.00000000000E+00  0.84013947397E+02  0.17021057465E+04  0.17000310670E+04 0.  0.
        5    1    3    3  502    0  0.68144963459E+03 -0.30902801868E+03  0.44577619545E+03  0.87098244944E+03  0.46999998093E+01 0.  1.
       -5    1    3    3    0  502 -0.68144963459E+03  0.30902801868E+03 -0.36176224805E+03  0.83112329706E+03  0.46999998093E+01 0. -1.
</event>
<event>
 5   0  0.5229750E-06  0.1699582E+04  0.7818609E-02  0.8761603E-01
       -4   -1    0    0    0  501  0.00000000000E+00  0.00000000000E+00  0.75271289026E+03  0.75271396165E+03  0.12699999809E+01 0.  1.
        4   -1    0    0  501    0  0.00000000000E+00  0.00000000000E+00 -0.95938736858E+03  0.95938820917E+03  0.12699999809E+01 0. -1.
    10030    2    1    2    0    0  0.00000000000E+00  0.00000000000E+00 -0.20667447833E+03  0.17121021708E+04  0.16995821555E+04 0.  0.
        1    1    3    3  502    0  0.36477143413E+02 -0.35286467242E+03 -0.88123087316E+03  0.94995363617E+03  0.50400001928E-02 0. -1.
       -1    1    3    3    0  502 -0.36477143413E+02  0.35286467242E+03  0.67455639484E+03  0.76214853465E+03  0.50400001928E-02 0.  1.
</event>
<event>
 5   0  0.5229750E-06  0.1695817E+04  0.7818609E-02  0.8763753E-01
        3   -1    0    0  501    0  0.00000000000E+00  0.00000000000E+00  0.72838264075E+03  0.72838264775E+03  0.10100000352E+00 0.  1.
       -3   -1    0    0    0  501  0.00000000000E+00  0.00000000000E+00 -0.98704863245E+03  0.98704863762E+03  0.10100000352E+00 0. -1.
    10030    2    1    2    0    0  0.00000000000E+00  0.00000000000E+00 -0.25866599170E+03  0.17154312854E+04  0.16958173249E+04 0.  0.
        3    1    3    3  502    0  0.21273543632E+03 -0.74946274409E+03 -0.46786521703E+03  0.90876214828E+03  0.10100000352E+00 0. -1.
       -3    1    3    3    0  502 -0.21273543632E+03  0.74946274409E+03  0.20919922534E+03  0.80666913709E+03  0.10100000352E+00 0.  1.
</event>
<event>
 5   0  0.7476457E-06  0.1700129E+04  0.7818609E-02  0.8761291E-01
       -1   -1    0    0    0  501  0.00000000000E+00  0.00000000000E+00  0.60618461902E+03  0.60618461905E+03  0.50400001928E-02 0. -1.
        1   -1    0    0  501    0  0.00000000000E+00  0.00000000000E+00 -0.11920618636E+04  0.11920618636E+04  0.50400001928E-02 0.  1.
    10030    2    1    2    0    0  0.00000000000E+00  0.00000000000E+00 -0.58587724461E+03  0.17982464827E+04  0.17001288971E+04 0.  0.
        2    1    3    3  502    0  0.37946955396E+03 -0.70881599196E+03 -0.58489835120E+03  0.99424510765E+03  0.25500000920E-02 0.  1.
       -2    1    3    3    0  502 -0.37946955396E+03  0.70881599196E+03 -0.97889340765E+00  0.80400137504E+03  0.25500000920E-02 0. -1.
</event>
<event>
 5   0  0.7461128E-06  0.1695146E+04  0.7818609E-02  0.8764137E-01
        1   -1    0    0  501    0  0.00000000000E+00  0.00000000000E+00  0.56100936562E+03  0.56100936565E+03  0.50400001928E-02 0.  1.
       -1   -1    0    0    0  501  0.00000000000E+00  0.00000000000E+00 -0.12805138839E+04  0.12805138839E+04  0.50400001928E-02 0. -1.
    10030    2    1    2    0    0  0.00000000000E+00  0.00000000000E+00 -0.71950451829E+03  0.18415232496E+04  0.16951463438E+04 0.  0.
        3    1    3    3  502    0 -0.83951894106E+03  0.77343387221E+02 -0.45449685287E+03  0.95777943778E+03  0.10100000352E+00 0.  1.
       -3    1    3    3    0  502  0.83951894106E+03 -0.77343387221E+02 -0.26500766542E+03  0.88374381179E+03  0.10100000352E+00 0. -1.
</event>
<event>
 5   0  0.7583716E-06  0.1700072E+04  0.7818609E-02  0.8761324E-01
       -1   -1    0    0    0  501  0.00000000000E+00  0.00000000000E+00  0.69883043955E+03  0.69883043957E+03  0.50400001928E-02 0.  1.
        1   -1    0    0  501    0  0.00000000000E+00  0.00000000000E+00 -0.10339572290E+04  0.10339572290E+04  0.50400001928E-02 0. -1.
    10030    2    1    2    0    0  0.00000000000E+00  0.00000000000E+00 -0.33512678944E+03  0.17327876686E+04  0.17000715101E+04 0.  0.
        5    1    3    3  502    0 -0.67984333475E+03  0.21672982841E+03  0.30325663410E+03  0.77533570436E+03  0.46999998093E+01 0.  1.
       -5    1    3    3    0  502  0.67984333475E+03 -0.21672982841E+03 -0.63838342354E+03  0.95745196421E+03  0.46999998093E+01 0. -1.
</event>
<event>
 5   0  0.1441756E-05  0.1698841E+04  0.7818609E-02  0.8762025E-01
       -2   -1    0    0    0  501  0.00000000000E+00  0.00000000000E+00  0.33426081299E+03  0.33426081300E+03  0.25500000920E-02 0. -1.
        2   -1    0    0  501    0  0.00000000000E+00  0.00000000000E+00 -0.21585403403E+04  0.21585403403E+04  0.25500000920E-02 0.  1.
    10030    2    1    2    0    0  0.00000000000E+00  0.00000000000E+00 -0.18242795274E+04  0.24928011533E+04  0.16988413099E+04 0.  0.
        5    1    3    3  502    0 -0.11257081891E+03 -0.73477924432E+03 -0.30905803277E+03  0.80505383967E+03  0.46999998093E+01 0. -1.
       -5    1    3    3    0  502  0.11257081891E+03  0.73477924432E+03 -0.15152214946E+04  0.16877473137E+04  0.46999998093E+01 0.  1.
</event>
<event>
 5   0  0.7082527E-06  0.1700364E+04  0.7818609E-02  0.8761157E-01
        1   -1    0    0  501    0  0.00000000000E+00  0.00000000000E+00  0.71030308309E+03  0.71030308311E+03  0.50400001928E-02 0. -1.
       -1   -1    0    0    0  501  0.00000000000E+00  0.00000000000E+00 -0.10176074273E+04  0.10176074273E+04  0.50400001928E-02 0.  1.
    10030    2    1    2    0    0  0.00000000000E+00  0.00000000000E+00 -0.30730434424E+03  0.17279105104E+04  0.17003643057E+04 0.  0.
        1    1    3    3  502    0  0.58487737623E+03  0.61210150810E+03 -0.74545758973E+02  0.84988638750E+03  0.50400001928E-02 0.  1.
       -1    1    3    3    0  502 -0.58487737623E+03 -0.61210150810E+03 -0.23275858526E+03  0.87802412295E+03  0.50400001928E-02 0. -1.
</event>
<event>
 5   0  0.7583716E-06  0.1699889E+04  0.7818609E-02  0.8761428E-01
       -1   -1    0    0    0  501  0.00000000000E+00  0.00000000000E+00  0.15064122538E+04  0.15064122538E+04  0.50400001928E-02 0. -1.
        1   -1    0    0  501    0  0.00000000000E+00  0.00000000000E+00 -0.47955361171E+03  0.47955361174E+03  0.50400001928E-02 0.  1.
    10030    2    1    2    0    0  0.00000000000E+00  0.00000000000E+00  0.10268586421E+04  0.19859658655E+04  0.16998887458E+04 0.  0.
        5    1    3    3  502    0 -0.31209890774E+03  0.38485930841E+03 -0.29333587130E+03  0.57583890010E+03  0.46999998093E+01 0.  1.
       -5    1    3    3    0  502  0.31209890774E+03 -0.38485930841E+03  0.13201945134E+04  0.14101269654E+04  0.46999998093E+01 0. -1.
</event>
<event>
 5   0  0.7455669E-06  0.1698340E+04  0.7818609E-02  0.8762312E-01
       -1   -1    0    0    0  501  0.00000000000E+00  0.00000000000E+00  0.27044656555E+03  0.27044656560E+03  0.50400001928E-02 0. -1.
        1   -1    0    0  501    0  0.00000000000E+00  0.00000000000E+00 -0.26662929671E+04  0.26662929671E+04  0.50400001928E-02 0.  1.
    10030    2    1    2    0    0  0.00000000000E+00  0.00000000000E+00 -0.23958464016E+04  0.29367395327E+04  0.16983401023E+04 0.  0.
        4    1    3    3  502    0  0.80015288635E+03 -0.11972734129E+03 -0.75197891968E+03  0.11045601778E+04  0.12699999809E+01 0. -1.
       -4    1    3    3    0  502 -0.80015288635E+03  0.11972734129E+03 -0.16438674819E+04  0.18321793550E+04  0.12699999809E+01 0.  1.
</event>
<event>
 5   0  0.7476457E-06  0.1703814E+04  0.7818609E-02  0.8759192E-01
        1   -1    0    0  501    0  0.00000000000E+00  0.00000000000E+00  0.11295841468E+04  0.11295841469E+04  0.50400001928E-02 0. -1.
       -1   -1    0    0    0  501  0.00000000000E+00  0.00000000000E+00 -0.64248930704E+03  0.64248930706E+03  0.50400001928E-02 0.  1.
    10030    2    1    2    0    0  0.00000000000E+00  0.00000000000E+00  0.48709483981E+03  0.17720734539E+04  0.17038142337E+04 0.  0.
        2    1    3    3  502    0 -0.64726088729E+03 -0.30859013514E+03 -0.23484882346E+03  0.75453859915E+03  0.25500000920E-02 0. -1.
       -2    1    3    3    0  502  0.64726088729E+03  0.30859013514E+03  0.72194366326E+03  0.10175348548E+04  0.25500000920E-02 0.  1.
</event>
<event>
 5   0  0.1435301E-05  0.1700987E+04  0.7818609E-02  0.8760802E-01
        2   -1    0    0  501    0  0.00000000000E+00  0.00000000000E+00  0.85887473740E+03  0.85887473740E+03  0.25500000920E-02 0.  1.
       -2   -1    0    0    0  501  0.00000000000E+00  0.00000000000E+00 -0.84219381098E+03  0.84219381098E+03  0.25500000920E-02 0. -1.
    10030    2    1    2    0    0  0.00000000000E+00  0.00000000000E+00  0.16680926417E+02  0.17010685484E+04  0.17009867586E+04 0.  0.
        2    1    3    3  502    0 -0.43475148718E+03 -0.52857282172E+03  0.51328147202E+03  0.85548579941E+03  0.25500000920E-02 0.  1.
       -2    1    3    3    0  502  0.43475148718E+03  0.52857282172E+03 -0.49660054560E+03  0.84558274898E+03  0.25500000920E-02 0. -1.
</event>
<event>
 5   0  0.1423543E-05  0.1699023E+04  0.7818609E-02  0.8761922E-01
       -2   -1    0    0    0  501  0.00000000000E+00  0.00000000000E+00  0.16928294222E+04  0.16928294222E+04  0.25500000920E-02 0.  1.
        2   -1    0    0  501    0  0.00000000000E+00  0.00000000000E+00 -0.42630962000E+03  0.42630962001E+03  0.25500000920E-02 0. -1.
    10030    2    1    2    0    0  0.00000000000E+00  0.00000000000E+00  0.12665198022E+04  0.21191390422E+04  0.16990226223E+04 0.  0.
        3    1    3    3  502    0 -0.47390210621E+02  0.12697564680E+03  0.16792578920E+04  0.16847182924E+04  0.10100000352E+00 0.  1.
       -3    1    3    3    0  502  0.47390210621E+02 -0.12697564680E+03 -0.41273808974E+03  0.43442074981E+03  0.10100000352E+00 0. -1.
</event>
<event>
 5   0  0.1419012E-05  0.1695439E+04  0.7818609E-02  0.8763970E-01
       -2   -1    0    0    0  501  0.00000000000E+00  0.00000000000E+00  0.33649336337E+03  0.33649336338E+03  0.25500000920E-02 0. -1.
        2   -1    0    0  501    0  0.00000000000E+00  0.00000000000E+00 -0.21356380959E+04  0.21356380959E+04  0.25500000920E-02 0.  1.
    10030    2    1    2    0    0  0.00000000000E+00  0.00000000000E+00 -0.17991447325E+04  0.24721314593E+04  0.16954386404E+04 0.  0.
        4    1    3    3  502    0 -0.55594206403E+03 -0.39217060443E+03 -0.16217206686E+03  0.69940743040E+03  0.12699999809E+01 0. -1.
       -4    1    3    3    0  502  0.55594206403E+03  0.39217060443E+03 -0.16369726657E+04  0.17727240289E+04  0.12699999809E+01 0.  1.
</event>
<event>
 5   0  0.7583716E-06  0.1700064E+04  0.7818609E-02  0.8761328E-01
       -1   -1    0    0    0  501  0.00000000000E+00  0.00000000000E+00  0.52472992780E+03  0.52472992782E+03  0.50400001928E-02 0.  1.
        1   -1    0    0  501    0  0.00000000000E+00  0.00000000000E+00 -0.13770018134E+04  0.13770018134E+04  0.50400001928E-02 0. -1.
    10030    2    1    2    0    0  0.00000000000E+00  0.00000000000E+00 -0.85227188563E+03  0.19017317413E+04  0.17000636014E+04 0.  0.
        5    1    3    3  502    0  0.77501221414E+02  0.37875194751E+03  0.42067969328E+03  0.57136063165E+03  0.46999998093E+01 0.  1.
       -5    1    3    3    0  502 -0.77501221414E+02 -0.37875194751E+03 -0.12729515789E+04  0.13303711096E+04  0.46999998093E+01 0. -1.
</event>
<event>
 5   0  0.1374441E-05  0.1699416E+04  0.7818609E-02  0.8761698E-01
        2   -1    0    0  501    0  0.00000000000E+00  0.00000000000E+00  0.11141443981E+04  0.11141443981E+04  0.25500000920E-02 0.  1.
       -2   -1    0    0    0  501  0.00000000000E+00  0.00000000000E+00 -0.64803417993E+03  0.64803417993E+03  0.25500000920E-02 0. -1.
    10030    2    1    2    0    0  0.00000000000E+00  0.00000000000E+00  0.46611021818E+03  0.17621785780E+04  0.16994159601E+04 0.  0.
        1    1    3    3  502    0 -0.38266116858E+03 -0.97263528442E+02 -0.54713803417E+03  0.67472201117E+03  0.50400001928E-02 0. -1.
       -1    1    3    3    0  502  0.38266116858E+03  0.97263528442E+02  0.10132482523E+04  0.10874565669E+04  0.50400001928E-02 0.  1.
</event>
<event>
 5   0  0.1441756E-05  0.1699618E+04  0.7818609E-02  0.8761582E-01
       -2   -1    0    0    0  501  0.00000000000E+00  0.00000000000E+00  0.42842224165E+03  0.42842224165E+03  0.25500000920E-02 0. -1.
        2   -1    0    0  501    0  0.00000000000E+00  0.00000000000E+00 -0.16856631103E+04  0.16856631103E+04  0.25500000920E-02 0.  1.
    10030    2    1    2    0    0  0.00000000000E+00  0.00000000000E+00 -0.12572408686E+04  0.21140853519E+04  0.16996182729E+04 0.  0.
        5    1    3    3  502    0 -0.42839419519E+03  0.68018797905E+03 -0.97147498963E+03  0.12609373572E+04  0.46999998093E+01 0.  1.
       -5    1    3    3    0  502  0.42839419519E+03 -0.68018797905E+03 -0.28576587900E+03  0.85314799473E+03  0.46999998093E+01 0. -1.
</event>
<event>
 5   0  0.7455669E-06  0.1699562E+04  0.7818609E-02  0.8761614E-01
       -1   -1    0    0    0  501  0.00000000000E+00  0.00000000000E+00  0.48130417558E+03  0.48130417561E+03  0.50400001928E-02 0. -1.
        1   -1    0    0  501    0  0.00000000000E+00  0.00000000000E+00 -0.15003556014E+04  0.15003556014E+04  0.50400001928E-02 0.  1.
    10030    2    1    2    0    0  0.00000000000E+00  0.00000000000E+00 -0.10190514258E+04  0.19816597770E+04  0.16995616092E+04 0.  0.
        4    1    3    3  502    0 -0.40211317665E+03 -0.50676639266E+02  0.36134930838E+03  0.54298993008E+03  0.12699999809E+01 0. -1.
       -4    1    3    3    0  502  0.40211317665E+03  0.50676639266E+02 -0.13804007342E+04  0.14386698469E+04  0.12699999809E+01 0.  1.
</event>
<event>
 5   0  0.7476457E-06  0.1700136E+04  0.7818609E-02  0.8761287E-01
       -1   -1    0    0    0  501  0.00000000000E+00  0.00000000000E+00  0.39163876564E+03  0.39163876568E+03  0.50400001928E-02 0.  1.
        1   -1    0    0  501    0  0.00000000000E+00  0.00000000000E+00 -0.18451069697E+04  0.18451069697E+04  0.50400001928E-02 0. -1.
    10030    2    1    2    0    0  0.00000000000E+00  0.00000000000E+00 -0.14534682040E+04  0.22367457354E+04  0.17001357783E+04 0.  0.
        2    1    3    3  502    0  0.14423802717E+03 -0.22097908967E+02  0.37503831135E+03  0.40242596965E+03  0.25500000920E-02 0.  1.
       -2    1    3    3    0  502 -0.14423802717E+03  0.22097908967E+02 -0.18285065154E+04  0.18343197657E+04  0.25500000920E-02 0. -1.
</event>
<event>
 5   0  0.7476457E-06  0.1700189E+04  0.7818609E-02  0.8761257E-01
        1   -1    0    0  501    0  0.00000000000E+00  0.00000000000E+00  0.16206076531E+04  0.16206076531E+04  0.50400001928E-02 0. -1.
       -1   -1    0    0    0  501  0.00000000000E+00  0.00000000000E+00 -0.44591935042E+03  0.44591935045E+03  0.50400001928E-02 0.  1.
    10030    2    1    2    0    0  0.00000000000E+00  0.00000000000E+00  0.11746883026E+04  0.20665270035E+04  0.17001885919E+04 0.  0.
        2    1    3    3  502    0 -0.23100896545E+03 -0.81592156191E+03  0.51474924080E+03  0.99199794265E+03  0.25500000920E-02 0. -1.
       -2    1    3    3    0  502  0.23100896545E+03  0.81592156191E+03  0.65993906184E+03  0.10745290609E+04  0.25500000920E-02 0.  1.
</event>
<event>
 5   0  0.7461128E-06  0.1700980E+04  0.7818609E-02  0.8760805E-01
       -1   -1    0    0    0  501  0.00000000000E+00  0.00000000000E+00  0.73985345089E+03  0.73985345090E+03  0.50400001928E-02 0.  1.
        1   -1    0    0  501    0  0.00000000000E+00  0.00000000000E+00 -0.97767128079E+03  0.97767128081E+03  0.50400001928E-02 0. -1.
    10030    2    1    2    0    0  0.00000000000E+00  0.00000000000E+00 -0.23781782991E+03  0.17175247317E+04  0.17009802714E+04 0.  0.
        3    1    3    3  502    0 -0.65242809626E+02  0.47374226703E+03 -0.82905971225E+03  0.95709371352E+03  0.10100000352E+00 0. -1.
       -3    1    3    3    0  502  0.65242809626E+02 -0.47374226703E+03  0.59124188235E+03  0.76043101819E+03  0.10100000352E+00 0.  1.
</event>
<event>
 5   0  0.7476457E-06  0.1700222E+04  0.7818609E-02  0.8761238E-01
        1   -1    0    0  501    0  0.00000000000E+00  0.00000000000E+00  0.88921728111E+03  0.88921728113E+03  0.50400001928E-02 0.  1.
       -1   -1    0    0    0  501  0.00000000000E+00  0.00000000000E+00 -0.81272411908E+03  0.81272411909E+03  0.50400001928E-02 0. -1.
    10030    2    1    2    0    0  0.00000000000E+00  0.00000000000E+00  0.76493162038E+02  0.17019414002E+04  0.17002215520E+04 0.  0.
        2    1    3    3  502    0  0.75112285662E+03 -0.39765746579E+03  0.57535884991E+02  0.85183765114E+03  0.25500000920E-02 0.  1.
       -2    1    3    3    0  502 -0.75112285662E+03  0.39765746579E+03  0.18957277047E+02  0.85010374908E+03  0.25500000920E-02 0. -1.
</event>
<event>
 5   0  0.1435301E-05  0.1700207E+04  0.7818609E-02  0.8761246E-01
        2   -1    0    0  501    0  0.00000000000E+00  0.00000000000E+00  0.18063363487E+04  0.18063363487E+04  0.25500000920E-02 0. -1.
       -2   -1    0    0    0  501  0.00000000000E+00  0.00000000000E+00 -0.40007824678E+03  0.40007824678E+03  0.25500000920E-02 0.  1.
    10030    2    1    2    0    0  0.00000000000E+00  0.00000000000E+00  0.14062581019E+04  0.22064145955E+04  0.17002069045E+04 0.  0.
        2    1    3    3  502    0  0.36623894117E+03  0.68322210932E+03  0.11559476230E+04  0.13918111652E+04  0.25500000920E-02 0. -1.
       -2    1    3    3    0  502 -0.36623894117E+03 -0.68322210932E+03  0.25031047899E+03  0.81460343026E+03  0.25500000920E-02 0.  1.
</event>
<event>
 5   0  0.1435301E-05  0.1702090E+04  0.7818609E-02  0.8760173E-01
       -2   -1    0    0    0  501  0.00000000000E+00  0.00000000000E+00  0.59854858414E+03  0.59854858414E+03  0.25500000920E-02 0. -1.
        2   -1    0    0  501    0  0.00000000000E+00  0.00000000000E+00 -0.12100567830E+04  0.12100567830E+04  0.25500000920E-02 0.  1.
    10030    2    1    2    0    0  0.00000000000E+00  0.00000000000E+00 -0.61150819890E+03  0.18086053672E+04  0.17020902141E+04 0.  0.
        2    1    3    3  502    0 -0.66403398475E+03 -0.44136446813E+03  0.10412800046E+02  0.79740338163E+03  0.25500000920E-02 0. -1.
       -2    1    3    3    0  502  0.66403398475E+03  0.44136446813E+03 -0.62192099895E+03  0.10112019855E+04  0.25500000920E-02 0.  1.
</event>
<event>
 5   0  0.1423543E-05  0.1699961E+04  0.7818609E-02  0.8761386E-01
        2   -1    0    0  501    0  0.00000000000E+00  0.00000000000E+00  0.20654026940E+04  0.20654026940E+04  0.25500000920E-02 0.  1.
       -2   -1    0    0    0  501  0.00000000000E+00  0.00000000000E+00 -0.34979482575E+03  0.34979482576E+03  0.25500000920E-02 0. -1.
    10030    2    1    2    0    0  0.00000000000E+00  0.00000000000E+00  0.17156078683E+04  0.24151975198E+04  0.16999613825E+04 0.  0.
        3    1    3    3  502    0 -0.42120067231E+03 -0.70150131429E+03  0.53087064064E+03  0.97536544311E+03  0.10100000352E+00 0.  1.
       -3    1    3    3    0  502  0.42120067231E+03  0.70150131429E+03  0.11847372276E+04  0.14398320767E+04  0.10100000352E+00 0. -1.
</event>
<event>
 5   0  0.7082527E-06  0.1700138E+04  0.7818609E-02  0.8761285E-01
        1   -1    0    0  501    0  0.00000000000E+00  0.00000000000E+00  0.87597596956E+03  0.87597596957E+03  0.50400001928E-02 0.  1.
       -1   -1    0    0    0  501  0.00000000000E+00  0.00000000000E+00 -0.82492855443E+03  0.82492855444E+03  0.50400001928E-02 0. -1.
    10030    2    1    2    0    0  0.00000000000E+00  0.00000000000E+00  0.51047415133E+02  0.17009045240E+04  0.17001383359E+04 0.  0.
        1    1    3    3  502    0  0.42211410738E+03  0.37396189161E+03 -0.61083666445E+03  0.83135386370E+03  0.50400001928E-02 0. -1.
       -1    1    3    3    0  502 -0.42211410738E+03 -0.37396189161E+03  0.66188407958E+03  0.86955066032E+03  0.50400001928E-02 0.  1.
</event>
<event>
 5   0  0.7476457E-06  0.1698594E+04  0.7818609E-02  0.8762167E-01
       -1   -1    0    0    0  501  0.00000000000E+00  0.00000000000E+00  0.15404112906E+04  0.15404112906E+04  0.50400001928E-02 0. -1.
        1   -1    0    0  501    0  0.00000000000E+00  0.00000000000E+00 -0.46825513837E+03  0.46825513839E+03  0.50400001928E-02 0.  1.
    10030    2    1    2    0    0  0.00000000000E+00  0.00000000000E+00  0.10721561522E+04  0.20086664290E+04  0.16985941270E+04 0.  0.
        2    1    3    3  502    0  0.34465604716E+03 -0.52095537584E+03 -0.14439823852E+03  0.64111866745E+03  0.25500000920E-02 0.  1.
       -2    1    3    3    0  502 -0.34465604716E+03  0.52095537584E+03  0.12165543907E+04  0.13675477615E+04  0.25500000920E-02 0. -1.
</event>
<event>
 5   0  0.7476457E-06  0.1699787E+04  0.7818609E-02  0.8761486E-01
        1   -1    0    0  501    0  0.00000000000E+00  0.00000000000E+00  0.55352217191E+03  0.55352217194E+03  0.50400001928E-02 0. -1.
       -1   -1    0    0    0  501  0.00000000000E+00  0.00000000000E+00 -0.13049503138E+04  0.13049503138E+04  0.50400001928E-02 0.  1.
    10030    2    1    2    0    0  0.00000000000E+00  0.00000000000E+00 -0.75142814186E+03  0.18584724857E+04  0.16997869654E+04 0.  0.
        2    1    3    3  502    0  0.46176372361E+03 -0.27259401553E+03  0.34522616821E+03  0.63774159419E+03  0.25500000920E-02 0. -1.
       -2    1    3    3    0  502 -0.46176372361E+03  0.27259401553E+03 -0.10966543101E+04  0.12207308915E+04  0.25500000920E-02 0.  1.
</event>
<event>
 5   0  0.1423543E-05  0.1700361E+04  0.7818609E-02  0.8761159E-01
        2   -1    0    0  501    0  0.00000000000E+00  0.00000000000E+00  0.22333346845E+04  0.22333346845E+04  0.25500000920E-02 0.  1.
       -2   -1    0    0    0  501  0.00000000000E+00  0.00000000000E+00 -0.32364465182E+03  0.32364465183E+03  0.25500000920E-02 0. -1.
    10030    2    1    2    0    0  0.00000000000E+00  0.00000000000E+00  0.19096900327E+04  0.25569793363E+04  0.17003609339E+04 0.  0.
        3    1    3    3  502    0 -0.53968166280E+02  0.84801847386E+03  0.91341792514E+03  0.12475496828E+04  0.10100000352E+00 0. -1.
       -3    1    3    3    0  502  0.53968166280E+02 -0.84801847386E+03  0.99627210754E+03  0.13094296535E+04  0.10100000352E+00 0.  1.
</event>
<event>
 5   0  0.1435301E-05  0.1700114E+04  0.7818609E-02  0.8761299E-01
       -2   -1    0    0    0  501  0.00000000000E+00  0.00000000000E+00  0.27427827235E+03  0.27427827236E+03  0.25500000920E-02 0.  1.
        2   -1    0    0  501    0  0.00000000000E+00  0.00000000000E+00 -0.26345386735E+04  0.26345386735E+04  0.25500000920E-02 0. -1.
    10030    2    1    2    0    0  0.00000000000E+00  0.00000000000E+00 -0.23602604011E+04  0.29088169459E+04  0.17001137795E+04 0.  0.
        2    1    3    3  502    0 -0.12089430936E+03 -0.47606295211E+03 -0.23671741357E+04  0.24175948290E+04  0.25500000920E-02 0. -1.
       -2    1    3    3    0  502  0.12089430936E+03  0.47606295211E+03  0.69137345163E+01  0.49122211691E+03  0.25500000920E-02 0.  1.
</event>
<event>
 5   0  0.1435301E-05  0.1706516E+04  0.7818609E-02  0.8757657E-01
        2   -1    0    0  501    0  0.00000000000E+00  0.00000000000E+00  0.17052494861E+04  0.17052494861E+04  0.25500000920E-02 0.  1.
       -2   -1    0    0    0  501  0.00000000000E+00  0.00000000000E+00 -0.42694582218E+03  0.42694582218E+03  0.25500000920E-02 0. -1.
    10030    2    1    2    0    0  0.00000000000E+00  0.00000000000E+00  0.12783036639E+04  0.21321953083E+04  0.17065159171E+04 0.  0.
        2    1    3    3  502    0  0.82551948471E+03  0.10719311017E+03  0.40514749439E+03  0.92580628358E+03  0.25500000920E-02 0. -1.
       -2    1    3    3    0  502 -0.82551948471E+03 -0.10719311017E+03  0.87315616950E+03  0.12063890247E+04  0.25500000920E-02 0.  1.
</event>
<event>
 5   0  0.7455669E-06  0.1700469E+04  0.7818609E-02  0.8761097E-01
       -1   -1    0    0    0  501  0.00000000000E+00  0.00000000000E+00  0.50606814700E+03  0.50606814702E+03  0.50400001928E-02 0.  1.
        1   -1    0    0  501    0  0.00000000000E+00  0.00000000000E+00 -0.14284615924E+04  0.14284615924E+04  0.50400001928E-02 0. -1.
    10030    2    1    2    0    0  0.00000000000E+00  0.00000000000E+00 -0.92239344538E+03  0.19345297394E+04  0.17004692425E+04 0.  0.
        4    1    3    3  502    0 -0.94657083314E+02 -0.18766462441E+03  0.47604526527E+03  0.52038320703E+03  0.12699999809E+01 0.  1.
       -4    1    3    3    0  502  0.94657083314E+02  0.18766462441E+03 -0.13984387106E+04  0.14141465324E+04  0.12699999809E+01 0. -1.
</event>
<event>
 5   0  0.5229750E-06  0.1700314E+04  0.7818609E-02  0.8761185E-01
        3   -1    0    0  501    0  0.00000000000E+00  0.00000000000E+00  0.11766073649E+04  0.11766073693E+04  0.10100000352E+00 0.  1.
       -3   -1    0    0    0  501  0.00000000000E+00  0.00000000000E+00 -0.61428020547E+03  0.61428021377E+03  0.10100000352E+00 0. -1.
    10030    2    1    2    0    0  0.00000000000E+00  0.00000000000E+00  0.56232715948E+03  0.17908875831E+04  0.17003136478E+04 0.  0.
        4    1    3    3  502    0 -0.41901102227E+03  0.58708005243E+03  0.75517181007E+03  0.10442793210E+04  0.12699999809E+01 0.  1.
       -4    1    3    3    0  502  0.41901102227E+03 -0.58708005243E+03 -0.19284465059E+03  0.74660826201E+03  0.12699999809E+01 0. -1.
</event>
<event>
 5   0  0.1374441E-05  0.1699771E+04  0.7818609E-02  0.8761495E-01
       -2   -1    0    0    0  501  0.00000000000E+00  0.00000000000E+00  0.10924832099E+04  0.10924832099E+04  0.25500000920E-02 0.  1.
        2   -1    0    0  501    0  0.00000000000E+00  0.00000000000E+00 -0.66115922788E+03  0.66115922789E+03  0.25500000920E-02 0. -1.
    10030    2    1    2    0    0  0.00000000000E+00  0.00000000000E+00  0.43132398202E+03  0.17536424378E+04  0.16997709911E+04 0.  0.
        1    1    3    3  502    0  0.83237095683E+03  0.16421857159E+03  0.26720750655E+03  0.88949929770E+03  0.50400001928E-02 0.  1.
       -1    1    3    3    0  502 -0.83237095683E+03 -0.16421857159E+03  0.16411647547E+03  0.86414314009E+03  0.50400001928E-02 0. -1.
</event>
<event>
 5   0  0.1423543E-05  0.1698335E+04  0.7818609E-02  0.8762315E-01
       -2   -1    0    0    0  501  0.00000000000E+00  0.00000000000E+00  0.51984963699E+03  0.51984963699E+03  0.25500000920E-02 0.  1.
        2   -1    0    0  501    0  0.00000000000E+00  0.00000000000E+00 -0.13871033164E+04  0.13871033164E+04  0.25500000920E-02 0. -1.
    10030    2    1    2    0    0  0.00000000000E+00  0.00000000000E+00 -0.86725367942E+03  0.19069529534E+04  0.16983346614E+04 0.  0.
        3    1    3    3  502    0 -0.67181838752E+03 -0.28877576716E+03 -0.91834108167E+03  0.11739172637E+04  0.10100000352E+00 0. -1.
       -3    1    3    3    0  502  0.67181838752E+03  0.28877576716E+03  0.51087402255E+02  0.73303568971E+03  0.10100000352E+00 0.  1.
</event>
<event>
 5   0  0.7476457E-06  0.1700233E+04  0.7818609E-02  0.8761231E-01
        1   -1    0    0  501    0  0.00000000000E+00  0.00000000000E+00  0.15635959221E+04  0.15635959221E+04  0.50400001928E-02 0. -1.
       -1   -1    0    0    0  501  0.00000000000E+00  0.00000000000E+00 -0.46220276129E+03  0.46220276132E+03  0.50400001928E-02 0.  1.
    10030    2    1    2    0    0  0.00000000000E+00  0.00000000000E+00  0.11013931608E+04  0.20257986834E+04  0.17002333402E+04 0.  0.
        2    1    3    3  502    0  0.34988188219E+02 -0.77995896107E+03  0.95146397948E+03  0.12307899327E+04  0.25500000920E-02 0. -1.
       -2    1    3    3    0  502 -0.34988188219E+02  0.77995896107E+03  0.14992918134E+03  0.79500875070E+03  0.25500000920E-02 0.  1.
</event>
<event>
 5   0  0.1423543E-05  0.1699206E+04  0.7818609E-02  0.8761817E-01
       -2   -1    0    0    0  501  0.00000000000E+00  0.00000000000E+00  0.50260618656E+03  0.50260618656E+03  0.25500000920E-02 0.  1.
        2   -1    0    0  501    0  0.00000000000E+00  0.00000000000E+00 -0.14361647685E+04  0.14361647685E+04  0.25500000920E-02 0. -1.
    10030    2    1    2    0    0  0.00000000000E+00  0.00000000000E+00 -0.93355858198E+03  0.19387709551E+04  0.16992060471E+04 0.  0.
        3    1    3    3  502    0 -0.33783248099E+03 -0.77915714998E+03 -0.49492809370E+03  0.98293971214E+03  0.10100000352E+00 0.  1.
       -3    1    3    3    0  502  0.33783248099E+03  0.77915714998E+03 -0.43863048828E+03  0.95583124296E+03  0.10100000352E+00 0. -1.
</event>
<event>
 5   0  0.1435301E-05  0.1699841E+04  0.7818609E-02  0.8761455E-01
       -2   -1    0    0    0  501  0.00000000000E+00  0.00000000000E+00  0.75880050223E+03  0.75880050224E+03  0.25500000920E-02 0. -1.
        2   -1    0    0  501    0  0.00000000000E+00  0.00000000000E+00 -0.95198308202E+03  0.95198308202E+03  0.25500000920E-02 0.  1.
    10030    2    1    2    0    0  0.00000000000E+00  0.00000000000E+00 -0.19318257979E+03  0.17107835843E+04  0.16998414523E+04 0.  0.
        2    1    3    3  502    0  0.19303577348E+03 -0.82150934908E+03 -0.19836005400E+03  0.86688357436E+03  0.25500000920E-02 0.  1.
       -2    1    3    3    0  502 -0.19303577348E+03  0.82150934908E+03  0.51774742124E+01  0.84390000990E+03  0.25500000920E-02 0. -1.
</event>
<event>
 5   0  0.1423543E-05  0.1699814E+04  0.7818609E-02  0.8761471E-01
       -2   -1    0    0    0  501  0.00000000000E+00  0.00000000000E+00  0.33942876611E+03  0.33942876612E+03  0.25500000920E-02 0.  1.
        2   -1    0    0  501    0  0.00000000000E+00  0.00000000000E+00 -0.21281102192E+04  0.21281102192E+04  0.25500000920E-02 0. -1.
    10030    2    1    2    0    0  0.00000000000E+00  0.00000000000E+00 -0.17886814531E+04  0.24675389853E+04  0.16998139026E+04 0.  0.
        3    1    3    3  502    0  0.53139895185E+02 -0.60270415638E+03 -0.27878504900E+02  0.60568421625E+03  0.10100000352E+00 0.  1.
       -3    1    3    3    0  502 -0.53139895185E+02  0.60270415638E+03 -0.17608029482E+04  0.18618547690E+04  0.10100000352E+00 0. -1.
</event>
<event>
 5   0  0.7583716E-06  0.1700103E+04  0.7818609E-02  0.8761305E-01
       -1   -1    0    0    0  501  0.00000000000E+00  0.00000000000E+00  0.54723990512E+03  0.54723990514E+03  0.50400001928E-02 0.  1.
        1   -1    0    0  501    0  0.00000000000E+00  0.00000000000E+00 -0.13204224727E+04  0.13204224727E+04  0.50400001928E-02 0. -1.
    10030    2    1    2    0    0  0.00000000000E+00  0.00000000000E+00 -0.77318256754E+03  0.18676623778E+04  0.17001033718E+04 0.  0.
        5    1    3    3  502    0  0.65426479398E+03  0.54210744983E+03 -0.41400841792E+03  0.94518144708E+03  0.46999998093E+01 0. -1.
       -5    1    3    3    0  502 -0.65426479398E+03 -0.54210744983E+03 -0.35917414962E+03  0.92248093073E+03  0.46999998093E+01 0.  1.
</event>
<event>
 5   0  0.7583716E-06  0.1702395E+04  0.7818609E-02  0.8759999E-01
        1   -1    0    0  501    0  0.00000000000E+00  0.00000000000E+00  0.10592098977E+04  0.10592098978E+04  0.50400001928E-02 0.  1.
       -1   -1    0    0    0  501  0.00000000000E+00  0.00000000000E+00 -0.68403586649E+03  0.68403586651E+03  0.50400001928E-02 0. -1.
    10030    2    1    2    0    0  0.00000000000E+00  0.00000000000E+00  0.37517403125E+03  0.17432457643E+04  0.17023954420E+04 0.  0.
        5    1    3    3  502    0 -0.73389210447E+03 -0.42795005847E+03  0.13362917372E+03  0.86001030204E+03  0.46999998093E+01 0. -1.
       -5    1    3    3    0  502  0.73389210447E+03  0.42795005847E+03  0.24154485754E+03  0.88323546223E+03  0.46999998093E+01 0.  1.
</event>
<event>
 5   0  0.1374441E-05  0.1700105E+04  0.7818609E-02  0.8761305E-01
       -2   -1    0    0    0  501  0.00000000000E+00  0.00000000000E+00  0.10371641084E+04  0.10371641084E+04  0.25500000920E-02 0.  1.
        2   -1    0    0  501    0  0.00000000000E+00  0.00000000000E+00 -0.69669689325E+03  0.69669689326E+03  0.25500000920E-02 0. -1.
    10030    2    1    2    0    0  0.00000000000E+00  0.00000000000E+00  0.34046721510E+03  0.17338610016E+04  0.17001047169E+04 0.  0.
        1    1    3    3  502    0 -0.22978481652E+03 -0.12877399252E+03  0.99449209131E+03  0.10287848768E+04  0.50400001928E-02 0.  1.
       -1    1    3    3    0  502  0.22978481652E+03  0.12877399252E+03 -0.65402487620E+03  0.70507612481E+03  0.50400001928E-02 0. -1.
</event>
<event>
 5   0  0.7476457E-06  0.1700170E+04  0.7818609E-02  0.8761267E-01
       -1   -1    0    0    0  501  0.00000000000E+00  0.00000000000E+00  0.29642578502E+03  0.29642578506E+03  0.50400001928E-02 0. -1.
        1   -1    0    0  501    0  0.00000000000E+00  0.00000000000E+00 -0.24378609799E+04  0.24378609799E+04  0.50400001928E-02 0.  1.
    10030    2    1    2    0    0  0.00000000000E+00  0.00000000000E+00 -0.21414351948E+04  0.27342867649E+04  0.17001704089E+04 0.  0.
        2    1    3    3  502    0  0.12780407488E+03 -0.21197865531E+03 -0.23786214840E+04  0.23914658676E+04  0.25500000920E-02 0.  1.
       -2    1    3    3    0  502 -0.12780407488E+03  0.21197865531E+03  0.23718628915E+03  0.34282089731E+03  0.25500000920E-02 0. -1.
</event>
<event>
 5   0  0.1435301E-05  0.1700083E+04  0.7818609E-02  0.8761317E-01
       -2   -1    0    0    0  501  0.00000000000E+00  0.00000000000E+00  0.36123507904E+03  0.36123507905E+03  0.25500000920E-02 0. -1.
        2   -1    0    0  501    0  0.00000000000E+00  0.00000000000E+00 -0.20002782620E+04  0.20002782620E+04  0.25500000920E-02 0.  1.
    10030    2    1    2    0    0  0.00000000000E+00  0.00000000000E+00 -0.16390431830E+04  0.23615133411E+04  0.17000831463E+04 0.  0.
        2    1    3    3  502    0 -0.35426960557E+02  0.95590359943E+02 -0.19917562173E+04  0.19943634111E+04  0.25500000920E-02 0.  1.
       -2    1    3    3    0  502  0.35426960557E+02 -0.95590359943E+02  0.35271303434E+03  0.36714992993E+03  0.25500000920E-02 0. -1.
</event>
<event>
 5   0  0.7082527E-06  0.1699528E+04  0.7818609E-02  0.8761634E-01
       -1   -1    0    0    0  501  0.00000000000E+00  0.00000000000E+00  0.63508050980E+03  0.63508050982E+03  0.50400001928E-02 0. -1.
        1   -1    0    0  501    0  0.00000000000E+00  0.00000000000E+00 -0.11370192787E+04  0.11370192787E+04  0.50400001928E-02 0.  1.
    10030    2    1    2    0    0  0.00000000000E+00  0.00000000000E+00 -0.50193876893E+03  0.17720997886E+04  0.16995279147E+04 0.  0.
        1    1    3    3  502    0 -0.60460636100E+02  0.41707929266E+03 -0.10203727666E+04  0.11039797134E+04  0.50400001928E-02 0.  1.
       -1    1    3    3    0  502  0.60460636100E+02 -0.41707929266E+03  0.51843399763E+03  0.66812007514E+03  0.50400001928E-02 0. -1.
</event>
<event>
 5   0  0.1419012E-05  0.1700220E+04  0.7818609E-02  0.8761239E-01
        2   -1    0    0  501    0  0.00000000000E+00  0.00000000000E+00  0.17500631809E+04  0.17500631809E+04  0.25500000920E-02 0. -1.
       -2   -1    0    0    0  501  0.00000000000E+00  0.00000000000E+00 -0.41294921058E+03  0.41294921059E+03  0.25500000920E-02 0.  1.
    10030    2    1    2    0    0  0.00000000000E+00  0.00000000000E+00  0.13371139703E+04  0.21630123915E+04  0.17002202317E+04 0.  0.
        4    1    3    3  502    0 -0.80610514783E+03  0.63761818536E+02  0.33482805090E+03  0.87520427068E+03  0.12699999809E+01 0.  1.
       -4    1    3    3    0  502  0.80610514783E+03 -0.63761818536E+02  0.10022859194E+04  0.12878081208E+04  0.12699999809E+01 0. -1.
</event>
<event>
 5   0  0.7455669E-06  0.1698883E+04  0.7818609E-02  0.8762002E-01
        1   -1    0    0  501    0  0.00000000000E+00  0.00000000000E+00  0.11775095228E+04  0.11775095228E+04  0.50400001928E-02 0.  1.
       -1   -1    0    0    0  501  0.00000000000E+00  0.00000000000E+00 -0.61277696292E+03  0.61277696294E+03  0.50400001928E-02 0. -1.
    10030    2    1    2    0    0  0.00000000000E+00  0.00000000000E+00  0.56473255991E+03  0.17902864858E+04  0.16988828202E+04 0.  0.
        4    1    3    3  502    0 -0.73075343568E+03 -0.50111203109E+02  0.73566954150E+03  0.10381343861E+04  0.12699999809E+01 0.  1.
       -4    1    3    3    0  502  0.73075343568E+03  0.50111203109E+02 -0.17093698160E+03  0.75215209965E+03  0.12699999809E+01 0. -1.
</event>
<event>
 5   0  0.1441756E-05  0.1699912E+04  0.7818609E-02  0.8761414E-01
       -2   -1    0    0    0  501  0.00000000000E+00  0.00000000000E+00  0.99563112481E+03  0.99563112481E+03  0.25500000920E-02 0. -1.
        2   -1    0    0  501    0  0.00000000000E+00  0.00000000000E+00 -0.72559539257E+03  0.72559539257E+03  0.25500000920E-02 0.  1.
    10030    2    1    2    0    0  0.00000000000E+00  0.00000000000E+00  0.27003573224E+03  0.17212265174E+04  0.16999121823E+04 0.  0.
        5    1    3    3  502    0 -0.14492963754E+03  0.72372666782E+03 -0.29171440888E+03  0.79366509052E+03  0.46999998093E+01 0. -1.
       -5    1    3    3    0  502  0.14492963754E+03 -0.72372666782E+03  0.56175014112E+03  0.92756142686E+03  0.46999998093E+01 0.  1.
</event>
<event>
 5   0  0.7455669E-06  0.1700030E+04  0.7818609E-02  0.8761347E-01
        1   -1    0    0  501    0  0.00000000000E+00  0.00000000000E+00  0.16222276469E+04  0.16222276469E+04  0.50400001928E-02 0. -1.
       -1   -1    0    0    0  501  0.00000000000E+00  0.00000000000E+00 -0.44539109564E+03  0.44539109567E+03  0.50400001928E-02 0.  1.
    10030    2    1    2    0    0  0.00000000000E+00  0.00000000000E+00  0.11768365512E+04  0.20676187426E+04  0.17000302927E+04 0.  0.
        4    1    3    3  502    0  0.74152766702E+03  0.39524971720E+03  0.74435381542E+03  0.11225639560E+04  0.12699999809E+01 0. -1.
       -4    1    3    3    0  502 -0.74152766702E+03 -0.39524971720E+03  0.43248273581E+03  0.94505478655E+03  0.12699999809E+01 0.  1.
</event>
<event>
 5   0  0.7583716E-06  0.1699884E+04  0.7818609E-02  0.8761430E-01
        1   -1    0    0  501    0  0.00000000000E+00  0.00000000000E+00  0.62923294021E+03  0.62923294023E+03  0.50400001928E-02 0.  1.
       -1   -1    0    0    0  501  0.00000000000E+00  0.00000000000E+00 -0.11480667790E+04  0.11480667790E+04  0.50400001928E-02 0. -1.
    10030    2    1    2    0    0  0.00000000000E+00  0.00000000000E+00 -0.51883383874E+03  0.17772997192E+04  0.16998840371E+04 0.  0.
        5    1    3    3  502    0  0.18036285931E+02 -0.70327719492E+03  0.23922563075E+03  0.74308486252E+03  0.46999998093E+01 0.  1.
       -5    1    3    3    0  502 -0.18036285931E+02  0.70327719492E+03 -0.75805946949E+03  0.10342148567E+04  0.46999998093E+01 0. -1.
</event>
<event>
 5   0  0.1374441E-05  0.1699843E+04  0.7818609E-02  0.8761454E-01
        2   -1    0    0  501    0  0.00000000000E+00  0.00000000000E+00  0.12059161122E+04  0.12059161122E+04  0.25500000920E-02 0. -1.
       -2   -1    0    0    0  501  0.00000000000E+00  0.00000000000E+00 -0.59901907975E+03  0.59901907976E+03  0.25500000920E-02 0.  1.
    10030    2    1    2    0    0  0.00000000000E+00  0.00000000000E+00  0.60689703247E+03  0.18049351920E+04  0.16998432396E+04 0.  0.
        1    1    3    3  502    0  0.25970696719E+03  0.36830931002E+03 -0.46170438432E+03  0.64519020077E+03  0.50400001928E-02 0.  1.
       -1    1    3    3    0  502 -0.25970696719E+03 -0.36830931002E+03  0.10686014168E+04  0.11597449912E+04  0.50400001928E-02 0. -1.
</event>
<event>
 5   0  0.7461128E-06  0.1700162E+04  0.7818609E-02  0.8761272E-01
        1   -1    0    0  501    0  0.00000000000E+00  0.00000000000E+00  0.76158664391E+03  0.76158664392E+03  0.50400001928E-02 0. -1.
       -1   -1    0    0    0  501  0.00000000000E+00  0.00000000000E+00 -0.94885811281E+03  0.94885811282E+03  0.50400001928E-02 0.  1.
    10030    2    1    2    0    0  0.00000000000E+00  0.00000000000E+00 -0.18727146890E+03  0.17104447567E+04  0.17001619519E+04 0.  0.
        3    1    3    3  502    0  0.54325220389E+02 -0.21168789310E+03 -0.92011187536E+03  0.94571077346E+03  0.10100000352E+00 0.  1.
       -3    1    3    3    0  502 -0.54325220389E+02  0.21168789310E+03  0.73284040646E+03  0.76473398329E+03  0.10100000352E+00 0. -1.
</event>
<event>
 5   0  0.1374441E-05  0.1700042E+04  0.7818609E-02  0.8761340E-01
       -2   -1    0    0    0  501  0.00000000000E+00  0.00000000000E+00  0.29932425966E+03  0.29932425968E+03  0.25500000920E-02 0.  1.
        2   -1    0    0  501    0  0.00000000000E+00  0.00000000000E+00 -0.24138907027E+04  0.24138907027E+04  0.25500000920E-02 0. -1.
    10030    2    1    2    0    0  0.00000000000E+00  0.00000000000E+00 -0.21145664430E+04  0.27132149624E+04  0.17000424083E+04 0.  0.
        1    1    3    3  502    0  0.83790702233E+03  0.12866866485E+03 -0.95771414411E+03  0.12790075001E+04  0.50400001928E-02 0. -1.
       -1    1    3    3    0  502 -0.83790702233E+03 -0.12866866485E+03 -0.11568522989E+04  0.14342074623E+04  0.50400001928E-02 0.  1.
</event>
<event>
 5   0  0.7461128E-06  0.1700325E+04  0.7818609E-02  0.8761179E-01
       -1   -1    0    0    0  501  0.00000000000E+00  0.00000000000E+00  0.11626563847E+04  0.11626563847E+04  0.50400001928E-02 0. -1.
        1   -1    0    0  501    0  0.00000000000E+00  0.00000000000E+00 -0.62165971160E+03  0.62165971162E+03  0.50400001928E-02 0.  1.
    10030    2    1    2    0    0  0.00000000000E+00  0.00000000000E+00  0.54099667309E+03  0.17843160963E+04  0.17003254192E+04 0.  0.
        3    1    3    3  502    0 -0.44494794549E+03  0.26610897826E+03  0.97756441155E+03  0.11065373249E+04  0.10100000352E+00 0. -1.
       -3    1    3    3    0  502  0.44494794549E+03 -0.26610897826E+03 -0.43656773846E+03  0.67777877141E+03  0.10100000352E+00 0.  1.
</event>
<event>
 5   0  0.7583716E-06  0.1699866E+04  0.7818609E-02  0.8761441E-01
        1   -1    0    0  501    0  0.00000000000E+00  0.00000000000E+00  0.24423550599E+04  0.24423550600E+04  0.50400001928E-02 0. -1.
       -1   -1    0    0    0  501  0.00000000000E+00  0.00000000000E+00 -0.29577456311E+03  0.29577456315E+03  0.50400001928E-02 0.  1.
    10030    2    1    2    0    0  0.00000000000E+00  0.00000000000E+00  0.21465804968E+04  0.27381296231E+04  0.16998664664E+04 0.  0.
        5    1    3    3  502    0 -0.33055415801E+03  0.57178394765E+03  0.21161269183E+03  0.69354520798E+03  0.46999998093E+01 0. -1.
       -5    1    3    3    0  502  0.33055415801E+03 -0.57178394765E+03  0.19349678050E+04  0.20445844151E+04  0.46999998093E+01 0.  1.
</event>
<event>
 5   0  0.1419012E-05  0.1700687E+04  0.7818609E-02  0.8760973E-01
        2   -1    0    0  501    0  0.00000000000E+00  0.00000000000E+00  0.19933461275E+04  0.19933461275E+04  0.25500000920E-02 0.  1.
       -2   -1    0    0    0  501  0.00000000000E+00  0.00000000000E+00 -0.36274876469E+03  0.36274876470E+03  0.25500000920E-02 0. -1.
    10030    2    1    2    0    0  0.00000000000E+00  0.00000000000E+00  0.16305973628E+04  0.23560948922E+04  0.17006867382E+04 0.  0.
        4    1    3    3  502    0 -0.20360614343E+03  0.52188219589E+03 -0.70981729702E+02  0.56467380573E+03  0.12699999809E+01 0. -1.
       -4    1    3    3    0  502  0.20360614343E+03 -0.52188219589E+03  0.17015790925E+04  0.17914210864E+04  0.12699999809E+01 0.  1.
</event>
<event>
 5   0  0.1435301E-05  0.1696960E+04  0.7818609E-02  0.8763100E-01
       -2   -1    0    0    0  501  0.00000000000E+00  0.00000000000E+00  0.50705727928E+03  0.50705727929E+03  0.25500000920E-02 0.  1.
        2   -1    0    0  501    0  0.00000000000E+00  0.00000000000E+00 -0.14197966596E+04  0.14197966596E+04  0.25500000920E-02 0. -1.
    10030    2    1    2    0    0  0.00000000000E+00  0.00000000000E+00 -0.91273938032E+03  0.19268539389E+04  0.16969599069E+04 0.  0.
        2    1    3    3  502    0 -0.18203512254E+03  0.31179927762E+02 -0.13966966443E+04  0.14088543182E+04  0.25500000920E-02 0. -1.
       -2    1    3    3    0  502  0.18203512254E+03 -0.31179927762E+02  0.48395726395E+03  0.51799962072E+03  0.25500000920E-02 0.  1.
</event>
<event>
 5   0  0.7455669E-06  0.1699565E+04  0.7818609E-02  0.8761612E-01
       -1   -1    0    0    0  501  0.00000000000E+00  0.00000000000E+00  0.49720094704E+03  0.49720094707E+03  0.50400001928E-02 0.  1.
        1   -1    0    0  501    0  0.00000000000E+00  0.00000000000E+00 -0.14523919208E+04  0.14523919209E+04  0.50400001928E-02 0. -1.
    10030    2    1    2    0    0  0.00000000000E+00  0.00000000000E+00 -0.95519097381E+03  0.19495928679E+04  0.16995654016E+04 0.  0.
        4    1    3    3  502    0  0.33892545676E+03 -0.70701186047E+03 -0.10167706601E+03  0.79061752747E+03  0.12699999809E+01 0.  1.
       -4    1    3    3    0  502 -0.33892545676E+03  0.70701186047E+03 -0.85351390779E+03  0.11589753405E+04  0.12699999809E+01 0. -1.
</event>
<event>
 5   0  0.1441756E-05  0.1700747E+04  0.7818609E-02  0.8760938E-01
        2   -1    0    0  501    0  0.00000000000E+00  0.00000000000E+00  0.99039672538E+03  0.99039672538E+03  0.25500000920E-02 0. -1.
       -2   -1    0    0    0  501  0.00000000000E+00  0.00000000000E+00 -0.73014688930E+03  0.73014688931E+03  0.25500000920E-02 0.  1.
    10030    2    1    2    0    0  0.00000000000E+00  0.00000000000E+00  0.26024983607E+03  0.17205436147E+04  0.17007469985E+04 0.  0.
        5    1    3    3  502    0 -0.10640422089E+03 -0.31579186614E+03 -0.66132844119E+03  0.74055638413E+03  0.46999998093E+01 0.  1.
       -5    1    3    3    0  502  0.10640422089E+03  0.31579186614E+03  0.92157827726E+03  0.97998723056E+03  0.46999998093E+01 0. -1.
</event>
<event>
 5   0  0.7082527E-06  0.1702160E+04  0.7818609E-02  0.8760134E-01
       -1   -1    0    0    0  501  0.00000000000E+00  0.00000000000E+00  0.21208124797E+04  0.21208124797E+04  0.50400001928E-02 0. -1.
        1   -1    0    0  501    0  0.00000000000E+00  0.00000000000E+00 -0.34153748248E+03  0.34153748252E+03  0.50400001928E-02 0.  1.
    10030    2    1    2    0    0  0.00000000000E+00  0.00000000000E+00  0.17792749972E+04  0.24623499622E+04  0.17021597518E+04 0.  0.
        1    1    3    3  502    0 -0.30730550989E+03 -0.58521808520E+03  0.16651842919E+04  0.17915790827E+04  0.50400001928E-02 0. -1.
       -1    1    3    3    0  502  0.30730550989E+03  0.58521808520E+03  0.11409070525E+03  0.67077087944E+03  0.50400001928E-02 0.  1.
</event>
<event>
 5   0  0.1419012E-05  0.1697867E+04  0.7818609E-02  0.8762582E-01
        2   -1    0    0  501    0  0.00000000000E+00  0.00000000000E+00  0.17727897836E+04  0.17727897836E+04  0.25500000920E-02 0. -1.
       -2   -1    0    0    0  501  0.00000000000E+00  0.00000000000E+00 -0.40652743557E+03  0.40652743558E+03  0.25500000920E-02 0.  1.
    10030    2    1    2    0    0  0.00000000000E+00  0.00000000000E+00  0.13662623480E+04  0.21793172192E+04  0.16978665254E+04 0.  0.
        4    1    3    3  502    0  0.67571659864E+03 -0.20621952081E+03  0.78947328566E+02  0.71088234331E+03  0.12699999809E+01 0. -1.
       -4    1    3    3    0  502 -0.67571659864E+03  0.20621952081E+03  0.12873150195E+04  0.14684348759E+04  0.12699999809E+01 0.  1.
</event>
<event>
 5   0  0.7476457E-06  0.1699100E+04  0.7818609E-02  0.8761878E-01
        1   -1    0    0  501    0  0.00000000000E+00  0.00000000000E+00  0.18508252221E+04  0.18508252221E+04  0.50400001928E-02 0.  1.
       -1   -1    0    0    0  501  0.00000000000E+00  0.00000000000E+00 -0.38995304558E+03  0.38995304562E+03  0.50400001928E-02 0. -1.
    10030    2    1    2    0    0  0.00000000000E+00  0.00000000000E+00  0.14608721765E+04  0.22407782677E+04  0.16990996819E+04 0.  0.
        2    1    3    3  502    0 -0.37452766082E+03  0.42743031930E+03  0.15632343046E+04  0.16633307361E+04  0.25500000920E-02 0.  1.
       -2    1    3    3    0  502  0.37452766082E+03 -0.42743031930E+03 -0.10236212803E+03  0.57744753167E+03  0.25500000920E-02 0. -1.
</event>
<event>
 5   0  0.7476457E-06  0.1699407E+04  0.7818609E-02  0.8761703E-01
       -1   -1    0    0    0  501  0.00000000000E+00  0.00000000000E+00  0.43524809323E+03  0.43524809326E+03  0.50400001928E-02 0.  1.
        1   -1    0    0  501    0  0.00000000000E+00  0.00000000000E+00 -0.16588144506E+04  0.16588144506E+04  0.50400001928E-02 0. -1.
    10030    2    1    2    0    0  0.00000000000E+00  0.00000000000E+00 -0.12235663574E+04  0.20940625439E+04  0.16994067514E+04 0.  0.
        2    1    3    3  502    0 -0.15674426149E+03  0.27160893486E+03  0.36133310501E+03  0.47843681901E+03  0.25500000920E-02 0.  1.
       -2    1    3    3    0  502  0.15674426149E+03 -0.27160893486E+03 -0.15848994624E+04  0.16156257249E+04  0.25500000920E-02 0. -1.
</event>
<event>
 5   0  0.1435301E-05  0.1699712E+04  0.7818609E-02  0.8761529E-01
       -2   -1    0    0    0  501  0.00000000000E+00  0.00000000000E+00  0.33325461988E+03  0.33325461989E+03  0.25500000920E-02 0. -1.
        2   -1    0    0  501    0  0.00000000000E+00  0.00000000000E+00 -0.21672777128E+04  0.21672777128E+04  0.25500000920E-02 0.  1.
    10030    2    1    2    0    0  0.00000000000E+00  0.00000000000E+00 -0.18340230929E+04  0.25005323327E+04  0.16997121055E+04 0.  0.
        2    1    3    3  502    0 -0.80915181401E+03  0.25660407012E+03 -0.85665844302E+03  0.12059999979E+04  0.25500000920E-02 0.  1.
       -2    1    3    3    0  502  0.80915181401E+03 -0.25660407012E+03 -0.97736464985E+03  0.12945323347E+04  0.25500000920E-02 0. -1.
</event>
<event>
 5   0  0.7583716E-06  0.1699839E+04  0.7818609E-02  0.8761456E-01
       -1   -1    0    0    0  501  0.00000000000E+00  0.00000000000E+00  0.73043517155E+03  0.73043517157E+03  0.50400001928E-02 0.  1.
        1   -1    0    0  501    0  0.00000000000E+00  0.00000000000E+00 -0.98894943935E+03  0.98894943936E+03  0.50400001928E-02 0. -1.
    10030    2    1    2    0    0  0.00000000000E+00  0.00000000000E+00 -0.25851426780E+03  0.17193846109E+04  0.16998393494E+04 0.  0.
        5    1    3    3  502    0 -0.35504045768E+03  0.45165567438E+03 -0.76279332074E+03  0.95494623668E+03  0.46999998093E+01 0. -1.
       -5    1    3    3    0  502  0.35504045768E+03 -0.45165567438E+03  0.50427905294E+03  0.76443837425E+03  0.46999998093E+01 0.  1.
</event>
<event>
 5   0  0.7455669E-06  0.1699849E+04  0.7818609E-02  0.8761451E-01
        1   -1    0    0  501    0  0.00000000000E+00  0.00000000000E+00  0.10844767165E+04  0.10844767165E+04  0.50400001928E-02 0. -1.
       -1   -1    0    0    0  501  0.00000000000E+00  0.00000000000E+00 -0.66610142450E+03  0.66610142452E+03  0.50400001928E-02 0.  1.
    10030    2    1    2    0    0  0.00000000000E+00  0.00000000000E+00  0.41837529196E+03  0.17505781410E+04  0.16998488000E+04 0.  0.
        4    1    3    3  502    0  0.83806855313E+01  0.23814084025E+03  0.10493711264E+04  0.10760867388E+04  0.12699999809E+01 0. -1.
       -4    1    3    3    0  502 -0.83806855313E+01 -0.23814084025E+03 -0.63099583441E+03  0.67449140219E+03  0.12699999809E+01 0.  1.
</event>
<event>
 5   0  0.7583716E-06  0.1700078E+04  0.7818609E-02  0.8761320E-01
       -1   -1    0    0    0  501  0.00000000000E+00  0.00000000000E+00  0.50968462283E+03  0.50968462286E+03  0.50400001928E-02 0. -1.
        1   -1    0    0  501    0  0.00000000000E+00  0.00000000000E+00 -0.14176728613E+04  0.14176728613E+04  0.50400001928E-02 0.  1.
    10030    2    1    2    0    0  0.00000000000E+00  0.00000000000E+00 -0.90798823848E+03  0.19273574842E+04  0.17000777131E+04 0.  0.
        5    1    3    3  502    0  0.47150288052E+03  0.22677849099E+03 -0.12134808227E+04  0.13214769190E+04  0.46999998093E+01 0.  1.
       -5    1    3    3    0  502 -0.47150288052E+03 -0.22677849099E+03  0.30549258420E+03  0.60588056522E+03  0.46999998093E+01 0. -1.
</event>
<event>
 5   0  0.1435301E-05  0.1699434E+04  0.7818609E-02  0.8761687E-01
       -2   -1    0    0    0  501  0.00000000000E+00  0.00000000000E+00  0.62629242476E+03  0.62629242477E+03  0.25500000920E-02 0.  1.
        2   -1    0    0  501    0  0.00000000000E+00  0.00000000000E+00 -0.11528460358E+04  0.11528460358E+04  0.25500000920E-02 0. -1.
    10030    2    1    2    0    0  0.00000000000E+00  0.00000000000E+00 -0.52655361100E+03  0.17791384605E+04  0.16994337164E+04 0.  0.
        2    1    3    3  502    0 -0.70503767896E+02 -0.81224002824E+03 -0.12644969795E+02  0.81539226145E+03  0.25500000920E-02 0.  1.
       -2    1    3    3    0  502  0.70503767896E+02  0.81224002824E+03 -0.51390864121E+03  0.96374619910E+03  0.25500000920E-02 0. -1.
</event>
<event>
 5   0  0.1435301E-05  0.1699597E+04  0.7818609E-02  0.8761594E-01
        2   -1    0    0  501    0  0.00000000000E+00  0.00000000000E+00  0.17200277021E+04  0.17200277021E+04  0.25500000920E-02 0.  1.
       -2   -1    0    0    0  501  0.00000000000E+00  0.00000000000E+00 -0.41985241727E+03  0.41985241728E+03  0.25500000920E-02 0. -1.
    10030    2    1    2    0    0  0.00000000000E+00  0.00000000000E+00  0.13001752849E+04  0.21398801194E+04  0.16995973506E+04 0.  0.
        2    1    3    3  502    0  0.73837482604E+03 -0.37734987027E+03  0.88417462304E+03  0.12121695724E+04  0.25500000920E-02 0. -1.
       -2    1    3    3    0  502 -0.73837482604E+03  0.37734987027E+03  0.41600066181E+03  0.92771054696E+03  0.25500000920E-02 0.  1.
</event>
<event>
 5   0  0.7082527E-06  0.1700285E+04  0.7818609E-02  0.8761202E-01
       -1   -1    0    0    0  501  0.00000000000E+00  0.00000000000E+00  0.78412326306E+03  0.78412326307E+03  0.50400001928E-02 0. -1.
        1   -1    0    0  501    0  0.00000000000E+00  0.00000000000E+00 -0.92172009528E+03  0.92172009529E+03  0.50400001928E-02 0.  1.
    10030    2    1    2    0    0  0.00000000000E+00  0.00000000000E+00 -0.13759683222E+03  0.17058433584E+04  0.17002848806E+04 0.  0.
        1    1    3    3  502    0  0.45094230973E+03  0.45393100214E+02  0.65281135959E+03  0.79471515116E+03  0.50400001928E-02 0. -1.
       -1    1    3    3    0  502 -0.45094230973E+03 -0.45393100214E+02 -0.79040819181E+03  0.91112820720E+03  0.50400001928E-02 0.  1.
</event>
<event>
 5   0  0.1423543E-05  0.1699168E+04  0.7818609E-02  0.8761839E-01
       -2   -1    0    0    0  501  0.00000000000E+00  0.00000000000E+00  0.11218156531E+04  0.11218156531E+04  0.25500000920E-02 0.  1.
        2   -1    0    0  501    0  0.00000000000E+00  0.00000000000E+00 -0.64341483907E+03  0.64341483907E+03  0.25500000920E-02 0. -1.
    10030    2    1    2    0    0  0.00000000000E+00  0.00000000000E+00  0.47840081404E+03  0.17652304922E+04  0.16991678409E+04 0.  0.
        3    1    3    3  502    0 -0.77375169796E+02 -0.73759042595E+02  0.11148010581E+04  0.11199146051E+04  0.10100000352E+00 0.  1.
       -3    1    3    3    0  502  0.77375169796E+02  0.73759042595E+02 -0.63640024409E+03  0.64531588710E+03  0.10100000352E+00 0. -1.
</event>
<event>
 5   0  0.1423543E-05  0.1699823E+04  0.7818609E-02  0.8761466E-01
       -2   -1    0    0    0  501  0.00000000000E+00  0.00000000000E+00  0.12254069176E+04  0.12254069176E+04  0.25500000920E-02 0.  1.
        2   -1    0    0  501    0  0.00000000000E+00  0.00000000000E+00 -0.58947697246E+03  0.58947697247E+03  0.25500000920E-02 0. -1.
    10030    2    1    2    0    0  0.00000000000E+00  0.00000000000E+00  0.63592994516E+03  0.18148838901E+04  0.16998225317E+04 0.  0.
        3    1    3    3  502    0 -0.12021795024E+03 -0.40116924997E+03  0.11075939148E+04  0.11841255900E+04  0.10100000352E+00 0.  1.
       -3    1    3    3    0  502  0.12021795024E+03  0.40116924997E+03 -0.47166396961E+03  0.63075830008E+03  0.10100000352E+00 0. -1.
</event>
<event>
 5   0  0.1419012E-05  0.1700368E+04  0.7818609E-02  0.8761154E-01
       -2   -1    0    0    0  501  0.00000000000E+00  0.00000000000E+00  0.14728548877E+04  0.14728548877E+04  0.25500000920E-02 0. -1.
        2   -1    0    0  501    0  0.00000000000E+00  0.00000000000E+00 -0.49075653465E+03  0.49075653466E+03  0.25500000920E-02 0.  1.
    10030    2    1    2    0    0  0.00000000000E+00  0.00000000000E+00  0.98209835305E+03  0.19636114224E+04  0.17003683845E+04 0.  0.
        4    1    3    3  502    0  0.15677883736E+03 -0.12091899833E+03  0.14458590545E+04  0.14593529479E+04  0.12699999809E+01 0. -1.
       -4    1    3    3    0  502 -0.15677883736E+03  0.12091899833E+03 -0.46376070146E+03  0.50425847451E+03  0.12699999809E+01 0.  1.
</event>
<event>
 5   0  0.7455669E-06  0.1699068E+04  0.7818609E-02  0.8761896E-01
        1   -1    0    0  501    0  0.00000000000E+00  0.00000000000E+00  0.51340543324E+03  0.51340543327E+03  0.50400001928E-02 0.  1.
       -1   -1    0    0    0  501  0.00000000000E+00  0.00000000000E+00 -0.14057265592E+04  0.14057265592E+04  0.50400001928E-02 0. -1.
    10030    2    1    2    0    0  0.00000000000E+00  0.00000000000E+00 -0.89232112596E+03  0.19191319925E+04  0.16990675716E+04 0.  0.
        4    1    3    3  502    0  0.17630129929E+03  0.20410751636E+03 -0.13560832678E+04  0.13826443752E+04  0.12699999809E+01 0. -1.
       -4    1    3    3    0  502 -0.17630129929E+03 -0.20410751636E+03  0.46376214181E+03  0.53648761723E+03  0.12699999809E+01 0.  1.
</event>
<event>
 5   0  0.7455669E-06  0.1700179E+04  0.7818609E-02  0.8761262E-01
       -1   -1    0    0    0  501  0.00000000000E+00  0.00000000000E+00  0.50769686681E+03  0.50769686684E+03  0.50400001928E-02 0.  1.
        1   -1    0    0  501    0  0.00000000000E+00  0.00000000000E+00 -0.14233938071E+04  0.14233938071E+04  0.50400001928E-02 0. -1.
    10030    2    1    2    0    0  0.00000000000E+00  0.00000000000E+00 -0.91569694030E+03  0.19310906740E+04  0.17001794919E+04 0.  0.
        4    1    3    3  502    0 -0.53984275496E+03  0.21452142237E+03  0.24709091915E+03  0.63127266372E+03  0.12699999809E+01 0.  1.
       -4    1    3    3    0  502  0.53984275496E+03 -0.21452142237E+03 -0.11627878594E+04  0.12998180102E+04  0.12699999809E+01 0. -1.
</event>
<event>
 5   0  0.1441756E-05  0.1699635E+04  0.7818609E-02  0.8761572E-01
        2   -1    0    0  501    0  0.00000000000E+00  0.00000000000E+00  0.16334419509E+04  0.16334419509E+04  0.25500000920E-02 0.  1.
       -2   -1    0    0    0  501  0.00000000000E+00  0.00000000000E+00 -0.44212781775E+03  0.44212781775E+03  0.25500000920E-02 0. -1.
    10030    2    1    2    0    0  0.00000000000E+00  0.00000000000E+00  0.11913141332E+04  0.20755697687E+04  0.16996354023E+04 0.  0.
        5    1    3    3  502    0 -0.60307756628E+03  0.53058263303E+03  0.25690732177E+03  0.84335279889E+03  0.46999998093E+01 0. -1.
       -5    1    3    3    0  502  0.60307756628E+03 -0.53058263303E+03  0.93440681141E+03  0.12322169698E+04  0.46999998093E+01 0.  1.
</event>
<event>
 5   0  0.7455669E-06  0.1692378E+04  0.7818609E-02  0.8765723E-01
        1   -1    0    0  501    0  0.00000000000E+00  0.00000000000E+00  0.99633580895E+03  0.99633580896E+03  0.50400001928E-02 0. -1.
       -1   -1    0    0    0  501  0.00000000000E+00  0.00000000000E+00 -0.71866934432E+03  0.71866934433E+03  0.50400001928E-02 0.  1.
    10030    2    1    2    0    0  0.00000000000E+00  0.00000000000E+00  0.27766646463E+03  0.17150051533E+04  0.16923782114E+04 0.  0.
        4    1    3    3  502    0 -0.72019390213E+03  0.44313919749E+03  0.10706469742E+03  0.85235911877E+03  0.12699999809E+01 0.  1.
       -4    1    3    3    0  502  0.72019390213E+03 -0.44313919749E+03  0.17060176721E+03  0.86264603453E+03  0.12699999809E+01 0. -1.
</event>
<event>
 5   0  0.1423543E-05  0.1700540E+04  0.7818609E-02  0.8761057E-01
        2   -1    0    0  501    0  0.00000000000E+00  0.00000000000E+00  0.81867759055E+03  0.81867759055E+03  0.25500000920E-02 0.  1.
       -2   -1    0    0    0  501  0.00000000000E+00  0.00000000000E+00 -0.88308118281E+03  0.88308118282E+03  0.25500000920E-02 0. -1.
    10030    2    1    2    0    0  0.00000000000E+00  0.00000000000E+00 -0.64403592265E+02  0.17017587734E+04  0.17005396497E+04 0.  0.
        3    1    3    3  502    0 -0.67660684498E+03 -0.33075288099E+02  0.48204204287E+03  0.83141766799E+03  0.10100000352E+00 0.  1.
       -3    1    3    3    0  502  0.67660684498E+03  0.33075288099E+02 -0.54644563514E+03  0.87034110538E+03  0.10100000352E+00 0. -1.
</event>
<event>
 5   0  0.1423543E-05  0.1700286E+04  0.7818609E-02  0.8761202E-01
       -2   -1    0    0    0  501  0.00000000000E+00  0.00000000000E+00  0.10627319151E+04  0.10627319151E+04  0.25500000920E-02 0. -1.
        2   -1    0    0  501    0  0.00000000000E+00  0.00000000000E+00 -0.68008002870E+03  0.68008002871E+03  0.25500000920E-02 0.  1.
    10030    2    1    2    0    0  0.00000000000E+00  0.00000000000E+00  0.38265188639E+03  0.17428119438E+04  0.17002855658E+04 0.  0.
        3    1    3    3  502    0  0.20708528314E+03 -0.19230650121E+03 -0.63052390812E+03  0.69096057327E+03  0.10100000352E+00 0.  1.
       -3    1    3    3    0  502 -0.20708528314E+03  0.19230650121E+03  0.10131757945E+04  0.10518513705E+04  0.10100000352E+00 0. -1.
</event>
<event>
 5   0  0.7455669E-06  0.1700002E+04  0.7818609E-02  0.8761363E-01
       -1   -1    0    0    0  501  0.00000000000E+00  0.00000000000E+00  0.93163084116E+03  0.93163084118E+03  0.50400001928E-02 0.  1.
        1   -1    0    0  501    0  0.00000000000E+00  0.00000000000E+00 -0.77552391747E+03  0.77552391748E+03  0.50400001928E-02 0. -1.
    10030    2    1    2    0    0  0.00000000000E+00  0.00000000000E+00  0.15610692369E+03  0.17071547587E+04  0.17000023525E+04 0.  0.
        4    1    3    3  502    0 -0.58054972594E+02 -0.47258852316E+03 -0.62903262775E+03  0.78891948369E+03  0.12699999809E+01 0. -1.
       -4    1    3    3    0  502  0.58054972594E+02  0.47258852316E+03  0.78513955145E+03  0.91823527497E+03  0.12699999809E+01 0.  1.
</event>
<event>
 5   0  0.7461128E-06  0.1700529E+04  0.7818609E-02  0.8761063E-01
        1   -1    0    0  501    0  0.00000000000E+00  0.00000000000E+00  0.96230098634E+03  0.96230098635E+03  0.50400001928E-02 0.  1.
       -1   -1    0    0    0  501  0.00000000000E+00  0.00000000000E+00 -0.75127154725E+03  0.75127154727E+03  0.50400001928E-02 0. -1.
    10030    2    1    2    0    0  0.00000000000E+00  0.00000000000E+00  0.21102943909E+03  0.17135725336E+04  0.17005285660E+04 0.  0.
        3    1    3    3  502    0 -0.38015607024E+02 -0.10608598888E+03  0.95474242942E+03  0.96137013692E+03  0.10100000352E+00 0.  1.
       -3    1    3    3    0  502  0.38015607024E+02  0.10608598888E+03 -0.74371299034E+03  0.75220239671E+03  0.10100000352E+00 0. -1.
</event>
<event>
 5   0  0.7455669E-06  0.1700156E+04  0.7818609E-02  0.8761275E-01
       -1   -1    0    0    0  501  0.00000000000E+00  0.00000000000E+00  0.80067867747E+03  0.80067867748E+03  0.50400001928E-02 0.  1.
        1   -1    0    0  501    0  0.00000000000E+00  0.00000000000E+00 -0.90252538583E+03  0.90252538585E+03  0.50400001928E-02 0. -1.
    10030    2    1    2    0    0  0.00000000000E+00  0.00000000000E+00 -0.10184670836E+03  0.17032040633E+04  0.17001562662E+04 0.  0.
        4    1    3    3  502    0  0.15685318990E+03  0.83497865425E+03 -0.21906914634E+02  0.84986693197E+03  0.12699999809E+01 0. -1.
       -4    1    3    3    0  502 -0.15685318990E+03 -0.83497865425E+03 -0.79939793731E+02  0.85333713136E+03  0.12699999809E+01 0.  1.
</event>
<event>
 5   0  0.1441756E-05  0.1700298E+04  0.7818609E-02  0.8761195E-01
       -2   -1    0    0    0  501  0.00000000000E+00  0.00000000000E+00  0.68437499562E+03  0.68437499562E+03  0.25500000920E-02 0. -1.
        2   -1    0    0  501    0  0.00000000000E+00  0.00000000000E+00 -0.10560775971E+04  0.10560775971E+04  0.25500000920E-02 0.  1.
    10030    2    1    2    0    0  0.00000000000E+00  0.00000000000E+00 -0.37170260146E+03  0.17404525927E+04  0.17002977397E+04 0.  0.
        5    1    3    3  502    0  0.41368571740E+03 -0.51313736070E+03 -0.73545340224E+03  0.98760296708E+03  0.46999998093E+01 0.  1.
       -5    1    3    3    0  502 -0.41368571740E+03  0.51313736070E+03  0.36375080078E+03  0.75284962562E+03  0.46999998093E+01 0. -1.
</event>
<event>
 5   0  0.7455669E-06  0.1700097E+04  0.7818609E-02  0.8761309E-01
       -1   -1    0    0    0  501  0.00000000000E+00  0.00000000000E+00  0.38770193090E+03  0.38770193094E+03  0.50400001928E-02 0.  1.
        1   -1    0    0  501    0  0.00000000000E+00  0.00000000000E+00 -0.18637587372E+04  0.18637587372E+04  0.50400001928E-02 0. -1.
    10030    2    1    2    0    0  0.00000000000E+00  0.00000000000E+00 -0.14760568062E+04  0.22514606681E+04  0.17000974809E+04 0.  0.
        4    1    3    3  502    0 -0.19299145631E+03  0.43618668317E+03 -0.16698371752E+04  0.17366238307E+04  0.12699999809E+01 0.  1.
       -4    1    3    3    0  502  0.19299145631E+03 -0.43618668317E+03  0.19378036900E+03  0.51483683735E+03  0.12699999809E+01 0. -1.
</event>
<event>
 5   0  0.5229750E-06  0.1700461E+04  0.7818609E-02  0.8761101E-01
        3   -1    0    0  501    0  0.00000000000E+00  0.00000000000E+00  0.74700685124E+03  0.74700685806E+03  0.10100000352E+00 0. -1.
       -3   -1    0    0    0  501  0.00000000000E+00  0.00000000000E+00 -0.96771837551E+03  0.96771838078E+03  0.10100000352E+00 0.  1.
    10030    2    1    2    0    0  0.00000000000E+00  0.00000000000E+00 -0.22071152427E+03  0.17147252388E+04  0.17004614279E+04 0.  0.
        5    1    3    3  502    0  0.34271581293E+03 -0.40528194610E+03 -0.78012792791E+03  0.94357260355E+03  0.46999998093E+01 0.  1.
       -5    1    3    3    0  502 -0.34271581293E+03  0.40528194610E+03  0.55941640363E+03  0.77115263529E+03  0.46999998093E+01 0. -1.
</event>
<event>
 5   0  0.7476457E-06  0.1700085E+04  0.7818609E-02  0.8761316E-01
       -1   -1    0    0    0  501  0.00000000000E+00  0.00000000000E+00  0.13783188695E+04  0.13783188695E+04  0.50400001928E-02 0.  1.
        1   -1    0    0  501    0  0.00000000000E+00  0.00000000000E+00 -0.52424169870E+03  0.52424169873E+03  0.50400001928E-02 0. -1.
    10030    2    1    2    0    0  0.00000000000E+00  0.00000000000E+00  0.85407717077E+03  0.19025605682E+04  0.17000849691E+04 0.  0.
        2    1    3    3  502    0  0.17581586909E+03  0.83041587546E+03  0.47796033641E+03  0.97413953272E+03  0.25500000920E-02 0. -1.
       -2    1    3    3    0  502 -0.17581586909E+03 -0.83041587546E+03  0.37611683437E+03  0.92842103549E+03  0.25500000920E-02 0.  1.
</event>
<event>
 5   0  0.7583716E-06  0.1699865E+04  0.7818609E-02  0.8761441E-01
        1   -1    0    0  501    0  0.00000000000E+00  0.00000000000E+00  0.27484164570E+04  0.27484164570E+04  0.50400001928E-02 0.  1.
       -1   -1    0    0    0  501  0.00000000000E+00  0.00000000000E+00 -0.26283691253E+03  0.26283691258E+03  0.50400001928E-02 0. -1.
    10030    2    1    2    0    0  0.00000000000E+00  0.00000000000E+00  0.24855795444E+04  0.30112533695E+04  0.16998650487E+04 0.  0.
        5    1    3    3  502    0  0.80486445401E+03  0.22289151173E+03  0.96339305366E+03  0.12750041887E+04  0.46999998093E+01 0. -1.
       -5    1    3    3    0  502 -0.80486445401E+03 -0.22289151173E+03  0.15221864908E+04  0.17362491808E+04  0.46999998093E+01 0.  1.
</event>
<event>
 5   0  0.1435301E-05  0.1700172E+04  0.7818609E-02  0.8761266E-01
        2   -1    0    0  501    0  0.00000000000E+00  0.00000000000E+00  0.65593898412E+03  0.65593898413E+03  0.25500000920E-02 0.  1.
       -2   -1    0    0    0  501  0.00000000000E+00  0.00000000000E+00 -0.11016969222E+04  0.11016969222E+04  0.25500000920E-02 0. -1.
    10030    2    1    2    0    0  0.00000000000E+00  0.00000000000E+00 -0.44575793808E+03  0.17576359063E+04  0.17001717089E+04 0.  0.
        2    1    3    3  502    0  0.29129088469E+03 -0.67474384201E+03 -0.66453787512E+03  0.99082804729E+03  0.25500000920E-02 0. -1.
       -2    1    3    3    0  502 -0.29129088469E+03  0.67474384201E+03  0.21877993704E+03  0.76680785904E+03  0.25500000920E-02 0.  1.
</event>
<event>
 5   0  0.1419012E-05  0.1700414E+04  0.7818609E-02  0.8761128E-01
       -2   -1    0    0    0  501  0.00000000000E+00  0.00000000000E+00  0.46151831802E+03  0.46151831802E+03  0.25500000920E-02 0.  1.
        2   -1    0    0  501    0  0.00000000000E+00  0.00000000000E+00 -0.15662484196E+04  0.15662484196E+04  0.25500000920E-02 0. -1.
    10030    2    1    2    0    0  0.00000000000E+00  0.00000000000E+00 -0.11047301016E+04  0.20277667376E+04  0.17004144627E+04 0.  0.
        4    1    3    3  502    0 -0.48364301677E+03  0.36520992433E+03  0.15871876388E+03  0.62648393068E+03  0.12699999809E+01 0.  1.
       -4    1    3    3    0  502  0.48364301677E+03 -0.36520992433E+03 -0.12634488654E+04  0.14012828069E+04  0.12699999809E+01 0. -1.
</event>
<event>
 5   0  0.1423543E-05  0.1700730E+04  0.7818609E-02  0.8760948E-01
        2   -1    0    0  501    0  0.00000000000E+00  0.00000000000E+00  0.43360625011E+03  0.43360625012E+03  0.25500000920E-02 0.  1.
       -2   -1    0    0    0  501  0.00000000000E+00  0.00000000000E+00 -0.16676892322E+04  0.16676892322E+04  0.25500000920E-02 0. -1.
    10030    2    1    2    0    0  0.00000000000E+00  0.00000000000E+00 -0.12340829821E+04  0.21012954823E+04  0.17007298131E+04 0.  0.
        3    1    3    3  502    0 -0.76563414749E+03 -0.18191691060E+03 -0.10151628091E+04  0.12844629031E+04  0.10100000352E+00 0. -1.
       -3    1    3    3    0  502  0.76563414749E+03  0.18191691060E+03 -0.21892017295E+03  0.81683257923E+03  0.10100000352E+00 0.  1.
</event>
<event>
 5   0  0.7455669E-06  0.1699935E+04  0.7818609E-02  0.8761402E-01
       -1   -1    0    0    0  501  0.00000000000E+00  0.00000000000E+00  0.41410704803E+03  0.41410704806E+03  0.50400001928E-02 0.  1.
        1   -1    0    0  501    0  0.00000000000E+00  0.00000000000E+00 -0.17445838883E+04  0.17445838883E+04  0.50400001928E-02 0. -1.
    10030    2    1    2    0    0  0.00000000000E+00  0.00000000000E+00 -0.13304768403E+04  0.21586909364E+04  0.16999346859E+04 0.  0.
        4    1    3    3  502    0 -0.17378330561E+03  0.21099216201E+02 -0.17214418846E+04  0.17303206608E+04  0.12699999809E+01 0. -1.
       -4    1    3    3    0  502  0.17378330561E+03 -0.21099216201E+02  0.39096504431E+03  0.42837027559E+03  0.12699999809E+01 0.  1.
</event>
<event>
 5   0  0.7461128E-06  0.1699823E+04  0.7818609E-02  0.8761465E-01
        1   -1    0    0  501    0  0.00000000000E+00  0.00000000000E+00  0.81476245737E+03  0.81476245739E+03  0.50400001928E-02 0.  1.
       -1   -1    0    0    0  501  0.00000000000E+00  0.00000000000E+00 -0.88657720966E+03  0.88657720967E+03  0.50400001928E-02 0. -1.
    10030    2    1    2    0    0  0.00000000000E+00  0.00000000000E+00 -0.71814752288E+02  0.17013396671E+04  0.16998233155E+04 0.  0.
        3    1    3    3  502    0  0.34092706035E+03 -0.27174593102E+03  0.69431366623E+03  0.81984668617E+03  0.10100000352E+00 0.  1.
       -3    1    3    3    0  502 -0.34092706035E+03  0.27174593102E+03 -0.76612841852E+03  0.88149298089E+03  0.10100000352E+00 0. -1.
</event>
<event>
 5   0  0.7583716E-06  0.1698820E+04  0.7818609E-02  0.8762037E-01
       -1   -1    0    0    0  501  0.00000000000E+00  0.00000000000E+00  0.39461728984E+03  0.39461728987E+03  0.50400001928E-02 0. -1.
        1   -1    0    0  501    0  0.00000000000E+00  0.00000000000E+00 -0.18283479404E+04  0.18283479404E+04  0.50400001928E-02 0.  1.
    10030    2    1    2    0    0  0.00000000000E+00  0.00000000000E+00 -0.14337306506E+04  0.22229652303E+04  0.16988204251E+04 0.  0.
        5    1    3    3  502    0  0.67284540002E+03  0.26226930498E+01 -0.38509339453E+02  0.67396800374E+03  0.46999998093E+01 0. -1.
       -5    1    3    3    0  502 -0.67284540002E+03 -0.26226930498E+01 -0.13952213111E+04  0.15489972266E+04  0.46999998093E+01 0.  1.
</event>
<event>
 5   0  0.7583716E-06  0.1698932E+04  0.7818609E-02  0.8761974E-01
        1   -1    0    0  501    0  0.00000000000E+00  0.00000000000E+00  0.20697734274E+04  0.20697734274E+04  0.50400001928E-02 0.  1.
       -1   -1    0    0    0  501  0.00000000000E+00  0.00000000000E+00 -0.34863340902E+03  0.34863340906E+03  0.50400001928E-02 0. -1.
    10030    2    1    2    0    0  0.00000000000E+00  0.00000000000E+00  0.17211400184E+04  0.24184068365E+04  0.16989316242E+04 0.  0.
        5    1    3    3  502    0  0.50858701638E+03 -0.36985868890E+03  0.16734718341E+04  0.17877321590E+04  0.46999998093E+01 0.  1.
       -5    1    3    3    0  502 -0.50858701638E+03  0.36985868890E+03  0.47668184319E+02  0.63067467745E+03  0.46999998093E+01 0. -1.
</event>
<event>
 5   0  0.1435301E-05  0.1699477E+04  0.7818609E-02  0.8761662E-01
       -2   -1    0    0    0  501  0.00000000000E+00  0.00000000000E+00  0.29700044760E+03  0.29700044761E+03  0.25500000920E-02 0. -1.
        2   -1    0    0  501    0  0.00000000000E+00  0.00000000000E+00 -0.24311608064E+04  0.24311608064E+04  0.25500000920E-02 0.  1.
    10030    2    1    2    0    0  0.00000000000E+00  0.00000000000E+00 -0.21341603588E+04  0.27281612540E+04  0.16994773876E+04 0.  0.
        2    1    3    3  502    0  0.24142647666E+03  0.80316617804E+03 -0.12865609159E+04  0.15357739558E+04  0.25500000920E-02 0.  1.
       -2    1    3    3    0  502 -0.24142647666E+03 -0.80316617804E+03 -0.84759944292E+03  0.11923872982E+04  0.25500000920E-02 0. -1.
</event>
<event>
 5   0  0.1435301E-05  0.1700102E+04  0.7818609E-02  0.8761306E-01
       -2   -1    0    0    0  501  0.00000000000E+00  0.00000000000E+00  0.89408302767E+03  0.89408302768E+03  0.25500000920E-02 0. -1.
        2   -1    0    0  501    0  0.00000000000E+00  0.00000000000E+00 -0.80818721794E+03  0.80818721794E+03  0.25500000920E-02 0.  1.
    10030    2    1    2    0    0  0.00000000000E+00  0.00000000000E+00  0.85895809737E+02  0.17022702456E+04  0.17001017320E+04 0.  0.
        2    1    3    3  502    0 -0.34479000642E+03 -0.62665822321E+03 -0.41699168355E+03  0.82792677297E+03  0.25500000920E-02 0.  1.
       -2    1    3    3    0  502  0.34479000642E+03  0.62665822321E+03  0.50288749329E+03  0.87434347265E+03  0.25500000920E-02 0. -1.
</event>
<event>
 5   0  0.7461128E-06  0.1699489E+04  0.7818609E-02  0.8761656E-01
       -1   -1    0    0    0  501  0.00000000000E+00  0.00000000000E+00  0.41255608755E+03  0.41255608758E+03  0.50400001928E-02 0. -1.
        1   -1    0    0  501    0  0.00000000000E+00  0.00000000000E+00 -0.17502239095E+04  0.17502239095E+04  0.50400001928E-02 0.  1.
    10030    2    1    2    0    0  0.00000000000E+00  0.00000000000E+00 -0.13376678219E+04  0.21627799971E+04  0.16994887802E+04 0.  0.
        3    1    3    3  502    0  0.43292498420E+02  0.69644699926E+03 -0.12859532701E+04  0.14630750105E+04  0.10100000352E+00 0.  1.
       -3    1    3    3    0  502 -0.43292498420E+02 -0.69644699926E+03 -0.51714551837E+02  0.69970498660E+03  0.10100000352E+00 0. -1.
</event>
<event>
 5   0  0.7082527E-06  0.1699776E+04  0.7818609E-02  0.8761492E-01
       -1   -1    0    0    0  501  0.00000000000E+00  0.00000000000E+00  0.53196713501E+03  0.53196713504E+03  0.50400001928E-02 0. -1.
        1   -1    0    0  501    0  0.00000000000E+00  0.00000000000E+00 -0.13578089521E+04  0.13578089521E+04  0.50400001928E-02 0.  1.
    10030    2    1    2    0    0  0.00000000000E+00  0.00000000000E+00 -0.82584181712E+03  0.18897760872E+04  0.16997761478E+04 0.  0.
        1    1    3    3  502    0 -0.14085017770E+03  0.37447058884E+03  0.42072293659E+03  0.58058141881E+03  0.50400001928E-02 0. -1.
       -1    1    3    3    0  502  0.14085017770E+03 -0.37447058884E+03 -0.12465647537E+04  0.13091946684E+04  0.50400001928E-02 0.  1.
</event>
<event>
 5   0  0.1374441E-05  0.1700006E+04  0.7818609E-02  0.8761361E-01
        2   -1    0    0  501    0  0.00000000000E+00  0.00000000000E+00  0.13452947555E+04  0.13452947555E+04  0.25500000920E-02 0. -1.
       -2   -1    0    0    0  501  0.00000000000E+00  0.00000000000E+00 -0.53706108307E+03  0.53706108307E+03  0.25500000920E-02 0.  1.
    10030    2    1    2    0    0  0.00000000000E+00  0.00000000000E+00  0.80823367239E+03  0.18823558385E+04  0.17000064217E+04 0.  0.
        1    1    3    3  502    0 -0.25161436725E+03  0.74194459070E+03  0.39032090429E+02  0.78442021237E+03  0.50400001928E-02 0.  1.
       -1    1    3    3    0  502  0.25161436725E+03 -0.74194459070E+03  0.76920158196E+03  0.10979356262E+04  0.50400001928E-02 0. -1.
</event>
<event>
 5   0  0.1441756E-05  0.1699949E+04  0.7818609E-02  0.8761394E-01
        2   -1    0    0  501    0  0.00000000000E+00  0.00000000000E+00  0.75642253397E+03  0.75642253397E+03  0.25500000920E-02 0. -1.
       -2   -1    0    0    0  501  0.00000000000E+00  0.00000000000E+00 -0.95509653467E+03  0.95509653467E+03  0.25500000920E-02 0.  1.
    10030    2    1    2    0    0  0.00000000000E+00  0.00000000000E+00 -0.19867400070E+03  0.17115190686E+04  0.16999488709E+04 0.  0.
        5    1    3    3  502    0  0.31643557649E+02  0.63270983015E+03 -0.66986077847E+03  0.92198622357E+03  0.46999998093E+01 0.  1.
       -5    1    3    3    0  502 -0.31643557649E+02 -0.63270983015E+03  0.47118677777E+03  0.78953284508E+03  0.46999998093E+01 0. -1.
</event>
<event>
 5   0  0.7476457E-06  0.1699389E+04  0.7818609E-02  0.8761713E-01
       -1   -1    0    0    0  501  0.00000000000E+00  0.00000000000E+00  0.74860293229E+03  0.74860293230E+03  0.50400001928E-02 0. -1.
        1   -1    0    0  501    0  0.00000000000E+00  0.00000000000E+00 -0.96443771312E+03  0.96443771313E+03  0.50400001928E-02 0.  1.
    10030    2    1    2    0    0  0.00000000000E+00  0.00000000000E+00 -0.21583478083E+03  0.17130406454E+04  0.16993891845E+04 0.  0.
        2    1    3    3  502    0  0.79432349058E+03 -0.74710008023E+02 -0.40258309926E+03  0.89364676736E+03  0.25500000920E-02 0. -1.
       -2    1    3    3    0  502 -0.79432349058E+03  0.74710008023E+02  0.18674831842E+03  0.81939387808E+03  0.25500000920E-02 0.  1.
</event>
<event>
 5   0  0.7476457E-06  0.1695925E+04  0.7818609E-02  0.8763692E-01
        1   -1    0    0  501    0  0.00000000000E+00  0.00000000000E+00  0.10102122067E+04  0.10102122067E+04  0.50400001928E-02 0.  1.
       -1   -1    0    0    0  501  0.00000000000E+00  0.00000000000E+00 -0.71177132123E+03  0.71177132125E+03  0.50400001928E-02 0. -1.
    10030    2    1    2    0    0  0.00000000000E+00  0.00000000000E+00  0.29844088548E+03  0.17219835280E+04  0.16959246176E+04 0.  0.
        2    1    3    3  502    0 -0.20998511866E+03  0.36559340915E+02  0.98256888527E+03  0.10054212798E+04  0.25500000920E-02 0.  1.
       -2    1    3    3    0  502  0.20998511866E+03 -0.36559340915E+02 -0.68412799979E+03  0.71656224822E+03  0.25500000920E-02 0. -1.
</event>
<event>
 5   0  0.7461128E-06  0.1702086E+04  0.7818609E-02  0.8760175E-01
       -1   -1    0    0    0  501  0.00000000000E+00  0.00000000000E+00  0.16966618863E+04  0.16966618863E+04  0.50400001928E-02 0. -1.
        1   -1    0    0  501    0  0.00000000000E+00  0.00000000000E+00 -0.42688189246E+03  0.42688189249E+03  0.50400001928E-02 0.  1.
    10030    2    1    2    0    0  0.00000000000E+00  0.00000000000E+00  0.12697799938E+04  0.21235437788E+04  0.17020860577E+04 0.  0.
        3    1    3    3  502    0 -0.79181346831E+03 -0.30164528129E+03  0.73404012593E+03  0.11210590355E+04  0.10100000352E+00 0. -1.
       -3    1    3    3    0  502  0.79181346831E+03  0.30164528129E+03  0.53573986789E+03  0.10024847433E+04  0.10100000352E+00 0.  1.
</event>
<event>
 5   0  0.1423543E-05  0.1700447E+04  0.7818609E-02  0.8761110E-01
        2   -1    0    0  501    0  0.00000000000E+00  0.00000000000E+00  0.18268797326E+04  0.18268797326E+04  0.25500000920E-02 0. -1.
       -2   -1    0    0    0  501  0.00000000000E+00  0.00000000000E+00 -0.39569090356E+03  0.39569090357E+03  0.25500000920E-02 0.  1.
    10030    2    1    2    0    0  0.00000000000E+00  0.00000000000E+00  0.14311888290E+04  0.22225706361E+04  0.17004466379E+04 0.  0.
        3    1    3    3  502    0 -0.55420891893E+03 -0.63457033565E+03  0.86492261459E+03  0.12074428252E+04  0.10100000352E+00 0. -1.
       -3    1    3    3    0  502  0.55420891893E+03  0.63457033565E+03  0.56626621441E+03  0.10151278109E+04  0.10100000352E+00 0.  1.
</event>
<event>
 5   0  0.7583716E-06  0.1700041E+04  0.7818609E-02  0.8761341E-01
        1   -1    0    0  501    0  0.00000000000E+00  0.00000000000E+00  0.87036268509E+03  0.87036268510E+03  0.50400001928E-02 0.  1.
       -1   -1    0    0    0  501  0.00000000000E+00  0.00000000000E+00 -0.83015422658E+03  0.83015422659E+03  0.50400001928E-02 0. -1.
    10030    2    1    2    0    0  0.00000000000E+00  0.00000000000E+00  0.40208458509E+02  0.17005169117E+04  0.17000414839E+04 0.  0.
        5    1    3    3  502    0  0.31729816498E+03 -0.98058924747E+00 -0.76868087032E+03  0.83160775456E+03  0.46999998093E+01 0. -1.
       -5    1    3    3    0  502 -0.31729816498E+03  0.98058924747E+00  0.80888932883E+03  0.86890915713E+03  0.46999998093E+01 0.  1.
</event>
<event>
 5   0  0.7476457E-06  0.1699968E+04  0.7818609E-02  0.8761383E-01
        1   -1    0    0  501    0  0.00000000000E+00  0.00000000000E+00  0.57835844227E+03  0.57835844229E+03  0.50400001928E-02 0. -1.
       -1   -1    0    0    0  501  0.00000000000E+00  0.00000000000E+00 -0.12491780694E+04  0.12491780694E+04  0.50400001928E-02 0.  1.
    10030    2    1    2    0    0  0.00000000000E+00  0.00000000000E+00 -0.67081962717E+03  0.18275365117E+04  0.16999678613E+04 0.  0.
        2    1    3    3  502    0  0.79414151268E+03 -0.92060450354E+02 -0.64575413074E+03  0.10276839330E+04  0.25500000920E-02 0.  1.
       -2    1    3    3    0  502 -0.79414151268E+03  0.92060450354E+02 -0.25065496422E+02  0.79985257879E+03  0.25500000920E-02 0. -1.
</event>
<event>
 5   0  0.1423543E-05  0.1698869E+04  0.7818609E-02  0.8762010E-01
        2   -1    0    0  501    0  0.00000000000E+00  0.00000000000E+00  0.73864640589E+03  0.73864640590E+03  0.25500000920E-02 0.  1.
       -2   -1    0    0    0  501  0.00000000000E+00  0.00000000000E+00 -0.97683932794E+03  0.97683932794E+03  0.25500000920E-02 0. -1.
    10030    2    1    2    0    0  0.00000000000E+00  0.00000000000E+00 -0.23819292204E+03  0.17154857338E+04  0.16988688692E+04 0.  0.
        3    1    3    3  502    0  0.53545131272E+03 -0.49904297726E+03 -0.55434240714E+03  0.91817619007E+03  0.10100000352E+00 0. -1.
       -3    1    3    3    0  502 -0.53545131272E+03  0.49904297726E+03  0.31614948510E+03  0.79730954377E+03  0.10100000352E+00 0.  1.
</event>
<event>
 5   0  0.1441756E-05  0.1699014E+04  0.7818609E-02  0.8761927E-01
       -2   -1    0    0    0  501  0.00000000000E+00  0.00000000000E+00  0.47990266577E+03  0.47990266577E+03  0.25500000920E-02 0. -1.
        2   -1    0    0  501    0  0.00000000000E+00  0.00000000000E+00 -0.15037686031E+04  0.15037686031E+04  0.25500000920E-02 0.  1.
    10030    2    1    2    0    0  0.00000000000E+00  0.00000000000E+00 -0.10238659373E+04  0.19836712688E+04  0.16990144924E+04 0.  0.
        5    1    3    3  502    0  0.57423902226E+03  0.45317870482E+03 -0.76965031336E+01  0.73157550488E+03  0.46999998093E+01 0. -1.
       -5    1    3    3    0  502 -0.57423902226E+03 -0.45317870482E+03 -0.10161694342E+04  0.12520957639E+04  0.46999998093E+01 0.  1.
</event>
<event>
 5   0  0.1441756E-05  0.1699289E+04  0.7818609E-02  0.8761770E-01
        2   -1    0    0  501    0  0.00000000000E+00  0.00000000000E+00  0.13976248500E+04  0.13976248500E+04  0.25500000920E-02 0.  1.
       -2   -1    0    0    0  501  0.00000000000E+00  0.00000000000E+00 -0.51651636664E+03  0.51651636665E+03  0.25500000920E-02 0. -1.
    10030    2    1    2    0    0  0.00000000000E+00  0.00000000000E+00  0.88110848333E+03  0.19141412166E+04  0.16992893920E+04 0.  0.
        5    1    3    3  502    0  0.36428440365E+03  0.71180451548E+03  0.76410867409E+03  0.11060076631E+04  0.46999998093E+01 0.  1.
       -5    1    3    3    0  502 -0.36428440365E+03 -0.71180451548E+03  0.11699980924E+03  0.80813355354E+03  0.46999998093E+01 0. -1.
</event>
<event>
 5   0  0.1441756E-05  0.1700151E+04  0.7818609E-02  0.8761278E-01
       -2   -1    0    0    0  501  0.00000000000E+00  0.00000000000E+00  0.90408445277E+03  0.90408445277E+03  0.25500000920E-02 0.  1.
        2   -1    0    0  501    0  0.00000000000E+00  0.00000000000E+00 -0.79929340218E+03  0.79929340218E+03  0.25500000920E-02 0. -1.
    10030    2    1    2    0    0  0.00000000000E+00  0.00000000000E+00  0.10479105059E+03  0.17033778550E+04  0.17001514499E+04 0.  0.
        5    1    3    3  502    0  0.71680878282E+02  0.84664128885E+03  0.78271419087E+02  0.85328080099E+03  0.46999998093E+01 0.  1.
       -5    1    3    3    0  502 -0.71680878282E+02 -0.84664128885E+03  0.26519631502E+02  0.85009705396E+03  0.46999998093E+01 0. -1.
</event>
<event>
 5   0  0.1435301E-05  0.1700407E+04  0.7818609E-02  0.8761132E-01
       -2   -1    0    0    0  501  0.00000000000E+00  0.00000000000E+00  0.82081275003E+03  0.82081275004E+03  0.25500000920E-02 0.  1.
        2   -1    0    0  501    0  0.00000000000E+00  0.00000000000E+00 -0.88064700260E+03  0.88064700261E+03  0.25500000920E-02 0. -1.
    10030    2    1    2    0    0  0.00000000000E+00  0.00000000000E+00 -0.59834252567E+02  0.17014597526E+04  0.17004073489E+04 0.  0.
        2    1    3    3  502    0 -0.20450763517E+03 -0.54811347244E+03  0.58738814010E+03  0.82902145850E+03  0.25500000920E-02 0.  1.
       -2    1    3    3    0  502  0.20450763517E+03  0.54811347244E+03 -0.64722239266E+03  0.87243829414E+03  0.25500000920E-02 0. -1.
</event>
<event>
 5   0  0.1419012E-05  0.1699808E+04  0.7818609E-02  0.8761474E-01
       -2   -1    0    0    0  501  0.00000000000E+00  0.00000000000E+00  0.63625391439E+03  0.63625391439E+03  0.25500000920E-02 0. -1.
        2   -1    0    0  501    0  0.00000000000E+00  0.00000000000E+00 -0.11352967570E+04  0.11352967570E+04  0.25500000920E-02 0.  1.
    10030    2    1    2    0    0  0.00000000000E+00  0.00000000000E+00 -0.49904284259E+03  0.17715506714E+04  0.16998082311E+04 0.  0.
        4    1    3    3  502    0  0.32668384538E+03  0.58109549668E+03  0.29993091279E+03  0.73099553791E+03  0.12699999809E+01 0. -1.
       -4    1    3    3    0  502 -0.32668384538E+03 -0.58109549668E+03 -0.79897375539E+03  0.10405551335E+04  0.12699999809E+01 0.  1.
</event>
<event>
 5   0  0.1423543E-05  0.1700561E+04  0.7818609E-02  0.8761044E-01
        2   -1    0    0  501    0  0.00000000000E+00  0.00000000000E+00  0.81914379497E+03  0.81914379498E+03  0.25500000920E-02 0.  1.
       -2   -1    0    0    0  501  0.00000000000E+00  0.00000000000E+00 -0.88260102980E+03  0.88260102980E+03  0.25500000920E-02 0. -1.
    10030    2    1    2    0    0  0.00000000000E+00  0.00000000000E+00 -0.63457234824E+02  0.17017448248E+04  0.17005612685E+04 0.  0.
        3    1    3    3  502    0 -0.42103475197E+03 -0.86520782369E+02 -0.76587470729E+03  0.87824836215E+03  0.10100000352E+00 0. -1.
       -3    1    3    3    0  502  0.42103475197E+03  0.86520782369E+02  0.70241747246E+03  0.82349646263E+03  0.10100000352E+00 0.  1.
</event>
<event>
 5   0  0.1441756E-05  0.1700751E+04  0.7818609E-02  0.8760936E-01
       -2   -1    0    0    0  501  0.00000000000E+00  0.00000000000E+00  0.35213431809E+03  0.35213431810E+03  0.25500000920E-02 0.  1.
        2   -1    0    0  501    0  0.00000000000E+00  0.00000000000E+00 -0.20535870231E+04  0.20535870231E+04  0.25500000920E-02 0. -1.
    10030    2    1    2    0    0  0.00000000000E+00  0.00000000000E+00 -0.17014527050E+04  0.24057213412E+04  0.17007509706E+04 0.  0.
        5    1    3    3  502    0 -0.73018965863E+02  0.28347459718E+03 -0.19800534244E+04  0.20015801932E+04  0.46999998093E+01 0. -1.
       -5    1    3    3    0  502  0.73018965863E+02 -0.28347459718E+03  0.27860071938E+03  0.40414114794E+03  0.46999998093E+01 0.  1.
</event>
<event>
 5   0  0.1374441E-05  0.1700431E+04  0.7818609E-02  0.8761119E-01
        2   -1    0    0  501    0  0.00000000000E+00  0.00000000000E+00  0.62821507816E+03  0.62821507816E+03  0.25500000920E-02 0. -1.
       -2   -1    0    0    0  501  0.00000000000E+00  0.00000000000E+00 -0.11506668598E+04  0.11506668598E+04  0.25500000920E-02 0.  1.
    10030    2    1    2    0    0  0.00000000000E+00  0.00000000000E+00 -0.52245178160E+03  0.17788819379E+04  0.17004308527E+04 0.  0.
        1    1    3    3  502    0  0.70348587722E+03 -0.23634353695E+03 -0.69523445305E+03  0.10169078580E+04  0.50400001928E-02 0.  1.
       -1    1    3    3    0  502 -0.70348587722E+03  0.23634353695E+03  0.17278267145E+03  0.76197407993E+03  0.50400001928E-02 0. -1.
</event>
<event>
 5   0  0.5229750E-06  0.1697245E+04  0.7818609E-02  0.8762937E-01
       -3   -1    0    0    0  501  0.00000000000E+00  0.00000000000E+00  0.20817460947E+04  0.20817460971E+04  0.10100000352E+00 0. -1.
        3   -1    0    0  501    0  0.00000000000E+00  0.00000000000E+00 -0.34594033650E+03  0.34594035124E+03  0.10100000352E+00 0.  1.
    10030    2    1    2    0    0  0.00000000000E+00  0.00000000000E+00  0.17358057582E+04  0.24276864483E+04  0.16972447854E+04 0.  0.
        1    1    3    3  502    0  0.16403594612E+03 -0.71002994900E+03  0.14899237414E+04  0.16585906895E+04  0.50400001928E-02 0. -1.
       -1    1    3    3    0  502 -0.16403594612E+03  0.71002994900E+03  0.24588201679E+03  0.76909575887E+03  0.50400001928E-02 0.  1.
</event>
<event>
 5   0  0.1374441E-05  0.1700240E+04  0.7818609E-02  0.8761227E-01
        2   -1    0    0  501    0  0.00000000000E+00  0.00000000000E+00  0.10609438555E+04  0.10609438555E+04  0.25500000920E-02 0.  1.
       -2   -1    0    0    0  501  0.00000000000E+00  0.00000000000E+00 -0.68118997254E+03  0.68118997255E+03  0.25500000920E-02 0. -1.
    10030    2    1    2    0    0  0.00000000000E+00  0.00000000000E+00  0.37975388298E+03  0.17421338281E+04  0.17002403546E+04 0.  0.
        1    1    3    3  502    0 -0.18634547635E+03  0.59994924235E+03  0.77673758219E+03  0.99899199275E+03  0.50400001928E-02 0.  1.
       -1    1    3    3    0  502  0.18634547635E+03 -0.59994924235E+03 -0.39698369921E+03  0.74314183533E+03  0.50400001928E-02 0. -1.
</event>
<event>
 5   0  0.7476457E-06  0.1698116E+04  0.7818609E-02  0.8762439E-01
       -1   -1    0    0    0  501  0.00000000000E+00  0.00000000000E+00  0.64062516788E+03  0.64062516790E+03  0.50400001928E-02 0. -1.
        1   -1    0    0  501    0  0.00000000000E+00  0.00000000000E+00 -0.11253067852E+04  0.11253067853E+04  0.50400001928E-02 0.  1.
    10030    2    1    2    0    0  0.00000000000E+00  0.00000000000E+00 -0.48468161736E+03  0.17659319532E+04  0.16981164250E+04 0.  0.
        2    1    3    3  502    0 -0.46984969902E+03  0.60945445252E+03  0.13074311710E+03  0.78056853129E+03  0.25500000920E-02 0. -1.
       -2    1    3    3    0  502  0.46984969902E+03 -0.60945445252E+03 -0.61542473446E+03  0.98536342187E+03  0.25500000920E-02 0.  1.
</event>
<event>
 5   0  0.1423543E-05  0.1700363E+04  0.7818609E-02  0.8761158E-01
       -2   -1    0    0    0  501  0.00000000000E+00  0.00000000000E+00  0.40530313861E+03  0.40530313862E+03  0.25500000920E-02 0.  1.
        2   -1    0    0  501    0  0.00000000000E+00  0.00000000000E+00 -0.17833768366E+04  0.17833768366E+04  0.25500000920E-02 0. -1.
    10030    2    1    2    0    0  0.00000000000E+00  0.00000000000E+00 -0.13780736980E+04  0.21886799752E+04  0.17003625839E+04 0.  0.
        3    1    3    3  502    0 -0.75975963199E+02  0.51795216333E+03  0.17324349345E+03  0.55141645668E+03  0.10100000352E+00 0.  1.
       -3    1    3    3    0  502  0.75975963199E+02 -0.51795216333E+03 -0.15513171914E+04  0.16372635185E+04  0.10100000352E+00 0. -1.
</event>
<event>
 5   0  0.7455669E-06  0.1699825E+04  0.7818609E-02  0.8761464E-01
       -1   -1    0    0    0  501  0.00000000000E+00  0.00000000000E+00  0.64786617054E+03  0.64786617056E+03  0.50400001928E-02 0. -1.
        1   -1    0    0  501    0  0.00000000000E+00  0.00000000000E+00 -0.11149702166E+04  0.11149702166E+04  0.50400001928E-02 0.  1.
    10030    2    1    2    0    0  0.00000000000E+00  0.00000000000E+00 -0.46710404602E+03  0.17628363871E+04  0.16998252669E+04 0.  0.
        4    1    3    3  502    0 -0.63816597231E+02  0.38465354454E+03 -0.10167411189E+04  0.10889421579E+04  0.12699999809E+01 0.  1.
       -4    1    3    3    0  502  0.63816597231E+02 -0.38465354454E+03  0.54963707289E+03  0.67389422925E+03  0.12699999809E+01 0. -1.
</event>
<event>
 5   0  0.7082527E-06  0.1698780E+04  0.7818609E-02  0.8762060E-01
        1   -1    0    0  501    0  0.00000000000E+00  0.00000000000E+00  0.45683169896E+03  0.45683169899E+03  0.50400001928E-02 0. -1.
       -1   -1    0    0    0  501  0.00000000000E+00  0.00000000000E+00 -0.15792762633E+04  0.15792762633E+04  0.50400001928E-02 0.  1.
    10030    2    1    2    0    0  0.00000000000E+00  0.00000000000E+00 -0.11224445644E+04  0.20361079623E+04  0.16987801018E+04 0.  0.
        1    1    3    3  502    0  0.57394357934E+03 -0.57329778926E+03 -0.25947305618E+03  0.85170878494E+03  0.50400001928E-02 0. -1.
       -1    1    3    3    0  502 -0.57394357934E+03  0.57329778926E+03 -0.86297150819E+03  0.11843991774E+04  0.50400001928E-02 0.  1.
</event>
<event>
 5   0  0.7583716E-06  0.1699763E+04  0.7818609E-02  0.8761500E-01
        1   -1    0    0  501    0  0.00000000000E+00  0.00000000000E+00  0.78695357744E+03  0.78695357745E+03  0.50400001928E-02 0. -1.
       -1   -1    0    0    0  501  0.00000000000E+00  0.00000000000E+00 -0.91784123237E+03  0.91784123239E+03  0.50400001928E-02 0.  1.
    10030    2    1    2    0    0  0.00000000000E+00  0.00000000000E+00 -0.13088765494E+03  0.17047948098E+04  0.16997628556E+04 0.  0.
        5    1    3    3  502    0  0.50906072278E+03 -0.46272548129E+02 -0.74641802233E+03  0.90468001097E+03  0.46999998093E+01 0.  1.
       -5    1    3    3    0  502 -0.50906072278E+03  0.46272548129E+02  0.61553036740E+03  0.80011479887E+03  0.46999998093E+01 0. -1.
</event>
<event>
 5   0  0.1419012E-05  0.1699155E+04  0.7818609E-02  0.8761847E-01
       -2   -1    0    0    0  501  0.00000000000E+00  0.00000000000E+00  0.13058658458E+04  0.13058658458E+04  0.25500000920E-02 0. -1.
        2   -1    0    0  501    0  0.00000000000E+00  0.00000000000E+00 -0.55272263075E+03  0.55272263076E+03  0.25500000920E-02 0.  1.
    10030    2    1    2    0    0  0.00000000000E+00  0.00000000000E+00  0.75314321503E+03  0.18585884765E+04  0.16991546200E+04 0.  0.
        4    1    3    3  502    0 -0.76664613605E+02 -0.23271129287E+03  0.12663803182E+04  0.12898653930E+04  0.12699999809E+01 0. -1.
       -4    1    3    3    0  502  0.76664613605E+02  0.23271129287E+03 -0.51323710316E+03  0.56872308356E+03  0.12699999809E+01 0.  1.
</event>
<event>
 5   0  0.7476457E-06  0.1699969E+04  0.7818609E-02  0.8761382E-01
       -1   -1    0    0    0  501  0.00000000000E+00  0.00000000000E+00  0.12943574703E+04  0.12943574703E+04  0.50400001928E-02 0. -1.
        1   -1    0    0  501    0  0.00000000000E+00  0.00000000000E+00 -0.55817192626E+03  0.55817192628E+03  0.50400001928E-02 0.  1.
    10030    2    1    2    0    0  0.00000000000E+00  0.00000000000E+00  0.73618554406E+03  0.18525293966E+04  0.16999694144E+04 0.  0.
        2    1    3    3  502    0 -0.14854822735E+03  0.55226579816E+03  0.10533407742E+04  0.11985786892E+04  0.25500000920E-02 0. -1.
       -2    1    3    3    0  502  0.14854822735E+03 -0.55226579816E+03 -0.31715523014E+03  0.65395070738E+03  0.25500000920E-02 0.  1.
</event>
<event>
 5   0  0.1435301E-05  0.1701769E+04  0.7818609E-02  0.8760356E-01
       -2   -1    0    0    0  501  0.00000000000E+00  0.00000000000E+00  0.31387130795E+03  0.31387130796E+03  0.25500000920E-02 0.  1.
        2   -1    0    0  501    0  0.00000000000E+00  0.00000000000E+00 -0.23066915635E+04  0.23066915635E+04  0.25500000920E-02 0. -1.
    10030    2    1    2    0    0  0.00000000000E+00  0.00000000000E+00 -0.19928202556E+04  0.26205628715E+04  0.17017688422E+04 0.  0.
        2    1    3    3  502    0  0.88108806601E+02  0.65221574346E+03 -0.18268971501E+04  0.19418294814E+04  0.25500000920E-02 0. -1.
       -2    1    3    3    0  502 -0.88108806601E+02 -0.65221574346E+03 -0.16592310542E+03  0.67873339003E+03  0.25500000920E-02 0.  1.
</event>
<event>
 5   0  0.1374441E-05  0.1701329E+04  0.7818609E-02  0.8760607E-01
       -2   -1    0    0    0  501  0.00000000000E+00  0.00000000000E+00  0.82560975563E+03  0.82560975564E+03  0.25500000920E-02 0. -1.
        2   -1    0    0  501    0  0.00000000000E+00  0.00000000000E+00 -0.87647952738E+03  0.87647952738E+03  0.25500000920E-02 0.  1.
    10030    2    1    2    0    0  0.00000000000E+00  0.00000000000E+00 -0.50869771747E+02  0.17020892830E+04  0.17013289493E+04 0.  0.
        1    1    3    3  502    0  0.39255380148E+03  0.72649913830E+03 -0.22980677970E+03  0.85715263578E+03  0.50400001928E-02 0. -1.
       -1    1    3    3    0  502 -0.39255380148E+03 -0.72649913830E+03  0.17893700796E+03  0.84493664724E+03  0.50400001928E-02 0.  1.
</event>
<event>
 5   0  0.1441756E-05  0.1699526E+04  0.7818609E-02  0.8761635E-01
       -2   -1    0    0    0  501  0.00000000000E+00  0.00000000000E+00  0.27481240947E+03  0.27481240948E+03  0.25500000920E-02 0.  1.
        2   -1    0    0  501    0  0.00000000000E+00  0.00000000000E+00 -0.26275991820E+04  0.26275991820E+04  0.25500000920E-02 0. -1.
    10030    2    1    2    0    0  0.00000000000E+00  0.00000000000E+00 -0.23527867725E+04  0.29024115914E+04  0.16995256542E+04 0.  0.
        5    1    3    3  502    0  0.10396491713E+02  0.60397712426E+03 -0.15575048451E+03  0.62384032980E+03  0.46999998093E+01 0.  1.
       -5    1    3    3    0  502 -0.10396491713E+02 -0.60397712426E+03 -0.21970362880E+04  0.22785712616E+04  0.46999998093E+01 0. -1.
</event>
<event>
 5   0  0.7476457E-06  0.1699444E+04  0.7818609E-02  0.8761682E-01
       -1   -1    0    0    0  501  0.00000000000E+00  0.00000000000E+00  0.77726776761E+03  0.77726776763E+03  0.50400001928E-02 0. -1.
        1   -1    0    0  501    0  0.00000000000E+00  0.00000000000E+00 -0.92892965443E+03  0.92892965445E+03  0.50400001928E-02 0.  1.
    10030    2    1    2    0    0  0.00000000000E+00  0.00000000000E+00 -0.15166188682E+03  0.17061974221E+04  0.16994435310E+04 0.  0.
        2    1    3    3  502    0 -0.35810742594E+03 -0.83981461998E+02 -0.84486026409E+03  0.92145682499E+03  0.25500000920E-02 0.  1.
       -2    1    3    3    0  502  0.35810742594E+03  0.83981461998E+02  0.69319837726E+03  0.78474059709E+03  0.25500000920E-02 0. -1.
</event>
<event>
 5   0  0.7455669E-06  0.1700599E+04  0.7818609E-02  0.8761023E-01
        1   -1    0    0  501    0  0.00000000000E+00  0.00000000000E+00  0.77998732568E+03  0.77998732570E+03  0.50400001928E-02 0. -1.
       -1   -1    0    0    0  501  0.00000000000E+00  0.00000000000E+00 -0.92694993947E+03  0.92694993948E+03  0.50400001928E-02 0.  1.
    10030    2    1    2    0    0  0.00000000000E+00  0.00000000000E+00 -0.14696261379E+03  0.17069372652E+04  0.17005989584E+04 0.  0.
        4    1    3    3  502    0 -0.56583528194E+03  0.42258346765E+03 -0.54880860738E+03  0.89439300861E+03  0.12699999809E+01 0.  1.
       -4    1    3    3    0  502  0.56583528194E+03 -0.42258346765E+03  0.40184599360E+03  0.81254425657E+03  0.12699999809E+01 0. -1.
</event>
<event>
 5   0  0.1419012E-05  0.1699717E+04  0.7818609E-02  0.8761526E-01
       -2   -1    0    0    0  501  0.00000000000E+00  0.00000000000E+00  0.47708027203E+03  0.47708027204E+03  0.25500000920E-02 0.  1.
        2   -1    0    0  501    0  0.00000000000E+00  0.00000000000E+00 -0.15139162758E+04  0.15139162758E+04  0.25500000920E-02 0. -1.
    10030    2    1    2    0    0  0.00000000000E+00  0.00000000000E+00 -0.10368360038E+04  0.19909965478E+04  0.16997171396E+04 0.  0.
        4    1    3    3  502    0  0.26857447332E+03  0.22741002595E+03 -0.14245540804E+04  0.14673798106E+04  0.12699999809E+01 0. -1.
       -4    1    3    3    0  502 -0.26857447332E+03 -0.22741002595E+03  0.38771807667E+03  0.52361673722E+03  0.12699999809E+01 0.  1.
</event>
<event>
 5   0  0.1423543E-05  0.1699684E+04  0.7818609E-02  0.8761545E-01
       -2   -1    0    0    0  501  0.00000000000E+00  0.00000000000E+00  0.61090967902E+03  0.61090967902E+03  0.25500000920E-02 0. -1.
        2   -1    0    0  501    0  0.00000000000E+00  0.00000000000E+00 -0.11822229340E+04  0.11822229340E+04  0.25500000920E-02 0.  1.
    10030    2    1    2    0    0  0.00000000000E+00  0.00000000000E+00 -0.57131325498E+03  0.17931326130E+04  0.16996840096E+04 0.  0.
        3    1    3    3  502    0 -0.54523826476E+03  0.13053046284E+03  0.38813494535E+03  0.68188834357E+03  0.10100000352E+00 0. -1.
       -3    1    3    3    0  502  0.54523826476E+03 -0.13053046284E+03 -0.95944820033E+03  0.11112442695E+04  0.10100000352E+00 0.  1.
</event>
<event>
 5   0  0.7082527E-06  0.1689055E+04  0.7818609E-02  0.8767631E-01
       -1   -1    0    0    0  501  0.00000000000E+00  0.00000000000E+00  0.82389141685E+03  0.82389141687E+03  0.50400001928E-02 0. -1.
        1   -1    0    0  501    0  0.00000000000E+00  0.00000000000E+00 -0.86568078465E+03  0.86568078467E+03  0.50400001928E-02 0.  1.
    10030    2    1    2    0    0  0.00000000000E+00  0.00000000000E+00 -0.41789367796E+02  0.16895722015E+04  0.16890553197E+04 0.  0.
        1    1    3    3  502    0 -0.30702569614E+03  0.35863096399E+03 -0.72135608714E+03  0.86211110125E+03  0.50400001928E-02 0.  1.
       -1    1    3    3    0  502  0.30702569614E+03 -0.35863096399E+03  0.67956671934E+03  0.82746110028E+03  0.50400001928E-02 0. -1.
</event>
<event>
 5   0  0.7082527E-06  0.1699550E+04  0.7818609E-02  0.8761621E-01
       -1   -1    0    0    0  501  0.00000000000E+00  0.00000000000E+00  0.61153370566E+03  0.61153370568E+03  0.50400001928E-02 0.  1.
        1   -1    0    0  501    0  0.00000000000E+00  0.00000000000E+00 -0.11808309588E+04  0.11808309588E+04  0.50400001928E-02 0. -1.
    10030    2    1    2    0    0  0.00000000000E+00  0.00000000000E+00 -0.56929725317E+03  0.17923646645E+04  0.16995504488E+04 0.  0.
        1    1    3    3  502    0  0.95214925031E+02  0.30821971827E+03  0.54444781503E+03  0.63284176537E+03  0.50400001928E-02 0.  1.
       -1    1    3    3    0  502 -0.95214925031E+02 -0.30821971827E+03 -0.11137450682E+04  0.11595228991E+04  0.50400001928E-02 0. -1.
</event>
<event>
 5   0  0.7476457E-06  0.1699891E+04  0.7818609E-02  0.8761426E-01
       -1   -1    0    0    0  501  0.00000000000E+00  0.00000000000E+00  0.11659037277E+04  0.11659037277E+04  0.50400001928E-02 0. -1.
        1   -1    0    0  501    0  0.00000000000E+00  0.00000000000E+00 -0.61961183773E+03  0.61961183775E+03  0.50400001928E-02 0.  1.
    10030    2    1    2    0    0  0.00000000000E+00  0.00000000000E+00  0.54629188993E+03  0.17855155654E+04  0.16998914687E+04 0.  0.
        2    1    3    3  502    0  0.11628679460E+03 -0.59787523714E+03  0.89582186141E+03  0.10832701534E+04  0.25500000920E-02 0. -1.
       -2    1    3    3    0  502 -0.11628679460E+03  0.59787523714E+03 -0.34952997148E+03  0.70224541206E+03  0.25500000920E-02 0.  1.
</event>
<event>
 5   0  0.7476457E-06  0.1700097E+04  0.7818609E-02  0.8761309E-01
       -1   -1    0    0    0  501  0.00000000000E+00  0.00000000000E+00  0.62757857189E+03  0.62757857191E+03  0.50400001928E-02 0.  1.
        1   -1    0    0  501    0  0.00000000000E+00  0.00000000000E+00 -0.11513816683E+04  0.11513816683E+04  0.50400001928E-02 0. -1.
    10030    2    1    2    0    0  0.00000000000E+00  0.00000000000E+00 -0.52380309644E+03  0.17789602403E+04  0.17000970127E+04 0.  0.
        2    1    3    3  502    0 -0.50080962166E+03  0.68662594365E+03 -0.24327116326E+03  0.88399452629E+03  0.25500000920E-02 0.  1.
       -2    1    3    3    0  502  0.50080962166E+03 -0.68662594365E+03 -0.28053193318E+03  0.89496571396E+03  0.25500000920E-02 0. -1.
</event>
<event>
 5   0  0.1441756E-05  0.1699656E+04  0.7818609E-02  0.8761561E-01
       -2   -1    0    0    0  501  0.00000000000E+00  0.00000000000E+00  0.68980910147E+03  0.68980910148E+03  0.25500000920E-02 0. -1.
        2   -1    0    0  501    0  0.00000000000E+00  0.00000000000E+00 -0.10469674162E+04  0.10469674162E+04  0.25500000920E-02 0.  1.
    10030    2    1    2    0    0  0.00000000000E+00  0.00000000000E+00 -0.35715831468E+03  0.17367765176E+04  0.16996560271E+04 0.  0.
        5    1    3    3  502    0 -0.23324914225E+03 -0.81523631922E+03 -0.12104544457E+03  0.85655677464E+03  0.46999998093E+01 0. -1.
       -5    1    3    3    0  502  0.23324914225E+03  0.81523631922E+03 -0.23611287011E+03  0.88021974300E+03  0.46999998093E+01 0.  1.
</event>
<event>
 5   0  0.7583716E-06  0.1700219E+04  0.7818609E-02  0.8761240E-01
        1   -1    0    0  501    0  0.00000000000E+00  0.00000000000E+00  0.87591381686E+03  0.87591381688E+03  0.50400001928E-02 0.  1.
       -1   -1    0    0    0  501  0.00000000000E+00  0.00000000000E+00 -0.82506497130E+03  0.82506497132E+03  0.50400001928E-02 0. -1.
    10030    2    1    2    0    0  0.00000000000E+00  0.00000000000E+00  0.50848845559E+02  0.17009787882E+04  0.17002185838E+04 0.  0.
        5    1    3    3  502    0 -0.58347259154E+03  0.46226956694E+03  0.43613239854E+03  0.86276704657E+03  0.46999998093E+01 0.  1.
       -5    1    3    3    0  502  0.58347259154E+03 -0.46226956694E+03 -0.38528355298E+03  0.83821174162E+03  0.46999998093E+01 0. -1.
</event>
<event>
 5   0  0.7461128E-06  0.1700529E+04  0.7818609E-02  0.8761063E-01
        1   -1    0    0  501    0  0.00000000000E+00  0.00000000000E+00  0.76252921492E+03  0.76252921494E+03  0.50400001928E-02 0.  1.
       -1   -1    0    0    0  501  0.00000000000E+00  0.00000000000E+00 -0.94809439138E+03  0.94809439139E+03  0.50400001928E-02 0. -1.
    10030    2    1    2    0    0  0.00000000000E+00  0.00000000000E+00 -0.18556517646E+03  0.17106236063E+04  0.17005289435E+04 0.  0.
        3    1    3    3  502    0 -0.76545058467E+03  0.14261619927E+03  0.25085275852E+03  0.81803489811E+03  0.10100000352E+00 0.  1.
       -3    1    3    3    0  502  0.76545058467E+03 -0.14261619927E+03 -0.43641793498E+03  0.89258870822E+03  0.10100000352E+00 0. -1.
</event>
<event>
 5   0  0.7583716E-06  0.1699917E+04  0.7818609E-02  0.8761412E-01
        1   -1    0    0  501    0  0.00000000000E+00  0.00000000000E+00  0.41511721805E+03  0.41511721808E+03  0.50400001928E-02 0. -1.
       -1   -1    0    0    0  501  0.00000000000E+00  0.00000000000E+00 -0.17403023962E+04  0.17403023963E+04  0.50400001928E-02 0.  1.
    10030    2    1    2    0    0  0.00000000000E+00  0.00000000000E+00 -0.13251851782E+04  0.21554196143E+04  0.16999170442E+04 0.  0.
        5    1    3    3  502    0 -0.26696380303E+03 -0.15409897743E+03  0.34173021730E+03  0.46023667650E+03  0.46999998093E+01 0. -1.
       -5    1    3    3    0  502  0.26696380303E+03  0.15409897743E+03 -0.16669153955E+04  0.16951829378E+04  0.46999998093E+01 0.  1.
</event>
<event>
 5   0  0.7082527E-06  0.1699671E+04  0.7818609E-02  0.8761552E-01
       -1   -1    0    0    0  501  0.00000000000E+00  0.00000000000E+00  0.88690389261E+03  0.88690389263E+03  0.50400001928E-02 0.  1.
        1   -1    0    0  501    0  0.00000000000E+00  0.00000000000E+00 -0.81431652077E+03  0.81431652079E+03  0.50400001928E-02 0. -1.
    10030    2    1    2    0    0  0.00000000000E+00  0.00000000000E+00  0.72587371842E+02  0.17012204134E+04  0.16996711354E+04 0.  0.
        1    1    3    3  502    0 -0.15565528061E+03 -0.81801398619E+03  0.20628678439E+03  0.85786344218E+03  0.50400001928E-02 0.  1.
       -1    1    3    3    0  502  0.15565528061E+03  0.81801398619E+03 -0.13369941255E+03  0.84335697123E+03  0.50400001928E-02 0. -1.
</event>
<event>
 5   0  0.1435301E-05  0.1700466E+04  0.7818609E-02  0.8761099E-01
        2   -1    0    0  501    0  0.00000000000E+00  0.00000000000E+00  0.85282296706E+03  0.85282296706E+03  0.25500000920E-02 0. -1.
       -2   -1    0    0    0  501  0.00000000000E+00  0.00000000000E+00 -0.84765090441E+03  0.84765090441E+03  0.25500000920E-02 0.  1.
    10030    2    1    2    0    0  0.00000000000E+00  0.00000000000E+00  0.51720626512E+01  0.17004738715E+04  0.17004660059E+04 0.  0.
        2    1    3    3  502    0  0.25827178919E+03 -0.27437549903E+03 -0.75959196744E+03  0.84791873936E+03  0.25500000920E-02 0.  1.
       -2    1    3    3    0  502 -0.25827178919E+03  0.27437549903E+03  0.76476403009E+03  0.85255513211E+03  0.25500000920E-02 0. -1.
</event>
<event>
 5   0  0.1374441E-05  0.1711904E+04  0.7818609E-02  0.8754604E-01
       -2   -1    0    0    0  501  0.00000000000E+00  0.00000000000E+00  0.34801238976E+03  0.34801238977E+03  0.25500000920E-02 0. -1.
        2   -1    0    0  501    0  0.00000000000E+00  0.00000000000E+00 -0.21052517306E+04  0.21052517306E+04  0.25500000920E-02 0.  1.
    10030    2    1    2    0    0  0.00000000000E+00  0.00000000000E+00 -0.17572393409E+04  0.24532641204E+04  0.17119038359E+04 0.  0.
        1    1    3    3  502    0 -0.61199179862E+03 -0.49290376569E+03 -0.13649443768E+04  0.15749797572E+04  0.50400001928E-02 0.  1.
       -1    1    3    3    0  502  0.61199179862E+03  0.49290376569E+03 -0.39229496409E+03  0.87828436322E+03  0.50400001928E-02 0. -1.
</event>
<event>
 5   0  0.7583716E-06  0.1700537E+04  0.7818609E-02  0.8761058E-01
        1   -1    0    0  501    0  0.00000000000E+00  0.00000000000E+00  0.11947825866E+04  0.11947825866E+04  0.50400001928E-02 0.  1.
       -1   -1    0    0    0  501  0.00000000000E+00  0.00000000000E+00 -0.60509452601E+03  0.60509452603E+03  0.50400001928E-02 0. -1.
    10030    2    1    2    0    0  0.00000000000E+00  0.00000000000E+00  0.58968806061E+03  0.17998771127E+04  0.17005368599E+04 0.  0.
        5    1    3    3  502    0 -0.60358597420E+03  0.36121403779E+03 -0.21070129224E+03  0.73430833707E+03  0.46999998093E+01 0. -1.
       -5    1    3    3    0  502  0.60358597420E+03 -0.36121403779E+03  0.80038935285E+03  0.10655687756E+04  0.46999998093E+01 0.  1.
</event>
<event>
 5   0  0.7476457E-06  0.1699977E+04  0.7818609E-02  0.8761378E-01
        1   -1    0    0  501    0  0.00000000000E+00  0.00000000000E+00  0.10167447976E+04  0.10167447976E+04  0.50400001928E-02 0. -1.
       -1   -1    0    0    0  501  0.00000000000E+00  0.00000000000E+00 -0.71058153786E+03  0.71058153788E+03  0.50400001928E-02 0.  1.
    10030    2    1    2    0    0  0.00000000000E+00  0.00000000000E+00  0.30616325977E+03  0.17273263355E+04  0.16999765668E+04 0.  0.
        2    1    3    3  502    0 -0.42865405275E+03 -0.70946009479E+03 -0.38100076293E+02  0.82977680063E+03  0.25500000920E-02 0.  1.
       -2    1    3    3    0  502  0.42865405275E+03  0.70946009479E+03  0.34426333607E+03  0.89754953490E+03  0.25500000920E-02 0. -1.
</event>
<event>
 5   0  0.7461128E-06  0.1701474E+04  0.7818609E-02  0.8760524E-01
       -1   -1    0    0    0  501  0.00000000000E+00  0.00000000000E+00  0.29621992248E+03  0.29621992253E+03  0.50400001928E-02 0. -1.
        1   -1    0    0  501    0  0.00000000000E+00  0.00000000000E+00 -0.24432966677E+04  0.24432966677E+04  0.50400001928E-02 0.  1.
    10030    2    1    2    0    0  0.00000000000E+00  0.00000000000E+00 -0.21470767452E+04  0.27395165902E+04  0.17014736549E+04 0.  0.
        3    1    3    3  502    0  0.63972854066E+02 -0.38960120186E+03 -0.22868538813E+04  0.23206857407E+04  0.10100000352E+00 0.  1.
       -3    1    3    3    0  502 -0.63972854066E+02  0.38960120186E+03  0.13977713607E+03  0.41883084953E+03  0.10100000352E+00 0. -1.
</event>
<event>
 5   0  0.1435301E-05  0.1700693E+04  0.7818609E-02  0.8760969E-01
       -2   -1    0    0    0  501  0.00000000000E+00  0.00000000000E+00  0.75628462639E+03  0.75628462640E+03  0.25500000920E-02 0. -1.
        2   -1    0    0  501    0  0.00000000000E+00  0.00000000000E+00 -0.95610735397E+03  0.95610735397E+03  0.25500000920E-02 0.  1.
    10030    2    1    2    0    0  0.00000000000E+00  0.00000000000E+00 -0.19982272757E+03  0.17123919804E+04  0.17006931446E+04 0.  0.
        2    1    3    3  502    0 -0.79795090620E+03 -0.19543999857E+03 -0.32089054112E+03  0.88198252881E+03  0.25500000920E-02 0.  1.
       -2    1    3    3    0  502  0.79795090620E+03  0.19543999857E+03  0.12106781354E+03  0.83040945155E+03  0.25500000920E-02 0. -1.
</event>
<event>
 5   0  0.1374441E-05  0.1699891E+04  0.7818609E-02  0.8761426E-01
       -2   -1    0    0    0  501  0.00000000000E+00  0.00000000000E+00  0.45360880921E+03  0.45360880922E+03  0.25500000920E-02 0.  1.
        2   -1    0    0  501    0  0.00000000000E+00  0.00000000000E+00 -0.15925785033E+04  0.15925785033E+04  0.25500000920E-02 0. -1.
    10030    2    1    2    0    0  0.00000000000E+00  0.00000000000E+00 -0.11389696941E+04  0.20461873125E+04  0.16998913359E+04 0.  0.
        1    1    3    3  502    0 -0.65736094110E+03 -0.53849547682E+03 -0.59057061467E+03  0.10348306317E+04  0.50400001928E-02 0.  1.
       -1    1    3    3    0  502  0.65736094110E+03  0.53849547682E+03 -0.54839907940E+03  0.10113566808E+04  0.50400001928E-02 0. -1.
</event>
<event>
 5   0  0.7082527E-06  0.1699788E+04  0.7818609E-02  0.8761485E-01
        1   -1    0    0  501    0  0.00000000000E+00  0.00000000000E+00  0.92938423743E+03  0.92938423744E+03  0.50400001928E-02 0.  1.
       -1   -1    0    0    0  501  0.00000000000E+00  0.00000000000E+00 -0.77720268332E+03  0.77720268334E+03  0.50400001928E-02 0. -1.
    10030    2    1    2    0    0  0.00000000000E+00  0.00000000000E+00  0.15218155411E+03  0.17065869208E+04  0.16997881317E+04 0.  0.
        1    1    3    3  502    0 -0.66524600791E+03  0.38565354113E+02 -0.45354207849E+03  0.80606448536E+03  0.50400001928E-02 0. -1.
       -1    1    3    3    0  502  0.66524600791E+03 -0.38565354113E+02  0.60572363260E+03  0.90052243542E+03  0.50400001928E-02 0.  1.
</event>
<event>
 5   0  0.1435301E-05  0.1700552E+04  0.7818609E-02  0.8761050E-01
       -2   -1    0    0    0  501  0.00000000000E+00  0.00000000000E+00  0.79752034985E+03  0.79752034986E+03  0.25500000920E-02 0.  1.
        2   -1    0    0  501    0  0.00000000000E+00  0.00000000000E+00 -0.90652097496E+03  0.90652097496E+03  0.25500000920E-02 0. -1.
    10030    2    1    2    0    0  0.00000000000E+00  0.00000000000E+00 -0.10900062511E+03  0.17040413248E+04  0.17005515871E+04 0.  0.
        2    1    3    3  502    0 -0.38028239541E+03 -0.58453894621E+03  0.43298382714E+03  0.82083827547E+03  0.25500000920E-02 0. -1.
       -2    1    3    3    0  502  0.38028239541E+03  0.58453894621E+03 -0.54198445224E+03  0.88320304935E+03  0.25500000920E-02 0.  1.
</event>
<event>
 5   0  0.7455669E-06  0.1699856E+04  0.7818609E-02  0.8761447E-01
       -1   -1    0    0    0  501  0.00000000000E+00  0.00000000000E+00  0.47630257141E+03  0.47630257144E+03  0.50400001928E-02 0. -1.
        1   -1    0    0  501    0  0.00000000000E+00  0.00000000000E+00 -0.15166351946E+04  0.15166351946E+04  0.50400001928E-02 0.  1.
    10030    2    1    2    0    0  0.00000000000E+00  0.00000000000E+00 -0.10403326232E+04  0.19929377660E+04  0.16998555740E+04 0.  0.
        4    1    3    3  502    0 -0.37273477486E+03  0.55134245974E+03  0.99625926176E+02  0.67293139202E+03  0.12699999809E+01 0. -1.
       -4    1    3    3    0  502  0.37273477486E+03 -0.55134245974E+03 -0.11399585493E+04  0.13200063740E+04  0.12699999809E+01 0.  1.
</event>
<event>
 5   0  0.7461128E-06  0.1703619E+04  0.7818609E-02  0.8759303E-01
        1   -1    0    0  501    0  0.00000000000E+00  0.00000000000E+00  0.14853848290E+04  0.14853848290E+04  0.50400001928E-02 0.  1.
       -1   -1    0    0    0  501  0.00000000000E+00  0.00000000000E+00 -0.48847924626E+03  0.48847924628E+03  0.50400001928E-02 0. -1.
    10030    2    1    2    0    0  0.00000000000E+00  0.00000000000E+00  0.99690558274E+03  0.19738640753E+04  0.17036192787E+04 0.  0.
        3    1    3    3  502    0  0.21820730605E+03  0.74200210949E+03  0.91200101503E+03  0.11957957269E+04  0.10100000352E+00 0.  1.
       -3    1    3    3    0  502 -0.21820730605E+03 -0.74200210949E+03  0.84904567714E+02  0.77806834837E+03  0.10100000352E+00 0. -1.
</event>
<event>
 5   0  0.1441756E-05  0.1702670E+04  0.7818609E-02  0.8759843E-01
        2   -1    0    0  501    0  0.00000000000E+00  0.00000000000E+00  0.11278868250E+04  0.11278868250E+04  0.25500000920E-02 0. -1.
       -2   -1    0    0    0  501  0.00000000000E+00  0.00000000000E+00 -0.64259238976E+03  0.64259238977E+03  0.25500000920E-02 0.  1.
    10030    2    1    2    0    0  0.00000000000E+00  0.00000000000E+00  0.48529443522E+03  0.17704792147E+04  0.17026702444E+04 0.  0.
        5    1    3    3  502    0  0.42808220370E+03  0.61426070026E+03  0.66397378986E+03  0.10007266683E+04  0.46999998093E+01 0. -1.
       -5    1    3    3    0  502 -0.42808220370E+03 -0.61426070026E+03 -0.17867935464E+03  0.76975254646E+03  0.46999998093E+01 0.  1.
</event>
<event>
 5   0  0.1435301E-05  0.1699140E+04  0.7818609E-02  0.8761855E-01
       -2   -1    0    0    0  501  0.00000000000E+00  0.00000000000E+00  0.50201976376E+03  0.50201976376E+03  0.25500000920E-02 0.  1.
        2   -1    0    0  501    0  0.00000000000E+00  0.00000000000E+00 -0.14377300034E+04  0.14377300034E+04  0.25500000920E-02 0. -1.
    10030    2    1    2    0    0  0.00000000000E+00  0.00000000000E+00 -0.93571023965E+03  0.19397497672E+04  0.16991396372E+04 0.  0.
        2    1    3    3  502    0  0.84932625407E+02  0.49938637567E+03  0.31075818483E+03  0.59428187967E+03  0.25500000920E-02 0.  1.
       -2    1    3    3    0  502 -0.84932625407E+02 -0.49938637567E+03 -0.12464684245E+04  0.13454678875E+04  0.25500000920E-02 0. -1.
</event>
<event>
 5   0  0.5229750E-06  0.1697285E+04  0.7818609E-02  0.8762914E-01
        3   -1    0    0  501    0  0.00000000000E+00  0.00000000000E+00  0.82195588920E+03  0.82195589541E+03  0.10100000352E+00 0. -1.
       -3   -1    0    0    0  501  0.00000000000E+00  0.00000000000E+00 -0.87619546808E+03  0.87619547390E+03  0.10100000352E+00 0.  1.
    10030    2    1    2    0    0  0.00000000000E+00  0.00000000000E+00 -0.54239578871E+02  0.16981513693E+04  0.16972849322E+04 0.  0.
        4    1    3    3  502    0 -0.26126051087E+03 -0.24677970355E+03  0.74206076671E+03  0.82450777499E+03  0.12699999809E+01 0. -1.
       -4    1    3    3    0  502  0.26126051087E+03  0.24677970355E+03 -0.79630034558E+03  0.87364359432E+03  0.12699999809E+01 0.  1.
</event>
<event>
 5   0  0.7583716E-06  0.1699607E+04  0.7818609E-02  0.8761588E-01
        1   -1    0    0  501    0  0.00000000000E+00  0.00000000000E+00  0.94291443492E+03  0.94291443493E+03  0.50400001928E-02 0. -1.
       -1   -1    0    0    0  501  0.00000000000E+00  0.00000000000E+00 -0.76588728842E+03  0.76588728843E+03  0.50400001928E-02 0.  1.
    10030    2    1    2    0    0  0.00000000000E+00  0.00000000000E+00  0.17702714650E+03  0.17088017234E+04  0.16996072250E+04 0.  0.
        5    1    3    3  502    0 -0.79323581186E+03  0.25794466747E+03  0.25182872143E+03  0.87131986069E+03  0.46999998093E+01 0. -1.
       -5    1    3    3    0  502  0.79323581186E+03 -0.25794466747E+03 -0.74801574930E+02  0.83748186267E+03  0.46999998093E+01 0.  1.
</event>
<event>
 5   0  0.7476457E-06  0.1700022E+04  0.7818609E-02  0.8761352E-01
        1   -1    0    0  501    0  0.00000000000E+00  0.00000000000E+00  0.15490024449E+04  0.15490024449E+04  0.50400001928E-02 0.  1.
       -1   -1    0    0    0  501  0.00000000000E+00  0.00000000000E+00 -0.46644150986E+03  0.46644150989E+03  0.50400001928E-02 0. -1.
    10030    2    1    2    0    0  0.00000000000E+00  0.00000000000E+00  0.10825609350E+04  0.20154439548E+04  0.17000223989E+04 0.  0.
        2    1    3    3  502    0  0.26778211337E+03  0.66848141270E+03  0.10766725608E+04  0.12952985998E+04  0.25500000920E-02 0.  1.
       -2    1    3    3    0  502 -0.26778211337E+03 -0.66848141270E+03  0.58883742073E+01  0.72014535500E+03  0.25500000920E-02 0. -1.
</event>
<event>
 5   0  0.7082527E-06  0.1700800E+04  0.7818609E-02  0.8760908E-01
        1   -1    0    0  501    0  0.00000000000E+00  0.00000000000E+00  0.45549656057E+03  0.45549656059E+03  0.50400001928E-02 0.  1.
       -1   -1    0    0    0  501  0.00000000000E+00  0.00000000000E+00 -0.15876751737E+04  0.15876751737E+04  0.50400001928E-02 0. -1.
    10030    2    1    2    0    0  0.00000000000E+00  0.00000000000E+00 -0.11321786132E+04  0.20431717343E+04  0.17008004950E+04 0.  0.
        1    1    3    3  502    0  0.44621545625E+03  0.56830128551E+03 -0.11048104346E+04  0.13201063142E+04  0.50400001928E-02 0. -1.
       -1    1    3    3    0  502 -0.44621545625E+03 -0.56830128551E+03 -0.27368178581E+02  0.72306542009E+03  0.50400001928E-02 0.  1.
</event>
<event>
 5   0  0.1435301E-05  0.1700040E+04  0.7818609E-02  0.8761342E-01
       -2   -1    0    0    0  501  0.00000000000E+00  0.00000000000E+00  0.14589589300E+04  0.14589589300E+04  0.25500000920E-02 0.  1.
        2   -1    0    0  501    0  0.00000000000E+00  0.00000000000E+00 -0.49523920506E+03  0.49523920507E+03  0.25500000920E-02 0. -1.
    10030    2    1    2    0    0  0.00000000000E+00  0.00000000000E+00  0.96371972493E+03  0.19541981351E+04  0.17000396004E+04 0.  0.
        2    1    3    3  502    0  0.29014214139E+03 -0.94222152110E+02 -0.43014728639E+03  0.52733951507E+03  0.25500000920E-02 0. -1.
       -2    1    3    3    0  502 -0.29014214139E+03  0.94222152110E+02  0.13938670113E+04  0.14268586200E+04  0.25500000920E-02 0.  1.
</event>
<event>
 5   0  0.7082527E-06  0.1698236E+04  0.7818609E-02  0.8762371E-01
       -1   -1    0    0    0  501  0.00000000000E+00  0.00000000000E+00  0.10956467281E+04  0.10956467281E+04  0.50400001928E-02 0.  1.
        1   -1    0    0  501    0  0.00000000000E+00  0.00000000000E+00 -0.65806015086E+03  0.65806015088E+03  0.50400001928E-02 0. -1.
    10030    2    1    2    0    0  0.00000000000E+00  0.00000000000E+00  0.43758657721E+03  0.17537068790E+04  0.16982360863E+04 0.  0.
        1    1    3    3  502    0  0.15572905113E+03  0.39695130244E+03 -0.53947982513E+03  0.68764842443E+03  0.50400001928E-02 0. -1.
       -1    1    3    3    0  502 -0.15572905113E+03 -0.39695130244E+03  0.97706640234E+03  0.10660584545E+04  0.50400001928E-02 0.  1.
</event>
<event>
 5   0  0.1441756E-05  0.1700032E+04  0.7818609E-02  0.8761346E-01
       -2   -1    0    0    0  501  0.00000000000E+00  0.00000000000E+00  0.67170170011E+03  0.67170170011E+03  0.25500000920E-02 0. -1.
        2   -1    0    0  501    0  0.00000000000E+00  0.00000000000E+00 -0.10756673887E+04  0.10756673887E+04  0.25500000920E-02 0.  1.
    10030    2    1    2    0    0  0.00000000000E+00  0.00000000000E+00 -0.40396568854E+03  0.17473690888E+04  0.17000324864E+04 0.  0.
        5    1    3    3  502    0 -0.44998440925E+03  0.11507932573E+03  0.52972140656E+03  0.70452542775E+03  0.46999998093E+01 0. -1.
       -5    1    3    3    0  502  0.44998440925E+03 -0.11507932573E+03 -0.93368709510E+03  0.10428436610E+04  0.46999998093E+01 0.  1.
</event>
<event>
 5   0  0.7461128E-06  0.1699057E+04  0.7818609E-02  0.8761902E-01
       -1   -1    0    0    0  501  0.00000000000E+00  0.00000000000E+00  0.50743245989E+03  0.50743245991E+03  0.50400001928E-02 0.  1.
        1   -1    0    0  501    0  0.00000000000E+00  0.00000000000E+00 -0.14222553578E+04  0.14222553578E+04  0.50400001928E-02 0. -1.
    10030    2    1    2    0    0  0.00000000000E+00  0.00000000000E+00 -0.91482289795E+03  0.19296878178E+04  0.16990568382E+04 0.  0.
        3    1    3    3  502    0  0.84922342073E+02  0.46626667643E+03  0.34333166548E+03  0.58522906665E+03  0.10100000352E+00 0.  1.
       -3    1    3    3    0  502 -0.84922342073E+02 -0.46626667643E+03 -0.12581545634E+04  0.13444587511E+04  0.10100000352E+00 0. -1.
</event>
<event>
 5   0  0.5229750E-06  0.1699507E+04  0.7818609E-02  0.8761646E-01
       -3   -1    0    0    0  501  0.00000000000E+00  0.00000000000E+00  0.45470697304E+03  0.45470698425E+03  0.10100000352E+00 0. -1.
        3   -1    0    0  501    0  0.00000000000E+00  0.00000000000E+00 -0.15880137590E+04  0.15880137623E+04  0.10100000352E+00 0.  1.
    10030    2    1    2    0    0  0.00000000000E+00  0.00000000000E+00 -0.11333067860E+04  0.20427207465E+04  0.16995069217E+04 0.  0.
        4    1    3    3  502    0 -0.28912872708E+03  0.75863150490E+03 -0.26505721200E+03  0.85403402718E+03  0.12699999809E+01 0.  1.
       -4    1    3    3    0  502  0.28912872708E+03 -0.75863150490E+03 -0.86824957400E+03  0.11886867193E+04  0.12699999809E+01 0. -1.
</event>
<event>
 5   0  0.7583716E-06  0.1699361E+04  0.7818609E-02  0.8761729E-01
        1   -1    0    0  501    0  0.00000000000E+00  0.00000000000E+00  0.44032634503E+03  0.44032634506E+03  0.50400001928E-02 0.  1.
       -1   -1    0    0    0  501  0.00000000000E+00  0.00000000000E+00 -0.16395950836E+04  0.16395950836E+04  0.50400001928E-02 0. -1.
    10030    2    1    2    0    0  0.00000000000E+00  0.00000000000E+00 -0.11992687386E+04  0.20799214287E+04  0.16993609511E+04 0.  0.
        5    1    3    3  502    0 -0.11129539511E+03 -0.28787422141E+03  0.36927471980E+03  0.48129423538E+03  0.46999998093E+01 0.  1.
       -5    1    3    3    0  502  0.11129539511E+03  0.28787422141E+03 -0.15685434584E+04  0.15986271933E+04  0.46999998093E+01 0. -1.
</event>
<event>
 5   0  0.1435301E-05  0.1699553E+04  0.7818609E-02  0.8761619E-01
        2   -1    0    0  501    0  0.00000000000E+00  0.00000000000E+00  0.15331244449E+04  0.15331244449E+04  0.25500000920E-02 0.  1.
       -2   -1    0    0    0  501  0.00000000000E+00  0.00000000000E+00 -0.47101199304E+03  0.47101199305E+03  0.25500000920E-02 0. -1.
    10030    2    1    2    0    0  0.00000000000E+00  0.00000000000E+00  0.10621124519E+04  0.20041364380E+04  0.16995528828E+04 0.  0.
        2    1    3    3  502    0 -0.17256025050E+03 -0.76250749222E+03  0.92379870537E+03  0.12102060832E+04  0.25500000920E-02 0.  1.
       -2    1    3    3    0  502  0.17256025050E+03  0.76250749222E+03  0.13831374650E+03  0.79393035477E+03  0.25500000920E-02 0. -1.
</event>
<event>
 5   0  0.5229750E-06  0.1699535E+04  0.7818609E-02  0.8761629E-01
        3   -1    0    0  501    0  0.00000000000E+00  0.00000000000E+00  0.53396519342E+03  0.53396520297E+03  0.10100000352E+00 0.  1.
       -3   -1    0    0    0  501  0.00000000000E+00  0.00000000000E+00 -0.13523450685E+04  0.13523450723E+04  0.10100000352E+00 0. -1.
    10030    2    1    2    0    0  0.00000000000E+00  0.00000000000E+00 -0.81837987506E+03  0.18863102752E+04  0.16995354761E+04 0.  0.
        4    1    3    3  502    0  0.36354565914E+03 -0.30537712807E+03 -0.11913984284E+04  0.12825180173E+04  0.12699999809E+01 0. -1.
       -4    1    3    3    0  502 -0.36354565914E+03  0.30537712807E+03  0.37301855337E+03  0.60379225789E+03  0.12699999809E+01 0.  1.
</event>
<event>
 5   0  0.7082527E-06  0.1699854E+04  0.7818609E-02  0.8761447E-01
       -1   -1    0    0    0  501  0.00000000000E+00  0.00000000000E+00  0.89789329563E+03  0.89789329565E+03  0.50400001928E-02 0. -1.
        1   -1    0    0  501    0  0.00000000000E+00  0.00000000000E+00 -0.80452340791E+03  0.80452340793E+03  0.50400001928E-02 0.  1.
    10030    2    1    2    0    0  0.00000000000E+00  0.00000000000E+00  0.93369887718E+02  0.17024167036E+04  0.16998543163E+04 0.  0.
        1    1    3    3  502    0 -0.39565693103E+02  0.59927716299E+03 -0.55561799564E+03  0.81817474861E+03  0.50400001928E-02 0.  1.
       -1    1    3    3    0  502  0.39565693103E+02 -0.59927716299E+03  0.64898788335E+03  0.88424195497E+03  0.50400001928E-02 0. -1.
</event>
<event>
 5   0  0.1435301E-05  0.1700579E+04  0.7818609E-02  0.8761034E-01
       -2   -1    0    0    0  501  0.00000000000E+00  0.00000000000E+00  0.39415701882E+03  0.39415701883E+03  0.25500000920E-02 0. -1.
        2   -1    0    0  501    0  0.00000000000E+00  0.00000000000E+00 -0.18342742796E+04  0.18342742797E+04  0.25500000920E-02 0.  1.
    10030    2    1    2    0    0  0.00000000000E+00  0.00000000000E+00 -0.14401172608E+04  0.22284312985E+04  0.17005788212E+04 0.  0.
        2    1    3    3  502    0  0.80484366361E+03 -0.25774736195E+03 -0.59723702813E+03  0.10348425451E+04  0.25500000920E-02 0. -1.
       -2    1    3    3    0  502 -0.80484366361E+03  0.25774736195E+03 -0.84288023270E+03  0.11935887533E+04  0.25500000920E-02 0.  1.
</event>
<event>
 5   0  0.7476457E-06  0.1699907E+04  0.7818609E-02  0.8761417E-01
        1   -1    0    0  501    0  0.00000000000E+00  0.00000000000E+00  0.17706142772E+04  0.17706142772E+04  0.50400001928E-02 0. -1.
       -1   -1    0    0    0  501  0.00000000000E+00  0.00000000000E+00 -0.40800594024E+03  0.40800594027E+03  0.50400001928E-02 0.  1.
    10030    2    1    2    0    0  0.00000000000E+00  0.00000000000E+00  0.13626083370E+04  0.21786202175E+04  0.16999072246E+04 0.  0.
        2    1    3    3  502    0  0.20312823888E+03 -0.79530892544E+03  0.96396780644E+03  0.12661008254E+04  0.25500000920E-02 0. -1.
       -2    1    3    3    0  502 -0.20312823888E+03  0.79530892544E+03  0.39864053056E+03  0.91251939208E+03  0.25500000920E-02 0.  1.
</event>
<event>
 5   0  0.7476457E-06  0.1699840E+04  0.7818609E-02  0.8761456E-01
        1   -1    0    0  501    0  0.00000000000E+00  0.00000000000E+00  0.73232036736E+03  0.73232036738E+03  0.50400001928E-02 0.  1.
       -1   -1    0    0    0  501  0.00000000000E+00  0.00000000000E+00 -0.98640443726E+03  0.98640443727E+03  0.50400001928E-02 0. -1.
    10030    2    1    2    0    0  0.00000000000E+00  0.00000000000E+00 -0.25408406990E+03  0.17187248047E+04  0.16998400629E+04 0.  0.
        2    1    3    3  502    0 -0.66823884199E+03 -0.48047303318E+03  0.87367051079E+02  0.82766568564E+03  0.25500000920E-02 0.  1.
       -2    1    3    3    0  502  0.66823884199E+03  0.48047303318E+03 -0.34145112098E+03  0.89105911902E+03  0.25500000920E-02 0. -1.
</event>
<event>
 5   0  0.7455669E-06  0.1698402E+04  0.7818609E-02  0.8762277E-01
       -1   -1    0    0    0  501  0.00000000000E+00  0.00000000000E+00  0.11448576298E+04  0.11448576298E+04  0.50400001928E-02 0.  1.
        1   -1    0    0  501    0  0.00000000000E+00  0.00000000000E+00 -0.62989659290E+03  0.62989659292E+03  0.50400001928E-02 0. -1.
    10030    2    1    2    0    0  0.00000000000E+00  0.00000000000E+00  0.51496103694E+03  0.17747542228E+04  0.16984015078E+04 0.  0.
        4    1    3    3  502    0 -0.30515583804E+03 -0.75122558747E+03  0.52117469202E+03  0.96389036787E+03  0.12699999809E+01 0.  1.
       -4    1    3    3    0  502  0.30515583804E+03  0.75122558747E+03 -0.62136550860E+01  0.81086385489E+03  0.12699999809E+01 0. -1.
</event>
<event>
 5   0  0.7455669E-06  0.1699690E+04  0.7818609E-02  0.8761541E-01
       -1   -1    0    0    0  501  0.00000000000E+00  0.00000000000E+00  0.79550725000E+03  0.79550725002E+03  0.50400001928E-02 0. -1.
        1   -1    0    0  501    0  0.00000000000E+00  0.00000000000E+00 -0.90789399784E+03  0.90789399785E+03  0.50400001928E-02 0.  1.
    10030    2    1    2    0    0  0.00000000000E+00  0.00000000000E+00 -0.11238674783E+03  0.17034012479E+04  0.16996896864E+04 0.  0.
        4    1    3    3  502    0  0.48779527767E+03  0.27505164126E+03  0.58444974958E+03  0.80943236960E+03  0.12699999809E+01 0. -1.
       -4    1    3    3    0  502 -0.48779527767E+03 -0.27505164126E+03 -0.69683649742E+03  0.89396887827E+03  0.12699999809E+01 0.  1.
</event>
<event>
 5   0  0.7583716E-06  0.1700236E+04  0.7818609E-02  0.8761230E-01
       -1   -1    0    0    0  501  0.00000000000E+00  0.00000000000E+00  0.20439327419E+04  0.20439327419E+04  0.50400001928E-02 0. -1.
        1   -1    0    0  501    0  0.00000000000E+00  0.00000000000E+00 -0.35358342725E+03  0.35358342729E+03  0.50400001928E-02 0.  1.
    10030    2    1    2    0    0  0.00000000000E+00  0.00000000000E+00  0.16903493146E+04  0.23975161692E+04  0.17002361530E+04 0.  0.
        5    1    3    3  502    0  0.61336748541E+02 -0.74654055469E+03  0.27832948314E+03  0.79910849557E+03  0.46999998093E+01 0.  1.
       -5    1    3    3    0  502 -0.61336748541E+02  0.74654055469E+03  0.14120198315E+04  0.15984076736E+04  0.46999998093E+01 0. -1.
</event>
<event>
 5   0  0.7461128E-06  0.1699982E+04  0.7818609E-02  0.8761375E-01
        1   -1    0    0  501    0  0.00000000000E+00  0.00000000000E+00  0.68132286624E+03  0.68132286626E+03  0.50400001928E-02 0.  1.
       -1   -1    0    0    0  501  0.00000000000E+00  0.00000000000E+00 -0.10604139722E+04  0.10604139722E+04  0.50400001928E-02 0. -1.
    10030    2    1    2    0    0  0.00000000000E+00  0.00000000000E+00 -0.37909110595E+03  0.17417368385E+04  0.16999815140E+04 0.  0.
        3    1    3    3  502    0  0.73907213546E+03  0.22163912952E+03  0.17576907453E+03  0.79135725365E+03  0.10100000352E+00 0.  1.
       -3    1    3    3    0  502 -0.73907213546E+03 -0.22163912952E+03 -0.55486018047E+03  0.95037958481E+03  0.10100000352E+00 0. -1.
</event>
<event>
 5   0  0.1441756E-05  0.1699462E+04  0.7818609E-02  0.8761671E-01
        2   -1    0    0  501    0  0.00000000000E+00  0.00000000000E+00  0.13991868040E+04  0.13991868040E+04  0.25500000920E-02 0. -1.
       -2   -1    0    0    0  501  0.00000000000E+00  0.00000000000E+00 -0.51604445375E+03  0.51604445376E+03  0.25500000920E-02 0.  1.
    10030    2    1    2    0    0  0.00000000000E+00  0.00000000000E+00  0.88314235027E+03  0.19152312578E+04  0.16994617854E+04 0.  0.
        5    1    3    3  502    0  0.28909753030E+03 -0.97688679577E+01 -0.45883499490E+03  0.54242460798E+03  0.46999998093E+01 0.  1.
       -5    1    3    3    0  502 -0.28909753030E+03  0.97688679577E+01  0.13419773452E+04  0.13728066498E+04  0.46999998093E+01 0. -1.
</event>
<event>
 5   0  0.7583716E-06  0.1699719E+04  0.7818609E-02  0.8761525E-01
        1   -1    0    0  501    0  0.00000000000E+00  0.00000000000E+00  0.10403782322E+04  0.10403782322E+04  0.50400001928E-02 0.  1.
       -1   -1    0    0    0  501  0.00000000000E+00  0.00000000000E+00 -0.69422914548E+03  0.69422914550E+03  0.50400001928E-02 0. -1.
    10030    2    1    2    0    0  0.00000000000E+00  0.00000000000E+00  0.34614908669E+03  0.17346073777E+04  0.16997186722E+04 0.  0.
        5    1    3    3  502    0 -0.17933409394E+03 -0.73616315579E+03  0.56586695334E+03  0.94568726759E+03  0.46999998093E+01 0. -1.
       -5    1    3    3    0  502  0.17933409394E+03  0.73616315579E+03 -0.21971786665E+03  0.78892011010E+03  0.46999998093E+01 0.  1.
</event>
<event>
 5   0  0.1374441E-05  0.1700193E+04  0.7818609E-02  0.8761255E-01
       -2   -1    0    0    0  501  0.00000000000E+00  0.00000000000E+00  0.77229561340E+03  0.77229561341E+03  0.25500000920E-02 0. -1.
        2   -1    0    0  501    0  0.00000000000E+00  0.00000000000E+00 -0.93573458594E+03  0.93573458594E+03  0.25500000920E-02 0.  1.
    10030    2    1    2    0    0  0.00000000000E+00  0.00000000000E+00 -0.16343897253E+03  0.17080301993E+04  0.17001925962E+04 0.  0.
        1    1    3    3  502    0 -0.45555207159E+03  0.11349267388E+03  0.63024732420E+03  0.78588801151E+03  0.50400001928E-02 0. -1.
       -1    1    3    3    0  502  0.45555207159E+03 -0.11349267388E+03 -0.79368629673E+03  0.92214218784E+03  0.50400001928E-02 0.  1.
</event>
<event>
 5   0  0.7461128E-06  0.1700644E+04  0.7818609E-02  0.8760997E-01
        1   -1    0    0  501    0  0.00000000000E+00  0.00000000000E+00  0.82204477819E+03  0.82204477820E+03  0.50400001928E-02 0.  1.
       -1   -1    0    0    0  501  0.00000000000E+00  0.00000000000E+00 -0.87957203755E+03  0.87957203757E+03  0.50400001928E-02 0. -1.
    10030    2    1    2    0    0  0.00000000000E+00  0.00000000000E+00 -0.57527259366E+02  0.17016168158E+04  0.17006441139E+04 0.  0.
        3    1    3    3  502    0  0.21163435298E+03 -0.46998902830E+02 -0.85145625946E+03  0.87862151590E+03  0.10100000352E+00 0. -1.
       -3    1    3    3    0  502 -0.21163435298E+03  0.46998902830E+02  0.79392900009E+03  0.82299529987E+03  0.10100000352E+00 0.  1.
</event>
<event>
 5   0  0.7476457E-06  0.1700124E+04  0.7818609E-02  0.8761294E-01
       -1   -1    0    0    0  501  0.00000000000E+00  0.00000000000E+00  0.54126883816E+03  0.54126883818E+03  0.50400001928E-02 0.  1.
        1   -1    0    0  501    0  0.00000000000E+00  0.00000000000E+00 -0.13350204786E+04  0.13350204786E+04  0.50400001928E-02 0. -1.
    10030    2    1    2    0    0  0.00000000000E+00  0.00000000000E+00 -0.79375164042E+03  0.18762893168E+04  0.17001235054E+04 0.  0.
        2    1    3    3  502    0 -0.51966791746E+03 -0.22045757386E+02 -0.11389022989E+04  0.12520539950E+04  0.25500000920E-02 0. -1.
       -2    1    3    3    0  502  0.51966791746E+03  0.22045757386E+02  0.34515065852E+03  0.62423532176E+03  0.25500000920E-02 0.  1.
</event>
<event>
 5   0  0.1374441E-05  0.1700741E+04  0.7818609E-02  0.8760942E-01
       -2   -1    0    0    0  501  0.00000000000E+00  0.00000000000E+00  0.49709221565E+03  0.49709221565E+03  0.25500000920E-02 0. -1.
        2   -1    0    0  501    0  0.00000000000E+00  0.00000000000E+00 -0.14547195950E+04  0.14547195950E+04  0.25500000920E-02 0.  1.
    10030    2    1    2    0    0  0.00000000000E+00  0.00000000000E+00 -0.95762737935E+03  0.19518118107E+04  0.17007407641E+04 0.  0.
        1    1    3    3  502    0 -0.11117825492E+03 -0.77861980677E+03 -0.84983624131E+03  0.11579425914E+04  0.50400001928E-02 0.  1.
       -1    1    3    3    0  502  0.11117825492E+03  0.77861980677E+03 -0.10779113804E+03  0.79386921928E+03  0.50400001928E-02 0. -1.
</event>
<event>
 5   0  0.1423543E-05  0.1700096E+04  0.7818609E-02  0.8761310E-01
       -2   -1    0    0    0  501  0.00000000000E+00  0.00000000000E+00  0.60268867041E+03  0.60268867041E+03  0.25500000920E-02 0.  1.
        2   -1    0    0  501    0  0.00000000000E+00  0.00000000000E+00 -0.11989302271E+04  0.11989302271E+04  0.25500000920E-02 0. -1.
    10030    2    1    2    0    0  0.00000000000E+00  0.00000000000E+00 -0.59624155673E+03  0.18016188975E+04  0.17000960732E+04 0.  0.
        3    1    3    3  502    0  0.61805968968E+03  0.21282826988E+03 -0.87397474786E+03  0.10913869720E+04  0.10100000352E+00 0. -1.
       -3    1    3    3    0  502 -0.61805968968E+03 -0.21282826988E+03  0.27773319113E+03  0.71023192559E+03  0.10100000352E+00 0.  1.
</event>
<event>
 5   0  0.1374441E-05  0.1699510E+04  0.7818609E-02  0.8761644E-01
        2   -1    0    0  501    0  0.00000000000E+00  0.00000000000E+00  0.10058150426E+04  0.10058150426E+04  0.25500000920E-02 0.  1.
       -2   -1    0    0    0  501  0.00000000000E+00  0.00000000000E+00 -0.71790848408E+03  0.71790848409E+03  0.25500000920E-02 0. -1.
    10030    2    1    2    0    0  0.00000000000E+00  0.00000000000E+00  0.28790655857E+03  0.17237235267E+04  0.16995095205E+04 0.  0.
        1    1    3    3  502    0 -0.29475288954E+03 -0.35049529436E+03 -0.58203618314E+03  0.74060268415E+03  0.50400001928E-02 0. -1.
       -1    1    3    3    0  502  0.29475288954E+03  0.35049529436E+03  0.86994274170E+03  0.98312084259E+03  0.50400001928E-02 0.  1.
</event>
<event>
 5   0  0.1423543E-05  0.1699331E+04  0.7818609E-02  0.8761746E-01
       -2   -1    0    0    0  501  0.00000000000E+00  0.00000000000E+00  0.23643399550E+03  0.23643399551E+03  0.25500000920E-02 0. -1.
        2   -1    0    0  501    0  0.00000000000E+00  0.00000000000E+00 -0.30534147640E+04  0.30534147640E+04  0.25500000920E-02 0.  1.
    10030    2    1    2    0    0  0.00000000000E+00  0.00000000000E+00 -0.28169807685E+04  0.32898487595E+04  0.16993305183E+04 0.  0.
        3    1    3    3  502    0 -0.83385806664E+03 -0.15431335136E+03 -0.15109167302E+04  0.17326284257E+04  0.10100000352E+00 0.  1.
       -3    1    3    3    0  502  0.83385806664E+03  0.15431335136E+03 -0.13060640383E+04  0.15572203338E+04  0.10100000352E+00 0. -1.
</event>
<event>
 5   0  0.1435301E-05  0.1700369E+04  0.7818609E-02  0.8761154E-01
        2   -1    0    0  501    0  0.00000000000E+00  0.00000000000E+00  0.10964387413E+04  0.10964387413E+04  0.25500000920E-02 0. -1.
       -2   -1    0    0    0  501  0.00000000000E+00  0.00000000000E+00 -0.65923737488E+03  0.65923737488E+03  0.25500000920E-02 0.  1.
    10030    2    1    2    0    0  0.00000000000E+00  0.00000000000E+00  0.43720136637E+03  0.17556761161E+04  0.17003686630E+04 0.  0.
        2    1    3    3  502    0 -0.29056217757E+03  0.33447301792E+03  0.96781593208E+03  0.10644088769E+04  0.25500000920E-02 0. -1.
       -2    1    3    3    0  502  0.29056217757E+03 -0.33447301792E+03 -0.53061456571E+03  0.69126723928E+03  0.25500000920E-02 0.  1.
</event>
<event>
 5   0  0.1374441E-05  0.1701134E+04  0.7818609E-02  0.8760718E-01
       -2   -1    0    0    0  501  0.00000000000E+00  0.00000000000E+00  0.75223671128E+03  0.75223671129E+03  0.25500000920E-02 0.  1.
        2   -1    0    0  501    0  0.00000000000E+00  0.00000000000E+00 -0.96175083116E+03  0.96175083116E+03  0.25500000920E-02 0. -1.
    10030    2    1    2    0    0  0.00000000000E+00  0.00000000000E+00 -0.20951411987E+03  0.17139875424E+04  0.17011340715E+04 0.  0.
        1    1    3    3  502    0  0.54394932199E+02 -0.76067454450E+03 -0.48427233951E+03  0.90338489590E+03  0.50400001928E-02 0. -1.
       -1    1    3    3    0  502 -0.54394932199E+02  0.76067454450E+03  0.27475821964E+03  0.81060264655E+03  0.50400001928E-02 0.  1.
</event>
<event>
 5   0  0.7583716E-06  0.1699951E+04  0.7818609E-02  0.8761393E-01
        1   -1    0    0  501    0  0.00000000000E+00  0.00000000000E+00  0.10318499824E+04  0.10318499824E+04  0.50400001928E-02 0. -1.
       -1   -1    0    0    0  501  0.00000000000E+00  0.00000000000E+00 -0.70015800832E+03  0.70015800834E+03  0.50400001928E-02 0.  1.
    10030    2    1    2    0    0  0.00000000000E+00  0.00000000000E+00  0.33169197408E+03  0.17320079907E+04  0.16999506211E+04 0.  0.
        5    1    3    3  502    0  0.73112781980E+03  0.42443612066E+03  0.76197908223E+02  0.84883574419E+03  0.46999998093E+01 0. -1.
       -5    1    3    3    0  502 -0.73112781980E+03 -0.42443612066E+03  0.25549406586E+03  0.88317224656E+03  0.46999998093E+01 0.  1.
</event>
<event>
 5   0  0.7583716E-06  0.1699625E+04  0.7818609E-02  0.8761578E-01
       -1   -1    0    0    0  501  0.00000000000E+00  0.00000000000E+00  0.33369568044E+03  0.33369568048E+03  0.50400001928E-02 0.  1.
        1   -1    0    0  501    0  0.00000000000E+00  0.00000000000E+00 -0.21641918350E+04  0.21641918350E+04  0.50400001928E-02 0. -1.
    10030    2    1    2    0    0  0.00000000000E+00  0.00000000000E+00 -0.18304961546E+04  0.24978875155E+04  0.16996252140E+04 0.  0.
        5    1    3    3  502    0  0.40923889651E+03  0.74324118733E+03 -0.98535362936E+03  0.13003183463E+04  0.46999998093E+01 0. -1.
       -5    1    3    3    0  502 -0.40923889651E+03 -0.74324118733E+03 -0.84514252520E+03  0.11975691691E+04  0.46999998093E+01 0.  1.
</event>
<event>
 5   0  0.1435301E-05  0.1699760E+04  0.7818609E-02  0.8761501E-01
        2   -1    0    0  501    0  0.00000000000E+00  0.00000000000E+00  0.16330348661E+04  0.16330348661E+04  0.25500000920E-02 0.  1.
       -2   -1    0    0    0  501  0.00000000000E+00  0.00000000000E+00 -0.44230310056E+03  0.44230310057E+03  0.25500000920E-02 0. -1.
    10030    2    1    2    0    0  0.00000000000E+00  0.00000000000E+00  0.11907317656E+04  0.20753379667E+04  0.16997604356E+04 0.  0.
        2    1    3    3  502    0 -0.74710333936E+03 -0.23978014504E+03  0.19665502596E+03  0.80890735988E+03  0.25500000920E-02 0. -1.
       -2    1    3    3    0  502  0.74710333936E+03  0.23978014504E+03  0.99407673962E+03  0.12664306068E+04  0.25500000920E-02 0.  1.
</event>
<event>
 5   0  0.7461128E-06  0.1699299E+04  0.7818609E-02  0.8761764E-01
        1   -1    0    0  501    0  0.00000000000E+00  0.00000000000E+00  0.29885711533E+03  0.29885711537E+03  0.50400001928E-02 0.  1.
       -1   -1    0    0    0  501  0.00000000000E+00  0.00000000000E+00 -0.24155507520E+04  0.24155507520E+04  0.50400001928E-02 0. -1.
    10030    2    1    2    0    0  0.00000000000E+00  0.00000000000E+00 -0.21166936367E+04  0.27144078674E+04  0.16992993023E+04 0.  0.
        3    1    3    3  502    0  0.39887700727E+03  0.23916373278E+03 -0.21941675022E+04  0.22429162258E+04  0.10100000352E+00 0. -1.
       -3    1    3    3    0  502 -0.39887700727E+03 -0.23916373278E+03  0.77473865565E+02  0.47149164155E+03  0.10100000352E+00 0.  1.
</event>
<event>
 5   0  0.7583716E-06  0.1699968E+04  0.7818609E-02  0.8761382E-01
       -1   -1    0    0    0  501  0.00000000000E+00  0.00000000000E+00  0.67071092795E+03  0.67071092797E+03  0.50400001928E-02 0. -1.
        1   -1    0    0  501    0  0.00000000000E+00  0.00000000000E+00 -0.10771749532E+04  0.10771749532E+04  0.50400001928E-02 0.  1.
    10030    2    1    2    0    0  0.00000000000E+00  0.00000000000E+00 -0.40646402520E+03  0.17478858811E+04  0.16999682496E+04 0.  0.
        5    1    3    3  502    0 -0.72492740320E+03 -0.29833430341E+03  0.13455191297E+03  0.79539260984E+03  0.46999998093E+01 0. -1.
       -5    1    3    3    0  502  0.72492740320E+03  0.29833430341E+03 -0.54101593817E+03  0.95249327130E+03  0.46999998093E+01 0.  1.
</event>
<event>
 5   0  0.1441756E-05  0.1691020E+04  0.7818609E-02  0.8766503E-01
        2   -1    0    0  501    0  0.00000000000E+00  0.00000000000E+00  0.12718331436E+04  0.12718331436E+04  0.25500000920E-02 0.  1.
       -2   -1    0    0    0  501  0.00000000000E+00  0.00000000000E+00 -0.56209184291E+03  0.56209184292E+03  0.25500000920E-02 0. -1.
    10030    2    1    2    0    0  0.00000000000E+00  0.00000000000E+00  0.70974130073E+03  0.18339249866E+04  0.16910198527E+04 0.  0.
        5    1    3    3  502    0  0.11066538286E+03 -0.59834669311E+03  0.99150503404E+03  0.11633442804E+04  0.46999998093E+01 0.  1.
       -5    1    3    3    0  502 -0.11066538286E+03  0.59834669311E+03 -0.28176373331E+03  0.67058070620E+03  0.46999998093E+01 0. -1.
</event>
<event>
 5   0  0.1423543E-05  0.1699786E+04  0.7818609E-02  0.8761487E-01
       -2   -1    0    0    0  501  0.00000000000E+00  0.00000000000E+00  0.52004200420E+03  0.52004200421E+03  0.25500000920E-02 0. -1.
        2   -1    0    0  501    0  0.00000000000E+00  0.00000000000E+00 -0.13889607502E+04  0.13889607502E+04  0.25500000920E-02 0.  1.
    10030    2    1    2    0    0  0.00000000000E+00  0.00000000000E+00 -0.86891874602E+03  0.19090027544E+04  0.16997857892E+04 0.  0.
        3    1    3    3  502    0 -0.60419946322E+02  0.46667237378E+03  0.36038306697E+03  0.59271379225E+03  0.10100000352E+00 0. -1.
       -3    1    3    3    0  502  0.60419946322E+02 -0.46667237378E+03 -0.12293018130E+04  0.13162889622E+04  0.10100000352E+00 0.  1.
</event>
<event>
 5   0  0.7583716E-06  0.1699409E+04  0.7818609E-02  0.8761702E-01
        1   -1    0    0  501    0  0.00000000000E+00  0.00000000000E+00  0.18911299782E+04  0.18911299782E+04  0.50400001928E-02 0. -1.
       -1   -1    0    0    0  501  0.00000000000E+00  0.00000000000E+00 -0.38178104183E+03  0.38178104186E+03  0.50400001928E-02 0.  1.
    10030    2    1    2    0    0  0.00000000000E+00  0.00000000000E+00  0.15093489364E+04  0.22729110201E+04  0.16994088070E+04 0.  0.
        5    1    3    3  502    0 -0.52493257416E+03 -0.66140873938E+03  0.88127415967E+03  0.12205252814E+04  0.46999998093E+01 0. -1.
       -5    1    3    3    0  502  0.52493257416E+03  0.66140873938E+03  0.62807477673E+03  0.10523857387E+04  0.46999998093E+01 0.  1.
</event>
<event>
 5   0  0.1435301E-05  0.1700295E+04  0.7818609E-02  0.8761196E-01
        2   -1    0    0  501    0  0.00000000000E+00  0.00000000000E+00  0.88840254634E+03  0.88840254634E+03  0.25500000920E-02 0.  1.
       -2   -1    0    0    0  501  0.00000000000E+00  0.00000000000E+00 -0.81354010312E+03  0.81354010313E+03  0.25500000920E-02 0. -1.
    10030    2    1    2    0    0  0.00000000000E+00  0.00000000000E+00  0.74862443214E+02  0.17019426495E+04  0.17002953851E+04 0.  0.
        2    1    3    3  502    0  0.60372575812E+03  0.53984132403E+03 -0.22134903619E+03  0.83958849561E+03  0.25500000920E-02 0.  1.
       -2    1    3    3    0  502 -0.60372575812E+03 -0.53984132403E+03  0.29621147940E+03  0.86235415386E+03  0.25500000920E-02 0. -1.
</event>
<event>
 5   0  0.7082527E-06  0.1700548E+04  0.7818609E-02  0.8761052E-01
        1   -1    0    0  501    0  0.00000000000E+00  0.00000000000E+00  0.13757631462E+04  0.13757631462E+04  0.50400001928E-02 0.  1.
       -1   -1    0    0    0  501  0.00000000000E+00  0.00000000000E+00 -0.52550182172E+03  0.52550182175E+03  0.50400001928E-02 0. -1.
    10030    2    1    2    0    0  0.00000000000E+00  0.00000000000E+00  0.85026132449E+03  0.19012649680E+04  0.17005481935E+04 0.  0.
        1    1    3    3  502    0 -0.19766899842E+03 -0.45003687628E+03 -0.35056009798E+03  0.60373719885E+03  0.50400001928E-02 0. -1.
       -1    1    3    3    0  502  0.19766899842E+03  0.45003687628E+03  0.12008214225E+04  0.12975277691E+04  0.50400001928E-02 0.  1.
</event>
<event>
 5   0  0.5229750E-06  0.1698844E+04  0.7818609E-02  0.8762024E-01
        3   -1    0    0  501    0  0.00000000000E+00  0.00000000000E+00  0.14818831174E+04  0.14818831209E+04  0.10100000352E+00 0.  1.
       -3   -1    0    0    0  501  0.00000000000E+00  0.00000000000E+00 -0.48689259410E+03  0.48689260457E+03  0.10100000352E+00 0. -1.
    10030    2    1    2    0    0  0.00000000000E+00  0.00000000000E+00  0.99499052333E+03  0.19687757254E+04  0.16988442293E+04 0.  0.
        5    1    3    3  502    0 -0.83472463401E+03  0.15411063325E+03  0.53378423491E+03  0.10027277803E+04  0.46999998093E+01 0. -1.
       -5    1    3    3    0  502  0.83472463401E+03 -0.15411063325E+03  0.46120628842E+03  0.96604794517E+03  0.46999998093E+01 0.  1.
</event>
<event>
 5   0  0.1374441E-05  0.1700368E+04  0.7818609E-02  0.8761155E-01
       -2   -1    0    0    0  501  0.00000000000E+00  0.00000000000E+00  0.74511167675E+03  0.74511167676E+03  0.25500000920E-02 0.  1.
        2   -1    0    0  501    0  0.00000000000E+00  0.00000000000E+00 -0.97007290914E+03  0.97007290915E+03  0.25500000920E-02 0. -1.
    10030    2    1    2    0    0  0.00000000000E+00  0.00000000000E+00 -0.22496123239E+03  0.17151845859E+04  0.17003677860E+04 0.  0.
        1    1    3    3  502    0 -0.42554917465E+03  0.40528012030E+03 -0.73221900382E+03  0.93887632068E+03  0.50400001928E-02 0. -1.
       -1    1    3    3    0  502  0.42554917465E+03 -0.40528012030E+03  0.50725777143E+03  0.77630826522E+03  0.50400001928E-02 0.  1.
</event>
<event>
 5   0  0.7476457E-06  0.1700409E+04  0.7818609E-02  0.8761131E-01
       -1   -1    0    0    0  501  0.00000000000E+00  0.00000000000E+00  0.56355479275E+03  0.56355479277E+03  0.50400001928E-02 0. -1.
        1   -1    0    0  501    0  0.00000000000E+00  0.00000000000E+00 -0.12826579733E+04  0.12826579733E+04  0.50400001928E-02 0.  1.
    10030    2    1    2    0    0  0.00000000000E+00  0.00000000000E+00 -0.71910318051E+03  0.18462127660E+04  0.17004094193E+04 0.  0.
        2    1    3    3  502    0 -0.38834094179E+03 -0.59989215051E+03 -0.85966554849E+03  0.11179016659E+04  0.25500000920E-02 0.  1.
       -2    1    3    3    0  502  0.38834094179E+03  0.59989215051E+03  0.14056236798E+03  0.72831110016E+03  0.25500000920E-02 0. -1.
</event>
<event>
 5   0  0.7461128E-06  0.1700203E+04  0.7818609E-02  0.8761248E-01
       -1   -1    0    0    0  501  0.00000000000E+00  0.00000000000E+00  0.54327947100E+03  0.54327947102E+03  0.50400001928E-02 0.  1.
        1   -1    0    0  501    0  0.00000000000E+00  0.00000000000E+00 -0.13302045110E+04  0.13302045110E+04  0.50400001928E-02 0. -1.
    10030    2    1    2    0    0  0.00000000000E+00  0.00000000000E+00 -0.78692504003E+03  0.18734839821E+04  0.17002032856E+04 0.  0.
        3    1    3    3  502    0  0.47167439820E+03  0.11902037391E+03  0.37474890784E+03  0.61406786389E+03  0.10100000352E+00 0.  1.
       -3    1    3    3    0  502 -0.47167439820E+03 -0.11902037391E+03 -0.11616739479E+04  0.12594161182E+04  0.10100000352E+00 0. -1.
</event>
<event>
 5   0  0.7583716E-06  0.1698840E+04  0.7818609E-02  0.8762026E-01
        1   -1    0    0  501    0  0.00000000000E+00  0.00000000000E+00  0.63669648270E+03  0.63669648272E+03  0.50400001928E-02 0.  1.
       -1   -1    0    0    0  501  0.00000000000E+00  0.00000000000E+00 -0.11332149299E+04  0.11332149300E+04  0.50400001928E-02 0. -1.
    10030    2    1    2    0    0  0.00000000000E+00  0.00000000000E+00 -0.49651844725E+03  0.17699114127E+04  0.16988395569E+04 0.  0.
        5    1    3    3  502    0  0.21486916291E+03 -0.68460445053E+03  0.22533480017E+03  0.75209698378E+03  0.46999998093E+01 0.  1.
       -5    1    3    3    0  502 -0.21486916291E+03  0.68460445053E+03 -0.72185324742E+03  0.10178144289E+04  0.46999998093E+01 0. -1.
</event>
<event>
 5   0  0.7476457E-06  0.1699431E+04  0.7818609E-02  0.8761689E-01
        1   -1    0    0  501    0  0.00000000000E+00  0.00000000000E+00  0.24511819060E+04  0.24511819060E+04  0.50400001928E-02 0. -1.
       -1   -1    0    0    0  501  0.00000000000E+00  0.00000000000E+00 -0.29455837126E+03  0.29455837131E+03  0.50400001928E-02 0.  1.
    10030    2    1    2    0    0  0.00000000000E+00  0.00000000000E+00  0.21566235348E+04  0.27457402774E+04  0.16994306693E+04 0.  0.
        2    1    3    3  502    0  0.31411229493E+03  0.54592112690E+03  0.15677809097E+03  0.64905760949E+03  0.25500000920E-02 0.  1.
       -2    1    3    3    0  502 -0.31411229493E+03 -0.54592112690E+03  0.19998454438E+04  0.20966826679E+04  0.25500000920E-02 0. -1.
</event>
<event>
 5   0  0.1419012E-05  0.1700944E+04  0.7818609E-02  0.8760826E-01
       -2   -1    0    0    0  501  0.00000000000E+00  0.00000000000E+00  0.83633064446E+03  0.83633064446E+03  0.25500000920E-02 0.  1.
        2   -1    0    0  501    0  0.00000000000E+00  0.00000000000E+00 -0.86485276604E+03  0.86485276605E+03  0.25500000920E-02 0. -1.
    10030    2    1    2    0    0  0.00000000000E+00  0.00000000000E+00 -0.28522121586E+02  0.17011834105E+04  0.17009442921E+04 0.  0.
        4    1    3    3  502    0  0.77762921594E+03  0.29871170058E+03  0.15712632987E+03  0.84771821615E+03  0.12699999809E+01 0. -1.
       -4    1    3    3    0  502 -0.77762921594E+03 -0.29871170058E+03 -0.18564845146E+03  0.85346519436E+03  0.12699999809E+01 0.  1.
</event>
<event>
 5   0  0.7455669E-06  0.1700376E+04  0.7818609E-02  0.8761150E-01
        1   -1    0    0  501    0  0.00000000000E+00  0.00000000000E+00  0.95585971414E+03  0.95585971415E+03  0.50400001928E-02 0. -1.
       -1   -1    0    0    0  501  0.00000000000E+00  0.00000000000E+00 -0.75619845524E+03  0.75619845525E+03  0.50400001928E-02 0.  1.
    10030    2    1    2    0    0  0.00000000000E+00  0.00000000000E+00  0.19966125890E+03  0.17120581694E+04  0.17003760046E+04 0.  0.
        4    1    3    3  502    0 -0.48167700920E+03 -0.38605861925E+03  0.68845294558E+03  0.92467457512E+03  0.12699999809E+01 0. -1.
       -4    1    3    3    0  502  0.48167700920E+03  0.38605861925E+03 -0.48879168668E+03  0.78738359429E+03  0.12699999809E+01 0.  1.
</event>
<event>
 5   0  0.7583716E-06  0.1700649E+04  0.7818609E-02  0.8760995E-01
       -1   -1    0    0    0  501  0.00000000000E+00  0.00000000000E+00  0.99910529960E+03  0.99910529961E+03  0.50400001928E-02 0.  1.
        1   -1    0    0  501    0  0.00000000000E+00  0.00000000000E+00 -0.72369894012E+03  0.72369894013E+03  0.50400001928E-02 0. -1.
    10030    2    1    2    0    0  0.00000000000E+00  0.00000000000E+00  0.27540635948E+03  0.17228042397E+04  0.17006486367E+04 0.  0.
        5    1    3    3  502    0 -0.44505202638E+03  0.21445036794E+03  0.83879529071E+03  0.97347824639E+03  0.46999998093E+01 0.  1.
       -5    1    3    3    0  502  0.44505202638E+03 -0.21445036794E+03 -0.56338893122E+03  0.74932599335E+03  0.46999998093E+01 0. -1.
</event>
<event>
 5   0  0.5229750E-06  0.1699668E+04  0.7818609E-02  0.8761554E-01
       -4   -1    0    0    0  501  0.00000000000E+00  0.00000000000E+00  0.11682197276E+04  0.11682204180E+04  0.12699999809E+01 0.  1.
        4   -1    0    0  501    0  0.00000000000E+00  0.00000000000E+00 -0.61821902012E+03  0.61822032460E+03  0.12699999809E+01 0. -1.
    10030    2    1    2    0    0  0.00000000000E+00  0.00000000000E+00  0.55000070751E+03  0.17864407426E+04  0.16996675405E+04 0.  0.
        3    1    3    3  502    0 -0.32460555250E+03  0.17720720675E+03 -0.52920721358E+03  0.64562484768E+03  0.10100000352E+00 0. -1.
       -3    1    3    3    0  502  0.32460555250E+03 -0.17720720675E+03  0.10792079211E+04  0.11408158949E+04  0.10100000352E+00 0.  1.
</event>
<event>
 5   0  0.1374441E-05  0.1702822E+04  0.7818609E-02  0.8759757E-01
        2   -1    0    0  501    0  0.00000000000E+00  0.00000000000E+00  0.40133549356E+03  0.40133549357E+03  0.25500000920E-02 0.  1.
       -2   -1    0    0    0  501  0.00000000000E+00  0.00000000000E+00 -0.18062204780E+04  0.18062204780E+04  0.25500000920E-02 0. -1.
    10030    2    1    2    0    0  0.00000000000E+00  0.00000000000E+00 -0.14048849845E+04  0.22075559716E+04  0.17028216431E+04 0.  0.
        1    1    3    3  502    0 -0.54753494793E+03 -0.84968711940E+02  0.13561067095E+03  0.57044233303E+03  0.50400001928E-02 0.  1.
       -1    1    3    3    0  502  0.54753494793E+03  0.84968711940E+02 -0.15404956554E+04  0.16371136386E+04  0.50400001928E-02 0. -1.
</event>
<event>
 5   0  0.1423543E-05  0.1699849E+04  0.7818609E-02  0.8761451E-01
       -2   -1    0    0    0  501  0.00000000000E+00  0.00000000000E+00  0.10567639516E+04  0.10567639516E+04  0.25500000920E-02 0.  1.
        2   -1    0    0  501    0  0.00000000000E+00  0.00000000000E+00 -0.68356950042E+03  0.68356950043E+03  0.25500000920E-02 0. -1.
    10030    2    1    2    0    0  0.00000000000E+00  0.00000000000E+00  0.37319445115E+03  0.17403334520E+04  0.16998489421E+04 0.  0.
        3    1    3    3  502    0  0.30508645570E+03 -0.13453408408E+03  0.98700598549E+03  0.10418051597E+04  0.10100000352E+00 0.  1.
       -3    1    3    3    0  502 -0.30508645570E+03  0.13453408408E+03 -0.61381153434E+03  0.69852829228E+03  0.10100000352E+00 0. -1.
</event>
<event>
 5   0  0.1423543E-05  0.1699967E+04  0.7818609E-02  0.8761383E-01
       -2   -1    0    0    0  501  0.00000000000E+00  0.00000000000E+00  0.11758475240E+04  0.11758475240E+04  0.25500000920E-02 0.  1.
        2   -1    0    0  501    0  0.00000000000E+00  0.00000000000E+00 -0.61442657260E+03  0.61442657260E+03  0.25500000920E-02 0. -1.
    10030    2    1    2    0    0  0.00000000000E+00  0.00000000000E+00  0.56142095138E+03  0.17902740966E+04  0.16999670162E+04 0.  0.
        3    1    3    3  502    0 -0.81173826161E+03 -0.25202473991E+03  0.27434984284E+03  0.89314238582E+03  0.10100000352E+00 0.  1.
       -3    1    3    3    0  502  0.81173826161E+03  0.25202473991E+03  0.28707110853E+03  0.89713171075E+03  0.10100000352E+00 0. -1.
</event>
<event>
 5   0  0.7455669E-06  0.1700065E+04  0.7818609E-02  0.8761327E-01
        1   -1    0    0  501    0  0.00000000000E+00  0.00000000000E+00  0.93190049620E+03  0.93190049622E+03  0.50400001928E-02 0. -1.
       -1   -1    0    0    0  501  0.00000000000E+00  0.00000000000E+00 -0.77535696533E+03  0.77535696535E+03  0.50400001928E-02 0.  1.
    10030    2    1    2    0    0  0.00000000000E+00  0.00000000000E+00  0.15654353087E+03  0.17072574616E+04  0.17000653408E+04 0.  0.
        4    1    3    3  502    0  0.64051236013E+03 -0.54320419782E+02  0.63681456312E+03  0.90484318652E+03  0.12699999809E+01 0. -1.
       -4    1    3    3    0  502 -0.64051236013E+03  0.54320419782E+02 -0.48027103225E+03  0.80241427505E+03  0.12699999809E+01 0.  1.
</event>
<event>
 5   0  0.1374441E-05  0.1709033E+04  0.7818609E-02  0.8756229E-01
       -2   -1    0    0    0  501  0.00000000000E+00  0.00000000000E+00  0.30858459649E+03  0.30858459650E+03  0.25500000920E-02 0. -1.
        2   -1    0    0  501    0  0.00000000000E+00  0.00000000000E+00 -0.23662817482E+04  0.23662817482E+04  0.25500000920E-02 0.  1.
    10030    2    1    2    0    0  0.00000000000E+00  0.00000000000E+00 -0.20576971517E+04  0.26748663447E+04  0.17090325901E+04 0.  0.
        1    1    3    3  502    0  0.17012773367E+03  0.45618878328E+03  0.70257721267E+02  0.49192255404E+03  0.50400001928E-02 0. -1.
       -1    1    3    3    0  502 -0.17012773367E+03 -0.45618878328E+03 -0.21279548730E+04  0.21829437907E+04  0.50400001928E-02 0.  1.
</event>
<event>
 5   0  0.7476457E-06  0.1699790E+04  0.7818609E-02  0.8761484E-01
        1   -1    0    0  501    0  0.00000000000E+00  0.00000000000E+00  0.18647713859E+04  0.18647713859E+04  0.50400001928E-02 0.  1.
       -1   -1    0    0    0  501  0.00000000000E+00  0.00000000000E+00 -0.38735102825E+03  0.38735102829E+03  0.50400001928E-02 0. -1.
    10030    2    1    2    0    0  0.00000000000E+00  0.00000000000E+00  0.14774203576E+04  0.22521224142E+04  0.16997895327E+04 0.  0.
        2    1    3    3  502    0 -0.42768581402E+02 -0.82468043552E+03  0.10050009000E+04  0.13007512373E+04  0.25500000920E-02 0. -1.
       -2    1    3    3    0  502  0.42768581402E+02  0.82468043552E+03  0.47241945766E+03  0.95137117692E+03  0.25500000920E-02 0.  1.
</event>
<event>
 5   0  0.7082527E-06  0.1699743E+04  0.7818609E-02  0.8761511E-01
       -1   -1    0    0    0  501  0.00000000000E+00  0.00000000000E+00  0.72683830999E+03  0.72683831001E+03  0.50400001928E-02 0. -1.
        1   -1    0    0  501    0  0.00000000000E+00  0.00000000000E+00 -0.99373111769E+03  0.99373111770E+03  0.50400001928E-02 0.  1.
    10030    2    1    2    0    0  0.00000000000E+00  0.00000000000E+00 -0.26689280770E+03  0.17205694277E+04  0.16997433291E+04 0.  0.
        1    1    3    3  502    0  0.46383012924E+03  0.23900086718E+03 -0.81250265228E+03  0.96561916058E+03  0.50400001928E-02 0.  1.
       -1    1    3    3    0  502 -0.46383012924E+03 -0.23900086718E+03  0.54560984458E+03  0.75495026712E+03  0.50400001928E-02 0. -1.
</event>
<event>
 5   0  0.7583716E-06  0.1699575E+04  0.7818609E-02  0.8761607E-01
        1   -1    0    0  501    0  0.00000000000E+00  0.00000000000E+00  0.99789777463E+03  0.99789777465E+03  0.50400001928E-02 0.  1.
       -1   -1    0    0    0  501  0.00000000000E+00  0.00000000000E+00 -0.72366042539E+03  0.72366042541E+03  0.50400001928E-02 0. -1.
    10030    2    1    2    0    0  0.00000000000E+00  0.00000000000E+00  0.27423734924E+03  0.17215582001E+04  0.16995753918E+04 0.  0.
        5    1    3    3  502    0  0.39262972869E+03  0.71337088184E+03 -0.10904919996E+03  0.82156554025E+03  0.46999998093E+01 0. -1.
       -5    1    3    3    0  502 -0.39262972869E+03 -0.71337088184E+03  0.38328654921E+03  0.89999265981E+03  0.46999998093E+01 0.  1.
</event>
<event>
 5   0  0.1435301E-05  0.1700170E+04  0.7818609E-02  0.8761268E-01
       -2   -1    0    0    0  501  0.00000000000E+00  0.00000000000E+00  0.77139560596E+03  0.77139560597E+03  0.25500000920E-02 0. -1.
        2   -1    0    0  501    0  0.00000000000E+00  0.00000000000E+00 -0.93680112706E+03  0.93680112707E+03  0.25500000920E-02 0.  1.
    10030    2    1    2    0    0  0.00000000000E+00  0.00000000000E+00 -0.16540552110E+03  0.17081967330E+04  0.17001697246E+04 0.  0.
        2    1    3    3  502    0  0.61409724085E+03 -0.52434621460E+03  0.18423922666E+03  0.82825024396E+03  0.25500000920E-02 0. -1.
       -2    1    3    3    0  502 -0.61409724085E+03  0.52434621460E+03 -0.34964474777E+03  0.87994648907E+03  0.25500000920E-02 0.  1.
</event>
<event>
 5   0  0.1374441E-05  0.1699858E+04  0.7818609E-02  0.8761445E-01
        2   -1    0    0  501    0  0.00000000000E+00  0.00000000000E+00  0.16164113261E+04  0.16164113261E+04  0.25500000920E-02 0. -1.
       -2   -1    0    0    0  501  0.00000000000E+00  0.00000000000E+00 -0.44690332129E+03  0.44690332130E+03  0.25500000920E-02 0.  1.
    10030    2    1    2    0    0  0.00000000000E+00  0.00000000000E+00  0.11695080048E+04  0.20633146474E+04  0.16998583355E+04 0.  0.
        1    1    3    3  502    0 -0.60050294398E+03 -0.20443249161E+03  0.12713737566E+04  0.14208404761E+04  0.50400001928E-02 0. -1.
       -1    1    3    3    0  502  0.60050294398E+03  0.20443249161E+03 -0.10186575186E+03  0.64247417130E+03  0.50400001928E-02 0.  1.
</event>
<event>
 5   0  0.1423543E-05  0.1699784E+04  0.7818609E-02  0.8761487E-01
       -2   -1    0    0    0  501  0.00000000000E+00  0.00000000000E+00  0.47195493737E+03  0.47195493738E+03  0.25500000920E-02 0.  1.
        2   -1    0    0  501    0  0.00000000000E+00  0.00000000000E+00 -0.15304780253E+04  0.15304780253E+04  0.25500000920E-02 0. -1.
    10030    2    1    2    0    0  0.00000000000E+00  0.00000000000E+00 -0.10585230880E+04  0.20024329627E+04  0.16997842929E+04 0.  0.
        3    1    3    3  502    0 -0.33702777544E+03 -0.14894873056E+02 -0.14482223497E+04  0.14869961543E+04  0.10100000352E+00 0. -1.
       -3    1    3    3    0  502  0.33702777544E+03  0.14894873056E+02  0.38969926171E+03  0.51543680839E+03  0.10100000352E+00 0.  1.
</event>
<event>
 5   0  0.5229750E-06  0.1699072E+04  0.7818609E-02  0.8761894E-01
       -3   -1    0    0    0  501  0.00000000000E+00  0.00000000000E+00  0.83293921650E+03  0.83293922263E+03  0.10100000352E+00 0. -1.
        3   -1    0    0  501    0  0.00000000000E+00  0.00000000000E+00 -0.86646326330E+03  0.86646326918E+03  0.10100000352E+00 0.  1.
    10030    2    1    2    0    0  0.00000000000E+00  0.00000000000E+00 -0.33524046792E+02  0.16994024918E+04  0.16990717959E+04 0.  0.
        1    1    3    3  502    0  0.50229192364E+03  0.33976149108E+03  0.57831276097E+03  0.83796222880E+03  0.50400001928E-02 0. -1.
       -1    1    3    3    0  502 -0.50229192364E+03 -0.33976149108E+03 -0.61183680776E+03  0.86144026301E+03  0.50400001928E-02 0.  1.
</event>
<event>
 5   0  0.5229750E-06  0.1700500E+04  0.7818609E-02  0.8761079E-01
       -4   -1    0    0    0  501  0.00000000000E+00  0.00000000000E+00  0.43952527981E+03  0.43952711463E+03  0.12699999809E+01 0.  1.
        4   -1    0    0  501    0  0.00000000000E+00  0.00000000000E+00 -0.16447800326E+04  0.16447805229E+04  0.12699999809E+01 0. -1.
    10030    2    1    2    0    0  0.00000000000E+00  0.00000000000E+00 -0.12052547528E+04  0.20843076376E+04  0.17004997233E+04 0.  0.
        1    1    3    3  502    0  0.70304609977E+03  0.21004499394E+03 -0.11291550806E+04  0.13466194392E+04  0.50400001928E-02 0. -1.
       -1    1    3    3    0  502 -0.70304609977E+03 -0.21004499394E+03 -0.76099672198E+02  0.73768819837E+03  0.50400001928E-02 0.  1.
</event>
<event>
 5   0  0.1419012E-05  0.1700385E+04  0.7818609E-02  0.8761145E-01
        2   -1    0    0  501    0  0.00000000000E+00  0.00000000000E+00  0.74421955002E+03  0.74421955002E+03  0.25500000920E-02 0.  1.
       -2   -1    0    0    0  501  0.00000000000E+00  0.00000000000E+00 -0.97125572009E+03  0.97125572010E+03  0.25500000920E-02 0. -1.
    10030    2    1    2    0    0  0.00000000000E+00  0.00000000000E+00 -0.22703617008E+03  0.17154752701E+04  0.17003852445E+04 0.  0.
        4    1    3    3  502    0 -0.35172080992E+03  0.18419681038E+03 -0.87198095678E+03  0.95811710922E+03  0.12699999809E+01 0. -1.
       -4    1    3    3    0  502  0.35172080992E+03 -0.18419681038E+03  0.64494478671E+03  0.75735816090E+03  0.12699999809E+01 0.  1.
</event>
<event>
 5   0  0.1374441E-05  0.1700679E+04  0.7818609E-02  0.8760977E-01
        2   -1    0    0  501    0  0.00000000000E+00  0.00000000000E+00  0.74402662644E+03  0.74402662645E+03  0.25500000920E-02 0.  1.
       -2   -1    0    0    0  501  0.00000000000E+00  0.00000000000E+00 -0.97184321440E+03  0.97184321440E+03  0.25500000920E-02 0. -1.
    10030    2    1    2    0    0  0.00000000000E+00  0.00000000000E+00 -0.22781658796E+03  0.17158698409E+04  0.17006789565E+04 0.  0.
        1    1    3    3  502    0  0.82912196055E+03 -0.13167974015E+03 -0.25037341586E+03  0.87605343834E+03  0.50400001928E-02 0. -1.
       -1    1    3    3    0  502 -0.82912196055E+03  0.13167974015E+03  0.22556827904E+02  0.83981640252E+03  0.50400001928E-02 0.  1.
</event>
<event>
 5   0  0.7082527E-06  0.1699781E+04  0.7818609E-02  0.8761489E-01
       -1   -1    0    0    0  501  0.00000000000E+00  0.00000000000E+00  0.45368484875E+03  0.45368484878E+03  0.50400001928E-02 0.  1.
        1   -1    0    0  501    0  0.00000000000E+00  0.00000000000E+00 -0.15921051806E+04  0.15921051806E+04  0.50400001928E-02 0. -1.
    10030    2    1    2    0    0  0.00000000000E+00  0.00000000000E+00 -0.11384203318E+04  0.20457900294E+04  0.16997811601E+04 0.  0.
        1    1    3    3  502    0 -0.21073839327E+03 -0.23420852908E+03  0.38080248651E+03  0.49424168101E+03  0.50400001928E-02 0.  1.
       -1    1    3    3    0  502  0.21073839327E+03  0.23420852908E+03 -0.15192228183E+04  0.15515483484E+04  0.50400001928E-02 0. -1.
</event>
<event>
 5   0  0.7583716E-06  0.1700496E+04  0.7818609E-02  0.8761081E-01
        1   -1    0    0  501    0  0.00000000000E+00  0.00000000000E+00  0.92334678088E+03  0.92334678089E+03  0.50400001928E-02 0.  1.
       -1   -1    0    0    0  501  0.00000000000E+00  0.00000000000E+00 -0.78293637484E+03  0.78293637486E+03  0.50400001928E-02 0. -1.
    10030    2    1    2    0    0  0.00000000000E+00  0.00000000000E+00  0.14041040604E+03  0.17062831558E+04  0.17004961410E+04 0.  0.
        5    1    3    3  502    0  0.18069423602E+03 -0.16488388871E+03  0.88726287991E+03  0.92037742896E+03  0.46999998093E+01 0.  1.
       -5    1    3    3    0  502 -0.18069423602E+03  0.16488388871E+03 -0.74685247386E+03  0.78590572679E+03  0.46999998093E+01 0. -1.
</event>
<event>
 5   0  0.1441756E-05  0.1699827E+04  0.7818609E-02  0.8761463E-01
       -2   -1    0    0    0  501  0.00000000000E+00  0.00000000000E+00  0.71658055123E+03  0.71658055124E+03  0.25500000920E-02 0.  1.
        2   -1    0    0  501    0  0.00000000000E+00  0.00000000000E+00 -0.10080558731E+04  0.10080558731E+04  0.25500000920E-02 0. -1.
    10030    2    1    2    0    0  0.00000000000E+00  0.00000000000E+00 -0.29147532185E+03  0.17246364243E+04  0.16998273244E+04 0.  0.
        5    1    3    3  502    0  0.48086611689E+03  0.14325882828E+03 -0.84173496274E+03  0.97994650454E+03  0.46999998093E+01 0. -1.
       -5    1    3    3    0  502 -0.48086611689E+03 -0.14325882828E+03  0.55025964089E+03  0.74468991979E+03  0.46999998093E+01 0.  1.
</event>
<event>
 5   0  0.1441756E-05  0.1699226E+04  0.7818609E-02  0.8761806E-01
       -2   -1    0    0    0  501  0.00000000000E+00  0.00000000000E+00  0.52776747772E+03  0.52776747773E+03  0.25500000920E-02 0. -1.
        2   -1    0    0  501    0  0.00000000000E+00  0.00000000000E+00 -0.13677282350E+04  0.13677282350E+04  0.25500000920E-02 0.  1.
    10030    2    1    2    0    0  0.00000000000E+00  0.00000000000E+00 -0.83996075726E+03  0.18954957127E+04  0.16992262719E+04 0.  0.
        5    1    3    3  502    0 -0.24775592761E+03 -0.44342765772E+03 -0.11796789685E+04  0.12843969970E+04  0.46999998093E+01 0.  1.
       -5    1    3    3    0  502  0.24775592761E+03  0.44342765772E+03  0.33971821121E+03  0.61109871570E+03  0.46999998093E+01 0. -1.
</event>
<event>
 5   0  0.1441756E-05  0.1698653E+04  0.7818609E-02  0.8762133E-01
       -2   -1    0    0    0  501  0.00000000000E+00  0.00000000000E+00  0.13430766115E+04  0.13430766115E+04  0.25500000920E-02 0.  1.
        2   -1    0    0  501    0  0.00000000000E+00  0.00000000000E+00 -0.53709159662E+03  0.53709159662E+03  0.25500000920E-02 0. -1.
    10030    2    1    2    0    0  0.00000000000E+00  0.00000000000E+00  0.80598501484E+03  0.18801682081E+04  0.16986525974E+04 0.  0.
        5    1    3    3  502    0  0.19117546758E+03 -0.16897882339E+03  0.12996375767E+04  0.13244552930E+04  0.46999998093E+01 0.  1.
       -5    1    3    3    0  502 -0.19117546758E+03  0.16897882339E+03 -0.49365256191E+03  0.55571291512E+03  0.46999998093E+01 0. -1.
</event>
<event>
 5   0  0.1419012E-05  0.1701904E+04  0.7818609E-02  0.8760279E-01
        2   -1    0    0  501    0  0.00000000000E+00  0.00000000000E+00  0.96237146734E+03  0.96237146734E+03  0.25500000920E-02 0.  1.
       -2   -1    0    0    0  501  0.00000000000E+00  0.00000000000E+00 -0.75243246262E+03  0.75243246263E+03  0.25500000920E-02 0. -1.
    10030    2    1    2    0    0  0.00000000000E+00  0.00000000000E+00  0.20993900472E+03  0.17148039300E+04  0.17019042666E+04 0.  0.
        4    1    3    3  502    0  0.23112334279E+03 -0.81522784327E+03  0.18368645192E+03  0.86703907728E+03  0.12699999809E+01 0.  1.
       -4    1    3    3    0  502 -0.23112334279E+03  0.81522784327E+03  0.26252552798E+02  0.84776485268E+03  0.12699999809E+01 0. -1.
</event>
<event>
 5   0  0.1419012E-05  0.1700226E+04  0.7818609E-02  0.8761235E-01
       -2   -1    0    0    0  501  0.00000000000E+00  0.00000000000E+00  0.38879299324E+03  0.38879299325E+03  0.25500000920E-02 0. -1.
        2   -1    0    0  501    0  0.00000000000E+00  0.00000000000E+00 -0.18588099432E+04  0.18588099432E+04  0.25500000920E-02 0.  1.
    10030    2    1    2    0    0  0.00000000000E+00  0.00000000000E+00 -0.14700169499E+04  0.22476029364E+04  0.17002261987E+04 0.  0.
        4    1    3    3  502    0 -0.29794542373E+03  0.23473203588E+03  0.27072909919E+03  0.46601122544E+03  0.12699999809E+01 0. -1.
       -4    1    3    3    0  502  0.29794542373E+03 -0.23473203588E+03 -0.17407460491E+04  0.17815917110E+04  0.12699999809E+01 0.  1.
</event>
<event>
 5   0  0.7583716E-06  0.1701028E+04  0.7818609E-02  0.8760778E-01
        1   -1    0    0  501    0  0.00000000000E+00  0.00000000000E+00  0.13577890829E+04  0.13577890830E+04  0.50400001928E-02 0. -1.
       -1   -1    0    0    0  501  0.00000000000E+00  0.00000000000E+00 -0.53275908192E+03  0.53275908194E+03  0.50400001928E-02 0.  1.
    10030    2    1    2    0    0  0.00000000000E+00  0.00000000000E+00  0.82503000103E+03  0.18905481649E+04  0.17010284716E+04 0.  0.
        5    1    3    3  502    0  0.36324406892E+02 -0.46246405384E+03  0.12047907516E+04  0.12910210335E+04  0.46999998093E+01 0.  1.
       -5    1    3    3    0  502 -0.36324406892E+02  0.46246405384E+03 -0.37976075060E+03  0.59952713143E+03  0.46999998093E+01 0. -1.
</event>
<event>
 5   0  0.1423543E-05  0.1698781E+04  0.7818609E-02  0.8762060E-01
        2   -1    0    0  501    0  0.00000000000E+00  0.00000000000E+00  0.99061843755E+03  0.99061843756E+03  0.25500000920E-02 0. -1.
       -2   -1    0    0    0  501  0.00000000000E+00  0.00000000000E+00 -0.72829649716E+03  0.72829649716E+03  0.25500000920E-02 0.  1.
    10030    2    1    2    0    0  0.00000000000E+00  0.00000000000E+00  0.26232194039E+03  0.17189149347E+04  0.16987806664E+04 0.  0.
        3    1    3    3  502    0 -0.69562558851E+03  0.22726244379E+03  0.56745674457E+03  0.92604014217E+03  0.10100000352E+00 0. -1.
       -3    1    3    3    0  502  0.69562558851E+03 -0.22726244379E+03 -0.30513480418E+03  0.79287479255E+03  0.10100000352E+00 0.  1.
</event>
<event>
 5   0  0.1435301E-05  0.1700810E+04  0.7818609E-02  0.8760902E-01
        2   -1    0    0  501    0  0.00000000000E+00  0.00000000000E+00  0.17850294585E+04  0.17850294585E+04  0.25500000920E-02 0.  1.
       -2   -1    0    0    0  501  0.00000000000E+00  0.00000000000E+00 -0.40514107715E+03  0.40514107716E+03  0.25500000920E-02 0. -1.
    10030    2    1    2    0    0  0.00000000000E+00  0.00000000000E+00  0.13798883814E+04  0.21901705357E+04  0.17008101100E+04 0.  0.
        2    1    3    3  502    0 -0.83586126975E+03 -0.14965607188E+03  0.74934371404E+03  0.11325091628E+04  0.25500000920E-02 0.  1.
       -2    1    3    3    0  502  0.83586126975E+03  0.14965607188E+03  0.63054466733E+03  0.10576613728E+04  0.25500000920E-02 0. -1.
</event>
<event>
 5   0  0.7461128E-06  0.1704266E+04  0.7818609E-02  0.8758935E-01
        1   -1    0    0  501    0  0.00000000000E+00  0.00000000000E+00  0.26106947260E+04  0.26106947260E+04  0.50400001928E-02 0.  1.
       -1   -1    0    0    0  501  0.00000000000E+00  0.00000000000E+00 -0.27813694522E+03  0.27813694526E+03  0.50400001928E-02 0. -1.
    10030    2    1    2    0    0  0.00000000000E+00  0.00000000000E+00  0.23325577808E+04  0.28888316713E+04  0.17042660075E+04 0.  0.
        3    1    3    3  502    0  0.10979687130E+03 -0.57095222972E+03  0.22222461047E+04  0.22970458336E+04  0.10100000352E+00 0.  1.
       -3    1    3    3    0  502 -0.10979687130E+03  0.57095222972E+03  0.11031167606E+03  0.59178583765E+03  0.10100000352E+00 0. -1.
</event>
<event>
 5   0  0.1441756E-05  0.1699869E+04  0.7818609E-02  0.8761439E-01
       -2   -1    0    0    0  501  0.00000000000E+00  0.00000000000E+00  0.10253495075E+04  0.10253495075E+04  0.25500000920E-02 0. -1.
        2   -1    0    0  501    0  0.00000000000E+00  0.00000000000E+00 -0.70452880492E+03  0.70452880492E+03  0.25500000920E-02 0.  1.
    10030    2    1    2    0    0  0.00000000000E+00  0.00000000000E+00  0.32082070258E+03  0.17298783124E+04  0.16998685398E+04 0.  0.
        5    1    3    3  502    0 -0.49016527560E+03 -0.24326208154E+03  0.82222031476E+03  0.98767746441E+03  0.46999998093E+01 0. -1.
       -5    1    3    3    0  502  0.49016527560E+03  0.24326208154E+03 -0.50139961217E+03  0.74220084802E+03  0.46999998093E+01 0.  1.
</event>
<event>
 5   0  0.1435301E-05  0.1699572E+04  0.7818609E-02  0.8761609E-01
        2   -1    0    0  501    0  0.00000000000E+00  0.00000000000E+00  0.60620161382E+03  0.60620161382E+03  0.25500000920E-02 0. -1.
       -2   -1    0    0    0  501  0.00000000000E+00  0.00000000000E+00 -0.11912469898E+04  0.11912469898E+04  0.25500000920E-02 0.  1.
    10030    2    1    2    0    0  0.00000000000E+00  0.00000000000E+00 -0.58504537602E+03  0.17974486037E+04  0.16995715315E+04 0.  0.
        2    1    3    3  502    0 -0.32717481143E+03 -0.68410422281E+03 -0.69813802558E+03  0.10307466457E+04  0.25500000920E-02 0. -1.
       -2    1    3    3    0  502  0.32717481143E+03  0.68410422281E+03  0.11309264957E+03  0.76670195793E+03  0.25500000920E-02 0.  1.
</event>
<event>
 5   0  0.7082527E-06  0.1699891E+04  0.7818609E-02  0.8761426E-01
        1   -1    0    0  501    0  0.00000000000E+00  0.00000000000E+00  0.19074076074E+04  0.19074076074E+04  0.50400001928E-02 0. -1.
       -1   -1    0    0    0  501  0.00000000000E+00  0.00000000000E+00 -0.37873789866E+03  0.37873789869E+03  0.50400001928E-02 0.  1.
    10030    2    1    2    0    0  0.00000000000E+00  0.00000000000E+00  0.15286697088E+04  0.22861455061E+04  0.16998912308E+04 0.  0.
        1    1    3    3  502    0 -0.75833643844E+03  0.13216188196E+03  0.27968116391E+03  0.81900089767E+03  0.50400001928E-02 0.  1.
       -1    1    3    3    0  502  0.75833643844E+03 -0.13216188196E+03  0.12489885448E+04  0.14671446084E+04  0.50400001928E-02 0. -1.
</event>
<event>
 5   0  0.1441756E-05  0.1701297E+04  0.7818609E-02  0.8760625E-01
       -2   -1    0    0    0  501  0.00000000000E+00  0.00000000000E+00  0.34531036892E+03  0.34531036893E+03  0.25500000920E-02 0. -1.
        2   -1    0    0  501    0  0.00000000000E+00  0.00000000000E+00 -0.20955141301E+04  0.20955141301E+04  0.25500000920E-02 0.  1.
    10030    2    1    2    0    0  0.00000000000E+00  0.00000000000E+00 -0.17502037611E+04  0.24408244990E+04  0.17012968669E+04 0.  0.
        5    1    3    3  502    0  0.34405090740E+03  0.77035978643E+02 -0.19857323081E+04  0.20167945999E+04  0.46999998093E+01 0.  1.
       -5    1    3    3    0  502 -0.34405090740E+03 -0.77035978643E+02  0.23552854694E+03  0.42402989908E+03  0.46999998093E+01 0. -1.
</event>
<event>
 5   0  0.1441756E-05  0.1700512E+04  0.7818609E-02  0.8761073E-01
       -2   -1    0    0    0  501  0.00000000000E+00  0.00000000000E+00  0.68724757990E+03  0.68724757990E+03  0.25500000920E-02 0.  1.
        2   -1    0    0  501    0  0.00000000000E+00  0.00000000000E+00 -0.10519279653E+04  0.10519279653E+04  0.25500000920E-02 0. -1.
    10030    2    1    2    0    0  0.00000000000E+00  0.00000000000E+00 -0.36468038540E+03  0.17391755452E+04  0.17005116270E+04 0.  0.
        5    1    3    3  502    0  0.68372380443E+03  0.45669444881E+03 -0.40374507296E+03  0.91601322821E+03  0.46999998093E+01 0. -1.
       -5    1    3    3    0  502 -0.68372380443E+03 -0.45669444881E+03  0.39064687555E+02  0.82316231700E+03  0.46999998093E+01 0.  1.
</event>
<event>
 5   0  0.1423543E-05  0.1699842E+04  0.7818609E-02  0.8761454E-01
        2   -1    0    0  501    0  0.00000000000E+00  0.00000000000E+00  0.12264350988E+04  0.12264350988E+04  0.25500000920E-02 0.  1.
       -2   -1    0    0    0  501  0.00000000000E+00  0.00000000000E+00 -0.58899653461E+03  0.58899653462E+03  0.25500000920E-02 0. -1.
    10030    2    1    2    0    0  0.00000000000E+00  0.00000000000E+00  0.63743856419E+03  0.18154316334E+04  0.16998423728E+04 0.  0.
        3    1    3    3  502    0  0.66602699081E+02 -0.67945369229E+03  0.85937709368E+03  0.10975528410E+04  0.10100000352E+00 0.  1.
       -3    1    3    3    0  502 -0.66602699081E+02  0.67945369229E+03 -0.22193852949E+03  0.71787879240E+03  0.10100000352E+00 0. -1.
</event>
<event>
 5   0  0.7476457E-06  0.1700083E+04  0.7818609E-02  0.8761317E-01
       -1   -1    0    0    0  501  0.00000000000E+00  0.00000000000E+00  0.87465937539E+03  0.87465937541E+03  0.50400001928E-02 0.  1.
        1   -1    0    0  501    0  0.00000000000E+00  0.00000000000E+00 -0.82611637408E+03  0.82611637409E+03  0.50400001928E-02 0. -1.
    10030    2    1    2    0    0  0.00000000000E+00  0.00000000000E+00  0.48543001314E+02  0.17007757495E+04  0.17000828589E+04 0.  0.
        2    1    3    3  502    0  0.34946922050E+03 -0.75875301604E+03 -0.13306801454E+03  0.84589714028E+03  0.25500000920E-02 0.  1.
       -2    1    3    3    0  502 -0.34946922050E+03  0.75875301604E+03  0.18161101586E+03  0.85487860923E+03  0.25500000920E-02 0. -1.
</event>
<event>
 5   0  0.7583716E-06  0.1699498E+04  0.7818609E-02  0.8761651E-01
       -1   -1    0    0    0  501  0.00000000000E+00  0.00000000000E+00  0.38686306310E+03  0.38686306313E+03  0.50400001928E-02 0.  1.
        1   -1    0    0  501    0  0.00000000000E+00  0.00000000000E+00 -0.18664830398E+04  0.18664830398E+04  0.50400001928E-02 0. -1.
    10030    2    1    2    0    0  0.00000000000E+00  0.00000000000E+00 -0.14796199767E+04  0.22533461029E+04  0.16994979800E+04 0.  0.
        5    1    3    3  502    0  0.55077569298E+03  0.56588624321E+02  0.11484378247E+03  0.56547972621E+03  0.46999998093E+01 0. -1.
       -5    1    3    3    0  502 -0.55077569298E+03 -0.56588624321E+02 -0.15944637592E+04  0.16878663767E+04  0.46999998093E+01 0.  1.
</event>
<event>
 5   0  0.1435301E-05  0.1699827E+04  0.7818609E-02  0.8761463E-01
       -2   -1    0    0    0  501  0.00000000000E+00  0.00000000000E+00  0.50783394721E+03  0.50783394721E+03  0.25500000920E-02 0. -1.
        2   -1    0    0  501    0  0.00000000000E+00  0.00000000000E+00 -0.14224190817E+04  0.14224190817E+04  0.25500000920E-02 0.  1.
    10030    2    1    2    0    0  0.00000000000E+00  0.00000000000E+00 -0.91458513448E+03  0.19302530289E+04  0.16998266933E+04 0.  0.
        2    1    3    3  502    0  0.46280665674E+03  0.53553990570E+02  0.34990892168E+03  0.58266138100E+03  0.25500000920E-02 0. -1.
       -2    1    3    3    0  502 -0.46280665674E+03 -0.53553990570E+02 -0.12644940562E+04  0.13475916479E+04  0.25500000920E-02 0.  1.
</event>
<event>
 5   0  0.1374441E-05  0.1706474E+04  0.7818609E-02  0.8757681E-01
       -2   -1    0    0    0  501  0.00000000000E+00  0.00000000000E+00  0.69787679837E+03  0.69787679837E+03  0.25500000920E-02 0. -1.
        2   -1    0    0  501    0  0.00000000000E+00  0.00000000000E+00 -0.10431828551E+04  0.10431828551E+04  0.25500000920E-02 0.  1.
    10030    2    1    2    0    0  0.00000000000E+00  0.00000000000E+00 -0.34530605678E+03  0.17410596535E+04  0.17064736870E+04 0.  0.
        1    1    3    3  502    0 -0.73680546576E+03  0.17657542680E+03  0.22766636677E+03  0.79113409123E+03  0.50400001928E-02 0. -1.
       -1    1    3    3    0  502  0.73680546576E+03 -0.17657542680E+03 -0.57297242355E+03  0.94992556229E+03  0.50400001928E-02 0.  1.
</event>
<event>
 5   0  0.7476457E-06  0.1694683E+04  0.7818609E-02  0.8764403E-01
       -1   -1    0    0    0  501  0.00000000000E+00  0.00000000000E+00  0.62347381302E+03  0.62347381304E+03  0.50400001928E-02 0.  1.
        1   -1    0    0  501    0  0.00000000000E+00  0.00000000000E+00 -0.11515918032E+04  0.11515918033E+04  0.50400001928E-02 0. -1.
    10030    2    1    2    0    0  0.00000000000E+00  0.00000000000E+00 -0.52811799022E+03  0.17750656163E+04  0.16946826637E+04 0.  0.
        2    1    3    3  502    0 -0.49276318906E+03 -0.19203148699E+03 -0.95750016133E+03  0.10938456068E+04  0.25500000920E-02 0. -1.
       -2    1    3    3    0  502  0.49276318906E+03  0.19203148699E+03  0.42938217111E+03  0.68122000952E+03  0.25500000920E-02 0.  1.
</event>
<event>
 5   0  0.7461128E-06  0.1698888E+04  0.7818609E-02  0.8761999E-01
       -1   -1    0    0    0  501  0.00000000000E+00  0.00000000000E+00  0.40060077182E+03  0.40060077185E+03  0.50400001928E-02 0. -1.
        1   -1    0    0  501    0  0.00000000000E+00  0.00000000000E+00 -0.18011818062E+04  0.18011818062E+04  0.50400001928E-02 0.  1.
    10030    2    1    2    0    0  0.00000000000E+00  0.00000000000E+00 -0.14005810344E+04  0.22017825781E+04  0.16988876617E+04 0.  0.
        3    1    3    3  502    0  0.23030054123E+02 -0.18880966273E+03  0.37264594820E+03  0.41838317969E+03  0.10100000352E+00 0. -1.
       -3    1    3    3    0  502 -0.23030054123E+02  0.18880966273E+03 -0.17732269826E+04  0.17833993984E+04  0.10100000352E+00 0.  1.
</event>
<event>
 5   0  0.1435301E-05  0.1700179E+04  0.7818609E-02  0.8761263E-01
        2   -1    0    0  501    0  0.00000000000E+00  0.00000000000E+00  0.12365369234E+04  0.12365369234E+04  0.25500000920E-02 0. -1.
       -2   -1    0    0    0  501  0.00000000000E+00  0.00000000000E+00 -0.58441585224E+03  0.58441585225E+03  0.25500000920E-02 0.  1.
    10030    2    1    2    0    0  0.00000000000E+00  0.00000000000E+00  0.65212107111E+03  0.18209527756E+04  0.17001785552E+04 0.  0.
        2    1    3    3  502    0  0.44142893159E+03 -0.35965515218E+02  0.11032069101E+04  0.11887886719E+04  0.25500000920E-02 0. -1.
       -2    1    3    3    0  502 -0.44142893159E+03  0.35965515218E+02 -0.45108583896E+03  0.63216410373E+03  0.25500000920E-02 0.  1.
</event>
<event>
 5   0  0.7082527E-06  0.1699961E+04  0.7818609E-02  0.8761387E-01
        1   -1    0    0  501    0  0.00000000000E+00  0.00000000000E+00  0.79842630501E+03  0.79842630503E+03  0.50400001928E-02 0. -1.
       -1   -1    0    0    0  501  0.00000000000E+00  0.00000000000E+00 -0.90486350472E+03  0.90486350474E+03  0.50400001928E-02 0.  1.
    10030    2    1    2    0    0  0.00000000000E+00  0.00000000000E+00 -0.10643719971E+03  0.17032898098E+04  0.16999609697E+04 0.  0.
        1    1    3    3  502    0  0.68006359635E+03  0.50701169513E+03  0.91933017476E+00  0.84826186951E+03  0.50400001928E-02 0. -1.
       -1    1    3    3    0  502 -0.68006359635E+03 -0.50701169513E+03 -0.10735652989E+03  0.85502794025E+03  0.50400001928E-02 0.  1.
</event>
<event>
 5   0  0.7082527E-06  0.1700017E+04  0.7818609E-02  0.8761355E-01
        1   -1    0    0  501    0  0.00000000000E+00  0.00000000000E+00  0.19372186571E+04  0.19372186571E+04  0.50400001928E-02 0. -1.
       -1   -1    0    0    0  501  0.00000000000E+00  0.00000000000E+00 -0.37296472880E+03  0.37296472883E+03  0.50400001928E-02 0.  1.
    10030    2    1    2    0    0  0.00000000000E+00  0.00000000000E+00  0.15642539283E+04  0.23101833859E+04  0.17000167424E+04 0.  0.
        1    1    3    3  502    0  0.76547281010E+03  0.24106175454E+03  0.40149686831E+03  0.89736231690E+03  0.50400001928E-02 0.  1.
       -1    1    3    3    0  502 -0.76547281010E+03 -0.24106175454E+03  0.11627570599E+04  0.14128210690E+04  0.50400001928E-02 0. -1.
</event>
<event>
 5   0  0.7476457E-06  0.1699937E+04  0.7818609E-02  0.8761401E-01
       -1   -1    0    0    0  501  0.00000000000E+00  0.00000000000E+00  0.62525834299E+03  0.62525834301E+03  0.50400001928E-02 0.  1.
        1   -1    0    0  501    0  0.00000000000E+00  0.00000000000E+00 -0.11554362048E+04  0.11554362048E+04  0.50400001928E-02 0. -1.
    10030    2    1    2    0    0  0.00000000000E+00  0.00000000000E+00 -0.53017786182E+03  0.17806945478E+04  0.16999366187E+04 0.  0.
        2    1    3    3  502    0 -0.17679577237E+03 -0.38839904129E+03 -0.10350849454E+04  0.11196032353E+04  0.25500000920E-02 0. -1.
       -2    1    3    3    0  502  0.17679577237E+03  0.38839904129E+03  0.50490708357E+03  0.66109131249E+03  0.25500000920E-02 0.  1.
</event>
<event>
 5   0  0.1419012E-05  0.1699969E+04  0.7818609E-02  0.8761382E-01
       -2   -1    0    0    0  501  0.00000000000E+00  0.00000000000E+00  0.89024315281E+03  0.89024315281E+03  0.25500000920E-02 0. -1.
        2   -1    0    0  501    0  0.00000000000E+00  0.00000000000E+00 -0.81154640032E+03  0.81154640033E+03  0.25500000920E-02 0.  1.
    10030    2    1    2    0    0  0.00000000000E+00  0.00000000000E+00  0.78696752487E+02  0.17017895531E+04  0.16999689716E+04 0.  0.
        4    1    3    3  502    0  0.53443232949E+03  0.19090513386E+03  0.67280510257E+03  0.88018805030E+03  0.12699999809E+01 0. -1.
       -4    1    3    3    0  502 -0.53443232949E+03 -0.19090513386E+03 -0.59410835009E+03  0.82160150285E+03  0.12699999809E+01 0.  1.
</event>
<event>
 5   0  0.5229750E-06  0.1699182E+04  0.7818609E-02  0.8761831E-01
       -4   -1    0    0    0  501  0.00000000000E+00  0.00000000000E+00  0.73388115537E+03  0.73388225425E+03  0.12699999809E+01 0. -1.
        4   -1    0    0  501    0  0.00000000000E+00  0.00000000000E+00 -0.98354248090E+03  0.98354330084E+03  0.12699999809E+01 0.  1.
    10030    2    1    2    0    0  0.00000000000E+00  0.00000000000E+00 -0.24966132553E+03  0.17174255551E+04  0.16991820855E+04 0.  0.
        2    1    3    3  502    0  0.59265542088E+03 -0.10375865094E+03 -0.73110300373E+03  0.94684629567E+03  0.25500000920E-02 0.  1.
       -2    1    3    3    0  502 -0.59265542088E+03  0.10375865094E+03  0.48144167821E+03  0.77057925943E+03  0.25500000920E-02 0. -1.
</event>
<event>
 5   0  0.1419012E-05  0.1700110E+04  0.7818609E-02  0.8761302E-01
        2   -1    0    0  501    0  0.00000000000E+00  0.00000000000E+00  0.11669465417E+04  0.11669465417E+04  0.25500000920E-02 0. -1.
       -2   -1    0    0    0  501  0.00000000000E+00  0.00000000000E+00 -0.61921725228E+03  0.61921725229E+03  0.25500000920E-02 0.  1.
    10030    2    1    2    0    0  0.00000000000E+00  0.00000000000E+00  0.54772928946E+03  0.17861637940E+04  0.17001099154E+04 0.  0.
        4    1    3    3  502    0  0.17754531730E+03  0.49927099342E+03  0.97218729959E+03  0.11072233844E+04  0.12699999809E+01 0. -1.
       -4    1    3    3    0  502 -0.17754531730E+03 -0.49927099342E+03 -0.42445801013E+03  0.67894040963E+03  0.12699999809E+01 0.  1.
</event>
<event>
 5   0  0.1374441E-05  0.1702596E+04  0.7818609E-02  0.8759885E-01
       -2   -1    0    0    0  501  0.00000000000E+00  0.00000000000E+00  0.90868780148E+03  0.90868780148E+03  0.25500000920E-02 0.  1.
        2   -1    0    0  501    0  0.00000000000E+00  0.00000000000E+00 -0.79753306933E+03  0.79753306933E+03  0.25500000920E-02 0. -1.
    10030    2    1    2    0    0  0.00000000000E+00  0.00000000000E+00  0.11115473215E+03  0.17062208708E+04  0.17025963366E+04 0.  0.
        1    1    3    3  502    0 -0.31595861227E+03 -0.31937102123E+03  0.78022175727E+03  0.90031865715E+03  0.50400001928E-02 0.  1.
       -1    1    3    3    0  502  0.31595861227E+03  0.31937102123E+03 -0.66906702512E+03  0.80590221367E+03  0.50400001928E-02 0. -1.
</event>
<event>
 5   0  0.1441756E-05  0.1699537E+04  0.7818609E-02  0.8761628E-01
        2   -1    0    0  501    0  0.00000000000E+00  0.00000000000E+00  0.12195458418E+04  0.12195458418E+04  0.25500000920E-02 0. -1.
       -2   -1    0    0    0  501  0.00000000000E+00  0.00000000000E+00 -0.59211101987E+03  0.59211101988E+03  0.25500000920E-02 0.  1.
    10030    2    1    2    0    0  0.00000000000E+00  0.00000000000E+00  0.62743482189E+03  0.18116568616E+04  0.16995370336E+04 0.  0.
        5    1    3    3  502    0  0.66523280900E+03  0.56184070850E+02  0.87413132683E+03  0.10999177272E+04  0.46999998093E+01 0. -1.
       -5    1    3    3    0  502 -0.66523280900E+03 -0.56184070850E+02 -0.24669650495E+03  0.71173913447E+03  0.46999998093E+01 0.  1.
</event>
<event>
 5   0  0.1423543E-05  0.1699481E+04  0.7818609E-02  0.8761660E-01
        2   -1    0    0  501    0  0.00000000000E+00  0.00000000000E+00  0.10130007599E+04  0.10130007599E+04  0.25500000920E-02 0. -1.
       -2   -1    0    0    0  501  0.00000000000E+00  0.00000000000E+00 -0.71279241378E+03  0.71279241378E+03  0.25500000920E-02 0.  1.
    10030    2    1    2    0    0  0.00000000000E+00  0.00000000000E+00  0.30020834614E+03  0.17257931737E+04  0.16994813995E+04 0.  0.
        3    1    3    3  502    0  0.60323482740E+03  0.58026938446E+03  0.13631266426E+01  0.83702251096E+03  0.10100000352E+00 0.  1.
       -3    1    3    3    0  502 -0.60323482740E+03 -0.58026938446E+03  0.29884521949E+03  0.88877066274E+03  0.10100000352E+00 0. -1.
</event>
<event>
 5   0  0.1419012E-05  0.1699842E+04  0.7818609E-02  0.8761454E-01
        2   -1    0    0  501    0  0.00000000000E+00  0.00000000000E+00  0.82360143076E+03  0.82360143076E+03  0.25500000920E-02 0.  1.
       -2   -1    0    0    0  501  0.00000000000E+00  0.00000000000E+00 -0.87708197643E+03  0.87708197644E+03  0.25500000920E-02 0. -1.
    10030    2    1    2    0    0  0.00000000000E+00  0.00000000000E+00 -0.53480545676E+02  0.17006834072E+04  0.16998423111E+04 0.  0.
        4    1    3    3  502    0  0.40055790670E+03 -0.32552115056E+03 -0.70231782774E+03  0.87158625513E+03  0.12699999809E+01 0. -1.
       -4    1    3    3    0  502 -0.40055790670E+03  0.32552115056E+03  0.64883728206E+03  0.82909715207E+03  0.12699999809E+01 0.  1.
</event>
<event>
 5   0  0.7461128E-06  0.1700061E+04  0.7818609E-02  0.8761329E-01
       -1   -1    0    0    0  501  0.00000000000E+00  0.00000000000E+00  0.12010181334E+04  0.12010181334E+04  0.50400001928E-02 0.  1.
        1   -1    0    0  501    0  0.00000000000E+00  0.00000000000E+00 -0.60161632768E+03  0.60161632770E+03  0.50400001928E-02 0. -1.
    10030    2    1    2    0    0  0.00000000000E+00  0.00000000000E+00  0.59940180575E+03  0.18026344611E+04  0.17000613153E+04 0.  0.
        3    1    3    3  502    0 -0.18443561811E+03 -0.27588023188E+03 -0.53009214321E+03  0.62539914460E+03  0.10100000352E+00 0. -1.
       -3    1    3    3    0  502  0.18443561811E+03  0.27588023188E+03  0.11294939490E+04  0.11772353165E+04  0.10100000352E+00 0.  1.
</event>
<event>
 5   0  0.7476457E-06  0.1700931E+04  0.7818609E-02  0.8760834E-01
       -1   -1    0    0    0  501  0.00000000000E+00  0.00000000000E+00  0.44997871424E+03  0.44997871427E+03  0.50400001928E-02 0. -1.
        1   -1    0    0  501    0  0.00000000000E+00  0.00000000000E+00 -0.16073898816E+04  0.16073898816E+04  0.50400001928E-02 0.  1.
    10030    2    1    2    0    0  0.00000000000E+00  0.00000000000E+00 -0.11574111674E+04  0.20573685959E+04  0.17009306068E+04 0.  0.
        2    1    3    3  502    0 -0.40536891633E+03 -0.62542722471E+02  0.32243756830E+03  0.52172937038E+03  0.25500000920E-02 0. -1.
       -2    1    3    3    0  502  0.40536891633E+03  0.62542722471E+02 -0.14798487357E+04  0.15356392255E+04  0.25500000920E-02 0.  1.
</event>
<event>
 5   0  0.7583716E-06  0.1700154E+04  0.7818609E-02  0.8761276E-01
        1   -1    0    0  501    0  0.00000000000E+00  0.00000000000E+00  0.46489833914E+03  0.46489833917E+03  0.50400001928E-02 0. -1.
       -1   -1    0    0    0  501  0.00000000000E+00  0.00000000000E+00 -0.15543854202E+04  0.15543854202E+04  0.50400001928E-02 0.  1.
    10030    2    1    2    0    0  0.00000000000E+00  0.00000000000E+00 -0.10894870810E+04  0.20192837593E+04  0.17001543462E+04 0.  0.
        5    1    3    3  502    0 -0.56393104577E+03 -0.63578519651E+03 -0.52195722613E+03  0.99734772090E+03  0.46999998093E+01 0. -1.
       -5    1    3    3    0  502  0.56393104577E+03  0.63578519651E+03 -0.56752985490E+03  0.10219360384E+04  0.46999998093E+01 0.  1.
</event>
<event>
 5   0  0.1419012E-05  0.1695044E+04  0.7818609E-02  0.8764196E-01
       -2   -1    0    0    0  501  0.00000000000E+00  0.00000000000E+00  0.43994256549E+03  0.43994256549E+03  0.25500000920E-02 0.  1.
        2   -1    0    0  501    0  0.00000000000E+00  0.00000000000E+00 -0.16326982841E+04  0.16326982841E+04  0.25500000920E-02 0. -1.
    10030    2    1    2    0    0  0.00000000000E+00  0.00000000000E+00 -0.11927557186E+04  0.20726408496E+04  0.16950439189E+04 0.  0.
        4    1    3    3  502    0 -0.33397857840E+03 -0.50931804698E+03  0.12427117390E+03  0.62160397470E+03  0.12699999809E+01 0.  1.
       -4    1    3    3    0  502  0.33397857840E+03  0.50931804698E+03 -0.13170268925E+04  0.14510368749E+04  0.12699999809E+01 0. -1.
</event>
<event>
 5   0  0.7082527E-06  0.1700289E+04  0.7818609E-02  0.8761199E-01
        1   -1    0    0  501    0  0.00000000000E+00  0.00000000000E+00  0.18650052880E+04  0.18650052880E+04  0.50400001928E-02 0.  1.
       -1   -1    0    0    0  501  0.00000000000E+00  0.00000000000E+00 -0.38753023909E+03  0.38753023913E+03  0.50400001928E-02 0. -1.
    10030    2    1    2    0    0  0.00000000000E+00  0.00000000000E+00  0.14774750489E+04  0.22525355271E+04  0.17002893227E+04 0.  0.
        1    1    3    3  502    0 -0.30130357132E+03  0.61670213625E+03  0.14033051168E+04  0.15621685625E+04  0.50400001928E-02 0.  1.
       -1    1    3    3    0  502  0.30130357132E+03 -0.61670213625E+03  0.74169932107E+02  0.69036696459E+03  0.50400001928E-02 0. -1.
</event>
<event>
 5   0  0.7583716E-06  0.1699520E+04  0.7818609E-02  0.8761638E-01
        1   -1    0    0  501    0  0.00000000000E+00  0.00000000000E+00  0.14539068930E+04  0.14539068930E+04  0.50400001928E-02 0. -1.
       -1   -1    0    0    0  501  0.00000000000E+00  0.00000000000E+00 -0.49665606877E+03  0.49665606879E+03  0.50400001928E-02 0.  1.
    10030    2    1    2    0    0  0.00000000000E+00  0.00000000000E+00  0.95725082423E+03  0.19505629618E+04  0.16995195578E+04 0.  0.
        5    1    3    3  502    0 -0.34700979448E+03 -0.70428973062E+03  0.10560983081E+03  0.79222177986E+03  0.46999998093E+01 0.  1.
       -5    1    3    3    0  502  0.34700979448E+03  0.70428973062E+03  0.85164099342E+03  0.11583411819E+04  0.46999998093E+01 0. -1.
</event>
<event>
 5   0  0.7082527E-06  0.1700307E+04  0.7818609E-02  0.8761189E-01
        1   -1    0    0  501    0  0.00000000000E+00  0.00000000000E+00  0.99354132087E+03  0.99354132089E+03  0.50400001928E-02 0. -1.
       -1   -1    0    0    0  501  0.00000000000E+00  0.00000000000E+00 -0.72745923893E+03  0.72745923895E+03  0.50400001928E-02 0.  1.
    10030    2    1    2    0    0  0.00000000000E+00  0.00000000000E+00  0.26608208194E+03  0.17210005598E+04  0.17003068113E+04 0.  0.
        1    1    3    3  502    0 -0.80933230924E+03  0.11052282782E+03 -0.10546795801E+03  0.82362465507E+03  0.50400001928E-02 0.  1.
       -1    1    3    3    0  502  0.80933230924E+03 -0.11052282782E+03  0.37155003995E+03  0.89737590477E+03  0.50400001928E-02 0. -1.
</event>
<event>
 5   0  0.7476457E-06  0.1703857E+04  0.7818609E-02  0.8759168E-01
        1   -1    0    0  501    0  0.00000000000E+00  0.00000000000E+00  0.27478672126E+04  0.27478672126E+04  0.50400001928E-02 0. -1.
       -1   -1    0    0    0  501  0.00000000000E+00  0.00000000000E+00 -0.26412569424E+03  0.26412569428E+03  0.50400001928E-02 0.  1.
    10030    2    1    2    0    0  0.00000000000E+00  0.00000000000E+00  0.24837415183E+04  0.30119929069E+04  0.17038571950E+04 0.  0.
        2    1    3    3  502    0  0.65394386756E+03  0.54579099242E+03  0.12138116144E+04  0.14828583967E+04  0.25500000920E-02 0.  1.
       -2    1    3    3    0  502 -0.65394386756E+03 -0.54579099242E+03  0.12699299040E+04  0.15291345102E+04  0.25500000920E-02 0. -1.
</event>
<event>
 5   0  0.1441756E-05  0.1700005E+04  0.7818609E-02  0.8761362E-01
       -2   -1    0    0    0  501  0.00000000000E+00  0.00000000000E+00  0.68711697111E+03  0.68711697111E+03  0.25500000920E-02 0.  1.
        2   -1    0    0  501    0  0.00000000000E+00  0.00000000000E+00 -0.10515006693E+04  0.10515006693E+04  0.25500000920E-02 0. -1.
    10030    2    1    2    0    0  0.00000000000E+00  0.00000000000E+00 -0.36438369819E+03  0.17386176404E+04  0.17000046530E+04 0.  0.
        5    1    3    3  502    0  0.48709755338E+03  0.66390924798E+03 -0.39779369474E+03  0.91449517748E+03  0.46999998093E+01 0. -1.
       -5    1    3    3    0  502 -0.48709755338E+03 -0.66390924798E+03  0.33409996546E+02  0.82412246294E+03  0.46999998093E+01 0.  1.
</event>
<event>
 5   0  0.1419012E-05  0.1699756E+04  0.7818609E-02  0.8761503E-01
        2   -1    0    0  501    0  0.00000000000E+00  0.00000000000E+00  0.19691070022E+04  0.19691070022E+04  0.25500000920E-02 0. -1.
       -2   -1    0    0    0  501  0.00000000000E+00  0.00000000000E+00 -0.36681241315E+03  0.36681241316E+03  0.25500000920E-02 0.  1.
    10030    2    1    2    0    0  0.00000000000E+00  0.00000000000E+00  0.16022945890E+04  0.23359194153E+04  0.16997563251E+04 0.  0.
        4    1    3    3  502    0  0.73890202025E+03  0.41649912764E+03  0.87443014410E+03  0.12182271581E+04  0.12699999809E+01 0. -1.
       -4    1    3    3    0  502 -0.73890202025E+03 -0.41649912764E+03  0.72786444492E+03  0.11176922573E+04  0.12699999809E+01 0.  1.
</event>
<event>
 5   0  0.7461128E-06  0.1699760E+04  0.7818609E-02  0.8761501E-01
       -1   -1    0    0    0  501  0.00000000000E+00  0.00000000000E+00  0.67182348025E+03  0.67182348027E+03  0.50400001928E-02 0.  1.
        1   -1    0    0  501    0  0.00000000000E+00  0.00000000000E+00 -0.10751276068E+04  0.10751276068E+04  0.50400001928E-02 0. -1.
    10030    2    1    2    0    0  0.00000000000E+00  0.00000000000E+00 -0.40330412652E+03  0.17469510871E+04  0.16997599484E+04 0.  0.
        3    1    3    3  502    0  0.52261554342E+03  0.44913390963E+03  0.30959973839E+03  0.75544707506E+03  0.10100000352E+00 0.  1.
       -3    1    3    3    0  502 -0.52261554342E+03 -0.44913390963E+03 -0.71290386491E+03  0.99150401199E+03  0.10100000352E+00 0. -1.
</event>
<event>
 5   0  0.7476457E-06  0.1699414E+04  0.7818609E-02  0.8761699E-01
        1   -1    0    0  501    0  0.00000000000E+00  0.00000000000E+00  0.16272772495E+04  0.16272772495E+04  0.50400001928E-02 0. -1.
       -1   -1    0    0    0  501  0.00000000000E+00  0.00000000000E+00 -0.44368699509E+03  0.44368699512E+03  0.50400001928E-02 0.  1.
    10030    2    1    2    0    0  0.00000000000E+00  0.00000000000E+00  0.11835902544E+04  0.20709642446E+04  0.16994137260E+04 0.  0.
        2    1    3    3  502    0 -0.62416493101E+03 -0.28738904484E+03  0.12009020539E+04  0.13835967864E+04  0.25500000920E-02 0. -1.
       -2    1    3    3    0  502  0.62416493101E+03  0.28738904484E+03 -0.17311799541E+02  0.68736745821E+03  0.25500000920E-02 0.  1.
</event>
<event>
 5   0  0.1419012E-05  0.1700331E+04  0.7818609E-02  0.8761175E-01
        2   -1    0    0  501    0  0.00000000000E+00  0.00000000000E+00  0.11214769816E+04  0.11214769816E+04  0.25500000920E-02 0.  1.
       -2   -1    0    0    0  501  0.00000000000E+00  0.00000000000E+00 -0.64449091184E+03  0.64449091184E+03  0.25500000920E-02 0. -1.
    10030    2    1    2    0    0  0.00000000000E+00  0.00000000000E+00  0.47698606974E+03  0.17659678934E+04  0.17003314059E+04 0.  0.
        4    1    3    3  502    0  0.66688853721E+03 -0.32533970038E+03 -0.19248790876E+03  0.76657644735E+03  0.12699999809E+01 0. -1.
       -4    1    3    3    0  502 -0.66688853721E+03  0.32533970038E+03  0.66947397850E+03  0.99939144608E+03  0.12699999809E+01 0.  1.
</event>
<event>
 5   0  0.7082527E-06  0.1699878E+04  0.7818609E-02  0.8761434E-01
       -1   -1    0    0    0  501  0.00000000000E+00  0.00000000000E+00  0.66715807241E+03  0.66715807243E+03  0.50400001928E-02 0. -1.
        1   -1    0    0  501    0  0.00000000000E+00  0.00000000000E+00 -0.10827961096E+04  0.10827961096E+04  0.50400001928E-02 0.  1.
    10030    2    1    2    0    0  0.00000000000E+00  0.00000000000E+00 -0.41563803721E+03  0.17499541821E+04  0.16998778372E+04 0.  0.
        1    1    3    3  502    0 -0.16542315651E+03  0.18497226104E+03 -0.10446725262E+04  0.10737412375E+04  0.50400001928E-02 0.  1.
       -1    1    3    3    0  502  0.16542315651E+03 -0.18497226104E+03  0.62903448898E+03  0.67621294458E+03  0.50400001928E-02 0. -1.
</event>
<event>
 5   0  0.1374441E-05  0.1700272E+04  0.7818609E-02  0.8761210E-01
       -2   -1    0    0    0  501  0.00000000000E+00  0.00000000000E+00  0.60341485673E+03  0.60341485673E+03  0.25500000920E-02 0. -1.
        2   -1    0    0  501    0  0.00000000000E+00  0.00000000000E+00 -0.11977345633E+04  0.11977345633E+04  0.25500000920E-02 0.  1.
    10030    2    1    2    0    0  0.00000000000E+00  0.00000000000E+00 -0.59431970654E+03  0.18011494200E+04  0.17002715429E+04 0.  0.
        1    1    3    3  502    0  0.25463935542E+03  0.53835886519E+02 -0.11544922413E+04  0.11834660280E+04  0.50400001928E-02 0.  1.
       -1    1    3    3    0  502 -0.25463935542E+03 -0.53835886519E+02  0.56017253481E+03  0.61768339203E+03  0.50400001928E-02 0. -1.
</event>
<event>
 5   0  0.7082527E-06  0.1700153E+04  0.7818609E-02  0.8761277E-01
        1   -1    0    0  501    0  0.00000000000E+00  0.00000000000E+00  0.16130676506E+04  0.16130676507E+04  0.50400001928E-02 0. -1.
       -1   -1    0    0    0  501  0.00000000000E+00  0.00000000000E+00 -0.44798481814E+03  0.44798481817E+03  0.50400001928E-02 0.  1.
    10030    2    1    2    0    0  0.00000000000E+00  0.00000000000E+00  0.11650828325E+04  0.20610524688E+04  0.17001527204E+04 0.  0.
        1    1    3    3  502    0  0.15489913079E+03 -0.53990716743E+03  0.13560605144E+04  0.14677852734E+04  0.50400001928E-02 0. -1.
       -1    1    3    3    0  502 -0.15489913079E+03  0.53990716743E+03 -0.19097768186E+03  0.59326719542E+03  0.50400001928E-02 0.  1.
</event>
<event>
 5   0  0.7082527E-06  0.1699468E+04  0.7818609E-02  0.8761668E-01
       -1   -1    0    0    0  501  0.00000000000E+00  0.00000000000E+00  0.49689628192E+03  0.49689628194E+03  0.50400001928E-02 0. -1.
        1   -1    0    0  501    0  0.00000000000E+00  0.00000000000E+00 -0.14531159881E+04  0.14531159882E+04  0.50400001928E-02 0.  1.
    10030    2    1    2    0    0  0.00000000000E+00  0.00000000000E+00 -0.95621970623E+03  0.19500122701E+04  0.16994680718E+04 0.  0.
        1    1    3    3  502    0 -0.16117654176E+03 -0.57174629525E+03  0.21906417243E+03  0.63313570063E+03  0.50400001928E-02 0. -1.
       -1    1    3    3    0  502  0.16117654176E+03  0.57174629525E+03 -0.11752838787E+04  0.13168765695E+04  0.50400001928E-02 0.  1.
</event>
<event>
 5   0  0.1423543E-05  0.1698675E+04  0.7818609E-02  0.8762120E-01
        2   -1    0    0  501    0  0.00000000000E+00  0.00000000000E+00  0.10269301656E+04  0.10269301656E+04  0.25500000920E-02 0.  1.
       -2   -1    0    0    0  501  0.00000000000E+00  0.00000000000E+00 -0.70245693239E+03  0.70245693239E+03  0.25500000920E-02 0. -1.
    10030    2    1    2    0    0  0.00000000000E+00  0.00000000000E+00  0.32447323317E+03  0.17293870980E+04  0.16986750294E+04 0.  0.
        3    1    3    3  502    0 -0.62183166885E+03  0.42286099300E+03  0.56420183644E+03  0.94011157116E+03  0.10100000352E+00 0.  1.
       -3    1    3    3    0  502  0.62183166885E+03 -0.42286099300E+03 -0.23972860327E+03  0.78927552680E+03  0.10100000352E+00 0. -1.
</event>
<event>
 5   0  0.7583716E-06  0.1700136E+04  0.7818609E-02  0.8761287E-01
       -1   -1    0    0    0  501  0.00000000000E+00  0.00000000000E+00  0.70974147032E+03  0.70974147034E+03  0.50400001928E-02 0. -1.
        1   -1    0    0  501    0  0.00000000000E+00  0.00000000000E+00 -0.10181393739E+04  0.10181393739E+04  0.50400001928E-02 0.  1.
    10030    2    1    2    0    0  0.00000000000E+00  0.00000000000E+00 -0.30839790361E+03  0.17278808443E+04  0.17001361549E+04 0.  0.
        5    1    3    3  502    0  0.75570193136E+03 -0.34667113852E+03  0.25684817120E+02  0.83183417048E+03  0.46999998093E+01 0. -1.
       -5    1    3    3    0  502 -0.75570193136E+03  0.34667113852E+03 -0.33408272073E+03  0.89604667380E+03  0.46999998093E+01 0.  1.
</event>
<event>
 5   0  0.1423543E-05  0.1698801E+04  0.7818609E-02  0.8762049E-01
        2   -1    0    0  501    0  0.00000000000E+00  0.00000000000E+00  0.13069914769E+04  0.13069914769E+04  0.25500000920E-02 0. -1.
       -2   -1    0    0    0  501  0.00000000000E+00  0.00000000000E+00 -0.55201668768E+03  0.55201668769E+03  0.25500000920E-02 0.  1.
    10030    2    1    2    0    0  0.00000000000E+00  0.00000000000E+00  0.75497478918E+03  0.18590081645E+04  0.16988008781E+04 0.  0.
        3    1    3    3  502    0 -0.96934441595E+02 -0.81106816609E+02  0.12966436098E+04  0.13027890323E+04  0.10100000352E+00 0. -1.
       -3    1    3    3    0  502  0.96934441595E+02  0.81106816609E+02 -0.54166882061E+03  0.55621913225E+03  0.10100000352E+00 0.  1.
</event>
<event>
 5   0  0.1419012E-05  0.1700418E+04  0.7818609E-02  0.8761126E-01
        2   -1    0    0  501    0  0.00000000000E+00  0.00000000000E+00  0.15085583139E+04  0.15085583139E+04  0.25500000920E-02 0. -1.
       -2   -1    0    0    0  501  0.00000000000E+00  0.00000000000E+00 -0.47916954440E+03  0.47916954440E+03  0.25500000920E-02 0.  1.
    10030    2    1    2    0    0  0.00000000000E+00  0.00000000000E+00  0.10293887695E+04  0.19877278583E+04  0.17004178310E+04 0.  0.
        4    1    3    3  502    0  0.86975564411E+02 -0.52057834283E+03 -0.26447717162E+03  0.59035273103E+03  0.12699999809E+01 0.  1.
       -4    1    3    3    0  502 -0.86975564411E+02  0.52057834283E+03  0.12938659411E+04  0.13973751273E+04  0.12699999809E+01 0. -1.
</event>
<event>
 5   0  0.1423543E-05  0.1699966E+04  0.7818609E-02  0.8761384E-01
       -2   -1    0    0    0  501  0.00000000000E+00  0.00000000000E+00  0.32114490565E+03  0.32114490566E+03  0.25500000920E-02 0.  1.
        2   -1    0    0  501    0  0.00000000000E+00  0.00000000000E+00 -0.22496733039E+04  0.22496733039E+04  0.25500000920E-02 0. -1.
    10030    2    1    2    0    0  0.00000000000E+00  0.00000000000E+00 -0.19285283982E+04  0.25708182095E+04  0.16999660243E+04 0.  0.
        3    1    3    3  502    0 -0.11611465520E+03 -0.60876423892E+03 -0.84547497520E+02  0.62547965697E+03  0.10100000352E+00 0.  1.
       -3    1    3    3    0  502  0.11611465520E+03  0.60876423892E+03 -0.18439809007E+04  0.19453385526E+04  0.10100000352E+00 0. -1.
</event>
<event>
 5   0  0.1374441E-05  0.1699261E+04  0.7818609E-02  0.8761786E-01
        2   -1    0    0  501    0  0.00000000000E+00  0.00000000000E+00  0.12347213001E+04  0.12347213001E+04  0.25500000920E-02 0. -1.
       -2   -1    0    0    0  501  0.00000000000E+00  0.00000000000E+00 -0.58464379569E+03  0.58464379570E+03  0.25500000920E-02 0.  1.
    10030    2    1    2    0    0  0.00000000000E+00  0.00000000000E+00  0.65007750444E+03  0.18193650958E+04  0.16992611895E+04 0.  0.
        1    1    3    3  502    0  0.70881365658E+03 -0.10906363298E+03  0.81282779972E+03  0.10839744959E+04  0.50400001928E-02 0. -1.
       -1    1    3    3    0  502 -0.70881365658E+03  0.10906363298E+03 -0.16275029529E+03  0.73539059991E+03  0.50400001928E-02 0.  1.
</event>
<event>
 5   0  0.7476457E-06  0.1699999E+04  0.7818609E-02  0.8761365E-01
       -1   -1    0    0    0  501  0.00000000000E+00  0.00000000000E+00  0.95594229357E+03  0.95594229358E+03  0.50400001928E-02 0.  1.
        1   -1    0    0  501    0  0.00000000000E+00  0.00000000000E+00 -0.75579821966E+03  0.75579821968E+03  0.50400001928E-02 0. -1.
    10030    2    1    2    0    0  0.00000000000E+00  0.00000000000E+00  0.20014407391E+03  0.17117405133E+04  0.16999993925E+04 0.  0.
        2    1    3    3  502    0  0.21761324178E+03  0.67093587073E+03  0.57767809134E+03  0.91171401374E+03  0.25500000920E-02 0.  1.
       -2    1    3    3    0  502 -0.21761324178E+03 -0.67093587073E+03 -0.37753401743E+03  0.80002649953E+03  0.25500000920E-02 0. -1.
</event>
<event>
 5   0  0.7455669E-06  0.1699398E+04  0.7818609E-02  0.8761708E-01
       -1   -1    0    0    0  501  0.00000000000E+00  0.00000000000E+00  0.65845905936E+03  0.65845905938E+03  0.50400001928E-02 0.  1.
        1   -1    0    0  501    0  0.00000000000E+00  0.00000000000E+00 -0.10964817623E+04  0.10964817623E+04  0.50400001928E-02 0. -1.
    10030    2    1    2    0    0  0.00000000000E+00  0.00000000000E+00 -0.43802270291E+03  0.17549408217E+04  0.16993979520E+04 0.  0.
        4    1    3    3  502    0  0.46185023101E+03  0.53013145579E+03 -0.71172357255E+03  0.10004484259E+04  0.12699999809E+01 0. -1.
       -4    1    3    3    0  502 -0.46185023101E+03 -0.53013145579E+03  0.27370086964E+03  0.75449239575E+03  0.12699999809E+01 0.  1.
</event>
<event>
 5   0  0.1441756E-05  0.1699224E+04  0.7818609E-02  0.8761807E-01
       -2   -1    0    0    0  501  0.00000000000E+00  0.00000000000E+00  0.39857479812E+03  0.39857479813E+03  0.25500000920E-02 0. -1.
        2   -1    0    0  501    0  0.00000000000E+00  0.00000000000E+00 -0.18110533926E+04  0.18110533926E+04  0.25500000920E-02 0.  1.
    10030    2    1    2    0    0  0.00000000000E+00  0.00000000000E+00 -0.14124785945E+04  0.22096281908E+04  0.16992236349E+04 0.  0.
        5    1    3    3  502    0  0.72855430487E+03  0.42633079795E+03 -0.58104601516E+03  0.10247857757E+04  0.46999998093E+01 0. -1.
       -5    1    3    3    0  502 -0.72855430487E+03 -0.42633079795E+03 -0.83143257934E+03  0.11848424150E+04  0.46999998093E+01 0.  1.
</event>
<event>
 5   0  0.7082527E-06  0.1701062E+04  0.7818609E-02  0.8760759E-01
       -1   -1    0    0    0  501  0.00000000000E+00  0.00000000000E+00  0.94143141299E+03  0.94143141300E+03  0.50400001928E-02 0. -1.
        1   -1    0    0  501    0  0.00000000000E+00  0.00000000000E+00 -0.76840791976E+03  0.76840791977E+03  0.50400001928E-02 0.  1.
    10030    2    1    2    0    0  0.00000000000E+00  0.00000000000E+00  0.17302349323E+03  0.17098393328E+04  0.17010624370E+04 0.  0.
        1    1    3    3  502    0  0.29821403388E+03 -0.78795646369E+03  0.20371678898E+03  0.86677997716E+03  0.50400001928E-02 0. -1.
       -1    1    3    3    0  502 -0.29821403388E+03  0.78795646369E+03 -0.30693295753E+02  0.84305935562E+03  0.50400001928E-02 0.  1.
</event>
<event>
 5   0  0.7455669E-06  0.1699905E+04  0.7818609E-02  0.8761419E-01
       -1   -1    0    0    0  501  0.00000000000E+00  0.00000000000E+00  0.14321740604E+04  0.14321740604E+04  0.50400001928E-02 0. -1.
        1   -1    0    0  501    0  0.00000000000E+00  0.00000000000E+00 -0.50442115522E+03  0.50442115525E+03  0.50400001928E-02 0.  1.
    10030    2    1    2    0    0  0.00000000000E+00  0.00000000000E+00  0.92775290521E+03  0.19365952157E+04  0.16999045786E+04 0.  0.
        4    1    3    3  502    0  0.65589168766E+03  0.41250572665E+03  0.86189679104E+03  0.11589747934E+04  0.12699999809E+01 0. -1.
       -4    1    3    3    0  502 -0.65589168766E+03 -0.41250572665E+03  0.65856114172E+02  0.77762042227E+03  0.12699999809E+01 0.  1.
</event>
<event>
 5   0  0.7583716E-06  0.1700300E+04  0.7818609E-02  0.8761193E-01
        1   -1    0    0  501    0  0.00000000000E+00  0.00000000000E+00  0.99295019878E+03  0.99295019879E+03  0.50400001928E-02 0. -1.
       -1   -1    0    0    0  501  0.00000000000E+00  0.00000000000E+00 -0.72788643147E+03  0.72788643148E+03  0.50400001928E-02 0.  1.
    10030    2    1    2    0    0  0.00000000000E+00  0.00000000000E+00  0.26506376731E+03  0.17208366303E+04  0.17002999463E+04 0.  0.
        5    1    3    3  502    0 -0.18221741103E+03 -0.38973809338E+03  0.87462334010E+03  0.97472408576E+03  0.46999998093E+01 0. -1.
       -5    1    3    3    0  502  0.18221741103E+03  0.38973809338E+03 -0.60955957279E+03  0.74611254452E+03  0.46999998093E+01 0.  1.
</event>
<event>
 5   0  0.1419012E-05  0.1699844E+04  0.7818609E-02  0.8761453E-01
        2   -1    0    0  501    0  0.00000000000E+00  0.00000000000E+00  0.79215592853E+03  0.79215592854E+03  0.25500000920E-02 0. -1.
       -2   -1    0    0    0  501  0.00000000000E+00  0.00000000000E+00 -0.91190029292E+03  0.91190029292E+03  0.25500000920E-02 0.  1.
    10030    2    1    2    0    0  0.00000000000E+00  0.00000000000E+00 -0.11974436438E+03  0.17040562215E+04  0.16998437849E+04 0.  0.
        4    1    3    3  502    0 -0.81403244253E+03 -0.24201353431E+03 -0.93812279454E+02  0.85441308801E+03  0.12699999809E+01 0.  1.
       -4    1    3    3    0  502  0.81403244253E+03  0.24201353431E+03 -0.25932084929E+02  0.84964313345E+03  0.12699999809E+01 0. -1.
</event>
<event>
 5   0  0.7082527E-06  0.1699745E+04  0.7818609E-02  0.8761510E-01
        1   -1    0    0  501    0  0.00000000000E+00  0.00000000000E+00  0.35352980127E+03  0.35352980131E+03  0.50400001928E-02 0.  1.
       -1   -1    0    0    0  501  0.00000000000E+00  0.00000000000E+00 -0.20430612598E+04  0.20430612598E+04  0.50400001928E-02 0. -1.
    10030    2    1    2    0    0  0.00000000000E+00  0.00000000000E+00 -0.16895314585E+04  0.23965910611E+04  0.16997447352E+04 0.  0.
        1    1    3    3  502    0 -0.44663124479E+02  0.76702122070E+03 -0.13569690598E+04  0.15593849355E+04  0.50400001928E-02 0. -1.
       -1    1    3    3    0  502  0.44663124479E+02 -0.76702122070E+03 -0.33256239868E+03  0.83720612560E+03  0.50400001928E-02 0.  1.
</event>
<event>
 5   0  0.1435301E-05  0.1699954E+04  0.7818609E-02  0.8761391E-01
       -2   -1    0    0    0  501  0.00000000000E+00  0.00000000000E+00  0.37812732297E+03  0.37812732298E+03  0.25500000920E-02 0. -1.
        2   -1    0    0  501    0  0.00000000000E+00  0.00000000000E+00 -0.19106281360E+04  0.19106281360E+04  0.25500000920E-02 0.  1.
    10030    2    1    2    0    0  0.00000000000E+00  0.00000000000E+00 -0.15325008130E+04  0.22887554590E+04  0.16999537667E+04 0.  0.
        2    1    3    3  502    0  0.25947013738E+03  0.15695136015E+03 -0.18353190541E+04  0.18602028148E+04  0.25500000920E-02 0.  1.
       -2    1    3    3    0  502 -0.25947013738E+03 -0.15695136015E+03  0.30281824114E+03  0.42855264416E+03  0.25500000920E-02 0. -1.
</event>
<event>
 5   0  0.1441756E-05  0.1699893E+04  0.7818609E-02  0.8761425E-01
       -2   -1    0    0    0  501  0.00000000000E+00  0.00000000000E+00  0.43344773856E+03  0.43344773857E+03  0.25500000920E-02 0.  1.
        2   -1    0    0  501    0  0.00000000000E+00  0.00000000000E+00 -0.16666574131E+04  0.16666574131E+04  0.25500000920E-02 0. -1.
    10030    2    1    2    0    0  0.00000000000E+00  0.00000000000E+00 -0.12332096746E+04  0.21001051517E+04  0.16998928045E+04 0.  0.
        5    1    3    3  502    0 -0.40935192910E+03 -0.50637723948E+03  0.58263155668E+02  0.65376111526E+03  0.46999998093E+01 0.  1.
       -5    1    3    3    0  502  0.40935192910E+03  0.50637723948E+03 -0.12914728302E+04  0.14463440365E+04  0.46999998093E+01 0. -1.
</event>
<event>
 5   0  0.7461128E-06  0.1699981E+04  0.7818609E-02  0.8761375E-01
       -1   -1    0    0    0  501  0.00000000000E+00  0.00000000000E+00  0.76866786562E+03  0.76866786564E+03  0.50400001928E-02 0. -1.
        1   -1    0    0  501    0  0.00000000000E+00  0.00000000000E+00 -0.93991701043E+03  0.93991701045E+03  0.50400001928E-02 0.  1.
    10030    2    1    2    0    0  0.00000000000E+00  0.00000000000E+00 -0.17124914481E+03  0.17085848761E+04  0.16999811791E+04 0.  0.
        3    1    3    3  502    0 -0.62945463463E+03 -0.55092025885E+03 -0.23724469805E+03  0.86948911760E+03  0.10100000352E+00 0. -1.
       -3    1    3    3    0  502  0.62945463463E+03  0.55092025885E+03  0.65995553240E+02  0.83909575849E+03  0.10100000352E+00 0.  1.
</event>
<event>
 5   0  0.7583716E-06  0.1700957E+04  0.7818609E-02  0.8760819E-01
        1   -1    0    0  501    0  0.00000000000E+00  0.00000000000E+00  0.64447418760E+03  0.64447418762E+03  0.50400001928E-02 0. -1.
       -1   -1    0    0    0  501  0.00000000000E+00  0.00000000000E+00 -0.11223312203E+04  0.11223312203E+04  0.50400001928E-02 0.  1.
    10030    2    1    2    0    0  0.00000000000E+00  0.00000000000E+00 -0.47785703272E+03  0.17668054079E+04  0.17009567913E+04 0.  0.
        5    1    3    3  502    0 -0.30404797307E+03  0.54444754025E+03 -0.83960908587E+03  0.10458650970E+04  0.46999998093E+01 0.  1.
       -5    1    3    3    0  502  0.30404797307E+03 -0.54444754025E+03  0.36175205314E+03  0.72094031096E+03  0.46999998093E+01 0. -1.
</event>
<event>
 5   0  0.1435301E-05  0.1699553E+04  0.7818609E-02  0.8761620E-01
        2   -1    0    0  501    0  0.00000000000E+00  0.00000000000E+00  0.10186014177E+04  0.10186014177E+04  0.25500000920E-02 0.  1.
       -2   -1    0    0    0  501  0.00000000000E+00  0.00000000000E+00 -0.70893253413E+03  0.70893253414E+03  0.25500000920E-02 0. -1.
    10030    2    1    2    0    0  0.00000000000E+00  0.00000000000E+00  0.30966888359E+03  0.17275339519E+04  0.16995525109E+04 0.  0.
        2    1    3    3  502    0 -0.51255767887E+03  0.47238572322E+03 -0.33922984576E+03  0.77520354354E+03  0.25500000920E-02 0.  1.
       -2    1    3    3    0  502  0.51255767887E+03 -0.47238572322E+03  0.64889872935E+03  0.95233040833E+03  0.25500000920E-02 0. -1.
</event>
<event>
 5   0  0.7455669E-06  0.1700025E+04  0.7818609E-02  0.8761350E-01
        1   -1    0    0  501    0  0.00000000000E+00  0.00000000000E+00  0.14807301730E+04  0.14807301730E+04  0.50400001928E-02 0.  1.
       -1   -1    0    0    0  501  0.00000000000E+00  0.00000000000E+00 -0.48794939316E+03  0.48794939318E+03  0.50400001928E-02 0. -1.
    10030    2    1    2    0    0  0.00000000000E+00  0.00000000000E+00  0.99278077985E+03  0.19686795662E+04  0.17000251638E+04 0.  0.
        4    1    3    3  502    0  0.46118851878E+03 -0.34929418697E+03  0.12175542315E+04  0.13480137976E+04  0.12699999809E+01 0.  1.
       -4    1    3    3    0  502 -0.46118851878E+03  0.34929418697E+03 -0.22477345163E+03  0.62066576864E+03  0.12699999809E+01 0. -1.
</event>
<event>
 5   0  0.1423543E-05  0.1699917E+04  0.7818609E-02  0.8761412E-01
        2   -1    0    0  501    0  0.00000000000E+00  0.00000000000E+00  0.17296771297E+04  0.17296771297E+04  0.25500000920E-02 0.  1.
       -2   -1    0    0    0  501  0.00000000000E+00  0.00000000000E+00 -0.41766738434E+03  0.41766738435E+03  0.25500000920E-02 0. -1.
    10030    2    1    2    0    0  0.00000000000E+00  0.00000000000E+00  0.13120097454E+04  0.21473445141E+04  0.16999173186E+04 0.  0.
        3    1    3    3  502    0  0.13849491971E+03 -0.12598744905E+03 -0.39129516944E+03  0.43378058962E+03  0.10100000352E+00 0. -1.
       -3    1    3    3    0  502 -0.13849491971E+03  0.12598744905E+03  0.17033049149E+04  0.17135639245E+04  0.10100000352E+00 0.  1.
</event>
<event>
 5   0  0.1441756E-05  0.1699222E+04  0.7818609E-02  0.8761808E-01
       -2   -1    0    0    0  501  0.00000000000E+00  0.00000000000E+00  0.47103281999E+03  0.47103281999E+03  0.25500000920E-02 0. -1.
        2   -1    0    0  501    0  0.00000000000E+00  0.00000000000E+00 -0.15324598590E+04  0.15324598590E+04  0.25500000920E-02 0.  1.
    10030    2    1    2    0    0  0.00000000000E+00  0.00000000000E+00 -0.10614270390E+04  0.20034926790E+04  0.16992220442E+04 0.  0.
        5    1    3    3  502    0  0.77190265762E+03  0.13611297392E+03 -0.14420981823E+03  0.79698118935E+03  0.46999998093E+01 0. -1.
       -5    1    3    3    0  502 -0.77190265762E+03 -0.13611297392E+03 -0.91721722075E+03  0.12065114896E+04  0.46999998093E+01 0.  1.
</event>
<event>
 5   0  0.1374441E-05  0.1697616E+04  0.7818609E-02  0.8762725E-01
        2   -1    0    0  501    0  0.00000000000E+00  0.00000000000E+00  0.18522078797E+04  0.18522078797E+04  0.25500000920E-02 0. -1.
       -2   -1    0    0    0  501  0.00000000000E+00  0.00000000000E+00 -0.38898166555E+03  0.38898166556E+03  0.25500000920E-02 0.  1.
    10030    2    1    2    0    0  0.00000000000E+00  0.00000000000E+00  0.14632262142E+04  0.22411895453E+04  0.16976158647E+04 0.  0.
        1    1    3    3  502    0 -0.49845238677E+03 -0.34700796058E+03  0.15144423744E+04  0.16316877801E+04  0.50400001928E-02 0. -1.
       -1    1    3    3    0  502  0.49845238677E+03  0.34700796058E+03 -0.51216160209E+02  0.60950176511E+03  0.50400001928E-02 0.  1.
</event>
<event>
 5   0  0.7455669E-06  0.1700818E+04  0.7818609E-02  0.8760898E-01
       -1   -1    0    0    0  501  0.00000000000E+00  0.00000000000E+00  0.38529041681E+03  0.38529041685E+03  0.50400001928E-02 0. -1.
        1   -1    0    0  501    0  0.00000000000E+00  0.00000000000E+00 -0.18770144865E+04  0.18770144865E+04  0.50400001928E-02 0.  1.
    10030    2    1    2    0    0  0.00000000000E+00  0.00000000000E+00 -0.14917240697E+04  0.22623049034E+04  0.17008182665E+04 0.  0.
        4    1    3    3  502    0 -0.76973760631E+03 -0.16487914049E+03 -0.31791442527E+03  0.84897132357E+03  0.12699999809E+01 0. -1.
       -4    1    3    3    0  502  0.76973760631E+03  0.16487914049E+03 -0.11738096444E+04  0.14133335798E+04  0.12699999809E+01 0.  1.
</event>
<event>
 5   0  0.1374441E-05  0.1698272E+04  0.7818609E-02  0.8762350E-01
       -2   -1    0    0    0  501  0.00000000000E+00  0.00000000000E+00  0.41788339289E+03  0.41788339290E+03  0.25500000920E-02 0.  1.
        2   -1    0    0  501    0  0.00000000000E+00  0.00000000000E+00 -0.17254390087E+04  0.17254390087E+04  0.25500000920E-02 0. -1.
    10030    2    1    2    0    0  0.00000000000E+00  0.00000000000E+00 -0.13075556158E+04  0.21433224016E+04  0.16982724248E+04 0.  0.
        1    1    3    3  502    0  0.71233741484E+03  0.24837233274E+03 -0.16186735952E+03  0.77156623199E+03  0.50400001928E-02 0.  1.
       -1    1    3    3    0  502 -0.71233741484E+03 -0.24837233274E+03 -0.11456882563E+04  0.13717561696E+04  0.50400001928E-02 0. -1.
</event>
<event>
 5   0  0.7455669E-06  0.1698990E+04  0.7818609E-02  0.8761941E-01
        1   -1    0    0  501    0  0.00000000000E+00  0.00000000000E+00  0.92129723372E+03  0.92129723374E+03  0.50400001928E-02 0. -1.
       -1   -1    0    0    0  501  0.00000000000E+00  0.00000000000E+00 -0.78328885130E+03  0.78328885132E+03  0.50400001928E-02 0.  1.
    10030    2    1    2    0    0  0.00000000000E+00  0.00000000000E+00  0.13800838242E+03  0.17045860851E+04  0.16989901141E+04 0.  0.
        4    1    3    3  502    0  0.75556493603E+03  0.67366298400E+02 -0.31464730369E+03  0.82123147122E+03  0.12699999809E+01 0.  1.
       -4    1    3    3    0  502 -0.75556493603E+03 -0.67366298400E+02  0.45265568611E+03  0.88335461383E+03  0.12699999809E+01 0. -1.
</event>
<event>
 5   0  0.1419012E-05  0.1700666E+04  0.7818609E-02  0.8760985E-01
        2   -1    0    0  501    0  0.00000000000E+00  0.00000000000E+00  0.15475294454E+04  0.15475294454E+04  0.25500000920E-02 0. -1.
       -2   -1    0    0    0  501  0.00000000000E+00  0.00000000000E+00 -0.46723908718E+03  0.46723908719E+03  0.25500000920E-02 0.  1.
    10030    2    1    2    0    0  0.00000000000E+00  0.00000000000E+00  0.10802903582E+04  0.20147685326E+04  0.17006660407E+04 0.  0.
        4    1    3    3  502    0 -0.35585026860E+03 -0.76691431665E+03  0.43235985184E+03  0.94959130005E+03  0.12699999809E+01 0. -1.
       -4    1    3    3    0  502  0.35585026860E+03  0.76691431665E+03  0.64793050639E+03  0.10651772326E+04  0.12699999809E+01 0.  1.
</event>
<event>
 5   0  0.7082527E-06  0.1699892E+04  0.7818609E-02  0.8761426E-01
       -1   -1    0    0    0  501  0.00000000000E+00  0.00000000000E+00  0.71077195708E+03  0.71077195709E+03  0.50400001928E-02 0.  1.
        1   -1    0    0  501    0  0.00000000000E+00  0.00000000000E+00 -0.10163707499E+04  0.10163707499E+04  0.50400001928E-02 0. -1.
    10030    2    1    2    0    0  0.00000000000E+00  0.00000000000E+00 -0.30559879281E+03  0.17271427070E+04  0.16998915578E+04 0.  0.
        1    1    3    3  502    0 -0.66185989710E+03  0.13141593117E+03  0.37228245051E+03  0.77066393022E+03  0.50400001928E-02 0.  1.
       -1    1    3    3    0  502  0.66185989710E+03 -0.13141593117E+03 -0.67788124331E+03  0.95647877677E+03  0.50400001928E-02 0. -1.
</event>
<event>
 5   0  0.1441756E-05  0.1689171E+04  0.7818609E-02  0.8767564E-01
        2   -1    0    0  501    0  0.00000000000E+00  0.00000000000E+00  0.44924757526E+03  0.44924757527E+03  0.25500000920E-02 0.  1.
       -2   -1    0    0    0  501  0.00000000000E+00  0.00000000000E+00 -0.15878217079E+04  0.15878217079E+04  0.25500000920E-02 0. -1.
    10030    2    1    2    0    0  0.00000000000E+00  0.00000000000E+00 -0.11385741326E+04  0.20370692832E+04  0.16891714563E+04 0.  0.
        5    1    3    3  502    0 -0.34825456410E+03 -0.43182567643E+03  0.19869903753E+03  0.58928605427E+03  0.46999998093E+01 0.  1.
       -5    1    3    3    0  502  0.34825456410E+03  0.43182567643E+03 -0.13372731702E+04  0.14477832289E+04  0.46999998093E+01 0. -1.
</event>
<event>
 5   0  0.1441756E-05  0.1698385E+04  0.7818609E-02  0.8762286E-01
        2   -1    0    0  501    0  0.00000000000E+00  0.00000000000E+00  0.13354356468E+04  0.13354356468E+04  0.25500000920E-02 0.  1.
       -2   -1    0    0    0  501  0.00000000000E+00  0.00000000000E+00 -0.53999438533E+03  0.53999438534E+03  0.25500000920E-02 0. -1.
    10030    2    1    2    0    0  0.00000000000E+00  0.00000000000E+00  0.79544126150E+03  0.18754300322E+04  0.16983848224E+04 0.  0.
        5    1    3    3  502    0  0.37216086182E+02  0.17938782118E+03  0.13133378495E+04  0.13260631299E+04  0.46999998093E+01 0.  1.
       -5    1    3    3    0  502 -0.37216086182E+02 -0.17938782118E+03 -0.51789658802E+03  0.54936690230E+03  0.46999998093E+01 0. -1.
</event>
<event>
 5   0  0.1435301E-05  0.1700038E+04  0.7818609E-02  0.8761343E-01
       -2   -1    0    0    0  501  0.00000000000E+00  0.00000000000E+00  0.57314507329E+03  0.57314507330E+03  0.25500000920E-02 0. -1.
        2   -1    0    0  501    0  0.00000000000E+00  0.00000000000E+00 -0.12606443366E+04  0.12606443366E+04  0.25500000920E-02 0.  1.
    10030    2    1    2    0    0  0.00000000000E+00  0.00000000000E+00 -0.68749926332E+03  0.18337894099E+04  0.17000377534E+04 0.  0.
        2    1    3    3  502    0  0.77375380207E+02 -0.83475995376E+03 -0.49522950376E+03  0.97368546834E+03  0.25500000920E-02 0. -1.
       -2    1    3    3    0  502 -0.77375380207E+02  0.83475995376E+03 -0.19226975956E+03  0.86010394158E+03  0.25500000920E-02 0.  1.
</event>
<event>
 5   0  0.1435301E-05  0.1697831E+04  0.7818609E-02  0.8762602E-01
        2   -1    0    0  501    0  0.00000000000E+00  0.00000000000E+00  0.17422336692E+04  0.17422336692E+04  0.25500000920E-02 0.  1.
       -2   -1    0    0    0  501  0.00000000000E+00  0.00000000000E+00 -0.41364005735E+03  0.41364005736E+03  0.25500000920E-02 0. -1.
    10030    2    1    2    0    0  0.00000000000E+00  0.00000000000E+00  0.13285936119E+04  0.21558737266E+04  0.16978311281E+04 0.  0.
        2    1    3    3  502    0 -0.31703554422E+03 -0.15795168000E+03 -0.31532699507E+03  0.47422714319E+03  0.25500000920E-02 0. -1.
       -2    1    3    3    0  502  0.31703554422E+03  0.15795168000E+03  0.16439206070E+04  0.16816465834E+04  0.25500000920E-02 0.  1.
</event>
<event>
 5   0  0.1374441E-05  0.1701074E+04  0.7818609E-02  0.8760752E-01
        2   -1    0    0  501    0  0.00000000000E+00  0.00000000000E+00  0.16835141485E+04  0.16835141485E+04  0.25500000920E-02 0.  1.
       -2   -1    0    0    0  501  0.00000000000E+00  0.00000000000E+00 -0.42970450144E+03  0.42970450144E+03  0.25500000920E-02 0. -1.
    10030    2    1    2    0    0  0.00000000000E+00  0.00000000000E+00  0.12538096470E+04  0.21132186499E+04  0.17010744932E+04 0.  0.
        1    1    3    3  502    0 -0.55721261852E+03  0.12428014992E+03  0.14101178775E+04  0.15213033512E+04  0.50400001928E-02 0.  1.
       -1    1    3    3    0  502  0.55721261852E+03 -0.12428014992E+03 -0.15630823048E+03  0.59191529870E+03  0.50400001928E-02 0. -1.
</event>
<event>
 5   0  0.7461128E-06  0.1700922E+04  0.7818609E-02  0.8760838E-01
       -1   -1    0    0    0  501  0.00000000000E+00  0.00000000000E+00  0.41461887512E+03  0.41461887515E+03  0.50400001928E-02 0. -1.
        1   -1    0    0  501    0  0.00000000000E+00  0.00000000000E+00 -0.17444556484E+04  0.17444556484E+04  0.50400001928E-02 0.  1.
    10030    2    1    2    0    0  0.00000000000E+00  0.00000000000E+00 -0.13298367733E+04  0.21590745235E+04  0.17009223835E+04 0.  0.
        3    1    3    3  502    0 -0.66516954434E+03 -0.47194761719E+03 -0.97088076963E+03  0.12679883892E+04  0.10100000352E+00 0.  1.
       -3    1    3    3    0  502  0.66516954434E+03  0.47194761719E+03 -0.35895600365E+03  0.89108613436E+03  0.10100000352E+00 0. -1.
</event>
<event>
 5   0  0.7461128E-06  0.1699799E+04  0.7818609E-02  0.8761479E-01
       -1   -1    0    0    0  501  0.00000000000E+00  0.00000000000E+00  0.51668583066E+03  0.51668583069E+03  0.50400001928E-02 0. -1.
        1   -1    0    0  501    0  0.00000000000E+00  0.00000000000E+00 -0.13980039027E+04  0.13980039027E+04  0.50400001928E-02 0.  1.
    10030    2    1    2    0    0  0.00000000000E+00  0.00000000000E+00 -0.88131807201E+03  0.19146897334E+04  0.16997985854E+04 0.  0.
        3    1    3    3  502    0 -0.56565207074E+03  0.62945209924E+03 -0.35227558361E+03  0.91666259190E+03  0.10100000352E+00 0. -1.
       -3    1    3    3    0  502  0.56565207074E+03 -0.62945209924E+03 -0.52904248840E+03  0.99802714147E+03  0.10100000352E+00 0.  1.
</event>
<event>
 5   0  0.5229750E-06  0.1698884E+04  0.7818609E-02  0.8762001E-01
       -3   -1    0    0    0  501  0.00000000000E+00  0.00000000000E+00  0.13298373291E+04  0.13298373329E+04  0.10100000352E+00 0. -1.
        3   -1    0    0  501    0  0.00000000000E+00  0.00000000000E+00 -0.54258675599E+03  0.54258676540E+03  0.10100000352E+00 0.  1.
    10030    2    1    2    0    0  0.00000000000E+00  0.00000000000E+00  0.78725057312E+03  0.18724240983E+04  0.16988844985E+04 0.  0.
        5    1    3    3  502    0  0.64591158750E+03 -0.46217678163E+03  0.72559160008E+03  0.10757854881E+04  0.46999998093E+01 0. -1.
       -5    1    3    3    0  502 -0.64591158750E+03  0.46217678163E+03  0.61658973035E+02  0.79663861022E+03  0.46999998093E+01 0.  1.
</event>
<event>
 5   0  0.1423543E-05  0.1699717E+04  0.7818609E-02  0.8761526E-01
       -2   -1    0    0    0  501  0.00000000000E+00  0.00000000000E+00  0.17195732823E+04  0.17195732823E+04  0.25500000920E-02 0.  1.
        2   -1    0    0  501    0  0.00000000000E+00  0.00000000000E+00 -0.42002264877E+03  0.42002264878E+03  0.25500000920E-02 0. -1.
    10030    2    1    2    0    0  0.00000000000E+00  0.00000000000E+00  0.12995506335E+04  0.21395959310E+04  0.16997172998E+04 0.  0.
        3    1    3    3  502    0 -0.48936287680E+03  0.85576366526E+02 -0.21820970886E+03  0.54260006169E+03  0.10100000352E+00 0. -1.
       -3    1    3    3    0  502  0.48936287680E+03 -0.85576366526E+02  0.15177603423E+04  0.15969958693E+04  0.10100000352E+00 0.  1.
</event>
<event>
 5   0  0.7082527E-06  0.1700274E+04  0.7818609E-02  0.8761208E-01
        1   -1    0    0  501    0  0.00000000000E+00  0.00000000000E+00  0.11646769169E+04  0.11646769169E+04  0.50400001928E-02 0.  1.
       -1   -1    0    0    0  501  0.00000000000E+00  0.00000000000E+00 -0.62054339355E+03  0.62054339357E+03  0.50400001928E-02 0. -1.
    10030    2    1    2    0    0  0.00000000000E+00  0.00000000000E+00  0.54413352335E+03  0.17852203105E+04  0.17002735855E+04 0.  0.
        1    1    3    3  502    0  0.12619123695E+02 -0.59521482691E+03  0.90925760714E+03  0.10868253441E+04  0.50400001928E-02 0.  1.
       -1    1    3    3    0  502 -0.12619123695E+02  0.59521482691E+03 -0.36512408378E+03  0.69839496636E+03  0.50400001928E-02 0. -1.
</event>
<event>
 5   0  0.1435301E-05  0.1699944E+04  0.7818609E-02  0.8761396E-01
       -2   -1    0    0    0  501  0.00000000000E+00  0.00000000000E+00  0.58557481543E+03  0.58557481543E+03  0.25500000920E-02 0.  1.
        2   -1    0    0  501    0  0.00000000000E+00  0.00000000000E+00 -0.12337490577E+04  0.12337490577E+04  0.25500000920E-02 0. -1.
    10030    2    1    2    0    0  0.00000000000E+00  0.00000000000E+00 -0.64817424226E+03  0.18193238731E+04  0.16999439717E+04 0.  0.
        2    1    3    3  502    0  0.67095330047E+03  0.27368954715E+03  0.15137274701E+03  0.74026887559E+03  0.25500000920E-02 0.  1.
       -2    1    3    3    0  502 -0.67095330047E+03 -0.27368954715E+03 -0.79954698927E+03  0.10790549975E+04  0.25500000920E-02 0. -1.
</event>
<event>
 5   0  0.7455669E-06  0.1700032E+04  0.7818609E-02  0.8761346E-01
        1   -1    0    0  501    0  0.00000000000E+00  0.00000000000E+00  0.11734844418E+04  0.11734844418E+04  0.50400001928E-02 0.  1.
       -1   -1    0    0    0  501  0.00000000000E+00  0.00000000000E+00 -0.61571090124E+03  0.61571090126E+03  0.50400001928E-02 0. -1.
    10030    2    1    2    0    0  0.00000000000E+00  0.00000000000E+00  0.55777354053E+03  0.17891953430E+04  0.17000319565E+04 0.  0.
        4    1    3    3  502    0 -0.89302929891E+02  0.17686751591E+03 -0.59106734705E+03  0.62339341761E+03  0.12699999809E+01 0. -1.
       -4    1    3    3    0  502  0.89302929891E+02 -0.17686751591E+03  0.11488408876E+04  0.11658019254E+04  0.12699999809E+01 0.  1.
</event>
<event>
 5   0  0.7082527E-06  0.1700042E+04  0.7818609E-02  0.8761340E-01
       -1   -1    0    0    0  501  0.00000000000E+00  0.00000000000E+00  0.69800632039E+03  0.69800632041E+03  0.50400001928E-02 0.  1.
        1   -1    0    0  501    0  0.00000000000E+00  0.00000000000E+00 -0.10351424250E+04  0.10351424250E+04  0.50400001928E-02 0. -1.
    10030    2    1    2    0    0  0.00000000000E+00  0.00000000000E+00 -0.33713610463E+03  0.17331487454E+04  0.17000422997E+04 0.  0.
        1    1    3    3  502    0 -0.13504634435E+03  0.40112105546E+02 -0.10231580965E+04  0.10328112057E+04  0.50400001928E-02 0. -1.
       -1    1    3    3    0  502  0.13504634435E+03 -0.40112105546E+02  0.68602199191E+03  0.70033753972E+03  0.50400001928E-02 0.  1.
</event>
<event>
 5   0  0.7476457E-06  0.1699470E+04  0.7818609E-02  0.8761666E-01
        1   -1    0    0  501    0  0.00000000000E+00  0.00000000000E+00  0.71405748144E+03  0.71405748146E+03  0.50400001928E-02 0.  1.
       -1   -1    0    0    0  501  0.00000000000E+00  0.00000000000E+00 -0.10111930881E+04  0.10111930881E+04  0.50400001928E-02 0. -1.
    10030    2    1    2    0    0  0.00000000000E+00  0.00000000000E+00 -0.29713560663E+03  0.17252505696E+04  0.16994704937E+04 0.  0.
        2    1    3    3  502    0 -0.74996868731E+03  0.84861336903E+01 -0.55403231656E+03  0.93245742756E+03  0.25500000920E-02 0. -1.
       -2    1    3    3    0  502  0.74996868731E+03 -0.84861336903E+01  0.25689670992E+03  0.79279314199E+03  0.25500000920E-02 0.  1.
</event>
<event>
 5   0  0.7461128E-06  0.1699976E+04  0.7818609E-02  0.8761378E-01
       -1   -1    0    0    0  501  0.00000000000E+00  0.00000000000E+00  0.10318802853E+04  0.10318802854E+04  0.50400001928E-02 0.  1.
        1   -1    0    0  501    0  0.00000000000E+00  0.00000000000E+00 -0.70015825489E+03  0.70015825491E+03  0.50400001928E-02 0. -1.
    10030    2    1    2    0    0  0.00000000000E+00  0.00000000000E+00  0.33172203045E+03  0.17320385403E+04  0.16999758820E+04 0.  0.
        3    1    3    3  502    0 -0.26323208339E+03 -0.16984380850E+03  0.97091661009E+03  0.10202044516E+04  0.10100000352E+00 0.  1.
       -3    1    3    3    0  502  0.26323208339E+03  0.16984380850E+03 -0.63919457964E+03  0.71183408871E+03  0.10100000352E+00 0. -1.
</event>
<event>
 5   0  0.1419012E-05  0.1702769E+04  0.7818609E-02  0.8759786E-01
        2   -1    0    0  501    0  0.00000000000E+00  0.00000000000E+00  0.11696387849E+04  0.11696387849E+04  0.25500000920E-02 0.  1.
       -2   -1    0    0    0  501  0.00000000000E+00  0.00000000000E+00 -0.61972624696E+03  0.61972624696E+03  0.25500000920E-02 0. -1.
    10030    2    1    2    0    0  0.00000000000E+00  0.00000000000E+00  0.54991253791E+03  0.17893650318E+04  0.17027693378E+04 0.  0.
        4    1    3    3  502    0 -0.37209774170E+03 -0.65345371436E+03  0.69450412002E+03  0.10236191048E+04  0.12699999809E+01 0. -1.
       -4    1    3    3    0  502  0.37209774170E+03  0.65345371436E+03 -0.14459158210E+03  0.76574592699E+03  0.12699999809E+01 0.  1.
</event>
<event>
 5   0  0.1419012E-05  0.1699491E+04  0.7818609E-02  0.8761655E-01
        2   -1    0    0  501    0  0.00000000000E+00  0.00000000000E+00  0.19097522476E+04  0.19097522476E+04  0.25500000920E-02 0.  1.
       -2   -1    0    0    0  501  0.00000000000E+00  0.00000000000E+00 -0.37809483686E+03  0.37809483687E+03  0.25500000920E-02 0. -1.
    10030    2    1    2    0    0  0.00000000000E+00  0.00000000000E+00  0.15316574107E+04  0.22878470845E+04  0.16994910585E+04 0.  0.
        4    1    3    3  502    0  0.63900068514E+03  0.43165808848E+03  0.12463568730E+04  0.14656253439E+04  0.12699999809E+01 0.  1.
       -4    1    3    3    0  502 -0.63900068514E+03 -0.43165808848E+03  0.28530053778E+03  0.82222174059E+03  0.12699999809E+01 0. -1.
</event>
<event>
 5   0  0.7476457E-06  0.1699731E+04  0.7818609E-02  0.8761518E-01
       -1   -1    0    0    0  501  0.00000000000E+00  0.00000000000E+00  0.25628962788E+03  0.25628962793E+03  0.50400001928E-02 0. -1.
        1   -1    0    0  501    0  0.00000000000E+00  0.00000000000E+00 -0.28181838936E+04  0.28181838936E+04  0.50400001928E-02 0.  1.
    10030    2    1    2    0    0  0.00000000000E+00  0.00000000000E+00 -0.25618942657E+04  0.30744735216E+04  0.16997309216E+04 0.  0.
        2    1    3    3  502    0 -0.55492236062E+03 -0.72655300716E+02 -0.12408731873E+03  0.57324975509E+03  0.25500000920E-02 0. -1.
       -2    1    3    3    0  502  0.55492236062E+03  0.72655300716E+02 -0.24378069470E+04  0.25012237665E+04  0.25500000920E-02 0.  1.
</event>
<event>
 5   0  0.1419012E-05  0.1698338E+04  0.7818609E-02  0.8762313E-01
        2   -1    0    0  501    0  0.00000000000E+00  0.00000000000E+00  0.14763976384E+04  0.14763976384E+04  0.25500000920E-02 0.  1.
       -2   -1    0    0    0  501  0.00000000000E+00  0.00000000000E+00 -0.48841042459E+03  0.48841042460E+03  0.25500000920E-02 0. -1.
    10030    2    1    2    0    0  0.00000000000E+00  0.00000000000E+00  0.98798721383E+03  0.19648080630E+04  0.16983380081E+04 0.  0.
        4    1    3    3  502    0 -0.42228404081E+02 -0.63318080669E+03  0.11467820347E+04  0.13106532036E+04  0.12699999809E+01 0.  1.
       -4    1    3    3    0  502  0.42228404081E+02  0.63318080669E+03 -0.15879482088E+03  0.65415485942E+03  0.12699999809E+01 0. -1.
</event>
<event>
 5   0  0.1374441E-05  0.1699796E+04  0.7818609E-02  0.8761481E-01
        2   -1    0    0  501    0  0.00000000000E+00  0.00000000000E+00  0.11829504424E+04  0.11829504424E+04  0.25500000920E-02 0.  1.
       -2   -1    0    0    0  501  0.00000000000E+00  0.00000000000E+00 -0.61061460145E+03  0.61061460145E+03  0.25500000920E-02 0. -1.
    10030    2    1    2    0    0  0.00000000000E+00  0.00000000000E+00  0.57233584094E+03  0.17935650438E+04  0.16997962383E+04 0.  0.
        1    1    3    3  502    0  0.50634817585E+03  0.47055657241E+03  0.80793045025E+03  0.10632796318E+04  0.50400001928E-02 0.  1.
       -1    1    3    3    0  502 -0.50634817585E+03 -0.47055657241E+03 -0.23559460931E+03  0.73028541200E+03  0.50400001928E-02 0. -1.
</event>
<event>
 5   0  0.1419012E-05  0.1699912E+04  0.7818609E-02  0.8761414E-01
        2   -1    0    0  501    0  0.00000000000E+00  0.00000000000E+00  0.97434890991E+03  0.97434890991E+03  0.25500000920E-02 0.  1.
       -2   -1    0    0    0  501  0.00000000000E+00  0.00000000000E+00 -0.74144447720E+03  0.74144447721E+03  0.25500000920E-02 0. -1.
    10030    2    1    2    0    0  0.00000000000E+00  0.00000000000E+00  0.23290443271E+03  0.17157933871E+04  0.16999124897E+04 0.  0.
        4    1    3    3  502    0  0.16882949749E+03  0.30306143685E+03 -0.66673122261E+03  0.75158616927E+03  0.12699999809E+01 0. -1.
       -4    1    3    3    0  502 -0.16882949749E+03 -0.30306143685E+03  0.89963565532E+03  0.96420721785E+03  0.12699999809E+01 0.  1.
</event>
<event>
 5   0  0.7461128E-06  0.1700016E+04  0.7818609E-02  0.8761355E-01
        1   -1    0    0  501    0  0.00000000000E+00  0.00000000000E+00  0.16640957057E+04  0.16640957057E+04  0.50400001928E-02 0. -1.
       -1   -1    0    0    0  501  0.00000000000E+00  0.00000000000E+00 -0.43417801800E+03  0.43417801803E+03  0.50400001928E-02 0.  1.
    10030    2    1    2    0    0  0.00000000000E+00  0.00000000000E+00  0.12299176877E+04  0.20982737238E+04  0.17000162062E+04 0.  0.
        3    1    3    3  502    0 -0.18382624114E+03 -0.68117020189E+03  0.12000701365E+04  0.13921039019E+04  0.10100000352E+00 0. -1.
       -3    1    3    3    0  502  0.18382624114E+03  0.68117020189E+03  0.29847551238E+02  0.70616982192E+03  0.10100000352E+00 0.  1.
</event>
<event>
 5   0  0.1441756E-05  0.1700565E+04  0.7818609E-02  0.8761042E-01
       -2   -1    0    0    0  501  0.00000000000E+00  0.00000000000E+00  0.10220950059E+04  0.10220950059E+04  0.25500000920E-02 0.  1.
        2   -1    0    0  501    0  0.00000000000E+00  0.00000000000E+00 -0.70735170507E+03  0.70735170508E+03  0.25500000920E-02 0. -1.
    10030    2    1    2    0    0  0.00000000000E+00  0.00000000000E+00  0.31474330086E+03  0.17294467110E+04  0.17005653709E+04 0.  0.
        5    1    3    3  502    0  0.13795942062E+03 -0.62038720613E+03  0.73180565859E+03  0.96926503043E+03  0.46999998093E+01 0.  1.
       -5    1    3    3    0  502 -0.13795942062E+03  0.62038720613E+03 -0.41706235773E+03  0.76018168059E+03  0.46999998093E+01 0. -1.
</event>
<event>
 5   0  0.7583716E-06  0.1700092E+04  0.7818609E-02  0.8761312E-01
       -1   -1    0    0    0  501  0.00000000000E+00  0.00000000000E+00  0.46950315622E+03  0.46950315625E+03  0.50400001928E-02 0.  1.
        1   -1    0    0  501    0  0.00000000000E+00  0.00000000000E+00 -0.15390278359E+04  0.15390278359E+04  0.50400001928E-02 0. -1.
    10030    2    1    2    0    0  0.00000000000E+00  0.00000000000E+00 -0.10695246796E+04  0.20085309921E+04  0.17000922639E+04 0.  0.
        5    1    3    3  502    0 -0.22845716828E+03 -0.62754817474E+03 -0.11560467850E+04  0.13350938725E+04  0.46999998093E+01 0. -1.
       -5    1    3    3    0  502  0.22845716828E+03  0.62754817474E+03  0.86522105333E+02  0.67343711961E+03  0.46999998093E+01 0.  1.
</event>
<event>
 5   0  0.7461128E-06  0.1700259E+04  0.7818609E-02  0.8761217E-01
        1   -1    0    0  501    0  0.00000000000E+00  0.00000000000E+00  0.92420461518E+03  0.92420461520E+03  0.50400001928E-02 0.  1.
       -1   -1    0    0    0  501  0.00000000000E+00  0.00000000000E+00 -0.78199139076E+03  0.78199139077E+03  0.50400001928E-02 0. -1.
    10030    2    1    2    0    0  0.00000000000E+00  0.00000000000E+00  0.14221322443E+03  0.17061960060E+04  0.17002588655E+04 0.  0.
        3    1    3    3  502    0 -0.55884639702E+03  0.16067633320E+02  0.71377449362E+03  0.90666504413E+03  0.10100000352E+00 0.  1.
       -3    1    3    3    0  502  0.55884639702E+03 -0.16067633320E+02 -0.57156126919E+03  0.79953096184E+03  0.10100000352E+00 0. -1.
</event>
<event>
 5   0  0.1423543E-05  0.1699678E+04  0.7818609E-02  0.8761548E-01
       -2   -1    0    0    0  501  0.00000000000E+00  0.00000000000E+00  0.79440771207E+03  0.79440771207E+03  0.25500000920E-02 0.  1.
        2   -1    0    0  501    0  0.00000000000E+00  0.00000000000E+00 -0.90913846468E+03  0.90913846469E+03  0.25500000920E-02 0. -1.
    10030    2    1    2    0    0  0.00000000000E+00  0.00000000000E+00 -0.11473075261E+03  0.17035461768E+04  0.16996783316E+04 0.  0.
        3    1    3    3  502    0 -0.44025134727E+03 -0.37658293903E+03  0.56581366541E+03  0.80980310750E+03  0.10100000352E+00 0.  1.
       -3    1    3    3    0  502  0.44025134727E+03  0.37658293903E+03 -0.68054441803E+03  0.89374306926E+03  0.10100000352E+00 0. -1.
</event>
<event>
 5   0  0.7082527E-06  0.1699375E+04  0.7818609E-02  0.8761721E-01
        1   -1    0    0  501    0  0.00000000000E+00  0.00000000000E+00  0.21087644809E+04  0.21087644810E+04  0.50400001928E-02 0. -1.
       -1   -1    0    0    0  501  0.00000000000E+00  0.00000000000E+00 -0.34236572378E+03  0.34236572381E+03  0.50400001928E-02 0.  1.
    10030    2    1    2    0    0  0.00000000000E+00  0.00000000000E+00  0.17663987572E+04  0.24511302048E+04  0.16993748002E+04 0.  0.
        1    1    3    3  502    0 -0.46571262225E+03 -0.62011489192E+03  0.13839703112E+04  0.15864439946E+04  0.50400001928E-02 0. -1.
       -1    1    3    3    0  502  0.46571262225E+03  0.62011489192E+03  0.38242844594E+03  0.86468621014E+03  0.50400001928E-02 0.  1.
</event>
<event>
 5   0  0.7455669E-06  0.1700093E+04  0.7818609E-02  0.8761311E-01
        1   -1    0    0  501    0  0.00000000000E+00  0.00000000000E+00  0.16751251786E+04  0.16751251786E+04  0.50400001928E-02 0. -1.
       -1   -1    0    0    0  501  0.00000000000E+00  0.00000000000E+00 -0.43135849485E+03  0.43135849488E+03  0.50400001928E-02 0.  1.
    10030    2    1    2    0    0  0.00000000000E+00  0.00000000000E+00  0.12437666838E+04  0.21064836735E+04  0.17000934983E+04 0.  0.
        4    1    3    3  502    0  0.56873207528E+03 -0.56153528543E+03  0.98056305584E+03  0.12650231498E+04  0.12699999809E+01 0. -1.
       -4    1    3    3    0  502 -0.56873207528E+03  0.56153528543E+03  0.26320362792E+03  0.84146052366E+03  0.12699999809E+01 0.  1.
</event>
<event>
 5   0  0.7583716E-06  0.1700511E+04  0.7818609E-02  0.8761073E-01
        1   -1    0    0  501    0  0.00000000000E+00  0.00000000000E+00  0.12068791512E+04  0.12068791512E+04  0.50400001928E-02 0.  1.
       -1   -1    0    0    0  501  0.00000000000E+00  0.00000000000E+00 -0.59901144449E+03  0.59901144451E+03  0.50400001928E-02 0. -1.
    10030    2    1    2    0    0  0.00000000000E+00  0.00000000000E+00  0.60786770668E+03  0.18058905957E+04  0.17005110099E+04 0.  0.
        5    1    3    3  502    0  0.45515102423E+03  0.45407683470E+03  0.89479752410E+03  0.11018316232E+04  0.46999998093E+01 0.  1.
       -5    1    3    3    0  502 -0.45515102423E+03 -0.45407683470E+03 -0.28692981742E+03  0.70405897252E+03  0.46999998093E+01 0. -1.
</event>
<event>
 5   0  0.7455669E-06  0.1700083E+04  0.7818609E-02  0.8761317E-01
        1   -1    0    0  501    0  0.00000000000E+00  0.00000000000E+00  0.24283940225E+04  0.24283940225E+04  0.50400001928E-02 0.  1.
       -1   -1    0    0    0  501  0.00000000000E+00  0.00000000000E+00 -0.29755076010E+03  0.29755076014E+03  0.50400001928E-02 0. -1.
    10030    2    1    2    0    0  0.00000000000E+00  0.00000000000E+00  0.21308432624E+04  0.27259447826E+04  0.17000829242E+04 0.  0.
        4    1    3    3  502    0  0.13113156806E+03 -0.41419276264E+02 -0.27959517641E+03  0.31158645696E+03  0.12699999809E+01 0. -1.
       -4    1    3    3    0  502 -0.13113156806E+03  0.41419276264E+02  0.24104384388E+04  0.24143583257E+04  0.12699999809E+01 0.  1.
</event>
<event>
 5   0  0.7082527E-06  0.1700063E+04  0.7818609E-02  0.8761328E-01
        1   -1    0    0  501    0  0.00000000000E+00  0.00000000000E+00  0.17228393312E+04  0.17228393312E+04  0.50400001928E-02 0.  1.
       -1   -1    0    0    0  501  0.00000000000E+00  0.00000000000E+00 -0.41939693800E+03  0.41939693803E+03  0.50400001928E-02 0. -1.
    10030    2    1    2    0    0  0.00000000000E+00  0.00000000000E+00  0.13034423932E+04  0.21422362692E+04  0.17000629873E+04 0.  0.
        1    1    3    3  502    0  0.60248653680E+03 -0.22349789135E+03 -0.49429536225E+02  0.64450338520E+03  0.50400001928E-02 0. -1.
       -1    1    3    3    0  502 -0.60248653680E+03  0.22349789135E+03  0.13528719294E+04  0.14977328840E+04  0.50400001928E-02 0.  1.
</event>
<event>
 5   0  0.1419012E-05  0.1700198E+04  0.7818609E-02  0.8761251E-01
       -2   -1    0    0    0  501  0.00000000000E+00  0.00000000000E+00  0.63230888070E+03  0.63230888070E+03  0.25500000920E-02 0.  1.
        2   -1    0    0  501    0  0.00000000000E+00  0.00000000000E+00 -0.11429045701E+04  0.11429045701E+04  0.25500000920E-02 0. -1.
    10030    2    1    2    0    0  0.00000000000E+00  0.00000000000E+00 -0.51059568942E+03  0.17752134508E+04  0.17001984702E+04 0.  0.
        4    1    3    3  502    0 -0.58812477231E+03  0.39043122631E+03 -0.74984092452E+03  0.10298496566E+04  0.12699999809E+01 0. -1.
       -4    1    3    3    0  502  0.58812477231E+03 -0.39043122631E+03  0.23924523510E+03  0.74536379419E+03  0.12699999809E+01 0.  1.
</event>
<event>
 5   0  0.7455669E-06  0.1702116E+04  0.7818609E-02  0.8760158E-01
       -1   -1    0    0    0  501  0.00000000000E+00  0.00000000000E+00  0.11384278181E+04  0.11384278181E+04  0.50400001928E-02 0.  1.
        1   -1    0    0  501    0  0.00000000000E+00  0.00000000000E+00 -0.63622819933E+03  0.63622819935E+03  0.50400001928E-02 0. -1.
    10030    2    1    2    0    0  0.00000000000E+00  0.00000000000E+00  0.50219961881E+03  0.17746560175E+04  0.17021161897E+04 0.  0.
        4    1    3    3  502    0  0.84908202278E+03  0.55637108360E+02  0.23420751848E+03  0.88254775727E+03  0.12699999809E+01 0. -1.
       -4    1    3    3    0  502 -0.84908202278E+03 -0.55637108360E+02  0.26799210032E+03  0.89210826023E+03  0.12699999809E+01 0.  1.
</event>
<event>
 5   0  0.7082527E-06  0.1700365E+04  0.7818609E-02  0.8761156E-01
        1   -1    0    0  501    0  0.00000000000E+00  0.00000000000E+00  0.10152117727E+04  0.10152117727E+04  0.50400001928E-02 0.  1.
       -1   -1    0    0    0  501  0.00000000000E+00  0.00000000000E+00 -0.71197956462E+03  0.71197956464E+03  0.50400001928E-02 0. -1.
    10030    2    1    2    0    0  0.00000000000E+00  0.00000000000E+00  0.30323220810E+03  0.17271913374E+04  0.17003647091E+04 0.  0.
        1    1    3    3  502    0  0.67048536493E+02 -0.43680625190E+03  0.88937712251E+03  0.99311976821E+03  0.50400001928E-02 0.  1.
       -1    1    3    3    0  502 -0.67048536493E+02  0.43680625190E+03 -0.58614491441E+03  0.73407156916E+03  0.50400001928E-02 0. -1.
</event>
<event>
 5   0  0.7461128E-06  0.1700400E+04  0.7818609E-02  0.8761136E-01
       -1   -1    0    0    0  501  0.00000000000E+00  0.00000000000E+00  0.10153091315E+04  0.10153091316E+04  0.50400001928E-02 0. -1.
        1   -1    0    0  501    0  0.00000000000E+00  0.00000000000E+00 -0.71194125227E+03  0.71194125229E+03  0.50400001928E-02 0.  1.
    10030    2    1    2    0    0  0.00000000000E+00  0.00000000000E+00  0.30336787928E+03  0.17272503838E+04  0.17004004876E+04 0.  0.
        3    1    3    3  502    0 -0.68013723122E+02 -0.22433226866E+03 -0.67846577146E+03  0.71782076212E+03  0.10100000352E+00 0.  1.
       -3    1    3    3    0  502  0.68013723122E+02  0.22433226866E+03  0.98183365073E+03  0.10094296217E+04  0.10100000352E+00 0. -1.
</event>
<event>
 5   0  0.7461128E-06  0.1700271E+04  0.7818609E-02  0.8761210E-01
        1   -1    0    0  501    0  0.00000000000E+00  0.00000000000E+00  0.15215847918E+04  0.15215847918E+04  0.50400001928E-02 0.  1.
       -1   -1    0    0    0  501  0.00000000000E+00  0.00000000000E+00 -0.47498523767E+03  0.47498523770E+03  0.50400001928E-02 0. -1.
    10030    2    1    2    0    0  0.00000000000E+00  0.00000000000E+00  0.10465995541E+04  0.19965700295E+04  0.17002709361E+04 0.  0.
        3    1    3    3  502    0  0.15999179360E+03 -0.33564352159E+03  0.14210383589E+04  0.14688784753E+04  0.10100000352E+00 0.  1.
       -3    1    3    3    0  502 -0.15999179360E+03  0.33564352159E+03 -0.37443880479E+03  0.52769155416E+03  0.10100000352E+00 0. -1.
</event>
<event>
 5   0  0.1419012E-05  0.1701165E+04  0.7818609E-02  0.8760700E-01
       -2   -1    0    0    0  501  0.00000000000E+00  0.00000000000E+00  0.51699714844E+03  0.51699714845E+03  0.25500000920E-02 0.  1.
        2   -1    0    0  501    0  0.00000000000E+00  0.00000000000E+00 -0.13994084435E+04  0.13994084435E+04  0.25500000920E-02 0. -1.
    10030    2    1    2    0    0  0.00000000000E+00  0.00000000000E+00 -0.88241129501E+03  0.19164055919E+04  0.17011645127E+04 0.  0.
        4    1    3    3  502    0  0.39396366057E+03  0.73132615582E+03 -0.23519230349E+03  0.86334370013E+03  0.12699999809E+01 0.  1.
       -4    1    3    3    0  502 -0.39396366057E+03 -0.73132615582E+03 -0.64721899152E+03  0.10530618918E+04  0.12699999809E+01 0. -1.
</event>
<event>
 5   0  0.7476457E-06  0.1700712E+04  0.7818609E-02  0.8760958E-01
        1   -1    0    0  501    0  0.00000000000E+00  0.00000000000E+00  0.13108139023E+04  0.13108139023E+04  0.50400001928E-02 0. -1.
       -1   -1    0    0    0  501  0.00000000000E+00  0.00000000000E+00 -0.55164633758E+03  0.55164633760E+03  0.50400001928E-02 0.  1.
    10030    2    1    2    0    0  0.00000000000E+00  0.00000000000E+00  0.75916756471E+03  0.18624602399E+04  0.17007124254E+04 0.  0.
        2    1    3    3  502    0 -0.15803160051E+03 -0.39010879951E+03 -0.42957042800E+03  0.60140636415E+03  0.25500000920E-02 0.  1.
       -2    1    3    3    0  502  0.15803160051E+03  0.39010879951E+03  0.11887379927E+04  0.12610538757E+04  0.25500000920E-02 0. -1.
</event>
<event>
 5   0  0.7455669E-06  0.1700592E+04  0.7818609E-02  0.8761027E-01
        1   -1    0    0  501    0  0.00000000000E+00  0.00000000000E+00  0.20639093893E+04  0.20639093894E+04  0.50400001928E-02 0.  1.
       -1   -1    0    0    0  501  0.00000000000E+00  0.00000000000E+00 -0.35030749329E+03  0.35030749333E+03  0.50400001928E-02 0. -1.
    10030    2    1    2    0    0  0.00000000000E+00  0.00000000000E+00  0.17136018961E+04  0.24142168827E+04  0.17005915731E+04 0.  0.
        4    1    3    3  502    0 -0.26443265445E+02  0.78454011600E+03  0.13207385704E+04  0.15364095886E+04  0.12699999809E+01 0.  1.
       -4    1    3    3    0  502  0.26443265445E+02 -0.78454011600E+03  0.39286332568E+03  0.87780729404E+03  0.12699999809E+01 0. -1.
</event>
<event>
 5   0  0.1419012E-05  0.1699779E+04  0.7818609E-02  0.8761491E-01
       -2   -1    0    0    0  501  0.00000000000E+00  0.00000000000E+00  0.80059933784E+03  0.80059933784E+03  0.25500000920E-02 0.  1.
        2   -1    0    0  501    0  0.00000000000E+00  0.00000000000E+00 -0.90221394653E+03  0.90221394654E+03  0.25500000920E-02 0. -1.
    10030    2    1    2    0    0  0.00000000000E+00  0.00000000000E+00 -0.10161460869E+03  0.17028132844E+04  0.16997786776E+04 0.  0.
        4    1    3    3  502    0 -0.65678670920E+02 -0.47129454894E+03  0.65463595597E+03  0.80930963631E+03  0.12699999809E+01 0.  1.
       -4    1    3    3    0  502  0.65678670920E+02  0.47129454894E+03 -0.75625056466E+03  0.89350364807E+03  0.12699999809E+01 0. -1.
</event>
<event>
 5   0  0.1441756E-05  0.1700022E+04  0.7818609E-02  0.8761352E-01
       -2   -1    0    0    0  501  0.00000000000E+00  0.00000000000E+00  0.70233260029E+03  0.70233260030E+03  0.25500000920E-02 0. -1.
        2   -1    0    0  501    0  0.00000000000E+00  0.00000000000E+00 -0.10287412149E+04  0.10287412150E+04  0.25500000920E-02 0.  1.
    10030    2    1    2    0    0  0.00000000000E+00  0.00000000000E+00 -0.32640861466E+03  0.17310738152E+04  0.17000217558E+04 0.  0.
        5    1    3    3  502    0  0.24883137588E+03  0.62685095664E+03 -0.68999048224E+03  0.96486689810E+03  0.46999998093E+01 0.  1.
       -5    1    3    3    0  502 -0.24883137588E+03 -0.62685095664E+03  0.36358186759E+03  0.76620691715E+03  0.46999998093E+01 0. -1.
</event>
<event>
 5   0  0.7455669E-06  0.1697321E+04  0.7818609E-02  0.8762894E-01
       -1   -1    0    0    0  501  0.00000000000E+00  0.00000000000E+00  0.33599389977E+03  0.33599389981E+03  0.50400001928E-02 0.  1.
        1   -1    0    0  501    0  0.00000000000E+00  0.00000000000E+00 -0.21435641776E+04  0.21435641776E+04  0.50400001928E-02 0. -1.
    10030    2    1    2    0    0  0.00000000000E+00  0.00000000000E+00 -0.18075702778E+04  0.24795580774E+04  0.16973208153E+04 0.  0.
        4    1    3    3  502    0  0.19949770842E+02  0.65530768764E+03 -0.11654686955E+03  0.66589109060E+03  0.12699999809E+01 0.  1.
       -4    1    3    3    0  502 -0.19949770842E+02 -0.65530768764E+03 -0.16910234082E+04  0.18136669868E+04  0.12699999809E+01 0. -1.
</event>
<event>
 5   0  0.1419012E-05  0.1698743E+04  0.7818609E-02  0.8762082E-01
        2   -1    0    0  501    0  0.00000000000E+00  0.00000000000E+00  0.36592547508E+03  0.36592547509E+03  0.25500000920E-02 0.  1.
       -2   -1    0    0    0  501  0.00000000000E+00  0.00000000000E+00 -0.19715273216E+04  0.19715273216E+04  0.25500000920E-02 0. -1.
    10030    2    1    2    0    0  0.00000000000E+00  0.00000000000E+00 -0.16056018465E+04  0.23374527967E+04  0.16987431493E+04 0.  0.
        4    1    3    3  502    0 -0.54209970907E+03 -0.55549599462E+03 -0.32816916589E+03  0.84270072325E+03  0.12699999809E+01 0. -1.
       -4    1    3    3    0  502  0.54209970907E+03  0.55549599462E+03 -0.12774326806E+04  0.14947520734E+04  0.12699999809E+01 0.  1.
</event>
<event>
 5   0  0.1423543E-05  0.1699934E+04  0.7818609E-02  0.8761402E-01
        2   -1    0    0  501    0  0.00000000000E+00  0.00000000000E+00  0.22088897596E+04  0.22088897596E+04  0.25500000920E-02 0. -1.
       -2   -1    0    0    0  501  0.00000000000E+00  0.00000000000E+00 -0.32706206365E+03  0.32706206366E+03  0.25500000920E-02 0.  1.
    10030    2    1    2    0    0  0.00000000000E+00  0.00000000000E+00  0.18818276959E+04  0.25359518233E+04  0.16999341672E+04 0.  0.
        3    1    3    3  502    0  0.21887967851E+03 -0.40734419142E+03 -0.12298372621E+03  0.47850037729E+03  0.10100000352E+00 0.  1.
       -3    1    3    3    0  502 -0.21887967851E+03  0.40734419142E+03  0.20048114222E+04  0.20574514460E+04  0.10100000352E+00 0. -1.
</event>
<event>
 5   0  0.7583716E-06  0.1698634E+04  0.7818609E-02  0.8762144E-01
        1   -1    0    0  501    0  0.00000000000E+00  0.00000000000E+00  0.44907603167E+03  0.44907603170E+03  0.50400001928E-02 0. -1.
       -1   -1    0    0    0  501  0.00000000000E+00  0.00000000000E+00 -0.16062753549E+04  0.16062753550E+04  0.50400001928E-02 0.  1.
    10030    2    1    2    0    0  0.00000000000E+00  0.00000000000E+00 -0.11571993233E+04  0.20553513866E+04  0.16986344659E+04 0.  0.
        5    1    3    3  502    0  0.38220390301E+03 -0.55751256923E+03  0.43602212297E+02  0.67736499115E+03  0.46999998093E+01 0. -1.
       -5    1    3    3    0  502 -0.38220390301E+03  0.55751256923E+03 -0.12008015356E+04  0.13779863955E+04  0.46999998093E+01 0.  1.
</event>
<event>
 5   0  0.1435301E-05  0.1699736E+04  0.7818609E-02  0.8761515E-01
        2   -1    0    0  501    0  0.00000000000E+00  0.00000000000E+00  0.23480483026E+04  0.23480483026E+04  0.25500000920E-02 0. -1.
       -2   -1    0    0    0  501  0.00000000000E+00  0.00000000000E+00 -0.30760667982E+03  0.30760667983E+03  0.25500000920E-02 0.  1.
    10030    2    1    2    0    0  0.00000000000E+00  0.00000000000E+00  0.20404416228E+04  0.26556549825E+04  0.16997356764E+04 0.  0.
        2    1    3    3  502    0 -0.59144344039E+03 -0.66804514239E+02  0.72417124996E+02  0.59959355091E+03  0.25500000920E-02 0.  1.
       -2    1    3    3    0  502  0.59144344039E+03  0.66804514239E+02  0.19680244978E+04  0.20560614315E+04  0.25500000920E-02 0. -1.
</event>
<event>
 5   0  0.5229750E-06  0.1700452E+04  0.7818609E-02  0.8761106E-01
        3   -1    0    0  501    0  0.00000000000E+00  0.00000000000E+00  0.53502533815E+03  0.53502534769E+03  0.10100000352E+00 0.  1.
       -3   -1    0    0    0  501  0.00000000000E+00  0.00000000000E+00 -0.13511220518E+04  0.13511220556E+04  0.10100000352E+00 0. -1.
    10030    2    1    2    0    0  0.00000000000E+00  0.00000000000E+00 -0.81609671367E+03  0.18861474033E+04  0.17004523460E+04 0.  0.
        2    1    3    3  502    0  0.91155442489E+02  0.65215654537E+03 -0.10046173312E+04  0.12011966769E+04  0.25500000920E-02 0. -1.
       -2    1    3    3    0  502 -0.91155442489E+02 -0.65215654537E+03  0.18852061755E+03  0.68495072641E+03  0.25500000920E-02 0.  1.
</event>
<event>
 5   0  0.1435301E-05  0.1699179E+04  0.7818609E-02  0.8761833E-01
       -2   -1    0    0    0  501  0.00000000000E+00  0.00000000000E+00  0.27488285993E+03  0.27488285994E+03  0.25500000920E-02 0. -1.
        2   -1    0    0  501    0  0.00000000000E+00  0.00000000000E+00 -0.26258544764E+04  0.26258544764E+04  0.25500000920E-02 0.  1.
    10030    2    1    2    0    0  0.00000000000E+00  0.00000000000E+00 -0.23509716165E+04  0.29007373363E+04  0.16991790821E+04 0.  0.
        2    1    3    3  502    0 -0.71335332342E+03  0.10513196051E+03 -0.19425157989E+04  0.20720263807E+04  0.25500000920E-02 0.  1.
       -2    1    3    3    0  502  0.71335332342E+03 -0.10513196051E+03 -0.40845581758E+03  0.82871095569E+03  0.25500000920E-02 0. -1.
</event>
<event>
 5   0  0.7461128E-06  0.1699379E+04  0.7818609E-02  0.8761719E-01
        1   -1    0    0  501    0  0.00000000000E+00  0.00000000000E+00  0.17606650385E+04  0.17606650385E+04  0.50400001928E-02 0.  1.
       -1   -1    0    0    0  501  0.00000000000E+00  0.00000000000E+00 -0.41005657809E+03  0.41005657812E+03  0.50400001928E-02 0. -1.
    10030    2    1    2    0    0  0.00000000000E+00  0.00000000000E+00  0.13506084604E+04  0.21707216166E+04  0.16993790406E+04 0.  0.
        3    1    3    3  502    0  0.84518183953E+03  0.66157255571E+02  0.60233627935E+03  0.10399606377E+04  0.10100000352E+00 0. -1.
       -3    1    3    3    0  502 -0.84518183953E+03 -0.66157255571E+02  0.74827218107E+03  0.11307609789E+04  0.10100000352E+00 0.  1.
</event>
<event>
 5   0  0.1423543E-05  0.1699807E+04  0.7818609E-02  0.8761474E-01
       -2   -1    0    0    0  501  0.00000000000E+00  0.00000000000E+00  0.15891883719E+04  0.15891883719E+04  0.25500000920E-02 0. -1.
        2   -1    0    0  501    0  0.00000000000E+00  0.00000000000E+00 -0.45453155038E+03  0.45453155039E+03  0.25500000920E-02 0.  1.
    10030    2    1    2    0    0  0.00000000000E+00  0.00000000000E+00  0.11346568215E+04  0.20437199223E+04  0.16998073474E+04 0.  0.
        3    1    3    3  502    0 -0.83942208405E+03  0.12138782539E+03  0.50178457849E+03  0.98547055398E+03  0.10100000352E+00 0.  1.
       -3    1    3    3    0  502  0.83942208405E+03 -0.12138782539E+03  0.63287224305E+03  0.10582493683E+04  0.10100000352E+00 0. -1.
</event>
<event>
 5   0  0.7476457E-06  0.1699598E+04  0.7818609E-02  0.8761594E-01
        1   -1    0    0  501    0  0.00000000000E+00  0.00000000000E+00  0.10830880209E+04  0.10830880210E+04  0.50400001928E-02 0.  1.
       -1   -1    0    0    0  501  0.00000000000E+00  0.00000000000E+00 -0.66675876104E+03  0.66675876105E+03  0.50400001928E-02 0. -1.
    10030    2    1    2    0    0  0.00000000000E+00  0.00000000000E+00  0.41632925991E+03  0.17498467820E+04  0.16995981019E+04 0.  0.
        2    1    3    3  502    0 -0.19071102471E+03 -0.47321236562E+03  0.90785826281E+03  0.10413967847E+04  0.25500000920E-02 0.  1.
       -2    1    3    3    0  502  0.19071102471E+03  0.47321236562E+03 -0.49152900290E+03  0.70844999726E+03  0.25500000920E-02 0. -1.
</event>
<event>
 5   0  0.7082527E-06  0.1698921E+04  0.7818609E-02  0.8761980E-01
       -1   -1    0    0    0  501  0.00000000000E+00  0.00000000000E+00  0.30314239607E+03  0.30314239611E+03  0.50400001928E-02 0.  1.
        1   -1    0    0  501    0  0.00000000000E+00  0.00000000000E+00 -0.23803429907E+04  0.23803429907E+04  0.50400001928E-02 0. -1.
    10030    2    1    2    0    0  0.00000000000E+00  0.00000000000E+00 -0.20772005946E+04  0.26834853868E+04  0.16989206900E+04 0.  0.
        1    1    3    3  502    0  0.66790167640E+03  0.45849250524E+03 -0.63504869700E+03  0.10293662489E+04  0.50400001928E-02 0.  1.
       -1    1    3    3    0  502 -0.66790167640E+03 -0.45849250524E+03 -0.14421518976E+04  0.16541191380E+04  0.50400001928E-02 0. -1.
</event>
<event>
 5   0  0.1435301E-05  0.1700803E+04  0.7818609E-02  0.8760906E-01
       -2   -1    0    0    0  501  0.00000000000E+00  0.00000000000E+00  0.70894991631E+03  0.70894991632E+03  0.25500000920E-02 0.  1.
        2   -1    0    0  501    0  0.00000000000E+00  0.00000000000E+00 -0.10200762857E+04  0.10200762857E+04  0.25500000920E-02 0. -1.
    10030    2    1    2    0    0  0.00000000000E+00  0.00000000000E+00 -0.31112636940E+03  0.17290262020E+04  0.17008033365E+04 0.  0.
        2    1    3    3  502    0 -0.19965751376E+03 -0.97433673395E+02 -0.99005395245E+03  0.10146739734E+04  0.25500000920E-02 0. -1.
       -2    1    3    3    0  502  0.19965751376E+03  0.97433673395E+02  0.67892758306E+03  0.71435222864E+03  0.25500000920E-02 0.  1.
</event>
<event>
 5   0  0.7461128E-06  0.1701922E+04  0.7818609E-02  0.8760269E-01
       -1   -1    0    0    0  501  0.00000000000E+00  0.00000000000E+00  0.63776641900E+03  0.63776641902E+03  0.50400001928E-02 0. -1.
        1   -1    0    0  501    0  0.00000000000E+00  0.00000000000E+00 -0.11354233197E+04  0.11354233197E+04  0.50400001928E-02 0.  1.
    10030    2    1    2    0    0  0.00000000000E+00  0.00000000000E+00 -0.49765690073E+03  0.17731897388E+04  0.17019222834E+04 0.  0.
        3    1    3    3  502    0  0.57766345537E+03 -0.13135820727E+03 -0.88529775397E+03  0.10652239998E+04  0.10100000352E+00 0.  1.
       -3    1    3    3    0  502 -0.57766345537E+03  0.13135820727E+03  0.38764085324E+03  0.70796573900E+03  0.10100000352E+00 0. -1.
</event>
<event>
 5   0  0.1419012E-05  0.1700420E+04  0.7818609E-02  0.8761125E-01
       -2   -1    0    0    0  501  0.00000000000E+00  0.00000000000E+00  0.95621361508E+03  0.95621361508E+03  0.25500000920E-02 0.  1.
        2   -1    0    0  501    0  0.00000000000E+00  0.00000000000E+00 -0.75595766719E+03  0.75595766720E+03  0.25500000920E-02 0. -1.
    10030    2    1    2    0    0  0.00000000000E+00  0.00000000000E+00  0.20025594789E+03  0.17121712823E+04  0.17004199644E+04 0.  0.
        4    1    3    3  502    0  0.19351520138E+03 -0.15414449443E+03  0.91916606980E+03  0.95188052565E+03  0.12699999809E+01 0.  1.
       -4    1    3    3    0  502 -0.19351520138E+03  0.15414449443E+03 -0.71891012192E+03  0.76029075663E+03  0.12699999809E+01 0. -1.
</event>
<event>
 5   0  0.1423543E-05  0.1708527E+04  0.7818609E-02  0.8756516E-01
       -2   -1    0    0    0  501  0.00000000000E+00  0.00000000000E+00  0.70077242156E+03  0.70077242157E+03  0.25500000920E-02 0.  1.
        2   -1    0    0  501    0  0.00000000000E+00  0.00000000000E+00 -0.10413735649E+04  0.10413735649E+04  0.25500000920E-02 0. -1.
    10030    2    1    2    0    0  0.00000000000E+00  0.00000000000E+00 -0.34060114330E+03  0.17421459864E+04  0.17085267043E+04 0.  0.
        3    1    3    3  502    0 -0.48086520085E+03  0.27186723506E+03  0.49415262092E+03  0.74116796871E+03  0.10100000352E+00 0.  1.
       -3    1    3    3    0  502  0.48086520085E+03 -0.27186723506E+03 -0.83475376422E+03  0.10009780177E+04  0.10100000352E+00 0. -1.
</event>
<event>
 5   0  0.1441756E-05  0.1699397E+04  0.7818609E-02  0.8761708E-01
       -2   -1    0    0    0  501  0.00000000000E+00  0.00000000000E+00  0.46462503180E+03  0.46462503181E+03  0.25500000920E-02 0.  1.
        2   -1    0    0  501    0  0.00000000000E+00  0.00000000000E+00 -0.15539146510E+04  0.15539146510E+04  0.25500000920E-02 0. -1.
    10030    2    1    2    0    0  0.00000000000E+00  0.00000000000E+00 -0.10892896192E+04  0.20185396828E+04  0.16993971215E+04 0.  0.
        5    1    3    3  502    0 -0.30426972237E+03 -0.75032780905E+03 -0.23858539135E+03  0.84410719932E+03  0.46999998093E+01 0.  1.
       -5    1    3    3    0  502  0.30426972237E+03  0.75032780905E+03 -0.85070422781E+03  0.11744324835E+04  0.46999998093E+01 0. -1.
</event>
<event>
 5   0  0.7455669E-06  0.1700467E+04  0.7818609E-02  0.8761098E-01
        1   -1    0    0  501    0  0.00000000000E+00  0.00000000000E+00  0.13850050755E+04  0.13850050755E+04  0.50400001928E-02 0. -1.
       -1   -1    0    0    0  501  0.00000000000E+00  0.00000000000E+00 -0.52194561822E+03  0.52194561825E+03  0.50400001928E-02 0.  1.
    10030    2    1    2    0    0  0.00000000000E+00  0.00000000000E+00  0.86305945731E+03  0.19069506938E+04  0.17004673833E+04 0.  0.
        4    1    3    3  502    0  0.55801917124E+03  0.18151411952E+03  0.11215156185E+04  0.12657533987E+04  0.12699999809E+01 0. -1.
       -4    1    3    3    0  502 -0.55801917124E+03 -0.18151411952E+03 -0.25845616115E+03  0.64119729506E+03  0.12699999809E+01 0.  1.
</event>
<event>
 5   0  0.7461128E-06  0.1700809E+04  0.7818609E-02  0.8760903E-01
        1   -1    0    0  501    0  0.00000000000E+00  0.00000000000E+00  0.23819268937E+04  0.23819268937E+04  0.50400001928E-02 0.  1.
       -1   -1    0    0    0  501  0.00000000000E+00  0.00000000000E+00 -0.30361453837E+03  0.30361453841E+03  0.50400001928E-02 0. -1.
    10030    2    1    2    0    0  0.00000000000E+00  0.00000000000E+00  0.20783123553E+04  0.26855414321E+04  0.17008087892E+04 0.  0.
        3    1    3    3  502    0 -0.61948727133E+03  0.52978366227E+03  0.14218832917E+04  0.16389592166E+04  0.10100000352E+00 0.  1.
       -3    1    3    3    0  502  0.61948727133E+03 -0.52978366227E+03  0.65642906365E+03  0.10465822156E+04  0.10100000352E+00 0. -1.
</event>
<event>
 5   0  0.7583716E-06  0.1705590E+04  0.7818609E-02  0.8758182E-01
       -1   -1    0    0    0  501  0.00000000000E+00  0.00000000000E+00  0.65795659889E+03  0.65795659891E+03  0.50400001928E-02 0.  1.
        1   -1    0    0  501    0  0.00000000000E+00  0.00000000000E+00 -0.11053304592E+04  0.11053304592E+04  0.50400001928E-02 0. -1.
    10030    2    1    2    0    0  0.00000000000E+00  0.00000000000E+00 -0.44737386028E+03  0.17632870581E+04  0.17055901848E+04 0.  0.
        5    1    3    3  502    0 -0.44835516459E+03  0.22614671082E+03  0.48888443321E+03  0.70085288575E+03  0.46999998093E+01 0.  1.
       -5    1    3    3    0  502  0.44835516459E+03 -0.22614671082E+03 -0.93625829349E+03  0.10624341723E+04  0.46999998093E+01 0. -1.
</event>
<event>
 5   0  0.1419012E-05  0.1699248E+04  0.7818609E-02  0.8761793E-01
        2   -1    0    0  501    0  0.00000000000E+00  0.00000000000E+00  0.17369283914E+04  0.17369283914E+04  0.25500000920E-02 0.  1.
       -2   -1    0    0    0  501  0.00000000000E+00  0.00000000000E+00 -0.41559627414E+03  0.41559627414E+03  0.25500000920E-02 0. -1.
    10030    2    1    2    0    0  0.00000000000E+00  0.00000000000E+00  0.13213321172E+04  0.21525246655E+04  0.16992480312E+04 0.  0.
        4    1    3    3  502    0 -0.84274858254E+03  0.10254272570E+03  0.70304397431E+03  0.11022761118E+04  0.12699999809E+01 0.  1.
       -4    1    3    3    0  502  0.84274858254E+03 -0.10254272570E+03  0.61828814292E+03  0.10502485537E+04  0.12699999809E+01 0. -1.
</event>
<event>
 5   0  0.1374441E-05  0.1698681E+04  0.7818609E-02  0.8762117E-01
       -2   -1    0    0    0  501  0.00000000000E+00  0.00000000000E+00  0.66988249815E+03  0.66988249815E+03  0.25500000920E-02 0.  1.
        2   -1    0    0  501    0  0.00000000000E+00  0.00000000000E+00 -0.10768747314E+04  0.10768747314E+04  0.25500000920E-02 0. -1.
    10030    2    1    2    0    0  0.00000000000E+00  0.00000000000E+00 -0.40699223330E+03  0.17467572296E+04  0.16986812948E+04 0.  0.
        1    1    3    3  502    0 -0.12045595840E+03  0.19254423817E+03  0.63807751314E+03  0.67729301958E+03  0.50400001928E-02 0.  1.
       -1    1    3    3    0  502  0.12045595840E+03 -0.19254423817E+03 -0.10450697464E+04  0.10694642100E+04  0.50400001928E-02 0. -1.
</event>
<event>
 5   0  0.1441756E-05  0.1702025E+04  0.7818609E-02  0.8760210E-01
       -2   -1    0    0    0  501  0.00000000000E+00  0.00000000000E+00  0.54775389580E+03  0.54775389581E+03  0.25500000920E-02 0.  1.
        2   -1    0    0  501    0  0.00000000000E+00  0.00000000000E+00 -0.13221674913E+04  0.13221674913E+04  0.25500000920E-02 0. -1.
    10030    2    1    2    0    0  0.00000000000E+00  0.00000000000E+00 -0.77441359547E+03  0.18699213871E+04  0.17020251400E+04 0.  0.
        5    1    3    3  502    0 -0.26311398428E+03 -0.78931855119E+03 -0.19083630611E+03  0.85363536109E+03  0.46999998093E+01 0.  1.
       -5    1    3    3    0  502  0.26311398428E+03  0.78931855119E+03 -0.58357728936E+03  0.10162860260E+04  0.46999998093E+01 0. -1.
</event>
<event>
 5   0  0.1419012E-05  0.1698760E+04  0.7818609E-02  0.8762072E-01
        2   -1    0    0  501    0  0.00000000000E+00  0.00000000000E+00  0.53985124021E+03  0.53985124022E+03  0.25500000920E-02 0.  1.
       -2   -1    0    0    0  501  0.00000000000E+00  0.00000000000E+00 -0.13363804772E+04  0.13363804772E+04  0.25500000920E-02 0. -1.
    10030    2    1    2    0    0  0.00000000000E+00  0.00000000000E+00 -0.79652923700E+03  0.18762317174E+04  0.16987603221E+04 0.  0.
        4    1    3    3  502    0 -0.84735847539E+03 -0.57544837010E+02 -0.41022411000E+03  0.94319310187E+03  0.12699999809E+01 0. -1.
       -4    1    3    3    0  502  0.84735847539E+03  0.57544837010E+02 -0.38630512700E+03  0.93303861556E+03  0.12699999809E+01 0.  1.
</event>
<event>
 5   0  0.1435301E-05  0.1697164E+04  0.7818609E-02  0.8762983E-01
       -2   -1    0    0    0  501  0.00000000000E+00  0.00000000000E+00  0.63717863761E+03  0.63717863762E+03  0.25500000920E-02 0. -1.
        2   -1    0    0  501    0  0.00000000000E+00  0.00000000000E+00 -0.11301251776E+04  0.11301251776E+04  0.25500000920E-02 0.  1.
    10030    2    1    2    0    0  0.00000000000E+00  0.00000000000E+00 -0.49294653998E+03  0.17673038152E+04  0.16971642478E+04 0.  0.
        2    1    3    3  502    0 -0.62723216958E+03  0.22737888034E+03 -0.79252050409E+03  0.10359585412E+04  0.25500000920E-02 0.  1.
       -2    1    3    3    0  502  0.62723216958E+03 -0.22737888034E+03  0.29957396411E+03  0.73134527397E+03  0.25500000920E-02 0. -1.
</event>
<event>
 5   0  0.1441756E-05  0.1701276E+04  0.7818609E-02  0.8760637E-01
        2   -1    0    0  501    0  0.00000000000E+00  0.00000000000E+00  0.63225931188E+03  0.63225931189E+03  0.25500000920E-02 0.  1.
       -2   -1    0    0    0  501  0.00000000000E+00  0.00000000000E+00 -0.11444429286E+04  0.11444429286E+04  0.25500000920E-02 0. -1.
    10030    2    1    2    0    0  0.00000000000E+00  0.00000000000E+00 -0.51218361672E+03  0.17767022405E+04  0.17012756373E+04 0.  0.
        5    1    3    3  502    0  0.59063760038E+03 -0.92015243142E+02 -0.88810282779E+03  0.10705457966E+04  0.46999998093E+01 0. -1.
       -5    1    3    3    0  502 -0.59063760038E+03  0.92015243142E+02  0.37591921107E+03  0.70615644386E+03  0.46999998093E+01 0.  1.
</event>
<event>
 5   0  0.1441756E-05  0.1700266E+04  0.7818609E-02  0.8761213E-01
        2   -1    0    0  501    0  0.00000000000E+00  0.00000000000E+00  0.17527948681E+04  0.17527948682E+04  0.25500000920E-02 0. -1.
       -2   -1    0    0    0  501  0.00000000000E+00  0.00000000000E+00 -0.41232771772E+03  0.41232771773E+03  0.25500000920E-02 0.  1.
    10030    2    1    2    0    0  0.00000000000E+00  0.00000000000E+00  0.13404671504E+04  0.21651225859E+04  0.17002657529E+04 0.  0.
        5    1    3    3  502    0  0.41578458612E+03  0.53063950306E+03  0.10703648202E+02  0.67423420438E+03  0.46999998093E+01 0.  1.
       -5    1    3    3    0  502 -0.41578458612E+03 -0.53063950306E+03  0.13297635022E+04  0.14908883815E+04  0.46999998093E+01 0. -1.
</event>
<event>
 5   0  0.7476457E-06  0.1699903E+04  0.7818609E-02  0.8761419E-01
       -1   -1    0    0    0  501  0.00000000000E+00  0.00000000000E+00  0.40990555445E+03  0.40990555448E+03  0.50400001928E-02 0. -1.
        1   -1    0    0  501    0  0.00000000000E+00  0.00000000000E+00 -0.17624007466E+04  0.17624007466E+04  0.50400001928E-02 0.  1.
    10030    2    1    2    0    0  0.00000000000E+00  0.00000000000E+00 -0.13524951921E+04  0.21723063011E+04  0.16999033564E+04 0.  0.
        2    1    3    3  502    0  0.79666128184E+03  0.54034004818E+02 -0.10484412485E+04  0.13178838808E+04  0.25500000920E-02 0.  1.
       -2    1    3    3    0  502 -0.79666128184E+03 -0.54034004818E+02 -0.30405394366E+03  0.85442242031E+03  0.25500000920E-02 0. -1.
</event>
<event>
 5   0  0.7476457E-06  0.1700373E+04  0.7818609E-02  0.8761151E-01
       -1   -1    0    0    0  501  0.00000000000E+00  0.00000000000E+00  0.50754278148E+03  0.50754278150E+03  0.50400001928E-02 0. -1.
        1   -1    0    0  501    0  0.00000000000E+00  0.00000000000E+00 -0.14241508125E+04  0.14241508125E+04  0.50400001928E-02 0.  1.
    10030    2    1    2    0    0  0.00000000000E+00  0.00000000000E+00 -0.91660803102E+03  0.19316935940E+04  0.17003734468E+04 0.  0.
        2    1    3    3  502    0  0.26318670741E+03  0.45141855897E+03  0.30358181137E+03  0.60432431238E+03  0.25500000920E-02 0. -1.
       -2    1    3    3    0  502 -0.26318670741E+03 -0.45141855897E+03 -0.12201898424E+04  0.13273692816E+04  0.25500000920E-02 0.  1.
</event>
<event>
 5   0  0.5229750E-06  0.1700240E+04  0.7818609E-02  0.8761228E-01
       -4   -1    0    0    0  501  0.00000000000E+00  0.00000000000E+00  0.76457608609E+03  0.76457714085E+03  0.12699999809E+01 0. -1.
        4   -1    0    0  501    0  0.00000000000E+00  0.00000000000E+00 -0.94523258247E+03  0.94523343565E+03  0.12699999809E+01 0.  1.
    10030    2    1    2    0    0  0.00000000000E+00  0.00000000000E+00 -0.18065649638E+03  0.17098105765E+04  0.17002398177E+04 0.  0.
        3    1    3    3  502    0  0.91214482442E+02 -0.34644825347E+03  0.68495722153E+03  0.77298957280E+03  0.10100000352E+00 0. -1.
       -3    1    3    3    0  502 -0.91214482442E+02  0.34644825347E+03 -0.86561371791E+03  0.93682100370E+03  0.10100000352E+00 0.  1.
</event>
<event>
 5   0  0.7583716E-06  0.1693347E+04  0.7818609E-02  0.8765168E-01
        1   -1    0    0  501    0  0.00000000000E+00  0.00000000000E+00  0.63352405883E+03  0.63352405885E+03  0.50400001928E-02 0.  1.
       -1   -1    0    0    0  501  0.00000000000E+00  0.00000000000E+00 -0.11315377248E+04  0.11315377248E+04  0.50400001928E-02 0. -1.
    10030    2    1    2    0    0  0.00000000000E+00  0.00000000000E+00 -0.49801366597E+03  0.17650617837E+04  0.16933474211E+04 0.  0.
        5    1    3    3  502    0 -0.10134254014E+03  0.78791217388E+03 -0.55425433619E+03  0.96865673145E+03  0.46999998093E+01 0. -1.
       -5    1    3    3    0  502  0.10134254014E+03 -0.78791217388E+03  0.56240670222E+02  0.79640505221E+03  0.46999998093E+01 0.  1.
</event>
<event>
 5   0  0.1423543E-05  0.1700122E+04  0.7818609E-02  0.8761295E-01
        2   -1    0    0  501    0  0.00000000000E+00  0.00000000000E+00  0.22241291685E+04  0.22241291685E+04  0.25500000920E-02 0.  1.
       -2   -1    0    0    0  501  0.00000000000E+00  0.00000000000E+00 -0.32489275012E+03  0.32489275013E+03  0.25500000920E-02 0. -1.
    10030    2    1    2    0    0  0.00000000000E+00  0.00000000000E+00  0.18992364183E+04  0.25490219186E+04  0.17001216923E+04 0.  0.
        3    1    3    3  502    0 -0.39662684170E+03  0.24068868589E+03 -0.11833315631E+03  0.47879707722E+03  0.10100000352E+00 0. -1.
       -3    1    3    3    0  502  0.39662684170E+03 -0.24068868589E+03  0.20175695747E+04  0.20702248414E+04  0.10100000352E+00 0.  1.
</event>
<event>
 5   0  0.7082527E-06  0.1699245E+04  0.7818609E-02  0.8761795E-01
        1   -1    0    0  501    0  0.00000000000E+00  0.00000000000E+00  0.79195896390E+03  0.79195896392E+03  0.50400001928E-02 0. -1.
       -1   -1    0    0    0  501  0.00000000000E+00  0.00000000000E+00 -0.91148450010E+03  0.91148450011E+03  0.50400001928E-02 0.  1.
    10030    2    1    2    0    0  0.00000000000E+00  0.00000000000E+00 -0.11952553619E+03  0.17034434640E+04  0.16992449151E+04 0.  0.
        1    1    3    3  502    0  0.52351611318E+03 -0.64900844231E+02 -0.72742420703E+03  0.89856953951E+03  0.50400001928E-02 0.  1.
       -1    1    3    3    0  502 -0.52351611318E+03  0.64900844231E+02  0.60789867084E+03  0.80487392452E+03  0.50400001928E-02 0. -1.
</event>
<event>
 5   0  0.7476457E-06  0.1700111E+04  0.7818609E-02  0.8761301E-01
        1   -1    0    0  501    0  0.00000000000E+00  0.00000000000E+00  0.10880134782E+04  0.10880134782E+04  0.50400001928E-02 0.  1.
       -1   -1    0    0    0  501  0.00000000000E+00  0.00000000000E+00 -0.66414084106E+03  0.66414084108E+03  0.50400001928E-02 0. -1.
    10030    2    1    2    0    0  0.00000000000E+00  0.00000000000E+00  0.42387263711E+03  0.17521543193E+04  0.17001108040E+04 0.  0.
        2    1    3    3  502    0  0.53990029592E+03 -0.27375330889E+03  0.82699746989E+03  0.10248697570E+04  0.25500000920E-02 0. -1.
       -2    1    3    3    0  502 -0.53990029592E+03  0.27375330889E+03 -0.40312483278E+03  0.72728456224E+03  0.25500000920E-02 0.  1.
</event>
<event>
 5   0  0.7583716E-06  0.1700114E+04  0.7818609E-02  0.8761299E-01
        1   -1    0    0  501    0  0.00000000000E+00  0.00000000000E+00  0.44412083827E+03  0.44412083829E+03  0.50400001928E-02 0.  1.
       -1   -1    0    0    0  501  0.00000000000E+00  0.00000000000E+00 -0.16270281185E+04  0.16270281185E+04  0.50400001928E-02 0. -1.
    10030    2    1    2    0    0  0.00000000000E+00  0.00000000000E+00 -0.11829072802E+04  0.20711489568E+04  0.17001142219E+04 0.  0.
        5    1    3    3  502    0 -0.14437374605E+03  0.55638659114E+02  0.42680611297E+03  0.45400989747E+03  0.46999998093E+01 0.  1.
       -5    1    3    3    0  502  0.14437374605E+03 -0.55638659114E+02 -0.16097133932E+04  0.16171390593E+04  0.46999998093E+01 0. -1.
</event>
<event>
 5   0  0.1435301E-05  0.1700515E+04  0.7818609E-02  0.8761071E-01
        2   -1    0    0  501    0  0.00000000000E+00  0.00000000000E+00  0.13634733289E+04  0.13634733289E+04  0.25500000920E-02 0.  1.
       -2   -1    0    0    0  501  0.00000000000E+00  0.00000000000E+00 -0.53021754229E+03  0.53021754230E+03  0.25500000920E-02 0. -1.
    10030    2    1    2    0    0  0.00000000000E+00  0.00000000000E+00  0.83325578663E+03  0.18936908712E+04  0.17005146015E+04 0.  0.
        2    1    3    3  502    0  0.29371802217E+03 -0.31521345657E+03 -0.39965415091E+03  0.58766762724E+03  0.25500000920E-02 0. -1.
       -2    1    3    3    0  502 -0.29371802217E+03  0.31521345657E+03  0.12329099375E+04  0.13060232440E+04  0.25500000920E-02 0.  1.
</event>
<event>
 5   0  0.1419012E-05  0.1697983E+04  0.7818609E-02  0.8762516E-01
        2   -1    0    0  501    0  0.00000000000E+00  0.00000000000E+00  0.45593734957E+03  0.45593734958E+03  0.25500000920E-02 0. -1.
       -2   -1    0    0    0  501  0.00000000000E+00  0.00000000000E+00 -0.15808891642E+04  0.15808891642E+04  0.25500000920E-02 0.  1.
    10030    2    1    2    0    0  0.00000000000E+00  0.00000000000E+00 -0.11249518146E+04  0.20368265137E+04  0.16979828215E+04 0.  0.
        4    1    3    3  502    0  0.74629788749E+03 -0.39488179840E+03 -0.45590672161E+03  0.95955443998E+03  0.12699999809E+01 0.  1.
       -4    1    3    3    0  502 -0.74629788749E+03  0.39488179840E+03 -0.66904509299E+03  0.10772720738E+04  0.12699999809E+01 0. -1.
</event>
<event>
 5   0  0.7461128E-06  0.1699239E+04  0.7818609E-02  0.8761798E-01
       -1   -1    0    0    0  501  0.00000000000E+00  0.00000000000E+00  0.94224837691E+03  0.94224837692E+03  0.50400001928E-02 0.  1.
        1   -1    0    0  501    0  0.00000000000E+00  0.00000000000E+00 -0.76609683891E+03  0.76609683893E+03  0.50400001928E-02 0. -1.
    10030    2    1    2    0    0  0.00000000000E+00  0.00000000000E+00  0.17615153799E+03  0.17083452158E+04  0.16992392451E+04 0.  0.
        3    1    3    3  502    0  0.26496373549E+03  0.74303560491E+03 -0.22912379369E+03  0.82146540665E+03  0.10100000352E+00 0. -1.
       -3    1    3    3    0  502 -0.26496373549E+03 -0.74303560491E+03  0.40527533168E+03  0.88687980920E+03  0.10100000352E+00 0.  1.
</event>
<event>
 5   0  0.1435301E-05  0.1699654E+04  0.7818609E-02  0.8761562E-01
       -2   -1    0    0    0  501  0.00000000000E+00  0.00000000000E+00  0.48831995975E+03  0.48831995976E+03  0.25500000920E-02 0. -1.
        2   -1    0    0  501    0  0.00000000000E+00  0.00000000000E+00 -0.14789599906E+04  0.14789599906E+04  0.25500000920E-02 0.  1.
    10030    2    1    2    0    0  0.00000000000E+00  0.00000000000E+00 -0.99064003085E+03  0.19672799504E+04  0.16996537095E+04 0.  0.
        2    1    3    3  502    0 -0.84297998436E+03 -0.31460200640E+02 -0.37614843998E+03  0.92363014630E+03  0.25500000920E-02 0. -1.
       -2    1    3    3    0  502  0.84297998436E+03  0.31460200640E+02 -0.61449159087E+03  0.10436498041E+04  0.25500000920E-02 0.  1.
</event>
<event>
 5   0  0.7583716E-06  0.1699036E+04  0.7818609E-02  0.8761914E-01
       -1   -1    0    0    0  501  0.00000000000E+00  0.00000000000E+00  0.12010504815E+04  0.12010504816E+04  0.50400001928E-02 0. -1.
        1   -1    0    0  501    0  0.00000000000E+00  0.00000000000E+00 -0.60087493393E+03  0.60087493395E+03  0.50400001928E-02 0.  1.
    10030    2    1    2    0    0  0.00000000000E+00  0.00000000000E+00  0.60017554762E+03  0.18019254155E+04  0.16990363490E+04 0.  0.
        5    1    3    3  502    0  0.19449420355E+02 -0.67254213741E+03  0.85011515778E+03  0.10841628466E+04  0.46999998093E+01 0. -1.
       -5    1    3    3    0  502 -0.19449420355E+02  0.67254213741E+03 -0.24993961016E+03  0.71776256887E+03  0.46999998093E+01 0.  1.
</event>
<event>
 5   0  0.7455669E-06  0.1698419E+04  0.7818609E-02  0.8762267E-01
       -1   -1    0    0    0  501  0.00000000000E+00  0.00000000000E+00  0.44735560192E+03  0.44735560195E+03  0.50400001928E-02 0. -1.
        1   -1    0    0  501    0  0.00000000000E+00  0.00000000000E+00 -0.16120437438E+04  0.16120437438E+04  0.50400001928E-02 0.  1.
    10030    2    1    2    0    0  0.00000000000E+00  0.00000000000E+00 -0.11646881419E+04  0.20593993457E+04  0.16984190288E+04 0.  0.
        4    1    3    3  502    0 -0.68927408719E+02  0.54796428847E+03 -0.13645392035E+04  0.14720681710E+04  0.12699999809E+01 0.  1.
       -4    1    3    3    0  502  0.68927408719E+02 -0.54796428847E+03  0.19985106167E+03  0.58733117477E+03  0.12699999809E+01 0. -1.
</event>
<event>
 5   0  0.7476457E-06  0.1699765E+04  0.7818609E-02  0.8761498E-01
        1   -1    0    0  501    0  0.00000000000E+00  0.00000000000E+00  0.92151949980E+03  0.92151949981E+03  0.50400001928E-02 0. -1.
       -1   -1    0    0    0  501  0.00000000000E+00  0.00000000000E+00 -0.78381438793E+03  0.78381438795E+03  0.50400001928E-02 0.  1.
    10030    2    1    2    0    0  0.00000000000E+00  0.00000000000E+00  0.13770511187E+03  0.17053338878E+04  0.16997649752E+04 0.  0.
        2    1    3    3  502    0 -0.42668801578E+02 -0.53559309289E+03 -0.59180290010E+03  0.79931924808E+03  0.25500000920E-02 0.  1.
       -2    1    3    3    0  502  0.42668801578E+02  0.53559309289E+03  0.72950801197E+03  0.90601463968E+03  0.25500000920E-02 0. -1.
</event>
<event>
 5   0  0.7583716E-06  0.1700317E+04  0.7818609E-02  0.8761184E-01
       -1   -1    0    0    0  501  0.00000000000E+00  0.00000000000E+00  0.41458238905E+03  0.41458238908E+03  0.50400001928E-02 0. -1.
        1   -1    0    0  501    0  0.00000000000E+00  0.00000000000E+00 -0.17433666823E+04  0.17433666823E+04  0.50400001928E-02 0.  1.
    10030    2    1    2    0    0  0.00000000000E+00  0.00000000000E+00 -0.13287842933E+04  0.21579490714E+04  0.17003165872E+04 0.  0.
        5    1    3    3  502    0  0.59176844561E+03 -0.60116123107E+03 -0.79847972303E+03  0.11615406480E+04  0.46999998093E+01 0.  1.
       -5    1    3    3    0  502 -0.59176844561E+03  0.60116123107E+03 -0.53030457022E+03  0.99640842337E+03  0.46999998093E+01 0. -1.
</event>
<event>
 5   0  0.7082527E-06  0.1699947E+04  0.7818609E-02  0.8761395E-01
       -1   -1    0    0    0  501  0.00000000000E+00  0.00000000000E+00  0.47183775114E+03  0.47183775117E+03  0.50400001928E-02 0.  1.
        1   -1    0    0  501    0  0.00000000000E+00  0.00000000000E+00 -0.15311510380E+04  0.15311510381E+04  0.50400001928E-02 0. -1.
    10030    2    1    2    0    0  0.00000000000E+00  0.00000000000E+00 -0.10593132869E+04  0.20029887892E+04  0.16999468962E+04 0.  0.
        1    1    3    3  502    0 -0.63073711535E+03  0.35451717339E+03 -0.41143956861E+01  0.72355280608E+03  0.50400001928E-02 0.  1.
       -1    1    3    3    0  502  0.63073711535E+03 -0.35451717339E+03 -0.10551988912E+04  0.12794359831E+04  0.50400001928E-02 0. -1.
</event>
<event>
 5   0  0.1423543E-05  0.1702226E+04  0.7818609E-02  0.8760096E-01
       -2   -1    0    0    0  501  0.00000000000E+00  0.00000000000E+00  0.44862880854E+03  0.44862880855E+03  0.25500000920E-02 0.  1.
        2   -1    0    0  501    0  0.00000000000E+00  0.00000000000E+00 -0.16146832929E+04  0.16146832929E+04  0.25500000920E-02 0. -1.
    10030    2    1    2    0    0  0.00000000000E+00  0.00000000000E+00 -0.11660544844E+04  0.20633121015E+04  0.17022261211E+04 0.  0.
        3    1    3    3  502    0 -0.29943040583E+03  0.67208904494E+03 -0.11016006157E+04  0.13247211703E+04  0.10100000352E+00 0. -1.
       -3    1    3    3    0  502  0.29943040583E+03 -0.67208904494E+03 -0.64453868684E+02  0.73859093120E+03  0.10100000352E+00 0.  1.
</event>
<event>
 5   0  0.1423543E-05  0.1700068E+04  0.7818609E-02  0.8761326E-01
        2   -1    0    0  501    0  0.00000000000E+00  0.00000000000E+00  0.86480399736E+03  0.86480399736E+03  0.25500000920E-02 0.  1.
       -2   -1    0    0    0  501  0.00000000000E+00  0.00000000000E+00 -0.83551594004E+03  0.83551594005E+03  0.25500000920E-02 0. -1.
    10030    2    1    2    0    0  0.00000000000E+00  0.00000000000E+00  0.29288057318E+02  0.17003199374E+04  0.17000676749E+04 0.  0.
        3    1    3    3  502    0 -0.12083938448E+03  0.28406284605E+03  0.80676133222E+03  0.86380421087E+03  0.10100000352E+00 0.  1.
       -3    1    3    3    0  502  0.12083938448E+03 -0.28406284605E+03 -0.77747327491E+03  0.83651572654E+03  0.10100000352E+00 0. -1.
</event>
<event>
 5   0  0.7583716E-06  0.1699200E+04  0.7818609E-02  0.8761821E-01
       -1   -1    0    0    0  501  0.00000000000E+00  0.00000000000E+00  0.80284903959E+03  0.80284903961E+03  0.50400001928E-02 0.  1.
        1   -1    0    0  501    0  0.00000000000E+00  0.00000000000E+00 -0.89907284911E+03  0.89907284913E+03  0.50400001928E-02 0. -1.
    10030    2    1    2    0    0  0.00000000000E+00  0.00000000000E+00 -0.96223809521E+02  0.17019218887E+04  0.16991995450E+04 0.  0.
        5    1    3    3  502    0  0.79950986347E+03 -0.28626157319E+03 -0.73370820875E+02  0.85238904112E+03  0.46999998093E+01 0. -1.
       -5    1    3    3    0  502 -0.79950986347E+03  0.28626157319E+03 -0.22852988646E+02  0.84953284761E+03  0.46999998093E+01 0.  1.
</event>
<event>
 5   0  0.7461128E-06  0.1697436E+04  0.7818609E-02  0.8762828E-01
       -1   -1    0    0    0  501  0.00000000000E+00  0.00000000000E+00  0.34311315315E+03  0.34311315319E+03  0.50400001928E-02 0. -1.
        1   -1    0    0  501    0  0.00000000000E+00  0.00000000000E+00 -0.20993723661E+04  0.20993723661E+04  0.50400001928E-02 0.  1.
    10030    2    1    2    0    0  0.00000000000E+00  0.00000000000E+00 -0.17562592129E+04  0.24424855193E+04  0.16974360338E+04 0.  0.
        3    1    3    3  502    0  0.38911952659E+03 -0.66319351463E+03 -0.13951080839E+04  0.15929740173E+04  0.10100000352E+00 0.  1.
       -3    1    3    3    0  502 -0.38911952659E+03  0.66319351463E+03 -0.36115112905E+03  0.84951150200E+03  0.10100000352E+00 0. -1.
</event>
<event>
 5   0  0.7461128E-06  0.1699391E+04  0.7818609E-02  0.8761712E-01
       -1   -1    0    0    0  501  0.00000000000E+00  0.00000000000E+00  0.53965858599E+03  0.53965858602E+03  0.50400001928E-02 0.  1.
        1   -1    0    0  501    0  0.00000000000E+00  0.00000000000E+00 -0.13378502468E+04  0.13378502468E+04  0.50400001928E-02 0. -1.
    10030    2    1    2    0    0  0.00000000000E+00  0.00000000000E+00 -0.79819166077E+03  0.18775088328E+04  0.16993909173E+04 0.  0.
        3    1    3    3  502    0  0.66080722769E+03 -0.15898983483E+03  0.16429197290E+03  0.69923945992E+03  0.10100000352E+00 0.  1.
       -3    1    3    3    0  502 -0.66080722769E+03  0.15898983483E+03 -0.96248363367E+03  0.11782693729E+04  0.10100000352E+00 0. -1.
</event>
<event>
 5   0  0.1435301E-05  0.1700206E+04  0.7818609E-02  0.8761247E-01
        2   -1    0    0  501    0  0.00000000000E+00  0.00000000000E+00  0.10852099782E+04  0.10852099782E+04  0.25500000920E-02 0.  1.
       -2   -1    0    0    0  501  0.00000000000E+00  0.00000000000E+00 -0.66593109766E+03  0.66593109766E+03  0.25500000920E-02 0. -1.
    10030    2    1    2    0    0  0.00000000000E+00  0.00000000000E+00  0.41927888057E+03  0.17511410759E+04  0.17002059546E+04 0.  0.
        2    1    3    3  502    0 -0.67508263609E+03  0.51549567826E+03  0.24535853546E+03  0.88412282562E+03  0.25500000920E-02 0. -1.
       -2    1    3    3    0  502  0.67508263609E+03 -0.51549567826E+03  0.17392034511E+03  0.86701825027E+03  0.25500000920E-02 0.  1.
</event>
<event>
 5   0  0.1435301E-05  0.1700235E+04  0.7818609E-02  0.8761230E-01
       -2   -1    0    0    0  501  0.00000000000E+00  0.00000000000E+00  0.73268421135E+03  0.73268421135E+03  0.25500000920E-02 0.  1.
        2   -1    0    0  501    0  0.00000000000E+00  0.00000000000E+00 -0.98637280586E+03  0.98637280586E+03  0.25500000920E-02 0. -1.
    10030    2    1    2    0    0  0.00000000000E+00  0.00000000000E+00 -0.25368859451E+03  0.17190570172E+04  0.17002350207E+04 0.  0.
        2    1    3    3  502    0 -0.48095254902E+03  0.32705465344E+03  0.50003529370E+03  0.76701720691E+03  0.25500000920E-02 0. -1.
       -2    1    3    3    0  502  0.48095254902E+03 -0.32705465344E+03 -0.75372388820E+03  0.95203981031E+03  0.25500000920E-02 0.  1.
</event>
<event>
 5   0  0.7455669E-06  0.1701643E+04  0.7818609E-02  0.8760428E-01
       -1   -1    0    0    0  501  0.00000000000E+00  0.00000000000E+00  0.54927589961E+03  0.54927589964E+03  0.50400001928E-02 0.  1.
        1   -1    0    0  501    0  0.00000000000E+00  0.00000000000E+00 -0.13179125888E+04  0.13179125888E+04  0.50400001928E-02 0. -1.
    10030    2    1    2    0    0  0.00000000000E+00  0.00000000000E+00 -0.76863668916E+03  0.18671884884E+04  0.17016434678E+04 0.  0.
        4    1    3    3  502    0  0.42938629492E+03  0.47793284351E+03  0.22771082363E+03  0.68164963527E+03  0.12699999809E+01 0.  1.
       -4    1    3    3    0  502 -0.42938629492E+03 -0.47793284351E+03 -0.99634751280E+03  0.11855388532E+04  0.12699999809E+01 0. -1.
</event>
<event>
 5   0  0.1374441E-05  0.1699941E+04  0.7818609E-02  0.8761398E-01
        2   -1    0    0  501    0  0.00000000000E+00  0.00000000000E+00  0.88566843453E+03  0.88566843453E+03  0.25500000920E-02 0. -1.
       -2   -1    0    0    0  501  0.00000000000E+00  0.00000000000E+00 -0.81571112002E+03  0.81571112002E+03  0.25500000920E-02 0.  1.
    10030    2    1    2    0    0  0.00000000000E+00  0.00000000000E+00  0.69957314509E+02  0.17013795546E+04  0.16999406939E+04 0.  0.
        1    1    3    3  502    0  0.31173976574E+03 -0.46662393067E+03  0.67389977134E+03  0.87696093189E+03  0.50400001928E-02 0. -1.
       -1    1    3    3    0  502 -0.31173976574E+03  0.46662393067E+03 -0.60394245684E+03  0.82441862267E+03  0.50400001928E-02 0.  1.
</event>
<event>
 5   0  0.5229750E-06  0.1699998E+04  0.7818609E-02  0.8761365E-01
        3   -1    0    0  501    0  0.00000000000E+00  0.00000000000E+00  0.89822767325E+03  0.89822767893E+03  0.10100000352E+00 0. -1.
       -3   -1    0    0    0  501  0.00000000000E+00  0.00000000000E+00 -0.80436003674E+03  0.80436004308E+03  0.10100000352E+00 0.  1.
    10030    2    1    2    0    0  0.00000000000E+00  0.00000000000E+00  0.93867636517E+02  0.17025877220E+04  0.16999981817E+04 0.  0.
        5    1    3    3  502    0 -0.41904971038E+03 -0.47469137872E+03  0.61484413661E+03  0.88260408288E+03  0.46999998093E+01 0. -1.
       -5    1    3    3    0  502  0.41904971038E+03  0.47469137872E+03 -0.52097650009E+03  0.81998363913E+03  0.46999998093E+01 0.  1.
</event>
<event>
 5   0  0.1441756E-05  0.1699869E+04  0.7818609E-02  0.8761439E-01
        2   -1    0    0  501    0  0.00000000000E+00  0.00000000000E+00  0.22155882161E+04  0.22155882161E+04  0.25500000920E-02 0. -1.
       -2   -1    0    0    0  501  0.00000000000E+00  0.00000000000E+00 -0.32604808316E+03  0.32604808317E+03  0.25500000920E-02 0.  1.
    10030    2    1    2    0    0  0.00000000000E+00  0.00000000000E+00  0.18895401329E+04  0.25416362993E+04  0.16998685725E+04 0.  0.
        5    1    3    3  502    0 -0.78908615176E+02  0.78220649843E+03  0.14276341018E+04  0.16297959364E+04  0.46999998093E+01 0. -1.
       -5    1    3    3    0  502  0.78908615176E+02 -0.78220649843E+03  0.46190603116E+03  0.91184036287E+03  0.46999998093E+01 0.  1.
</event>
<event>
 5   0  0.1441756E-05  0.1699695E+04  0.7818609E-02  0.8761538E-01
       -2   -1    0    0    0  501  0.00000000000E+00  0.00000000000E+00  0.33092947680E+03  0.33092947681E+03  0.25500000920E-02 0.  1.
        2   -1    0    0  501    0  0.00000000000E+00  0.00000000000E+00 -0.21824613179E+04  0.21824613179E+04  0.25500000920E-02 0. -1.
    10030    2    1    2    0    0  0.00000000000E+00  0.00000000000E+00 -0.18515318411E+04  0.25133907947E+04  0.16996950104E+04 0.  0.
        5    1    3    3  502    0 -0.36218418974E+03 -0.71972138687E+03 -0.13254129851E+04  0.15511021672E+04  0.46999998093E+01 0. -1.
       -5    1    3    3    0  502  0.36218418974E+03  0.71972138687E+03 -0.52611885600E+03  0.96228862752E+03  0.46999998093E+01 0.  1.
</event>
<event>
 5   0  0.1435301E-05  0.1697085E+04  0.7818609E-02  0.8763029E-01
       -2   -1    0    0    0  501  0.00000000000E+00  0.00000000000E+00  0.31104328778E+03  0.31104328779E+03  0.25500000920E-02 0. -1.
        2   -1    0    0  501    0  0.00000000000E+00  0.00000000000E+00 -0.23148675652E+04  0.23148675652E+04  0.25500000920E-02 0.  1.
    10030    2    1    2    0    0  0.00000000000E+00  0.00000000000E+00 -0.20038242774E+04  0.26259108530E+04  0.16970845804E+04 0.  0.
        2    1    3    3  502    0  0.58828340467E+03  0.42928920291E+03 -0.16757593358E+04  0.18271660941E+04  0.25500000920E-02 0.  1.
       -2    1    3    3    0  502 -0.58828340467E+03 -0.42928920291E+03 -0.32806494166E+03  0.79874475892E+03  0.25500000920E-02 0. -1.
</event>
<event>
 5   0  0.7583716E-06  0.1699657E+04  0.7818609E-02  0.8761560E-01
        1   -1    0    0  501    0  0.00000000000E+00  0.00000000000E+00  0.84343033524E+03  0.84343033526E+03  0.50400001928E-02 0. -1.
       -1   -1    0    0    0  501  0.00000000000E+00  0.00000000000E+00 -0.85627538533E+03  0.85627538535E+03  0.50400001928E-02 0.  1.
    10030    2    1    2    0    0  0.00000000000E+00  0.00000000000E+00 -0.12845050088E+02  0.16997057206E+04  0.16996571835E+04 0.  0.
        5    1    3    3  502    0 -0.10541200178E+03  0.71379768971E+03 -0.45539827705E+03  0.85324586884E+03  0.46999998093E+01 0.  1.
       -5    1    3    3    0  502  0.10541200178E+03 -0.71379768971E+03  0.44255322696E+03  0.84645985176E+03  0.46999998093E+01 0. -1.
</event>
<event>
 5   0  0.1423543E-05  0.1698977E+04  0.7818609E-02  0.8761948E-01
       -2   -1    0    0    0  501  0.00000000000E+00  0.00000000000E+00  0.71823918294E+03  0.71823918294E+03  0.25500000920E-02 0.  1.
        2   -1    0    0  501    0  0.00000000000E+00  0.00000000000E+00 -0.10047223740E+04  0.10047223740E+04  0.25500000920E-02 0. -1.
    10030    2    1    2    0    0  0.00000000000E+00  0.00000000000E+00 -0.28648319103E+03  0.17229615569E+04  0.16989773123E+04 0.  0.
        3    1    3    3  502    0  0.16398817382E+03  0.75061193780E+03  0.22425589550E+03  0.80037561131E+03  0.10100000352E+00 0.  1.
       -3    1    3    3    0  502 -0.16398817382E+03 -0.75061193780E+03 -0.51073908653E+03  0.92258594560E+03  0.10100000352E+00 0. -1.
</event>
<event>
 5   0  0.7461128E-06  0.1700171E+04  0.7818609E-02  0.8761267E-01
       -1   -1    0    0    0  501  0.00000000000E+00  0.00000000000E+00  0.42482354738E+03  0.42482354741E+03  0.50400001928E-02 0.  1.
        1   -1    0    0  501    0  0.00000000000E+00  0.00000000000E+00 -0.17010476134E+04  0.17010476134E+04  0.50400001928E-02 0. -1.
    10030    2    1    2    0    0  0.00000000000E+00  0.00000000000E+00 -0.12762240660E+04  0.21258711608E+04  0.17001706754E+04 0.  0.
        3    1    3    3  502    0  0.40267285135E+03 -0.22657107568E+03 -0.15303357699E+04  0.15985641859E+04  0.10100000352E+00 0. -1.
       -3    1    3    3    0  502 -0.40267285135E+03  0.22657107568E+03  0.25411170388E+03  0.52730697493E+03  0.10100000352E+00 0.  1.
</event>
<event>
 5   0  0.1419012E-05  0.1700508E+04  0.7818609E-02  0.8761075E-01
        2   -1    0    0  501    0  0.00000000000E+00  0.00000000000E+00  0.11713457563E+04  0.11713457563E+04  0.25500000920E-02 0.  1.
       -2   -1    0    0    0  501  0.00000000000E+00  0.00000000000E+00 -0.61718050071E+03  0.61718050071E+03  0.25500000920E-02 0. -1.
    10030    2    1    2    0    0  0.00000000000E+00  0.00000000000E+00  0.55416525562E+03  0.17885262570E+04  0.17005078775E+04 0.  0.
        4    1    3    3  502    0  0.78678600392E+03  0.18382889923E+03 -0.13952868449E+01  0.80797824221E+03  0.12699999809E+01 0. -1.
       -4    1    3    3    0  502 -0.78678600392E+03 -0.18382889923E+03  0.55556054246E+03  0.98054801484E+03  0.12699999809E+01 0.  1.
</event>
<event>
 5   0  0.7476457E-06  0.1699811E+04  0.7818609E-02  0.8761472E-01
       -1   -1    0    0    0  501  0.00000000000E+00  0.00000000000E+00  0.66151463370E+03  0.66151463372E+03  0.50400001928E-02 0. -1.
        1   -1    0    0  501    0  0.00000000000E+00  0.00000000000E+00 -0.10919478421E+04  0.10919478421E+04  0.50400001928E-02 0.  1.
    10030    2    1    2    0    0  0.00000000000E+00  0.00000000000E+00 -0.43043320843E+03  0.17534624759E+04  0.16998111387E+04 0.  0.
        2    1    3    3  502    0  0.18849788265E+02  0.61151797155E+03 -0.82377758673E+03  0.10261184417E+04  0.25500000920E-02 0.  1.
       -2    1    3    3    0  502 -0.18849788265E+02 -0.61151797155E+03  0.39334437830E+03  0.72734403413E+03  0.25500000920E-02 0. -1.
</event>
<event>
 5   0  0.7082527E-06  0.1693913E+04  0.7818609E-02  0.8764844E-01
       -1   -1    0    0    0  501  0.00000000000E+00  0.00000000000E+00  0.67745665317E+03  0.67745665319E+03  0.50400001928E-02 0. -1.
        1   -1    0    0  501    0  0.00000000000E+00  0.00000000000E+00 -0.10588646944E+04  0.10588646945E+04  0.50400001928E-02 0.  1.
    10030    2    1    2    0    0  0.00000000000E+00  0.00000000000E+00 -0.38140804127E+03  0.17363213476E+04  0.16939125504E+04 0.  0.
        1    1    3    3  502    0  0.72760508779E+03 -0.43301128922E+03 -0.16952290511E+03  0.86350793613E+03  0.50400001928E-02 0. -1.
       -1    1    3    3    0  502 -0.72760508779E+03  0.43301128922E+03 -0.21188513616E+03  0.87281341152E+03  0.50400001928E-02 0.  1.
</event>
<event>
 5   0  0.1441756E-05  0.1700054E+04  0.7818609E-02  0.8761333E-01
       -2   -1    0    0    0  501  0.00000000000E+00  0.00000000000E+00  0.82997688625E+03  0.82997688625E+03  0.25500000920E-02 0. -1.
        2   -1    0    0  501    0  0.00000000000E+00  0.00000000000E+00 -0.87056171714E+03  0.87056171714E+03  0.25500000920E-02 0.  1.
    10030    2    1    2    0    0  0.00000000000E+00  0.00000000000E+00 -0.40584830890E+02  0.17005386034E+04  0.17000542383E+04 0.  0.
        5    1    3    3  502    0 -0.52184711034E+03  0.66315528308E+03 -0.12242281400E+03  0.85270673237E+03  0.46999998093E+01 0.  1.
       -5    1    3    3    0  502  0.52184711034E+03 -0.66315528308E+03  0.81837983113E+02  0.84783187102E+03  0.46999998093E+01 0. -1.
</event>
<event>
 5   0  0.7583716E-06  0.1700113E+04  0.7818609E-02  0.8761300E-01
       -1   -1    0    0    0  501  0.00000000000E+00  0.00000000000E+00  0.81046784658E+03  0.81046784659E+03  0.50400001928E-02 0.  1.
        1   -1    0    0  501    0  0.00000000000E+00  0.00000000000E+00 -0.89157887825E+03  0.89157887826E+03  0.50400001928E-02 0. -1.
    10030    2    1    2    0    0  0.00000000000E+00  0.00000000000E+00 -0.81111031671E+02  0.17020467249E+04  0.17001129533E+04 0.  0.
        5    1    3    3  502    0 -0.46717117324E+03 -0.69121677259E+03 -0.20366532919E+03  0.85879636010E+03  0.46999998093E+01 0.  1.
       -5    1    3    3    0  502  0.46717117324E+03  0.69121677259E+03  0.12255429752E+03  0.84325036475E+03  0.46999998093E+01 0. -1.
</event>
<event>
 5   0  0.1423543E-05  0.1700275E+04  0.7818609E-02  0.8761208E-01
       -2   -1    0    0    0  501  0.00000000000E+00  0.00000000000E+00  0.10838384324E+04  0.10838384324E+04  0.25500000920E-02 0. -1.
        2   -1    0    0  501    0  0.00000000000E+00  0.00000000000E+00 -0.66682774746E+03  0.66682774747E+03  0.25500000920E-02 0.  1.
    10030    2    1    2    0    0  0.00000000000E+00  0.00000000000E+00  0.41701068497E+03  0.17506661799E+04  0.17002747314E+04 0.  0.
        3    1    3    3  502    0  0.26156344426E+03 -0.19801838551E+03  0.10160369135E+04  0.10676880331E+04  0.10100000352E+00 0. -1.
       -3    1    3    3    0  502 -0.26156344426E+03  0.19801838551E+03 -0.59902622848E+03  0.68297814678E+03  0.10100000352E+00 0.  1.
</event>
<event>
 5   0  0.1374441E-05  0.1700068E+04  0.7818609E-02  0.8761325E-01
       -2   -1    0    0    0  501  0.00000000000E+00  0.00000000000E+00  0.27955862723E+03  0.27955862724E+03  0.25500000920E-02 0. -1.
        2   -1    0    0  501    0  0.00000000000E+00  0.00000000000E+00 -0.25846382509E+04  0.25846382509E+04  0.25500000920E-02 0.  1.
    10030    2    1    2    0    0  0.00000000000E+00  0.00000000000E+00 -0.23050796237E+04  0.28641968782E+04  0.17000681414E+04 0.  0.
        1    1    3    3  502    0  0.57915473238E+03 -0.39729159764E+03 -0.34579566589E+03  0.78283808043E+03  0.50400001928E-02 0. -1.
       -1    1    3    3    0  502 -0.57915473238E+03  0.39729159764E+03 -0.19592839578E+04  0.20813587977E+04  0.50400001928E-02 0.  1.
</event>
<event>
 5   0  0.7476457E-06  0.1702884E+04  0.7818609E-02  0.8759721E-01
       -1   -1    0    0    0  501  0.00000000000E+00  0.00000000000E+00  0.68338108692E+03  0.68338108694E+03  0.50400001928E-02 0.  1.
        1   -1    0    0  501    0  0.00000000000E+00  0.00000000000E+00 -0.10608330330E+04  0.10608330331E+04  0.50400001928E-02 0. -1.
    10030    2    1    2    0    0  0.00000000000E+00  0.00000000000E+00 -0.37745194613E+03  0.17442141200E+04  0.17028837085E+04 0.  0.
        2    1    3    3  502    0 -0.35182476217E+03  0.52451225260E+02  0.60362642856E+03  0.70064017839E+03  0.25500000920E-02 0.  1.
       -2    1    3    3    0  502  0.35182476217E+03 -0.52451225260E+02 -0.98107837469E+03  0.10435739416E+04  0.25500000920E-02 0. -1.
</event>
<event>
 5   0  0.7476457E-06  0.1703523E+04  0.7818609E-02  0.8759358E-01
       -1   -1    0    0    0  501  0.00000000000E+00  0.00000000000E+00  0.11576558879E+04  0.11576558879E+04  0.50400001928E-02 0. -1.
        1   -1    0    0  501    0  0.00000000000E+00  0.00000000000E+00 -0.62669526104E+03  0.62669526106E+03  0.50400001928E-02 0.  1.
    10030    2    1    2    0    0  0.00000000000E+00  0.00000000000E+00  0.53096062689E+03  0.17843511490E+04  0.17035227723E+04 0.  0.
        2    1    3    3  502    0 -0.76872448316E+03 -0.36493591896E+03  0.30441809037E+03  0.90376209796E+03  0.25500000920E-02 0.  1.
       -2    1    3    3    0  502  0.76872448316E+03  0.36493591896E+03  0.22654253653E+03  0.88058905105E+03  0.25500000920E-02 0. -1.
</event>
<event>
 5   0  0.1423543E-05  0.1700461E+04  0.7818609E-02  0.8761102E-01
        2   -1    0    0  501    0  0.00000000000E+00  0.00000000000E+00  0.77366644125E+03  0.77366644125E+03  0.25500000920E-02 0.  1.
       -2   -1    0    0    0  501  0.00000000000E+00  0.00000000000E+00 -0.93437132301E+03  0.93437132302E+03  0.25500000920E-02 0. -1.
    10030    2    1    2    0    0  0.00000000000E+00  0.00000000000E+00 -0.16070488177E+03  0.17080377643E+04  0.17004608038E+04 0.  0.
        3    1    3    3  502    0  0.70175831278E+03  0.31416231146E+03  0.28420973187E+03  0.81971816461E+03  0.10100000352E+00 0.  1.
       -3    1    3    3    0  502 -0.70175831278E+03 -0.31416231146E+03 -0.44491461364E+03  0.88831959966E+03  0.10100000352E+00 0. -1.
</event>
<event>
 5   0  0.1423543E-05  0.1699407E+04  0.7818609E-02  0.8761703E-01
        2   -1    0    0  501    0  0.00000000000E+00  0.00000000000E+00  0.89252366131E+03  0.89252366132E+03  0.25500000920E-02 0.  1.
       -2   -1    0    0    0  501  0.00000000000E+00  0.00000000000E+00 -0.80893781638E+03  0.80893781638E+03  0.25500000920E-02 0. -1.
    10030    2    1    2    0    0  0.00000000000E+00  0.00000000000E+00  0.83585844932E+02  0.17014614777E+04  0.16994071221E+04 0.  0.
        3    1    3    3  502    0 -0.14302084881E+03  0.55117274475E+03  0.67322938592E+03  0.88175063028E+03  0.10100000352E+00 0.  1.
       -3    1    3    3    0  502  0.14302084881E+03 -0.55117274475E+03 -0.58964354098E+03  0.81971084742E+03  0.10100000352E+00 0. -1.
</event>
<event>
 5   0  0.7455669E-06  0.1698707E+04  0.7818609E-02  0.8762102E-01
        1   -1    0    0  501    0  0.00000000000E+00  0.00000000000E+00  0.97597482675E+03  0.97597482676E+03  0.50400001928E-02 0. -1.
       -1   -1    0    0    0  501  0.00000000000E+00  0.00000000000E+00 -0.73915987831E+03  0.73915987832E+03  0.50400001928E-02 0.  1.
    10030    2    1    2    0    0  0.00000000000E+00  0.00000000000E+00  0.23681494844E+03  0.17151347051E+04  0.16987070780E+04 0.  0.
        4    1    3    3  502    0  0.24024881844E+03 -0.63294849659E+03  0.63625783081E+03  0.92906885335E+03  0.12699999809E+01 0. -1.
       -4    1    3    3    0  502 -0.24024881844E+03  0.63294849659E+03 -0.39944288237E+03  0.78606585174E+03  0.12699999809E+01 0.  1.
</event>
<event>
 5   0  0.7455669E-06  0.1699798E+04  0.7818609E-02  0.8761480E-01
       -1   -1    0    0    0  501  0.00000000000E+00  0.00000000000E+00  0.88264816334E+03  0.88264816335E+03  0.50400001928E-02 0.  1.
        1   -1    0    0  501    0  0.00000000000E+00  0.00000000000E+00 -0.81836478021E+03  0.81836478023E+03  0.50400001928E-02 0. -1.
    10030    2    1    2    0    0  0.00000000000E+00  0.00000000000E+00  0.64283383125E+02  0.17010129436E+04  0.16997978353E+04 0.  0.
        4    1    3    3  502    0  0.50939615608E+03 -0.50738774060E+03 -0.42139282875E+03  0.83336684129E+03  0.12699999809E+01 0.  1.
       -4    1    3    3    0  502 -0.50939615608E+03  0.50738774060E+03  0.48567621187E+03  0.86764610229E+03  0.12699999809E+01 0. -1.
</event>
<event>
 5   0  0.7082527E-06  0.1696776E+04  0.7818609E-02  0.8763205E-01
       -1   -1    0    0    0  501  0.00000000000E+00  0.00000000000E+00  0.57295937636E+03  0.57295937638E+03  0.50400001928E-02 0.  1.
        1   -1    0    0  501    0  0.00000000000E+00  0.00000000000E+00 -0.12562179584E+04  0.12562179584E+04  0.50400001928E-02 0. -1.
    10030    2    1    2    0    0  0.00000000000E+00  0.00000000000E+00 -0.68325858208E+03  0.18291773348E+04  0.16967755987E+04 0.  0.
        1    1    3    3  502    0  0.44920820862E+03 -0.32868347468E+03  0.34859793885E+03  0.65676583667E+03  0.50400001928E-02 0. -1.
       -1    1    3    3    0  502 -0.44920820862E+03  0.32868347468E+03 -0.10318565209E+04  0.11724114982E+04  0.50400001928E-02 0.  1.
</event>
<event>
 5   0  0.7082527E-06  0.1703914E+04  0.7818609E-02  0.8759135E-01
       -1   -1    0    0    0  501  0.00000000000E+00  0.00000000000E+00  0.71581757773E+03  0.71581757775E+03  0.50400001928E-02 0. -1.
        1   -1    0    0  501    0  0.00000000000E+00  0.00000000000E+00 -0.10139885003E+04  0.10139885003E+04  0.50400001928E-02 0.  1.
    10030    2    1    2    0    0  0.00000000000E+00  0.00000000000E+00 -0.29817092255E+03  0.17298060780E+04  0.17039140731E+04 0.  0.
        1    1    3    3  502    0  0.46255167023E+03  0.62946674450E+03 -0.49432416076E+03  0.92441268165E+03  0.50400001928E-02 0.  1.
       -1    1    3    3    0  502 -0.46255167023E+03 -0.62946674450E+03  0.19615323821E+03  0.80539339639E+03  0.50400001928E-02 0. -1.
</event>
<event>
 5   0  0.7476457E-06  0.1701435E+04  0.7818609E-02  0.8760546E-01
       -1   -1    0    0    0  501  0.00000000000E+00  0.00000000000E+00  0.54885265250E+03  0.54885265252E+03  0.50400001928E-02 0.  1.
        1   -1    0    0  501    0  0.00000000000E+00  0.00000000000E+00 -0.13186064521E+04  0.13186064521E+04  0.50400001928E-02 0. -1.
    10030    2    1    2    0    0  0.00000000000E+00  0.00000000000E+00 -0.76975379957E+03  0.18674591046E+04  0.17014354514E+04 0.  0.
        2    1    3    3  502    0  0.51217301522E+03  0.37188664101E+03 -0.10087610491E+04  0.11908903079E+04  0.25500000920E-02 0. -1.
       -2    1    3    3    0  502 -0.51217301522E+03 -0.37188664101E+03  0.23900724955E+03  0.67656879667E+03  0.25500000920E-02 0.  1.
</event>
<event>
 5   0  0.7583716E-06  0.1700284E+04  0.7818609E-02  0.8761202E-01
        1   -1    0    0  501    0  0.00000000000E+00  0.00000000000E+00  0.77025345808E+03  0.77025345810E+03  0.50400001928E-02 0.  1.
       -1   -1    0    0    0  501  0.00000000000E+00  0.00000000000E+00 -0.93831639630E+03  0.93831639631E+03  0.50400001928E-02 0. -1.
    10030    2    1    2    0    0  0.00000000000E+00  0.00000000000E+00 -0.16806293821E+03  0.17085698544E+04  0.17002840340E+04 0.  0.
        5    1    3    3  502    0 -0.78364092305E+03 -0.69297595454E+02 -0.40781918114E+03  0.88613420401E+03  0.46999998093E+01 0. -1.
       -5    1    3    3    0  502  0.78364092305E+03  0.69297595454E+02  0.23975624293E+03  0.82243565039E+03  0.46999998093E+01 0.  1.
</event>
<event>
 5   0  0.7476457E-06  0.1701508E+04  0.7818609E-02  0.8760505E-01
        1   -1    0    0  501    0  0.00000000000E+00  0.00000000000E+00  0.62431967843E+03  0.62431967845E+03  0.50400001928E-02 0.  1.
       -1   -1    0    0    0  501  0.00000000000E+00  0.00000000000E+00 -0.11593136359E+04  0.11593136359E+04  0.50400001928E-02 0. -1.
    10030    2    1    2    0    0  0.00000000000E+00  0.00000000000E+00 -0.53499395747E+03  0.17836333144E+04  0.17015079387E+04 0.  0.
        2    1    3    3  502    0 -0.61825049209E+03 -0.58409253983E+03 -0.24694052492E+03  0.88565082787E+03  0.25500000920E-02 0.  1.
       -2    1    3    3    0  502  0.61825049209E+03  0.58409253983E+03 -0.28805343255E+03  0.89798248650E+03  0.25500000920E-02 0. -1.
</event>
<event>
 5   0  0.1374441E-05  0.1705072E+04  0.7818609E-02  0.8758477E-01
        2   -1    0    0  501    0  0.00000000000E+00  0.00000000000E+00  0.57058271629E+03  0.57058271629E+03  0.25500000920E-02 0. -1.
       -2   -1    0    0    0  501  0.00000000000E+00  0.00000000000E+00 -0.12738164813E+04  0.12738164813E+04  0.25500000920E-02 0.  1.
    10030    2    1    2    0    0  0.00000000000E+00  0.00000000000E+00 -0.70323376505E+03  0.18443991976E+04  0.17050720430E+04 0.  0.
        1    1    3    3  502    0 -0.62865882213E+03  0.63170561437E+02 -0.97076454084E+03  0.11582686339E+04  0.50400001928E-02 0.  1.
       -1    1    3    3    0  502  0.62865882213E+03 -0.63170561437E+02  0.26753077579E+03  0.68613056374E+03  0.50400001928E-02 0. -1.
</event>
<event>
 5   0  0.1374441E-05  0.1700099E+04  0.7818609E-02  0.8761308E-01
        2   -1    0    0  501    0  0.00000000000E+00  0.00000000000E+00  0.19168685702E+04  0.19168685702E+04  0.25500000920E-02 0. -1.
       -2   -1    0    0    0  501  0.00000000000E+00  0.00000000000E+00 -0.37696067959E+03  0.37696067960E+03  0.25500000920E-02 0.  1.
    10030    2    1    2    0    0  0.00000000000E+00  0.00000000000E+00  0.15399078906E+04  0.22938292498E+04  0.17000989135E+04 0.  0.
        1    1    3    3  502    0 -0.58047182864E+03 -0.35439295288E+03  0.14579861826E+04  0.16088087573E+04  0.50400001928E-02 0. -1.
       -1    1    3    3    0  502  0.58047182864E+03  0.35439295288E+03  0.81921708031E+02  0.68502049252E+03  0.50400001928E-02 0.  1.
</event>
<event>
 5   0  0.1435301E-05  0.1699827E+04  0.7818609E-02  0.8761463E-01
        2   -1    0    0  501    0  0.00000000000E+00  0.00000000000E+00  0.13088213858E+04  0.13088213858E+04  0.25500000920E-02 0.  1.
       -2   -1    0    0    0  501  0.00000000000E+00  0.00000000000E+00 -0.55191115234E+03  0.55191115235E+03  0.25500000920E-02 0. -1.
    10030    2    1    2    0    0  0.00000000000E+00  0.00000000000E+00  0.75691023347E+03  0.18607325382E+04  0.16998271903E+04 0.  0.
        2    1    3    3  502    0  0.59971528380E+03  0.18946817914E+03 -0.24731941361E+03  0.67581321745E+03  0.25500000920E-02 0. -1.
       -2    1    3    3    0  502 -0.59971528380E+03 -0.18946817914E+03  0.10042296471E+04  0.11849193207E+04  0.25500000920E-02 0.  1.
</event>
<event>
 5   0  0.7455669E-06  0.1700038E+04  0.7818609E-02  0.8761343E-01
       -1   -1    0    0    0  501  0.00000000000E+00  0.00000000000E+00  0.14416903787E+04  0.14416903787E+04  0.50400001928E-02 0. -1.
        1   -1    0    0  501    0  0.00000000000E+00  0.00000000000E+00 -0.50117041365E+03  0.50117041368E+03  0.50400001928E-02 0.  1.
    10030    2    1    2    0    0  0.00000000000E+00  0.00000000000E+00  0.94051996503E+03  0.19428607924E+04  0.17000383095E+04 0.  0.
        4    1    3    3  502    0 -0.52706758512E+03 -0.64265321380E+02 -0.28832729974E+03  0.60420568972E+03  0.12699999809E+01 0.  1.
       -4    1    3    3    0  502  0.52706758512E+03  0.64265321380E+02  0.12288472648E+04  0.13386551027E+04  0.12699999809E+01 0. -1.
</event>
<event>
 5   0  0.7455669E-06  0.1700390E+04  0.7818609E-02  0.8761142E-01
        1   -1    0    0  501    0  0.00000000000E+00  0.00000000000E+00  0.15291125133E+04  0.15291125133E+04  0.50400001928E-02 0.  1.
       -1   -1    0    0    0  501  0.00000000000E+00  0.00000000000E+00 -0.47271298239E+03  0.47271298242E+03  0.50400001928E-02 0. -1.
    10030    2    1    2    0    0  0.00000000000E+00  0.00000000000E+00  0.10563995309E+04  0.20018254957E+04  0.17003897631E+04 0.  0.
        4    1    3    3  502    0 -0.18944000424E+02 -0.44354564644E+03  0.13818156017E+04  0.14513812681E+04  0.12699999809E+01 0.  1.
       -4    1    3    3    0  502  0.18944000424E+02  0.44354564644E+03 -0.32541607078E+03  0.55044422756E+03  0.12699999809E+01 0. -1.
</event>
<event>
 5   0  0.7082527E-06  0.1700671E+04  0.7818609E-02  0.8760982E-01
       -1   -1    0    0    0  501  0.00000000000E+00  0.00000000000E+00  0.64354933349E+03  0.64354933351E+03  0.50400001928E-02 0. -1.
        1   -1    0    0  501    0  0.00000000000E+00  0.00000000000E+00 -0.11235661972E+04  0.11235661972E+04  0.50400001928E-02 0.  1.
    10030    2    1    2    0    0  0.00000000000E+00  0.00000000000E+00 -0.48001686375E+03  0.17671155308E+04  0.17006707822E+04 0.  0.
        1    1    3    3  502    0  0.60395657222E+03  0.48329309869E+03  0.12696786854E+03  0.78387282134E+03  0.50400001928E-02 0. -1.
       -1    1    3    3    0  502 -0.60395657222E+03 -0.48329309869E+03 -0.60698473228E+03  0.98324270941E+03  0.50400001928E-02 0.  1.
</event>
<event>
 5   0  0.7476457E-06  0.1700814E+04  0.7818609E-02  0.8760900E-01
       -1   -1    0    0    0  501  0.00000000000E+00  0.00000000000E+00  0.79118310210E+03  0.79118310212E+03  0.50400001928E-02 0. -1.
        1   -1    0    0  501    0  0.00000000000E+00  0.00000000000E+00 -0.91406389908E+03  0.91406389909E+03  0.50400001928E-02 0.  1.
    10030    2    1    2    0    0  0.00000000000E+00  0.00000000000E+00 -0.12288079697E+03  0.17052470012E+04  0.17008138184E+04 0.  0.
        2    1    3    3  502    0  0.25755185969E+03 -0.55912320403E+03 -0.64968954726E+03  0.89501297507E+03  0.25500000920E-02 0.  1.
       -2    1    3    3    0  502 -0.25755185969E+03  0.55912320403E+03  0.52680875029E+03  0.81023402613E+03  0.25500000920E-02 0. -1.
</event>
<event>
 5   0  0.7476457E-06  0.1697692E+04  0.7818609E-02  0.8762682E-01
       -1   -1    0    0    0  501  0.00000000000E+00  0.00000000000E+00  0.32493945392E+03  0.32493945396E+03  0.50400001928E-02 0.  1.
        1   -1    0    0  501    0  0.00000000000E+00  0.00000000000E+00 -0.22174587698E+04  0.22174587698E+04  0.50400001928E-02 0. -1.
    10030    2    1    2    0    0  0.00000000000E+00  0.00000000000E+00 -0.18925193158E+04  0.25423982237E+04  0.16976923653E+04 0.  0.
        2    1    3    3  502    0 -0.17463517802E+03  0.65340215616E+02  0.29389197265E+03  0.34805068707E+03  0.25500000920E-02 0.  1.
       -2    1    3    3    0  502  0.17463517802E+03 -0.65340215616E+02 -0.21864112885E+04  0.21943475367E+04  0.25500000920E-02 0. -1.
</event>
<event>
 5   0  0.1423543E-05  0.1699388E+04  0.7818609E-02  0.8761713E-01
       -2   -1    0    0    0  501  0.00000000000E+00  0.00000000000E+00  0.42068438719E+03  0.42068438720E+03  0.25500000920E-02 0. -1.
        2   -1    0    0  501    0  0.00000000000E+00  0.00000000000E+00 -0.17162041513E+04  0.17162041513E+04  0.25500000920E-02 0.  1.
    10030    2    1    2    0    0  0.00000000000E+00  0.00000000000E+00 -0.12955197641E+04  0.21368885385E+04  0.16993884685E+04 0.  0.
        3    1    3    3  502    0 -0.23407403983E+03 -0.81680876664E+03 -0.64321493538E+03  0.10656888292E+04  0.10100000352E+00 0.  1.
       -3    1    3    3    0  502  0.23407403983E+03  0.81680876664E+03 -0.65230482870E+03  0.10711997093E+04  0.10100000352E+00 0. -1.
</event>
<event>
 5   0  0.1374441E-05  0.1700979E+04  0.7818609E-02  0.8760806E-01
       -2   -1    0    0    0  501  0.00000000000E+00  0.00000000000E+00  0.65220363032E+03  0.65220363033E+03  0.25500000920E-02 0. -1.
        2   -1    0    0  501    0  0.00000000000E+00  0.00000000000E+00 -0.11090591179E+04  0.11090591179E+04  0.25500000920E-02 0.  1.
    10030    2    1    2    0    0  0.00000000000E+00  0.00000000000E+00 -0.45685548754E+03  0.17612627482E+04  0.17009789921E+04 0.  0.
        1    1    3    3  502    0  0.33824480260E+02  0.79110648075E+03  0.92957452977E+02  0.79726698630E+03  0.50400001928E-02 0. -1.
       -1    1    3    3    0  502 -0.33824480260E+02 -0.79110648075E+03 -0.54981294052E+03  0.96399576189E+03  0.50400001928E-02 0.  1.
</event>
<event>
 5   0  0.1423543E-05  0.1702802E+04  0.7818609E-02  0.8759768E-01
        2   -1    0    0  501    0  0.00000000000E+00  0.00000000000E+00  0.29745422175E+03  0.29745422176E+03  0.25500000920E-02 0.  1.
       -2   -1    0    0    0  501  0.00000000000E+00  0.00000000000E+00 -0.24369582351E+04  0.24369582351E+04  0.25500000920E-02 0. -1.
    10030    2    1    2    0    0  0.00000000000E+00  0.00000000000E+00 -0.21395040134E+04  0.27344124569E+04  0.17028018267E+04 0.  0.
        3    1    3    3  502    0  0.36346292445E+03 -0.21710714281E+03  0.11643753201E+03  0.43908828038E+03  0.10100000352E+00 0.  1.
       -3    1    3    3    0  502 -0.36346292445E+03  0.21710714281E+03 -0.22559415454E+04  0.22953241765E+04  0.10100000352E+00 0. -1.
</event>
<event>
 5   0  0.7082527E-06  0.1699965E+04  0.7818609E-02  0.8761384E-01
        1   -1    0    0  501    0  0.00000000000E+00  0.00000000000E+00  0.13090923221E+04  0.13090923221E+04  0.50400001928E-02 0.  1.
       -1   -1    0    0    0  501  0.00000000000E+00  0.00000000000E+00 -0.55188631394E+03  0.55188631397E+03  0.50400001928E-02 0. -1.
    10030    2    1    2    0    0  0.00000000000E+00  0.00000000000E+00  0.75720600818E+03  0.18609786361E+04  0.16999648659E+04 0.  0.
        1    1    3    3  502    0  0.72456176425E+02  0.58449225707E+01 -0.54847732519E+03  0.55327338350E+03  0.50400001928E-02 0. -1.
       -1    1    3    3    0  502 -0.72456176425E+02 -0.58449225707E+01  0.13056833334E+04  0.13077052526E+04  0.50400001928E-02 0.  1.
</event>
<event>
 5   0  0.1435301E-05  0.1699004E+04  0.7818609E-02  0.8761933E-01
       -2   -1    0    0    0  501  0.00000000000E+00  0.00000000000E+00  0.58333343514E+03  0.58333343515E+03  0.25500000920E-02 0. -1.
        2   -1    0    0  501    0  0.00000000000E+00  0.00000000000E+00 -0.12371201511E+04  0.12371201511E+04  0.25500000920E-02 0.  1.
    10030    2    1    2    0    0  0.00000000000E+00  0.00000000000E+00 -0.65378671594E+03  0.18204535862E+04  0.16990038816E+04 0.  0.
        2    1    3    3  502    0 -0.70830006515E+03  0.41463958899E+03 -0.56173780950E+03  0.99456741234E+03  0.25500000920E-02 0. -1.
       -2    1    3    3    0  502  0.70830006515E+03 -0.41463958899E+03 -0.92048906434E+02  0.82588617390E+03  0.25500000920E-02 0.  1.
</event>
<event>
 5   0  0.1435301E-05  0.1705701E+04  0.7818609E-02  0.8758120E-01
       -2   -1    0    0    0  501  0.00000000000E+00  0.00000000000E+00  0.29950694211E+03  0.29950694212E+03  0.25500000920E-02 0. -1.
        2   -1    0    0  501    0  0.00000000000E+00  0.00000000000E+00 -0.24285032604E+04  0.24285032604E+04  0.25500000920E-02 0.  1.
    10030    2    1    2    0    0  0.00000000000E+00  0.00000000000E+00 -0.21289963183E+04  0.27280102026E+04  0.17057005428E+04 0.  0.
        2    1    3    3  502    0  0.26919175380E+02  0.52294642042E+03  0.12133292172E+02  0.52377935948E+03  0.25500000920E-02 0. -1.
       -2    1    3    3    0  502 -0.26919175380E+02 -0.52294642042E+03 -0.21411296105E+04  0.22042308431E+04  0.25500000920E-02 0.  1.
</event>
<event>
 5   0  0.7082527E-06  0.1699797E+04  0.7818609E-02  0.8761480E-01
       -1   -1    0    0    0  501  0.00000000000E+00  0.00000000000E+00  0.63055875727E+03  0.63055875729E+03  0.50400001928E-02 0. -1.
        1   -1    0    0  501    0  0.00000000000E+00  0.00000000000E+00 -0.11455357841E+04  0.11455357842E+04  0.50400001928E-02 0.  1.
    10030    2    1    2    0    0  0.00000000000E+00  0.00000000000E+00 -0.51497702688E+03  0.17760945414E+04  0.16997971885E+04 0.  0.
        1    1    3    3  502    0 -0.27799183242E+03  0.25078032391E+03  0.53975167046E+03  0.65688819105E+03  0.50400001928E-02 0. -1.
       -1    1    3    3    0  502  0.27799183242E+03 -0.25078032391E+03 -0.10547286973E+04  0.11192063504E+04  0.50400001928E-02 0.  1.
</event>
<event>
 5   0  0.7455669E-06  0.1699785E+04  0.7818609E-02  0.8761487E-01
        1   -1    0    0  501    0  0.00000000000E+00  0.00000000000E+00  0.94590054701E+03  0.94590054703E+03  0.50400001928E-02 0. -1.
       -1   -1    0    0    0  501  0.00000000000E+00  0.00000000000E+00 -0.76362930015E+03  0.76362930016E+03  0.50400001928E-02 0.  1.
    10030    2    1    2    0    0  0.00000000000E+00  0.00000000000E+00  0.18227124687E+03  0.17095298472E+04  0.16997851308E+04 0.  0.
        4    1    3    3  502    0  0.41956013987E+03 -0.18270974491E+03 -0.62914203148E+03  0.77796842515E+03  0.12699999809E+01 0.  1.
       -4    1    3    3    0  502 -0.41956013987E+03  0.18270974491E+03  0.81141327835E+03  0.93156142204E+03  0.12699999809E+01 0. -1.
</event>
<event>
 5   0  0.7583716E-06  0.1700546E+04  0.7818609E-02  0.8761053E-01
        1   -1    0    0  501    0  0.00000000000E+00  0.00000000000E+00  0.99045211203E+03  0.99045211204E+03  0.50400001928E-02 0.  1.
       -1   -1    0    0    0  501  0.00000000000E+00  0.00000000000E+00 -0.72993385570E+03  0.72993385572E+03  0.50400001928E-02 0. -1.
    10030    2    1    2    0    0  0.00000000000E+00  0.00000000000E+00  0.26051825633E+03  0.17203859678E+04  0.17005464169E+04 0.  0.
        5    1    3    3  502    0 -0.18798233815E+03 -0.82921122294E+03  0.13402102430E+03  0.86076264827E+03  0.46999998093E+01 0. -1.
       -5    1    3    3    0  502  0.18798233815E+03  0.82921122294E+03  0.12649723203E+03  0.85962331949E+03  0.46999998093E+01 0.  1.
</event>
<event>
 5   0  0.1419012E-05  0.1700202E+04  0.7818609E-02  0.8761249E-01
       -2   -1    0    0    0  501  0.00000000000E+00  0.00000000000E+00  0.94228243405E+03  0.94228243405E+03  0.25500000920E-02 0. -1.
        2   -1    0    0  501    0  0.00000000000E+00  0.00000000000E+00 -0.76693783537E+03  0.76693783537E+03  0.25500000920E-02 0.  1.
    10030    2    1    2    0    0  0.00000000000E+00  0.00000000000E+00  0.17534459868E+03  0.17092202694E+04  0.17002024000E+04 0.  0.
        4    1    3    3  502    0  0.69389410932E+03 -0.44985844640E+03 -0.11037202846E+03  0.83429326637E+03  0.12699999809E+01 0.  1.
       -4    1    3    3    0  502 -0.69389410932E+03  0.44985844640E+03  0.28571662714E+03  0.87492700305E+03  0.12699999809E+01 0. -1.
</event>
<event>
 5   0  0.7583716E-06  0.1700004E+04  0.7818609E-02  0.8761362E-01
       -1   -1    0    0    0  501  0.00000000000E+00  0.00000000000E+00  0.17386438289E+04  0.17386438290E+04  0.50400001928E-02 0. -1.
        1   -1    0    0  501    0  0.00000000000E+00  0.00000000000E+00 -0.41555578655E+03  0.41555578658E+03  0.50400001928E-02 0.  1.
    10030    2    1    2    0    0  0.00000000000E+00  0.00000000000E+00  0.13230880424E+04  0.21541996155E+04  0.17000041222E+04 0.  0.
        5    1    3    3  502    0  0.37850121031E+03  0.48770250001E+03  0.14019077929E+04  0.15318238948E+04  0.46999998093E+01 0. -1.
       -5    1    3    3    0  502 -0.37850121031E+03 -0.48770250001E+03 -0.78819750537E+02  0.62237572076E+03  0.46999998093E+01 0.  1.
</event>
<event>
 5   0  0.1374441E-05  0.1699584E+04  0.7818609E-02  0.8761602E-01
       -2   -1    0    0    0  501  0.00000000000E+00  0.00000000000E+00  0.53035852074E+03  0.53035852075E+03  0.25500000920E-02 0. -1.
        2   -1    0    0  501    0  0.00000000000E+00  0.00000000000E+00 -0.13616187090E+04  0.13616187090E+04  0.25500000920E-02 0.  1.
    10030    2    1    2    0    0  0.00000000000E+00  0.00000000000E+00 -0.83126018824E+03  0.18919772297E+04  0.16995835776E+04 0.  0.
        1    1    3    3  502    0 -0.77455828426E+03  0.32982446241E+03 -0.54459508905E+03  0.10026507482E+04  0.50400001928E-02 0. -1.
       -1    1    3    3    0  502  0.77455828426E+03 -0.32982446241E+03 -0.28666509919E+03  0.88932648158E+03  0.50400001928E-02 0.  1.
</event>
<event>
 5   0  0.7583716E-06  0.1701802E+04  0.7818609E-02  0.8760337E-01
       -1   -1    0    0    0  501  0.00000000000E+00  0.00000000000E+00  0.10650781146E+04  0.10650781146E+04  0.50400001928E-02 0. -1.
        1   -1    0    0  501    0  0.00000000000E+00  0.00000000000E+00 -0.67979264171E+03  0.67979264173E+03  0.50400001928E-02 0.  1.
    10030    2    1    2    0    0  0.00000000000E+00  0.00000000000E+00  0.38528547289E+03  0.17448707563E+04  0.17018017102E+04 0.  0.
        5    1    3    3  502    0  0.71732243749E+03  0.23708442867E+03 -0.20873574138E+03  0.78380686739E+03  0.46999998093E+01 0. -1.
       -5    1    3    3    0  502 -0.71732243749E+03 -0.23708442867E+03  0.59402121427E+03  0.96106388895E+03  0.46999998093E+01 0.  1.
</event>
<event>
 5   0  0.7461128E-06  0.1699758E+04  0.7818609E-02  0.8761502E-01
       -1   -1    0    0    0  501  0.00000000000E+00  0.00000000000E+00  0.55653241050E+03  0.55653241052E+03  0.50400001928E-02 0.  1.
        1   -1    0    0  501    0  0.00000000000E+00  0.00000000000E+00 -0.12978480484E+04  0.12978480484E+04  0.50400001928E-02 0. -1.
    10030    2    1    2    0    0  0.00000000000E+00  0.00000000000E+00 -0.74131563790E+03  0.18543804589E+04  0.16997582215E+04 0.  0.
        3    1    3    3  502    0  0.36919001887E+03 -0.20410558610E+02 -0.12054984166E+04  0.12609299360E+04  0.10100000352E+00 0. -1.
       -3    1    3    3    0  502 -0.36919001887E+03  0.20410558610E+02  0.46418277868E+03  0.59345052293E+03  0.10100000352E+00 0.  1.
</event>
<event>
 5   0  0.7461128E-06  0.1699195E+04  0.7818609E-02  0.8761824E-01
        1   -1    0    0  501    0  0.00000000000E+00  0.00000000000E+00  0.77765552681E+03  0.77765552682E+03  0.50400001928E-02 0.  1.
       -1   -1    0    0    0  501  0.00000000000E+00  0.00000000000E+00 -0.92819491989E+03  0.92819491990E+03  0.50400001928E-02 0. -1.
    10030    2    1    2    0    0  0.00000000000E+00  0.00000000000E+00 -0.15053939308E+03  0.17058504467E+04  0.16991949970E+04 0.  0.
        3    1    3    3  502    0  0.60471172924E+03 -0.36835827570E+03 -0.54663169003E+03  0.89452239184E+03  0.10100000352E+00 0. -1.
       -3    1    3    3    0  502 -0.60471172924E+03  0.36835827570E+03  0.39609229694E+03  0.81132805489E+03  0.10100000352E+00 0.  1.
</event>
<event>
 5   0  0.7583716E-06  0.1700244E+04  0.7818609E-02  0.8761225E-01
        1   -1    0    0  501    0  0.00000000000E+00  0.00000000000E+00  0.95968801787E+03  0.95968801788E+03  0.50400001928E-02 0. -1.
       -1   -1    0    0    0  501  0.00000000000E+00  0.00000000000E+00 -0.75306502052E+03  0.75306502054E+03  0.50400001928E-02 0.  1.
    10030    2    1    2    0    0  0.00000000000E+00  0.00000000000E+00  0.20662299735E+03  0.17127530384E+04  0.17002440729E+04 0.  0.
        5    1    3    3  502    0  0.46813160667E+01 -0.52281826265E+03 -0.57193687133E+03  0.77491594723E+03  0.46999998093E+01 0.  1.
       -5    1    3    3    0  502 -0.46813160667E+01  0.52281826265E+03  0.77855986868E+03  0.93783709119E+03  0.46999998093E+01 0. -1.
</event>
<event>
 5   0  0.1419012E-05  0.1703986E+04  0.7818609E-02  0.8759094E-01
        2   -1    0    0  501    0  0.00000000000E+00  0.00000000000E+00  0.72306383668E+03  0.72306383669E+03  0.25500000920E-02 0. -1.
       -2   -1    0    0    0  501  0.00000000000E+00  0.00000000000E+00 -0.10039118302E+04  0.10039118302E+04  0.25500000920E-02 0.  1.
    10030    2    1    2    0    0  0.00000000000E+00  0.00000000000E+00 -0.28084799351E+03  0.17269756669E+04  0.17039863141E+04 0.  0.
        4    1    3    3  502    0  0.23290090006E+02 -0.53921509450E+03 -0.80855660624E+03  0.97214234802E+03  0.12699999809E+01 0.  1.
       -4    1    3    3    0  502 -0.23290090006E+02  0.53921509450E+03  0.52770861273E+03  0.75483331887E+03  0.12699999809E+01 0. -1.
</event>
<event>
 5   0  0.1423543E-05  0.1701298E+04  0.7818609E-02  0.8760625E-01
        2   -1    0    0  501    0  0.00000000000E+00  0.00000000000E+00  0.15959455752E+04  0.15959455752E+04  0.25500000920E-02 0. -1.
       -2   -1    0    0    0  501  0.00000000000E+00  0.00000000000E+00 -0.45340105493E+03  0.45340105494E+03  0.25500000920E-02 0.  1.
    10030    2    1    2    0    0  0.00000000000E+00  0.00000000000E+00  0.11425445203E+04  0.20493466301E+04  0.17012976311E+04 0.  0.
        3    1    3    3  502    0 -0.52400499022E+03 -0.35865578307E+03  0.12530979784E+04  0.14048023898E+04  0.10100000352E+00 0. -1.
       -3    1    3    3    0  502  0.52400499022E+03  0.35865578307E+03 -0.11055345817E+03  0.64454424039E+03  0.10100000352E+00 0.  1.
</event>
<event>
 5   0  0.1435301E-05  0.1700025E+04  0.7818609E-02  0.8761350E-01
       -2   -1    0    0    0  501  0.00000000000E+00  0.00000000000E+00  0.37425790217E+03  0.37425790218E+03  0.25500000920E-02 0.  1.
        2   -1    0    0  501    0  0.00000000000E+00  0.00000000000E+00 -0.19305436258E+04  0.19305436258E+04  0.25500000920E-02 0. -1.
    10030    2    1    2    0    0  0.00000000000E+00  0.00000000000E+00 -0.15562857236E+04  0.23048015279E+04  0.17000249497E+04 0.  0.
        2    1    3    3  502    0  0.27223648054E+03 -0.64126924375E+03 -0.14384094824E+04  0.15982367733E+04  0.25500000920E-02 0. -1.
       -2    1    3    3    0  502 -0.27223648054E+03  0.64126924375E+03 -0.11787624117E+03  0.70656475467E+03  0.25500000920E-02 0.  1.
</event>
<event>
 5   0  0.1374441E-05  0.1699676E+04  0.7818609E-02  0.8761549E-01
       -2   -1    0    0    0  501  0.00000000000E+00  0.00000000000E+00  0.14048923224E+04  0.14048923224E+04  0.25500000920E-02 0. -1.
        2   -1    0    0  501    0  0.00000000000E+00  0.00000000000E+00 -0.51407815042E+03  0.51407815043E+03  0.25500000920E-02 0.  1.
    10030    2    1    2    0    0  0.00000000000E+00  0.00000000000E+00  0.89081417202E+03  0.19189704729E+04  0.16996757887E+04 0.  0.
        1    1    3    3  502    0  0.20208879874E+03  0.20332547107E+02 -0.48627246022E+03  0.52698595868E+03  0.50400001928E-02 0.  1.
       -1    1    3    3    0  502 -0.20208879874E+03 -0.20332547107E+02  0.13770866322E+04  0.13919845142E+04  0.50400001928E-02 0. -1.
</event>
<event>
 5   0  0.1441756E-05  0.1700374E+04  0.7818609E-02  0.8761151E-01
       -2   -1    0    0    0  501  0.00000000000E+00  0.00000000000E+00  0.43512735711E+03  0.43512735711E+03  0.25500000920E-02 0.  1.
        2   -1    0    0  501    0  0.00000000000E+00  0.00000000000E+00 -0.16611647153E+04  0.16611647153E+04  0.25500000920E-02 0. -1.
    10030    2    1    2    0    0  0.00000000000E+00  0.00000000000E+00 -0.12260373582E+04  0.20962920724E+04  0.17003743262E+04 0.  0.
        5    1    3    3  502    0  0.57232680475E+03  0.18808740096E+02  0.16169679705E+03  0.59504595143E+03  0.46999998093E+01 0.  1.
       -5    1    3    3    0  502 -0.57232680475E+03 -0.18808740096E+02 -0.13877341552E+04  0.15012461210E+04  0.46999998093E+01 0. -1.
</event>
<event>
 5   0  0.1423543E-05  0.1699310E+04  0.7818609E-02  0.8761758E-01
        2   -1    0    0  501    0  0.00000000000E+00  0.00000000000E+00  0.85449857722E+03  0.85449857723E+03  0.25500000920E-02 0.  1.
       -2   -1    0    0    0  501  0.00000000000E+00  0.00000000000E+00 -0.84483840324E+03  0.84483840324E+03  0.25500000920E-02 0. -1.
    10030    2    1    2    0    0  0.00000000000E+00  0.00000000000E+00  0.96601739864E+01  0.16993369805E+04  0.16993095228E+04 0.  0.
        3    1    3    3  502    0  0.74778905115E+02 -0.74756882834E+03 -0.39199135174E+03  0.84741269036E+03  0.10100000352E+00 0. -1.
       -3    1    3    3    0  502 -0.74778905115E+02  0.74756882834E+03  0.40165152572E+03  0.85192429010E+03  0.10100000352E+00 0.  1.
</event>
<event>
 5   0  0.7082527E-06  0.1699526E+04  0.7818609E-02  0.8761635E-01
        1   -1    0    0  501    0  0.00000000000E+00  0.00000000000E+00  0.97386315466E+03  0.97386315468E+03  0.50400001928E-02 0. -1.
       -1   -1    0    0    0  501  0.00000000000E+00  0.00000000000E+00 -0.74147668026E+03  0.74147668028E+03  0.50400001928E-02 0.  1.
    10030    2    1    2    0    0  0.00000000000E+00  0.00000000000E+00  0.23238647440E+03  0.17153398350E+04  0.16995256032E+04 0.  0.
        1    1    3    3  502    0  0.40866938068E+03  0.94157156302E+01 -0.63572042384E+03  0.75580405907E+03  0.50400001928E-02 0.  1.
       -1    1    3    3    0  502 -0.40866938068E+03 -0.94157156302E+01  0.86810689824E+03  0.95953577588E+03  0.50400001928E-02 0. -1.
</event>
<event>
 5   0  0.7461128E-06  0.1700057E+04  0.7818609E-02  0.8761332E-01
       -1   -1    0    0    0  501  0.00000000000E+00  0.00000000000E+00  0.96111891799E+03  0.96111891800E+03  0.50400001928E-02 0. -1.
        1   -1    0    0  501    0  0.00000000000E+00  0.00000000000E+00 -0.75177879150E+03  0.75177879152E+03  0.50400001928E-02 0.  1.
    10030    2    1    2    0    0  0.00000000000E+00  0.00000000000E+00  0.20934012649E+03  0.17128977095E+04  0.17000574328E+04 0.  0.
        3    1    3    3  502    0 -0.99919284111E+02  0.20646659507E+03  0.92934852494E+03  0.95723613034E+03  0.10100000352E+00 0. -1.
       -3    1    3    3    0  502  0.99919284111E+02 -0.20646659507E+03 -0.72000839845E+03  0.75566157918E+03  0.10100000352E+00 0.  1.
</event>
<event>
 5   0  0.7583716E-06  0.1694522E+04  0.7818609E-02  0.8764495E-01
       -1   -1    0    0    0  501  0.00000000000E+00  0.00000000000E+00  0.10472274990E+04  0.10472274991E+04  0.50400001928E-02 0.  1.
        1   -1    0    0  501    0  0.00000000000E+00  0.00000000000E+00 -0.68547745727E+03  0.68547745729E+03  0.50400001928E-02 0. -1.
    10030    2    1    2    0    0  0.00000000000E+00  0.00000000000E+00  0.36175004177E+03  0.17327049564E+04  0.16945215764E+04 0.  0.
        5    1    3    3  502    0 -0.60952455176E+03 -0.11602138733E+03 -0.40905464635E+03  0.74318835783E+03  0.46999998093E+01 0. -1.
       -5    1    3    3    0  502  0.60952455176E+03  0.11602138733E+03  0.77080468813E+03  0.98951659852E+03  0.46999998093E+01 0.  1.
</event>
<event>
 5   0  0.7461128E-06  0.1699146E+04  0.7818609E-02  0.8761852E-01
       -1   -1    0    0    0  501  0.00000000000E+00  0.00000000000E+00  0.57316369952E+03  0.57316369955E+03  0.50400001928E-02 0. -1.
        1   -1    0    0  501    0  0.00000000000E+00  0.00000000000E+00 -0.12592807158E+04  0.12592807158E+04  0.50400001928E-02 0.  1.
    10030    2    1    2    0    0  0.00000000000E+00  0.00000000000E+00 -0.68611701628E+03  0.18324444154E+04  0.16991456604E+04 0.  0.
        3    1    3    3  502    0  0.82406036489E+03 -0.20576812183E+03 -0.36346314110E+03  0.92386225709E+03  0.10100000352E+00 0.  1.
       -3    1    3    3    0  502 -0.82406036489E+03  0.20576812183E+03 -0.32265387518E+03  0.90858215826E+03  0.10100000352E+00 0. -1.
</event>
<event>
 5   0  0.1435301E-05  0.1698719E+04  0.7818609E-02  0.8762095E-01
        2   -1    0    0  501    0  0.00000000000E+00  0.00000000000E+00  0.48731396663E+03  0.48731396663E+03  0.25500000920E-02 0.  1.
       -2   -1    0    0    0  501  0.00000000000E+00  0.00000000000E+00 -0.14803833122E+04  0.14803833122E+04  0.25500000920E-02 0. -1.
    10030    2    1    2    0    0  0.00000000000E+00  0.00000000000E+00 -0.99306934552E+03  0.19676972788E+04  0.16987188867E+04 0.  0.
        2    1    3    3  502    0 -0.41702921258E+03  0.13634971832E+03  0.34588086245E+03  0.55869327976E+03  0.25500000920E-02 0.  1.
       -2    1    3    3    0  502  0.41702921258E+03 -0.13634971832E+03 -0.13389502080E+04  0.14090039990E+04  0.25500000920E-02 0. -1.
</event>
<event>
 5   0  0.1423543E-05  0.1698877E+04  0.7818609E-02  0.8762005E-01
       -2   -1    0    0    0  501  0.00000000000E+00  0.00000000000E+00  0.71861748809E+03  0.71861748809E+03  0.25500000920E-02 0.  1.
        2   -1    0    0  501    0  0.00000000000E+00  0.00000000000E+00 -0.10040750415E+04  0.10040750415E+04  0.25500000920E-02 0. -1.
    10030    2    1    2    0    0  0.00000000000E+00  0.00000000000E+00 -0.28545755339E+03  0.17226925296E+04  0.16988771400E+04 0.  0.
        3    1    3    3  502    0 -0.58878458399E+03  0.48940096813E+03  0.23034905230E+03  0.79952566566E+03  0.10100000352E+00 0.  1.
       -3    1    3    3    0  502  0.58878458399E+03 -0.48940096813E+03 -0.51580660569E+03  0.92316686392E+03  0.10100000352E+00 0. -1.
</event>
<event>
 5   0  0.7461128E-06  0.1700975E+04  0.7818609E-02  0.8760808E-01
       -1   -1    0    0    0  501  0.00000000000E+00  0.00000000000E+00  0.58506203049E+03  0.58506203051E+03  0.50400001928E-02 0. -1.
        1   -1    0    0  501    0  0.00000000000E+00  0.00000000000E+00 -0.12363291402E+04  0.12363291402E+04  0.50400001928E-02 0.  1.
    10030    2    1    2    0    0  0.00000000000E+00  0.00000000000E+00 -0.65126710971E+03  0.18213911707E+04  0.17009752934E+04 0.  0.
        3    1    3    3  502    0  0.52742498872E+03 -0.45775204162E+03  0.19413123022E+03  0.72484549739E+03  0.10100000352E+00 0. -1.
       -3    1    3    3    0  502 -0.52742498872E+03  0.45775204162E+03 -0.84539833993E+03  0.10965456733E+04  0.10100000352E+00 0.  1.
</event>
<event>
 5   0  0.7476457E-06  0.1700676E+04  0.7818609E-02  0.8760979E-01
       -1   -1    0    0    0  501  0.00000000000E+00  0.00000000000E+00  0.39666014473E+03  0.39666014476E+03  0.50400001928E-02 0. -1.
        1   -1    0    0  501    0  0.00000000000E+00  0.00000000000E+00 -0.18229066081E+04  0.18229066081E+04  0.50400001928E-02 0.  1.
    10030    2    1    2    0    0  0.00000000000E+00  0.00000000000E+00 -0.14262464634E+04  0.22195667529E+04  0.17006756293E+04 0.  0.
        2    1    3    3  502    0  0.26884485863E+03  0.11086953967E+03  0.32974347055E+03  0.43965937863E+03  0.25500000920E-02 0. -1.
       -2    1    3    3    0  502 -0.26884485863E+03 -0.11086953967E+03 -0.17559899339E+04  0.17799073743E+04  0.25500000920E-02 0.  1.
</event>
<event>
 5   0  0.1435301E-05  0.1699812E+04  0.7818609E-02  0.8761471E-01
       -2   -1    0    0    0  501  0.00000000000E+00  0.00000000000E+00  0.82782009328E+03  0.82782009328E+03  0.25500000920E-02 0.  1.
        2   -1    0    0  501    0  0.00000000000E+00  0.00000000000E+00 -0.87258141185E+03  0.87258141185E+03  0.25500000920E-02 0. -1.
    10030    2    1    2    0    0  0.00000000000E+00  0.00000000000E+00 -0.44761318573E+02  0.17004015051E+04  0.16998122552E+04 0.  0.
        2    1    3    3  502    0 -0.12218143810E+03  0.34356134339E+03  0.74559487326E+03  0.82998458752E+03  0.25500000920E-02 0.  1.
       -2    1    3    3    0  502  0.12218143810E+03 -0.34356134339E+03 -0.79035619183E+03  0.87041691761E+03  0.25500000920E-02 0. -1.
</event>
<event>
 5   0  0.7455669E-06  0.1700016E+04  0.7818609E-02  0.8761355E-01
       -1   -1    0    0    0  501  0.00000000000E+00  0.00000000000E+00  0.73854512096E+03  0.73854512098E+03  0.50400001928E-02 0.  1.
        1   -1    0    0  501    0  0.00000000000E+00  0.00000000000E+00 -0.97829321251E+03  0.97829321252E+03  0.50400001928E-02 0. -1.
    10030    2    1    2    0    0  0.00000000000E+00  0.00000000000E+00 -0.23974809155E+03  0.17168383335E+04  0.17000160929E+04 0.  0.
        4    1    3    3  502    0 -0.11938753438E+03  0.45997713062E+03 -0.83160291777E+03  0.95780862901E+03  0.12699999809E+01 0. -1.
       -4    1    3    3    0  502  0.11938753438E+03 -0.45997713062E+03  0.59185482623E+03  0.75902970448E+03  0.12699999809E+01 0.  1.
</event>
<event>
 5   0  0.1374441E-05  0.1701220E+04  0.7818609E-02  0.8760669E-01
        2   -1    0    0  501    0  0.00000000000E+00  0.00000000000E+00  0.94043847119E+03  0.94043847120E+03  0.25500000920E-02 0.  1.
       -2   -1    0    0    0  501  0.00000000000E+00  0.00000000000E+00 -0.76936158260E+03  0.76936158261E+03  0.25500000920E-02 0. -1.
    10030    2    1    2    0    0  0.00000000000E+00  0.00000000000E+00  0.17107688859E+03  0.17098000538E+04  0.17012198336E+04 0.  0.
        1    1    3    3  502    0 -0.42737512016E+03 -0.10696270967E+03 -0.64576230522E+03  0.78172851391E+03  0.50400001928E-02 0. -1.
       -1    1    3    3    0  502  0.42737512016E+03  0.10696270967E+03  0.81683919381E+03  0.92807153989E+03  0.50400001928E-02 0.  1.
</event>
<event>
 5   0  0.7455669E-06  0.1701718E+04  0.7818609E-02  0.8760385E-01
       -1   -1    0    0    0  501  0.00000000000E+00  0.00000000000E+00  0.24596314433E+04  0.24596314433E+04  0.50400001928E-02 0. -1.
        1   -1    0    0  501    0  0.00000000000E+00  0.00000000000E+00 -0.29433728904E+03  0.29433728908E+03  0.50400001928E-02 0.  1.
    10030    2    1    2    0    0  0.00000000000E+00  0.00000000000E+00  0.21652941542E+04  0.27539687324E+04  0.17017182506E+04 0.  0.
        4    1    3    3  502    0  0.54393927764E+03  0.61120160612E+03  0.70476314905E+03  0.10798750160E+04  0.12699999809E+01 0.  1.
       -4    1    3    3    0  502 -0.54393927764E+03 -0.61120160612E+03  0.14605310052E+04  0.16740937163E+04  0.12699999809E+01 0. -1.
</event>
<event>
 5   0  0.7461128E-06  0.1700330E+04  0.7818609E-02  0.8761176E-01
        1   -1    0    0  501    0  0.00000000000E+00  0.00000000000E+00  0.12133690353E+04  0.12133690353E+04  0.50400001928E-02 0.  1.
       -1   -1    0    0    0  501  0.00000000000E+00  0.00000000000E+00 -0.59568079504E+03  0.59568079506E+03  0.50400001928E-02 0. -1.
    10030    2    1    2    0    0  0.00000000000E+00  0.00000000000E+00  0.61768824028E+03  0.18090498304E+04  0.17003301228E+04 0.  0.
        3    1    3    3  502    0  0.75179447680E+03 -0.14156325192E+03 -0.85740836828E+02  0.76979646072E+03  0.10100000352E+00 0. -1.
       -3    1    3    3    0  502 -0.75179447680E+03  0.14156325192E+03  0.70342907711E+03  0.10392533697E+04  0.10100000352E+00 0.  1.
</event>
<event>
 5   0  0.7476457E-06  0.1699957E+04  0.7818609E-02  0.8761389E-01
       -1   -1    0    0    0  501  0.00000000000E+00  0.00000000000E+00  0.89374959234E+03  0.89374959235E+03  0.50400001928E-02 0.  1.
        1   -1    0    0  501    0  0.00000000000E+00  0.00000000000E+00 -0.80835097267E+03  0.80835097269E+03  0.50400001928E-02 0. -1.
    10030    2    1    2    0    0  0.00000000000E+00  0.00000000000E+00  0.85398619665E+02  0.17021005650E+04  0.16999568845E+04 0.  0.
        2    1    3    3  502    0 -0.14061456554E+03 -0.75981949376E+03 -0.31181671065E+03  0.83326333184E+03  0.25500000920E-02 0. -1.
       -2    1    3    3    0  502  0.14061456554E+03  0.75981949376E+03  0.39721533032E+03  0.86883723320E+03  0.25500000920E-02 0.  1.
</event>
<event>
 5   0  0.1374441E-05  0.1699622E+04  0.7818609E-02  0.8761580E-01
       -2   -1    0    0    0  501  0.00000000000E+00  0.00000000000E+00  0.98415989354E+03  0.98415989355E+03  0.25500000920E-02 0.  1.
        2   -1    0    0  501    0  0.00000000000E+00  0.00000000000E+00 -0.73380193091E+03  0.73380193092E+03  0.25500000920E-02 0. -1.
    10030    2    1    2    0    0  0.00000000000E+00  0.00000000000E+00  0.25035796263E+03  0.17179618245E+04  0.16996216405E+04 0.  0.
        1    1    3    3  502    0  0.33703030633E+03 -0.15088369511E+03 -0.64847097993E+03  0.74623717990E+03  0.50400001928E-02 0. -1.
       -1    1    3    3    0  502 -0.33703030633E+03  0.15088369511E+03  0.89882894256E+03  0.97172464456E+03  0.50400001928E-02 0.  1.
</event>
<event>
 5   0  0.1441756E-05  0.1700863E+04  0.7818609E-02  0.8760872E-01
       -2   -1    0    0    0  501  0.00000000000E+00  0.00000000000E+00  0.13986116854E+04  0.13986116854E+04  0.25500000920E-02 0. -1.
        2   -1    0    0  501    0  0.00000000000E+00  0.00000000000E+00 -0.51710814897E+03  0.51710814898E+03  0.25500000920E-02 0.  1.
    10030    2    1    2    0    0  0.00000000000E+00  0.00000000000E+00  0.88150353639E+03  0.19157198343E+04  0.17008627220E+04 0.  0.
        5    1    3    3  502    0 -0.43838737859E+03 -0.49790504832E+03  0.10400553056E+04  0.12336247645E+04  0.46999998093E+01 0.  1.
       -5    1    3    3    0  502  0.43838737859E+03  0.49790504832E+03 -0.15855176917E+03  0.68209506988E+03  0.46999998093E+01 0. -1.
</event>
<event>
 5   0  0.7583716E-06  0.1699193E+04  0.7818609E-02  0.8761825E-01
        1   -1    0    0  501    0  0.00000000000E+00  0.00000000000E+00  0.60030820070E+03  0.60030820072E+03  0.50400001928E-02 0.  1.
       -1   -1    0    0    0  501  0.00000000000E+00  0.00000000000E+00 -0.12024062839E+04  0.12024062839E+04  0.50400001928E-02 0. -1.
    10030    2    1    2    0    0  0.00000000000E+00  0.00000000000E+00 -0.60209808316E+03  0.18027144846E+04  0.16991931648E+04 0.  0.
        5    1    3    3  502    0  0.18897864600E+03 -0.51125212135E+03 -0.99244308628E+03  0.11322795722E+04  0.46999998093E+01 0. -1.
       -5    1    3    3    0  502 -0.18897864600E+03  0.51125212135E+03  0.39034500312E+03  0.67043491234E+03  0.46999998093E+01 0.  1.
</event>
<event>
 5   0  0.1419012E-05  0.1700578E+04  0.7818609E-02  0.8761035E-01
        2   -1    0    0  501    0  0.00000000000E+00  0.00000000000E+00  0.76802850366E+03  0.76802850366E+03  0.25500000920E-02 0. -1.
       -2   -1    0    0    0  501  0.00000000000E+00  0.00000000000E+00 -0.94135971217E+03  0.94135971217E+03  0.25500000920E-02 0.  1.
    10030    2    1    2    0    0  0.00000000000E+00  0.00000000000E+00 -0.17333120851E+03  0.17093882158E+04  0.17005776561E+04 0.  0.
        4    1    3    3  502    0  0.82544125916E+03  0.39100416789E+02 -0.28797140672E+03  0.87510642719E+03  0.12699999809E+01 0. -1.
       -4    1    3    3    0  502 -0.82544125916E+03 -0.39100416789E+02  0.11464019821E+03  0.83428178864E+03  0.12699999809E+01 0.  1.
</event>
<event>
 5   0  0.7082527E-06  0.1698038E+04  0.7818609E-02  0.8762484E-01
       -1   -1    0    0    0  501  0.00000000000E+00  0.00000000000E+00  0.35768993635E+03  0.35768993639E+03  0.50400001928E-02 0. -1.
        1   -1    0    0  501    0  0.00000000000E+00  0.00000000000E+00 -0.20152458976E+04  0.20152458976E+04  0.50400001928E-02 0.  1.
    10030    2    1    2    0    0  0.00000000000E+00  0.00000000000E+00 -0.16575559613E+04  0.23729358340E+04  0.16980378993E+04 0.  0.
        1    1    3    3  502    0  0.63881126480E+03 -0.34386396773E+03 -0.14451041461E+04  0.16169874005E+04  0.50400001928E-02 0.  1.
       -1    1    3    3    0  502 -0.63881126480E+03  0.34386396773E+03 -0.21245181521E+03  0.75594843353E+03  0.50400001928E-02 0. -1.
</event>
<event>
 5   0  0.7583716E-06  0.1699577E+04  0.7818609E-02  0.8761605E-01
        1   -1    0    0  501    0  0.00000000000E+00  0.00000000000E+00  0.18435781554E+04  0.18435781554E+04  0.50400001928E-02 0. -1.
       -1   -1    0    0    0  501  0.00000000000E+00  0.00000000000E+00 -0.39170613649E+03  0.39170613652E+03  0.50400001928E-02 0.  1.
    10030    2    1    2    0    0  0.00000000000E+00  0.00000000000E+00  0.14518720189E+04  0.22352842919E+04  0.16995774494E+04 0.  0.
        5    1    3    3  502    0 -0.80020995156E+03  0.16774489755E+03  0.10305531121E+04  0.13154984318E+04  0.46999998093E+01 0. -1.
       -5    1    3    3    0  502  0.80020995156E+03 -0.16774489755E+03  0.42131890678E+03  0.91978586010E+03  0.46999998093E+01 0.  1.
</event>
<event>
 5   0  0.7476457E-06  0.1699307E+04  0.7818609E-02  0.8761760E-01
       -1   -1    0    0    0  501  0.00000000000E+00  0.00000000000E+00  0.63152554367E+03  0.63152554369E+03  0.50400001928E-02 0.  1.
        1   -1    0    0  501    0  0.00000000000E+00  0.00000000000E+00 -0.11431226097E+04  0.11431226098E+04  0.50400001928E-02 0. -1.
    10030    2    1    2    0    0  0.00000000000E+00  0.00000000000E+00 -0.51159706607E+03  0.17746481534E+04  0.16993070678E+04 0.  0.
        2    1    3    3  502    0  0.70563641764E+03  0.27763752002E+03 -0.65607480041E+03  0.10027160566E+04  0.25500000920E-02 0. -1.
       -2    1    3    3    0  502 -0.70563641764E+03 -0.27763752002E+03  0.14447773435E+03  0.77193209685E+03  0.25500000920E-02 0.  1.
</event>
<event>
 5   0  0.7476457E-06  0.1700635E+04  0.7818609E-02  0.8761002E-01
        1   -1    0    0  501    0  0.00000000000E+00  0.00000000000E+00  0.11874691761E+04  0.11874691761E+04  0.50400001928E-02 0.  1.
       -1   -1    0    0    0  501  0.00000000000E+00  0.00000000000E+00 -0.60889119792E+03  0.60889119794E+03  0.50400001928E-02 0. -1.
    10030    2    1    2    0    0  0.00000000000E+00  0.00000000000E+00  0.57857797818E+03  0.17963603740E+04  0.17006346217E+04 0.  0.
        2    1    3    3  502    0  0.82615325257E+03 -0.19618239286E+03  0.33679614652E+03  0.91348145702E+03  0.25500000920E-02 0.  1.
       -2    1    3    3    0  502 -0.82615325257E+03  0.19618239286E+03  0.24178183166E+03  0.88287891702E+03  0.25500000920E-02 0. -1.
</event>
<event>
 5   0  0.7583716E-06  0.1701268E+04  0.7818609E-02  0.8760641E-01
       -1   -1    0    0    0  501  0.00000000000E+00  0.00000000000E+00  0.94044755810E+03  0.94044755811E+03  0.50400001928E-02 0. -1.
        1   -1    0    0  501    0  0.00000000000E+00  0.00000000000E+00 -0.76939802809E+03  0.76939802811E+03  0.50400001928E-02 0.  1.
    10030    2    1    2    0    0  0.00000000000E+00  0.00000000000E+00  0.17104953000E+03  0.17098455862E+04  0.17012683466E+04 0.  0.
        5    1    3    3  502    0 -0.23654555269E+01  0.84598819588E+03  0.17459881273E+03  0.86383358255E+03  0.46999998093E+01 0. -1.
       -5    1    3    3    0  502  0.23654555269E+01 -0.84598819588E+03 -0.35492827281E+01  0.84601200367E+03  0.46999998093E+01 0.  1.
</event>
<event>
 5   0  0.7583716E-06  0.1699463E+04  0.7818609E-02  0.8761671E-01
        1   -1    0    0  501    0  0.00000000000E+00  0.00000000000E+00  0.72234412247E+03  0.72234412249E+03  0.50400001928E-02 0. -1.
       -1   -1    0    0    0  501  0.00000000000E+00  0.00000000000E+00 -0.99958413782E+03  0.99958413783E+03  0.50400001928E-02 0.  1.
    10030    2    1    2    0    0  0.00000000000E+00  0.00000000000E+00 -0.27724001535E+03  0.17219282603E+04  0.16994631233E+04 0.  0.
        5    1    3    3  502    0  0.75276888102E+03  0.39355126222E+03 -0.11646656728E+03  0.85739730320E+03  0.46999998093E+01 0.  1.
       -5    1    3    3    0  502 -0.75276888102E+03 -0.39355126222E+03 -0.16077344807E+03  0.86453095713E+03  0.46999998093E+01 0. -1.
</event>
<event>
 5   0  0.7476457E-06  0.1699434E+04  0.7818609E-02  0.8761687E-01
       -1   -1    0    0    0  501  0.00000000000E+00  0.00000000000E+00  0.40986743807E+03  0.40986743810E+03  0.50400001928E-02 0.  1.
        1   -1    0    0  501    0  0.00000000000E+00  0.00000000000E+00 -0.17615917166E+04  0.17615917166E+04  0.50400001928E-02 0. -1.
    10030    2    1    2    0    0  0.00000000000E+00  0.00000000000E+00 -0.13517242786E+04  0.21714591548E+04  0.16994341221E+04 0.  0.
        2    1    3    3  502    0  0.51966624311E+03  0.37500020137E+03  0.37098310626E+02  0.64191466716E+03  0.25500000920E-02 0.  1.
       -2    1    3    3    0  502 -0.51966624311E+03 -0.37500020137E+03 -0.13888225892E+04  0.15295444876E+04  0.25500000920E-02 0. -1.
</event>
<event>
 5   0  0.7476457E-06  0.1700313E+04  0.7818609E-02  0.8761186E-01
        1   -1    0    0  501    0  0.00000000000E+00  0.00000000000E+00  0.65615585811E+03  0.65615585813E+03  0.50400001928E-02 0. -1.
       -1   -1    0    0    0  501  0.00000000000E+00  0.00000000000E+00 -0.11015154800E+04  0.11015154800E+04  0.50400001928E-02 0.  1.
    10030    2    1    2    0    0  0.00000000000E+00  0.00000000000E+00 -0.44535962188E+03  0.17576713381E+04  0.17003127183E+04 0.  0.
        2    1    3    3  502    0 -0.62400456220E+03 -0.20007716999E+03  0.33721227968E+03  0.73696993777E+03  0.25500000920E-02 0. -1.
       -2    1    3    3    0  502  0.62400456220E+03  0.20007716999E+03 -0.78257190157E+03  0.10207014004E+04  0.25500000920E-02 0.  1.
</event>
<event>
 5   0  0.5229750E-06  0.1697328E+04  0.7818609E-02  0.8762890E-01
       -4   -1    0    0    0  501  0.00000000000E+00  0.00000000000E+00  0.54326829273E+03  0.54326977717E+03  0.12699999809E+01 0. -1.
        4   -1    0    0  501    0  0.00000000000E+00  0.00000000000E+00 -0.13257330884E+04  0.13257336967E+04  0.12699999809E+01 0.  1.
    10030    2    1    2    0    0  0.00000000000E+00  0.00000000000E+00 -0.78246479565E+03  0.18690034739E+04  0.16973281441E+04 0.  0.
        1    1    3    3  502    0 -0.41570914661E+03 -0.23606974001E+03  0.38089500163E+03  0.61124791944E+03  0.50400001928E-02 0. -1.
       -1    1    3    3    0  502  0.41570914661E+03  0.23606974001E+03 -0.11633597973E+04  0.12577555544E+04  0.50400001928E-02 0.  1.
</event>
<event>
 5   0  0.1374441E-05  0.1700176E+04  0.7818609E-02  0.8761264E-01
       -2   -1    0    0    0  501  0.00000000000E+00  0.00000000000E+00  0.61730824356E+03  0.61730824356E+03  0.25500000920E-02 0.  1.
        2   -1    0    0  501    0  0.00000000000E+00  0.00000000000E+00 -0.11706457313E+04  0.11706457313E+04  0.25500000920E-02 0. -1.
    10030    2    1    2    0    0  0.00000000000E+00  0.00000000000E+00 -0.55333748775E+03  0.17879539749E+04  0.17001755912E+04 0.  0.
        1    1    3    3  502    0  0.58099608521E+02 -0.74549343632E+03  0.14857605428E+03  0.76237187254E+03  0.50400001928E-02 0.  1.
       -1    1    3    3    0  502 -0.58099608521E+02  0.74549343632E+03 -0.70191354203E+03  0.10255821023E+04  0.50400001928E-02 0. -1.
</event>
<event>
 5   0  0.7583716E-06  0.1699814E+04  0.7818609E-02  0.8761470E-01
        1   -1    0    0  501    0  0.00000000000E+00  0.00000000000E+00  0.13415613692E+04  0.13415613692E+04  0.50400001928E-02 0. -1.
       -1   -1    0    0    0  501  0.00000000000E+00  0.00000000000E+00 -0.53843397798E+03  0.53843397801E+03  0.50400001928E-02 0.  1.
    10030    2    1    2    0    0  0.00000000000E+00  0.00000000000E+00  0.80312739119E+03  0.18799953472E+04  0.16998143719E+04 0.  0.
        5    1    3    3  502    0  0.38835090841E+03 -0.45667419394E+03 -0.26475209611E+03  0.65534991407E+03  0.46999998093E+01 0.  1.
       -5    1    3    3    0  502 -0.38835090841E+03  0.45667419394E+03  0.10678794873E+04  0.12246454331E+04  0.46999998093E+01 0. -1.
</event>
<event>
 5   0  0.7476457E-06  0.1699127E+04  0.7818609E-02  0.8761862E-01
        1   -1    0    0  501    0  0.00000000000E+00  0.00000000000E+00  0.83041921758E+03  0.83041921760E+03  0.50400001928E-02 0.  1.
       -1   -1    0    0    0  501  0.00000000000E+00  0.00000000000E+00 -0.86914906267E+03  0.86914906268E+03  0.50400001928E-02 0. -1.
    10030    2    1    2    0    0  0.00000000000E+00  0.00000000000E+00 -0.38729845082E+02  0.16995682803E+04  0.16991269342E+04 0.  0.
        2    1    3    3  502    0 -0.62391707808E+03  0.53051116558E+03 -0.24535162100E+03  0.85493393608E+03  0.25500000920E-02 0.  1.
       -2    1    3    3    0  502  0.62391707808E+03 -0.53051116558E+03  0.20662177592E+03  0.84463434420E+03  0.25500000920E-02 0. -1.
</event>
<event>
 5   0  0.7082527E-06  0.1691952E+04  0.7818609E-02  0.8765968E-01
       -1   -1    0    0    0  501  0.00000000000E+00  0.00000000000E+00  0.87636344256E+03  0.87636344258E+03  0.50400001928E-02 0. -1.
        1   -1    0    0  501    0  0.00000000000E+00  0.00000000000E+00 -0.81664233333E+03  0.81664233335E+03  0.50400001928E-02 0.  1.
    10030    2    1    2    0    0  0.00000000000E+00  0.00000000000E+00  0.59721109232E+02  0.16930057759E+04  0.16919521112E+04 0.  0.
        1    1    3    3  502    0 -0.32205481930E+02 -0.58732974591E+02  0.87370579750E+03  0.87626969363E+03  0.50400001928E-02 0. -1.
       -1    1    3    3    0  502  0.32205481930E+02  0.58732974591E+02 -0.81398468826E+03  0.81673608230E+03  0.50400001928E-02 0.  1.
</event>
<event>
 5   0  0.1441756E-05  0.1699867E+04  0.7818609E-02  0.8761440E-01
        2   -1    0    0  501    0  0.00000000000E+00  0.00000000000E+00  0.22722517849E+04  0.22722517849E+04  0.25500000920E-02 0. -1.
       -2   -1    0    0    0  501  0.00000000000E+00  0.00000000000E+00 -0.31791692281E+03  0.31791692282E+03  0.25500000920E-02 0.  1.
    10030    2    1    2    0    0  0.00000000000E+00  0.00000000000E+00  0.19543348621E+04  0.25901687077E+04  0.16998674011E+04 0.  0.
        5    1    3    3  502    0 -0.43178761954E+03 -0.71706562799E+03  0.12018442049E+04  0.14646075400E+04  0.46999998093E+01 0. -1.
       -5    1    3    3    0  502  0.43178761954E+03  0.71706562799E+03  0.75249065717E+03  0.11255611678E+04  0.46999998093E+01 0.  1.
</event>
<event>
 5   0  0.1441756E-05  0.1699941E+04  0.7818609E-02  0.8761398E-01
       -2   -1    0    0    0  501  0.00000000000E+00  0.00000000000E+00  0.64252600128E+03  0.64252600129E+03  0.25500000920E-02 0. -1.
        2   -1    0    0  501    0  0.00000000000E+00  0.00000000000E+00 -0.11243905756E+04  0.11243905756E+04  0.25500000920E-02 0.  1.
    10030    2    1    2    0    0  0.00000000000E+00  0.00000000000E+00 -0.48186457436E+03  0.17669165769E+04  0.16999413878E+04 0.  0.
        5    1    3    3  502    0  0.23610051353E+03  0.56631531748E+03 -0.85229975059E+03  0.10501873386E+04  0.46999998093E+01 0.  1.
       -5    1    3    3    0  502 -0.23610051353E+03 -0.56631531748E+03  0.37043517622E+03  0.71672923834E+03  0.46999998093E+01 0. -1.
</event>
<event>
 5   0  0.1419012E-05  0.1699752E+04  0.7818609E-02  0.8761506E-01
        2   -1    0    0  501    0  0.00000000000E+00  0.00000000000E+00  0.89104559922E+03  0.89104559922E+03  0.25500000920E-02 0. -1.
       -2   -1    0    0    0  501  0.00000000000E+00  0.00000000000E+00 -0.81060853469E+03  0.81060853469E+03  0.25500000920E-02 0.  1.
    10030    2    1    2    0    0  0.00000000000E+00  0.00000000000E+00  0.80437064530E+02  0.17016541339E+04  0.16997519437E+04 0.  0.
        4    1    3    3  502    0  0.52370078237E+02 -0.13917214797E+03  0.87792018075E+03  0.89042516166E+03  0.12699999809E+01 0. -1.
       -4    1    3    3    0  502 -0.52370078237E+02  0.13917214797E+03 -0.79748311622E+03  0.81122897225E+03  0.12699999809E+01 0.  1.
</event>
<event>
 5   0  0.7583716E-06  0.1700994E+04  0.7818609E-02  0.8760798E-01
       -1   -1    0    0    0  501  0.00000000000E+00  0.00000000000E+00  0.46456208324E+03  0.46456208327E+03  0.50400001928E-02 0.  1.
        1   -1    0    0  501    0  0.00000000000E+00  0.00000000000E+00 -0.15570476238E+04  0.15570476238E+04  0.50400001928E-02 0. -1.
    10030    2    1    2    0    0  0.00000000000E+00  0.00000000000E+00 -0.10924855405E+04  0.20216097070E+04  0.17009941656E+04 0.  0.
        5    1    3    3  502    0 -0.35702875802E+02  0.83702923905E+03 -0.37225801190E+03  0.91678283131E+03  0.46999998093E+01 0.  1.
       -5    1    3    3    0  502  0.35702875802E+02 -0.83702923905E+03 -0.72022752860E+03  0.11048268757E+04  0.46999998093E+01 0. -1.
</event>
<event>
 5   0  0.1435301E-05  0.1698096E+04  0.7818609E-02  0.8762451E-01
        2   -1    0    0  501    0  0.00000000000E+00  0.00000000000E+00  0.12591418521E+04  0.12591418521E+04  0.25500000920E-02 0.  1.
       -2   -1    0    0    0  501  0.00000000000E+00  0.00000000000E+00 -0.57251896239E+03  0.57251896239E+03  0.25500000920E-02 0. -1.
    10030    2    1    2    0    0  0.00000000000E+00  0.00000000000E+00  0.68662288968E+03  0.18316608145E+04  0.16980960946E+04 0.  0.
        2    1    3    3  502    0 -0.22503860662E+03  0.81729054687E+03  0.39477557256E+03  0.93512243325E+03  0.25500000920E-02 0.  1.
       -2    1    3    3    0  502  0.22503860662E+03 -0.81729054687E+03  0.29184731711E+03  0.89653838121E+03  0.25500000920E-02 0. -1.
</event>
<event>
 5   0  0.7476457E-06  0.1699430E+04  0.7818609E-02  0.8761690E-01
        1   -1    0    0  501    0  0.00000000000E+00  0.00000000000E+00  0.15552382425E+04  0.15552382425E+04  0.50400001928E-02 0.  1.
       -1   -1    0    0    0  501  0.00000000000E+00  0.00000000000E+00 -0.46424755638E+03  0.46424755641E+03  0.50400001928E-02 0. -1.
    10030    2    1    2    0    0  0.00000000000E+00  0.00000000000E+00  0.10909906861E+04  0.20194857989E+04  0.16994299676E+04 0.  0.
        2    1    3    3  502    0 -0.56156649259E+03  0.54579159383E+03  0.93741082807E+03  0.12214681535E+04  0.25500000920E-02 0.  1.
       -2    1    3    3    0  502  0.56156649259E+03 -0.54579159383E+03  0.15357985801E+03  0.79801764535E+03  0.25500000920E-02 0. -1.
</event>
<event>
 5   0  0.1435301E-05  0.1694863E+04  0.7818609E-02  0.8764300E-01
       -2   -1    0    0    0  501  0.00000000000E+00  0.00000000000E+00  0.42017596546E+03  0.42017596547E+03  0.25500000920E-02 0. -1.
        2   -1    0    0  501    0  0.00000000000E+00  0.00000000000E+00 -0.17091409147E+04  0.17091409147E+04  0.25500000920E-02 0.  1.
    10030    2    1    2    0    0  0.00000000000E+00  0.00000000000E+00 -0.12889649492E+04  0.21293168802E+04  0.16948627484E+04 0.  0.
        2    1    3    3  502    0  0.29703706153E+03  0.52422008400E+03  0.10417378004E+03  0.61146536194E+03  0.25500000920E-02 0. -1.
       -2    1    3    3    0  502 -0.29703706153E+03 -0.52422008400E+03 -0.13931387293E+04  0.15178515182E+04  0.25500000920E-02 0.  1.
</event>
<event>
 5   0  0.7583716E-06  0.1699359E+04  0.7818609E-02  0.8761730E-01
       -1   -1    0    0    0  501  0.00000000000E+00  0.00000000000E+00  0.67022400023E+03  0.67022400025E+03  0.50400001928E-02 0. -1.
        1   -1    0    0  501    0  0.00000000000E+00  0.00000000000E+00 -0.10771854013E+04  0.10771854013E+04  0.50400001928E-02 0.  1.
    10030    2    1    2    0    0  0.00000000000E+00  0.00000000000E+00 -0.40696140108E+03  0.17474094016E+04  0.16993593012E+04 0.  0.
        5    1    3    3  502    0  0.35977233647E+03  0.58466054439E+03  0.31134480818E+03  0.75380485925E+03  0.46999998093E+01 0. -1.
       -5    1    3    3    0  502 -0.35977233647E+03 -0.58466054439E+03 -0.71830620926E+03  0.99360454231E+03  0.46999998093E+01 0.  1.
</event>
<event>
 5   0  0.1419012E-05  0.1703429E+04  0.7818609E-02  0.8759411E-01
       -2   -1    0    0    0  501  0.00000000000E+00  0.00000000000E+00  0.74601432067E+03  0.74601432068E+03  0.25500000920E-02 0. -1.
        2   -1    0    0  501    0  0.00000000000E+00  0.00000000000E+00 -0.97239093909E+03  0.97239093910E+03  0.25500000920E-02 0.  1.
    10030    2    1    2    0    0  0.00000000000E+00  0.00000000000E+00 -0.22637661842E+03  0.17184052598E+04  0.17034289722E+04 0.  0.
        4    1    3    3  502    0 -0.20022289897E+03 -0.26479614445E+03  0.67806067787E+03  0.75496629273E+03  0.12699999809E+01 0. -1.
       -4    1    3    3    0  502  0.20022289897E+03  0.26479614445E+03 -0.90443729629E+03  0.96343896704E+03  0.12699999809E+01 0.  1.
</event>
<event>
 5   0  0.7082527E-06  0.1698592E+04  0.7818609E-02  0.8762168E-01
        1   -1    0    0  501    0  0.00000000000E+00  0.00000000000E+00  0.18905419815E+04  0.18905419815E+04  0.50400001928E-02 0. -1.
       -1   -1    0    0    0  501  0.00000000000E+00  0.00000000000E+00 -0.38153263051E+03  0.38153263054E+03  0.50400001928E-02 0.  1.
    10030    2    1    2    0    0  0.00000000000E+00  0.00000000000E+00  0.15090093510E+04  0.22720746120E+04  0.16985917171E+04 0.  0.
        1    1    3    3  502    0 -0.21896315029E+03 -0.81334942150E+03  0.60907051142E+03  0.10394465020E+04  0.50400001928E-02 0. -1.
       -1    1    3    3    0  502  0.21896315029E+03  0.81334942150E+03  0.89993883955E+03  0.12326281100E+04  0.50400001928E-02 0.  1.
</event>
<event>
 5   0  0.7583716E-06  0.1697700E+04  0.7818609E-02  0.8762677E-01
       -1   -1    0    0    0  501  0.00000000000E+00  0.00000000000E+00  0.10542572636E+04  0.10542572636E+04  0.50400001928E-02 0.  1.
        1   -1    0    0  501    0  0.00000000000E+00  0.00000000000E+00 -0.68346369600E+03  0.68346369602E+03  0.50400001928E-02 0. -1.
    10030    2    1    2    0    0  0.00000000000E+00  0.00000000000E+00  0.37079356756E+03  0.17377209596E+04  0.16977002868E+04 0.  0.
        5    1    3    3  502    0  0.77195693698E+02  0.66716556659E+03 -0.34593093017E+03  0.75548617910E+03  0.46999998093E+01 0. -1.
       -5    1    3    3    0  502 -0.77195693698E+02 -0.66716556659E+03  0.71672449773E+03  0.98223478050E+03  0.46999998093E+01 0.  1.
</event>
<event>
 5   0  0.7082527E-06  0.1698936E+04  0.7818609E-02  0.8761971E-01
        1   -1    0    0  501    0  0.00000000000E+00  0.00000000000E+00  0.83086291688E+03  0.83086291690E+03  0.50400001928E-02 0. -1.
       -1   -1    0    0    0  501  0.00000000000E+00  0.00000000000E+00 -0.86848983948E+03  0.86848983949E+03  0.50400001928E-02 0.  1.
    10030    2    1    2    0    0  0.00000000000E+00  0.00000000000E+00 -0.37626922594E+02  0.16993527564E+04  0.16989361393E+04 0.  0.
        1    1    3    3  502    0 -0.85747514830E+02 -0.36036449896E+03  0.74582202997E+03  0.83274588490E+03  0.50400001928E-02 0. -1.
       -1    1    3    3    0  502  0.85747514830E+02  0.36036449896E+03 -0.78344895256E+03  0.86660687149E+03  0.50400001928E-02 0.  1.
</event>
<event>
 5   0  0.1435301E-05  0.1700464E+04  0.7818609E-02  0.8761100E-01
        2   -1    0    0  501    0  0.00000000000E+00  0.00000000000E+00  0.20663340315E+04  0.20663340315E+04  0.25500000920E-02 0.  1.
       -2   -1    0    0    0  501  0.00000000000E+00  0.00000000000E+00 -0.34984412075E+03  0.34984412076E+03  0.25500000920E-02 0. -1.
    10030    2    1    2    0    0  0.00000000000E+00  0.00000000000E+00  0.17164899108E+04  0.24161781523E+04  0.17004644218E+04 0.  0.
        2    1    3    3  502    0  0.67739628046E+03  0.18920913217E+02  0.12863179145E+03  0.68976072627E+03  0.25500000920E-02 0. -1.
       -2    1    3    3    0  502 -0.67739628046E+03 -0.18920913217E+02  0.15878581193E+04  0.17264174260E+04  0.25500000920E-02 0.  1.
</event>
<event>
 5   0  0.1423543E-05  0.1701077E+04  0.7818609E-02  0.8760750E-01
        2   -1    0    0  501    0  0.00000000000E+00  0.00000000000E+00  0.21977836483E+04  0.21977836483E+04  0.25500000920E-02 0.  1.
       -2   -1    0    0    0  501  0.00000000000E+00  0.00000000000E+00 -0.32915705939E+03  0.32915705940E+03  0.25500000920E-02 0. -1.
    10030    2    1    2    0    0  0.00000000000E+00  0.00000000000E+00  0.18686265889E+04  0.25269407077E+04  0.17010773091E+04 0.  0.
        3    1    3    3  502    0 -0.25779941243E+03 -0.43387193553E+03  0.19513189956E+04  0.20155275305E+04  0.10100000352E+00 0.  1.
       -3    1    3    3    0  502  0.25779941243E+03  0.43387193553E+03 -0.82692406680E+02  0.51141317720E+03  0.10100000352E+00 0. -1.
</event>
<event>
 5   0  0.7583716E-06  0.1700450E+04  0.7818609E-02  0.8761108E-01
        1   -1    0    0  501    0  0.00000000000E+00  0.00000000000E+00  0.15400588183E+04  0.15400588183E+04  0.50400001928E-02 0.  1.
       -1   -1    0    0    0  501  0.00000000000E+00  0.00000000000E+00 -0.46938610136E+03  0.46938610139E+03  0.50400001928E-02 0. -1.
    10030    2    1    2    0    0  0.00000000000E+00  0.00000000000E+00  0.10706727169E+04  0.20094449197E+04  0.17004495931E+04 0.  0.
        5    1    3    3  502    0  0.41475769420E+03 -0.58549585053E+03  0.10743206912E+04  0.12919041657E+04  0.46999998093E+01 0.  1.
       -5    1    3    3    0  502 -0.41475769420E+03  0.58549585053E+03 -0.36479742727E+01  0.71754075396E+03  0.46999998093E+01 0. -1.
</event>
<event>
 5   0  0.1441756E-05  0.1699627E+04  0.7818609E-02  0.8761577E-01
       -2   -1    0    0    0  501  0.00000000000E+00  0.00000000000E+00  0.74478669385E+03  0.74478669385E+03  0.25500000920E-02 0. -1.
        2   -1    0    0  501    0  0.00000000000E+00  0.00000000000E+00 -0.96965122051E+03  0.96965122051E+03  0.25500000920E-02 0.  1.
    10030    2    1    2    0    0  0.00000000000E+00  0.00000000000E+00 -0.22486452666E+03  0.17144379144E+04  0.16996274024E+04 0.  0.
        5    1    3    3  502    0 -0.28875601762E+02 -0.34517294063E+03 -0.89519890843E+03  0.95988610521E+03  0.46999998093E+01 0.  1.
       -5    1    3    3    0  502  0.28875601762E+02  0.34517294063E+03  0.67033438177E+03  0.75455180916E+03  0.46999998093E+01 0. -1.
</event>
<event>
 5   0  0.1441756E-05  0.1700037E+04  0.7818609E-02  0.8761343E-01
       -2   -1    0    0    0  501  0.00000000000E+00  0.00000000000E+00  0.76672761768E+03  0.76672761768E+03  0.25500000920E-02 0.  1.
        2   -1    0    0  501    0  0.00000000000E+00  0.00000000000E+00 -0.94235695129E+03  0.94235695129E+03  0.25500000920E-02 0. -1.
    10030    2    1    2    0    0  0.00000000000E+00  0.00000000000E+00 -0.17562933361E+03  0.17090845690E+04  0.17000365882E+04 0.  0.
        5    1    3    3  502    0 -0.24895273105E+03  0.33455823033E+03  0.65680433023E+03  0.77802357932E+03  0.46999998093E+01 0.  1.
       -5    1    3    3    0  502  0.24895273105E+03 -0.33455823033E+03 -0.83243366383E+03  0.93106098965E+03  0.46999998093E+01 0. -1.
</event>
<event>
 5   0  0.1441756E-05  0.1701202E+04  0.7818609E-02  0.8760679E-01
        2   -1    0    0  501    0  0.00000000000E+00  0.00000000000E+00  0.23892498185E+04  0.23892498185E+04  0.25500000920E-02 0.  1.
       -2   -1    0    0    0  501  0.00000000000E+00  0.00000000000E+00 -0.30282386484E+03  0.30282386485E+03  0.25500000920E-02 0. -1.
    10030    2    1    2    0    0  0.00000000000E+00  0.00000000000E+00  0.20864259536E+04  0.26920736833E+04  0.17012017683E+04 0.  0.
        5    1    3    3  502    0  0.10986642516E+03  0.68890626260E+03  0.27309693231E+03  0.74917721165E+03  0.46999998093E+01 0. -1.
       -5    1    3    3    0  502 -0.10986642516E+03 -0.68890626260E+03  0.18133290213E+04  0.19428964717E+04  0.46999998093E+01 0.  1.
</event>
<event>
 5   0  0.7082527E-06  0.1699775E+04  0.7818609E-02  0.8761493E-01
        1   -1    0    0  501    0  0.00000000000E+00  0.00000000000E+00  0.96580673404E+03  0.96580673405E+03  0.50400001928E-02 0. -1.
       -1   -1    0    0    0  501  0.00000000000E+00  0.00000000000E+00 -0.74788086794E+03  0.74788086796E+03  0.50400001928E-02 0.  1.
    10030    2    1    2    0    0  0.00000000000E+00  0.00000000000E+00  0.21792586609E+03  0.17136876020E+04  0.16997745480E+04 0.  0.
        1    1    3    3  502    0  0.55366096565E+03  0.29767382443E+03  0.68562215687E+03  0.93017628042E+03  0.50400001928E-02 0. -1.
       -1    1    3    3    0  502 -0.55366096565E+03 -0.29767382443E+03 -0.46769629078E+03  0.78351132159E+03  0.50400001928E-02 0.  1.
</event>
<event>
 5   0  0.1419012E-05  0.1699981E+04  0.7818609E-02  0.8761375E-01
        2   -1    0    0  501    0  0.00000000000E+00  0.00000000000E+00  0.37902493535E+03  0.37902493536E+03  0.25500000920E-02 0.  1.
       -2   -1    0    0    0  501  0.00000000000E+00  0.00000000000E+00 -0.19061654889E+04  0.19061654889E+04  0.25500000920E-02 0. -1.
    10030    2    1    2    0    0  0.00000000000E+00  0.00000000000E+00 -0.15271405536E+04  0.22851904243E+04  0.16999814719E+04 0.  0.
        4    1    3    3  502    0  0.45233209316E+03 -0.60217468654E+03 -0.23389031856E+03  0.78862219701E+03  0.12699999809E+01 0.  1.
       -4    1    3    3    0  502 -0.45233209316E+03  0.60217468654E+03 -0.12932502350E+04  0.14965682273E+04  0.12699999809E+01 0. -1.
</event>
<event>
 5   0  0.7082527E-06  0.1701016E+04  0.7818609E-02  0.8760785E-01
        1   -1    0    0  501    0  0.00000000000E+00  0.00000000000E+00  0.21136233499E+04  0.21136233499E+04  0.50400001928E-02 0. -1.
       -1   -1    0    0    0  501  0.00000000000E+00  0.00000000000E+00 -0.34223874168E+03  0.34223874172E+03  0.50400001928E-02 0.  1.
    10030    2    1    2    0    0  0.00000000000E+00  0.00000000000E+00  0.17713846082E+04  0.24558620916E+04  0.17010159267E+04 0.  0.
        1    1    3    3  502    0 -0.20638927247E+03 -0.16284178418E+03 -0.28210481755E+03  0.38561263799E+03  0.50400001928E-02 0.  1.
       -1    1    3    3    0  502  0.20638927247E+03  0.16284178418E+03  0.20534894257E+04  0.20702494536E+04  0.50400001928E-02 0. -1.
</event>
<event>
 5   0  0.7082527E-06  0.1700029E+04  0.7818609E-02  0.8761348E-01
        1   -1    0    0  501    0  0.00000000000E+00  0.00000000000E+00  0.12950768628E+04  0.12950768628E+04  0.50400001928E-02 0. -1.
       -1   -1    0    0    0  501  0.00000000000E+00  0.00000000000E+00 -0.55790095606E+03  0.55790095609E+03  0.50400001928E-02 0.  1.
    10030    2    1    2    0    0  0.00000000000E+00  0.00000000000E+00  0.73717590675E+03  0.18529778189E+04  0.17000289644E+04 0.  0.
        1    1    3    3  502    0  0.43902172551E+03 -0.50658872377E+03  0.93824886127E+03  0.11531188734E+04  0.50400001928E-02 0. -1.
       -1    1    3    3    0  502 -0.43902172551E+03  0.50658872377E+03 -0.20107295452E+03  0.69985894550E+03  0.50400001928E-02 0.  1.
</event>
<event>
 5   0  0.7476457E-06  0.1700709E+04  0.7818609E-02  0.8760960E-01
        1   -1    0    0  501    0  0.00000000000E+00  0.00000000000E+00  0.11052978151E+04  0.11052978151E+04  0.50400001928E-02 0.  1.
       -1   -1    0    0    0  501  0.00000000000E+00  0.00000000000E+00 -0.65421551457E+03  0.65421551459E+03  0.50400001928E-02 0. -1.
    10030    2    1    2    0    0  0.00000000000E+00  0.00000000000E+00  0.45108230049E+03  0.17595133297E+04  0.17007092389E+04 0.  0.
        2    1    3    3  502    0 -0.26004563915E+03  0.25749136248E+03 -0.56857777442E+03  0.67617026093E+03  0.25500000920E-02 0. -1.
       -2    1    3    3    0  502  0.26004563915E+03 -0.25749136248E+03  0.10196600749E+04  0.10833430687E+04  0.25500000920E-02 0.  1.
</event>
<event>
 5   0  0.1419012E-05  0.1700544E+04  0.7818609E-02  0.8761054E-01
        2   -1    0    0  501    0  0.00000000000E+00  0.00000000000E+00  0.47081475665E+03  0.47081475666E+03  0.25500000920E-02 0. -1.
       -2   -1    0    0    0  501  0.00000000000E+00  0.00000000000E+00 -0.15355569922E+04  0.15355569922E+04  0.25500000920E-02 0.  1.
    10030    2    1    2    0    0  0.00000000000E+00  0.00000000000E+00 -0.10647422355E+04  0.20063717488E+04  0.17005444912E+04 0.  0.
        4    1    3    3  502    0 -0.65889659767E+03 -0.99355098882E+02 -0.11555070380E+04  0.13338719166E+04  0.12699999809E+01 0.  1.
       -4    1    3    3    0  502  0.65889659767E+03  0.99355098882E+02  0.90764802479E+02  0.67249983224E+03  0.12699999809E+01 0. -1.
</event>
<event>
 5   0  0.7455669E-06  0.1699961E+04  0.7818609E-02  0.8761386E-01
        1   -1    0    0  501    0  0.00000000000E+00  0.00000000000E+00  0.60983283135E+03  0.60983283137E+03  0.50400001928E-02 0. -1.
       -1   -1    0    0    0  501  0.00000000000E+00  0.00000000000E+00 -0.11846969959E+04  0.11846969959E+04  0.50400001928E-02 0.  1.
    10030    2    1    2    0    0  0.00000000000E+00  0.00000000000E+00 -0.57486416453E+03  0.17945298273E+04  0.16999613211E+04 0.  0.
        4    1    3    3  502    0 -0.61904562943E+03  0.51570227661E+03 -0.57323140954E+03  0.98881858356E+03  0.12699999809E+01 0.  1.
       -4    1    3    3    0  502  0.61904562943E+03 -0.51570227661E+03 -0.16327549823E+01  0.80571124369E+03  0.12699999809E+01 0. -1.
</event>
<event>
 5   0  0.7461128E-06  0.1700285E+04  0.7818609E-02  0.8761202E-01
       -1   -1    0    0    0  501  0.00000000000E+00  0.00000000000E+00  0.42494907921E+03  0.42494907924E+03  0.50400001928E-02 0. -1.
        1   -1    0    0  501    0  0.00000000000E+00  0.00000000000E+00 -0.17007732847E+04  0.17007732847E+04  0.50400001928E-02 0.  1.
    10030    2    1    2    0    0  0.00000000000E+00  0.00000000000E+00 -0.12758242055E+04  0.21257223640E+04  0.17002847307E+04 0.  0.
        3    1    3    3  502    0 -0.41580575214E+03 -0.31883655824E+03 -0.14748946135E+04  0.15652045570E+04  0.10100000352E+00 0.  1.
       -3    1    3    3    0  502  0.41580575214E+03  0.31883655824E+03  0.19907040792E+03  0.56051780694E+03  0.10100000352E+00 0. -1.
</event>
<event>
 5   0  0.1374441E-05  0.1700108E+04  0.7818609E-02  0.8761303E-01
       -2   -1    0    0    0  501  0.00000000000E+00  0.00000000000E+00  0.42653188596E+03  0.42653188596E+03  0.25500000920E-02 0.  1.
        2   -1    0    0  501    0  0.00000000000E+00  0.00000000000E+00 -0.16941099982E+04  0.16941099982E+04  0.25500000920E-02 0. -1.
    10030    2    1    2    0    0  0.00000000000E+00  0.00000000000E+00 -0.12675781123E+04  0.21206418842E+04  0.17001081525E+04 0.  0.
        1    1    3    3  502    0  0.11160389376E+03 -0.90464113468E+02  0.41127936296E+03  0.43564882572E+03  0.50400001928E-02 0.  1.
       -1    1    3    3    0  502 -0.11160389376E+03  0.90464113468E+02 -0.16788574752E+04  0.16849930585E+04  0.50400001928E-02 0. -1.
</event>
<event>
 5   0  0.1441756E-05  0.1700229E+04  0.7818609E-02  0.8761233E-01
        2   -1    0    0  501    0  0.00000000000E+00  0.00000000000E+00  0.13937533423E+04  0.13937533423E+04  0.25500000920E-02 0. -1.
       -2   -1    0    0    0  501  0.00000000000E+00  0.00000000000E+00 -0.51852436591E+03  0.51852436591E+03  0.25500000920E-02 0.  1.
    10030    2    1    2    0    0  0.00000000000E+00  0.00000000000E+00  0.87522897639E+03  0.19122777082E+04  0.17002294763E+04 0.  0.
        5    1    3    3  502    0  0.50855341815E+03 -0.38476626546E+03 -0.19463410196E+03  0.66676546236E+03  0.46999998093E+01 0.  1.
       -5    1    3    3    0  502 -0.50855341815E+03  0.38476626546E+03  0.10698630784E+04  0.12455122459E+04  0.46999998093E+01 0. -1.
</event>
<event>
 5   0  0.7455669E-06  0.1700564E+04  0.7818609E-02  0.8761043E-01
        1   -1    0    0  501    0  0.00000000000E+00  0.00000000000E+00  0.93085927664E+03  0.93085927665E+03  0.50400001928E-02 0. -1.
       -1   -1    0    0    0  501  0.00000000000E+00  0.00000000000E+00 -0.77667929848E+03  0.77667929850E+03  0.50400001928E-02 0.  1.
    10030    2    1    2    0    0  0.00000000000E+00  0.00000000000E+00  0.15417997816E+03  0.17075385751E+04  0.17005635889E+04 0.  0.
        4    1    3    3  502    0  0.34522081033E+03 -0.75186144764E+03 -0.11994041049E+03  0.83597868352E+03  0.12699999809E+01 0.  1.
       -4    1    3    3    0  502 -0.34522081033E+03  0.75186144764E+03  0.27412038865E+03  0.87155989163E+03  0.12699999809E+01 0. -1.
</event>
<event>
 5   0  0.1419012E-05  0.1700060E+04  0.7818609E-02  0.8761330E-01
       -2   -1    0    0    0  501  0.00000000000E+00  0.00000000000E+00  0.65273377759E+03  0.65273377759E+03  0.25500000920E-02 0. -1.
        2   -1    0    0  501    0  0.00000000000E+00  0.00000000000E+00 -0.11069607719E+04  0.11069607719E+04  0.25500000920E-02 0.  1.
    10030    2    1    2    0    0  0.00000000000E+00  0.00000000000E+00 -0.45422699432E+03  0.17596945495E+04  0.17000596299E+04 0.  0.
        4    1    3    3  502    0 -0.49249442516E+03 -0.65370574613E+03 -0.46465685253E+03  0.94116394153E+03  0.12699999809E+01 0.  1.
       -4    1    3    3    0  502  0.49249442516E+03  0.65370574613E+03  0.10429858206E+02  0.81853060797E+03  0.12699999809E+01 0. -1.
</event>
<event>
 5   0  0.1435301E-05  0.1706603E+04  0.7818609E-02  0.8757607E-01
       -2   -1    0    0    0  501  0.00000000000E+00  0.00000000000E+00  0.37416167826E+03  0.37416167827E+03  0.25500000920E-02 0.  1.
        2   -1    0    0  501    0  0.00000000000E+00  0.00000000000E+00 -0.19460134759E+04  0.19460134759E+04  0.25500000920E-02 0. -1.
    10030    2    1    2    0    0  0.00000000000E+00  0.00000000000E+00 -0.15718517977E+04  0.23201751542E+04  0.17066032557E+04 0.  0.
        2    1    3    3  502    0 -0.44150436680E+03 -0.70982180516E+03 -0.10188403581E+04  0.13178804105E+04  0.25500000920E-02 0. -1.
       -2    1    3    3    0  502  0.44150436680E+03  0.70982180516E+03 -0.55301143955E+03  0.10022947437E+04  0.25500000920E-02 0.  1.
</event>
<event>
 5   0  0.7082527E-06  0.1699895E+04  0.7818609E-02  0.8761424E-01
        1   -1    0    0  501    0  0.00000000000E+00  0.00000000000E+00  0.88585467367E+03  0.88585467369E+03  0.50400001928E-02 0.  1.
       -1   -1    0    0    0  501  0.00000000000E+00  0.00000000000E+00 -0.81549590832E+03  0.81549590834E+03  0.50400001928E-02 0. -1.
    10030    2    1    2    0    0  0.00000000000E+00  0.00000000000E+00  0.70358765353E+02  0.17013505820E+04  0.16998951283E+04 0.  0.
        1    1    3    3  502    0 -0.23362745044E+03 -0.23989732810E+03 -0.74669262648E+03  0.81834124428E+03  0.50400001928E-02 0. -1.
       -1    1    3    3    0  502  0.23362745044E+03  0.23989732810E+03  0.81705139183E+03  0.88300933775E+03  0.50400001928E-02 0.  1.
</event>
<event>
 5   0  0.1435301E-05  0.1699573E+04  0.7818609E-02  0.8761608E-01
       -2   -1    0    0    0  501  0.00000000000E+00  0.00000000000E+00  0.61956919308E+03  0.61956919308E+03  0.25500000920E-02 0.  1.
        2   -1    0    0  501    0  0.00000000000E+00  0.00000000000E+00 -0.11655476324E+04  0.11655476324E+04  0.25500000920E-02 0. -1.
    10030    2    1    2    0    0  0.00000000000E+00  0.00000000000E+00 -0.54597843927E+03  0.17851168254E+04  0.16995733654E+04 0.  0.
        2    1    3    3  502    0  0.33502570426E+03 -0.40034449731E+03 -0.97727558404E+03  0.11079645781E+04  0.25500000920E-02 0. -1.
       -2    1    3    3    0  502 -0.33502570426E+03  0.40034449731E+03  0.43129714477E+03  0.67715224738E+03  0.25500000920E-02 0.  1.
</event>
<event>
 5   0  0.7476457E-06  0.1701180E+04  0.7818609E-02  0.8760692E-01
       -1   -1    0    0    0  501  0.00000000000E+00  0.00000000000E+00  0.15548218268E+04  0.15548218268E+04  0.50400001928E-02 0.  1.
        1   -1    0    0  501    0  0.00000000000E+00  0.00000000000E+00 -0.46532885165E+03  0.46532885168E+03  0.50400001928E-02 0. -1.
    10030    2    1    2    0    0  0.00000000000E+00  0.00000000000E+00  0.10894929751E+04  0.20201506785E+04  0.17011801259E+04 0.  0.
        2    1    3    3  502    0  0.41611856627E+03 -0.67950035131E+03  0.89827064910E+03  0.12007354195E+04  0.25500000920E-02 0. -1.
       -2    1    3    3    0  502 -0.41611856627E+03  0.67950035131E+03  0.19122232601E+03  0.81941525895E+03  0.25500000920E-02 0.  1.
</event>
<event>
 5   0  0.7455669E-06  0.1701052E+04  0.7818609E-02  0.8760764E-01
       -1   -1    0    0    0  501  0.00000000000E+00  0.00000000000E+00  0.92100732505E+03  0.92100732506E+03  0.50400001928E-02 0.  1.
        1   -1    0    0  501    0  0.00000000000E+00  0.00000000000E+00 -0.78543865985E+03  0.78543865986E+03  0.50400001928E-02 0. -1.
    10030    2    1    2    0    0  0.00000000000E+00  0.00000000000E+00  0.13556866520E+03  0.17064459849E+04  0.17010523321E+04 0.  0.
        4    1    3    3  502    0  0.18856501846E+03  0.26896557404E+03  0.85480610640E+03  0.91574796677E+03  0.12699999809E+01 0.  1.
       -4    1    3    3    0  502 -0.18856501846E+03 -0.26896557404E+03 -0.71923744120E+03  0.79069801816E+03  0.12699999809E+01 0. -1.
</event>
<event>
 5   0  0.1374441E-05  0.1700648E+04  0.7818609E-02  0.8760995E-01
        2   -1    0    0  501    0  0.00000000000E+00  0.00000000000E+00  0.13309416190E+04  0.13309416190E+04  0.25500000920E-02 0. -1.
       -2   -1    0    0    0  501  0.00000000000E+00  0.00000000000E+00 -0.54326294452E+03  0.54326294452E+03  0.25500000920E-02 0.  1.
    10030    2    1    2    0    0  0.00000000000E+00  0.00000000000E+00  0.78767867451E+03  0.18742045636E+04  0.17006484210E+04 0.  0.
        1    1    3    3  502    0 -0.11587849755E+03 -0.54133794705E+03  0.11051346055E+04  0.12360408955E+04  0.50400001928E-02 0. -1.
       -1    1    3    3    0  502  0.11587849755E+03  0.54133794705E+03 -0.31745593096E+03  0.63816366806E+03  0.50400001928E-02 0.  1.
</event>
<event>
 5   0  0.1435301E-05  0.1700972E+04  0.7818609E-02  0.8760810E-01
        2   -1    0    0  501    0  0.00000000000E+00  0.00000000000E+00  0.18492994706E+04  0.18492994706E+04  0.25500000920E-02 0.  1.
       -2   -1    0    0    0  501  0.00000000000E+00  0.00000000000E+00 -0.39113544883E+03  0.39113544884E+03  0.25500000920E-02 0. -1.
    10030    2    1    2    0    0  0.00000000000E+00  0.00000000000E+00  0.14581640218E+04  0.22404349195E+04  0.17009721673E+04 0.  0.
        2    1    3    3  502    0  0.23334189560E+03  0.81735833077E+03  0.69174604877E+03  0.10959177328E+04  0.25500000920E-02 0. -1.
       -2    1    3    3    0  502 -0.23334189560E+03 -0.81735833077E+03  0.76641797303E+03  0.11445171866E+04  0.25500000920E-02 0.  1.
</event>
<event>
 5   0  0.7082527E-06  0.1699995E+04  0.7818609E-02  0.8761367E-01
       -1   -1    0    0    0  501  0.00000000000E+00  0.00000000000E+00  0.99236354989E+03  0.99236354990E+03  0.50400001928E-02 0. -1.
        1   -1    0    0  501    0  0.00000000000E+00  0.00000000000E+00 -0.72805535995E+03  0.72805535997E+03  0.50400001928E-02 0.  1.
    10030    2    1    2    0    0  0.00000000000E+00  0.00000000000E+00  0.26430818994E+03  0.17204189099E+04  0.16999948253E+04 0.  0.
        1    1    3    3  502    0  0.24629138915E+03 -0.53650358872E+03 -0.48674869370E+03  0.76512733576E+03  0.50400001928E-02 0.  1.
       -1    1    3    3    0  502 -0.24629138915E+03  0.53650358872E+03  0.75105688364E+03  0.95529157411E+03  0.50400001928E-02 0. -1.
</event>
<event>
 5   0  0.7476457E-06  0.1700630E+04  0.7818609E-02  0.8761005E-01
       -1   -1    0    0    0  501  0.00000000000E+00  0.00000000000E+00  0.42486607808E+03  0.42486607811E+03  0.50400001928E-02 0.  1.
        1   -1    0    0  501    0  0.00000000000E+00  0.00000000000E+00 -0.17017973486E+04  0.17017973486E+04  0.50400001928E-02 0. -1.
    10030    2    1    2    0    0  0.00000000000E+00  0.00000000000E+00 -0.12769312705E+04  0.21266634267E+04  0.17006304304E+04 0.  0.
        2    1    3    3  502    0  0.70333579036E+03  0.46375950556E+03 -0.49434766452E+03  0.97679768961E+03  0.25500000920E-02 0.  1.
       -2    1    3    3    0  502 -0.70333579036E+03 -0.46375950556E+03 -0.78258360600E+03  0.11498657371E+04  0.25500000920E-02 0. -1.
</event>
<event>
 5   0  0.1374441E-05  0.1699642E+04  0.7818609E-02  0.8761569E-01
       -2   -1    0    0    0  501  0.00000000000E+00  0.00000000000E+00  0.36646861873E+03  0.36646861874E+03  0.25500000920E-02 0. -1.
        2   -1    0    0  501    0  0.00000000000E+00  0.00000000000E+00 -0.19706889827E+04  0.19706889827E+04  0.25500000920E-02 0.  1.
    10030    2    1    2    0    0  0.00000000000E+00  0.00000000000E+00 -0.16042203640E+04  0.23371576015E+04  0.16996419264E+04 0.  0.
        1    1    3    3  502    0 -0.46140552388E+03  0.18539018300E-01  0.17922566275E+03  0.49499181410E+03  0.50400001928E-02 0. -1.
       -1    1    3    3    0  502  0.46140552388E+03 -0.18539018300E-01 -0.17834460268E+04  0.18421657874E+04  0.50400001928E-02 0.  1.
</event>
<event>
 5   0  0.7476457E-06  0.1699652E+04  0.7818609E-02  0.8761563E-01
       -1   -1    0    0    0  501  0.00000000000E+00  0.00000000000E+00  0.70388499959E+03  0.70388499961E+03  0.50400001928E-02 0. -1.
        1   -1    0    0  501    0  0.00000000000E+00  0.00000000000E+00 -0.10260261199E+04  0.10260261200E+04  0.50400001928E-02 0.  1.
    10030    2    1    2    0    0  0.00000000000E+00  0.00000000000E+00 -0.32214112035E+03  0.17299111196E+04  0.16996521939E+04 0.  0.
        2    1    3    3  502    0  0.12845499206E+03  0.55774765068E+03  0.47830197239E+03  0.74589268908E+03  0.25500000920E-02 0. -1.
       -2    1    3    3    0  502 -0.12845499206E+03 -0.55774765068E+03 -0.80044309274E+03  0.98401843049E+03  0.25500000920E-02 0.  1.
</event>
<event>
 5   0  0.7461128E-06  0.1700385E+04  0.7818609E-02  0.8761145E-01
       -1   -1    0    0    0  501  0.00000000000E+00  0.00000000000E+00  0.82931975563E+03  0.82931975564E+03  0.50400001928E-02 0.  1.
        1   -1    0    0  501    0  0.00000000000E+00  0.00000000000E+00 -0.87159029162E+03  0.87159029163E+03  0.50400001928E-02 0. -1.
    10030    2    1    2    0    0  0.00000000000E+00  0.00000000000E+00 -0.42270535989E+02  0.17009100473E+04  0.17003847184E+04 0.  0.
        3    1    3    3  502    0 -0.29174537418E+03  0.77322852262E+03 -0.22076978414E+03  0.85541628424E+03  0.10100000352E+00 0. -1.
       -3    1    3    3    0  502  0.29174537418E+03 -0.77322852262E+03  0.17849924815E+03  0.84549376304E+03  0.10100000352E+00 0.  1.
</event>
<event>
 5   0  0.1419012E-05  0.1699163E+04  0.7818609E-02  0.8761842E-01
       -2   -1    0    0    0  501  0.00000000000E+00  0.00000000000E+00  0.56558898655E+03  0.56558898655E+03  0.25500000920E-02 0.  1.
        2   -1    0    0  501    0  0.00000000000E+00  0.00000000000E+00 -0.12761719868E+04  0.12761719868E+04  0.25500000920E-02 0. -1.
    10030    2    1    2    0    0  0.00000000000E+00  0.00000000000E+00 -0.71058300021E+03  0.18417609733E+04  0.16991631124E+04 0.  0.
        4    1    3    3  502    0 -0.15055927379E+03 -0.24780698122E+03  0.51029422423E+03  0.58692265508E+03  0.12699999809E+01 0.  1.
       -4    1    3    3    0  502  0.15055927379E+03  0.24780698122E+03 -0.12208772244E+04  0.12548383182E+04  0.12699999809E+01 0. -1.
</event>
<event>
 5   0  0.1419012E-05  0.1699700E+04  0.7818609E-02  0.8761535E-01
       -2   -1    0    0    0  501  0.00000000000E+00  0.00000000000E+00  0.10611389286E+04  0.10611389286E+04  0.25500000920E-02 0. -1.
        2   -1    0    0  501    0  0.00000000000E+00  0.00000000000E+00 -0.68063199929E+03  0.68063199930E+03  0.25500000920E-02 0.  1.
    10030    2    1    2    0    0  0.00000000000E+00  0.00000000000E+00  0.38050692935E+03  0.17417709279E+04  0.16997001036E+04 0.  0.
        4    1    3    3  502    0 -0.87897371138E+02  0.68866939146E+03 -0.31203390721E+03  0.76115586494E+03  0.12699999809E+01 0.  1.
       -4    1    3    3    0  502  0.87897371138E+02 -0.68866939146E+03  0.69254083655E+03  0.98061506300E+03  0.12699999809E+01 0. -1.
</event>
<event>
 5   0  0.1419012E-05  0.1699916E+04  0.7818609E-02  0.8761412E-01
        2   -1    0    0  501    0  0.00000000000E+00  0.00000000000E+00  0.53087898758E+03  0.53087898759E+03  0.25500000920E-02 0.  1.
       -2   -1    0    0    0  501  0.00000000000E+00  0.00000000000E+00 -0.13608164839E+04  0.13608164839E+04  0.25500000920E-02 0. -1.
    10030    2    1    2    0    0  0.00000000000E+00  0.00000000000E+00 -0.82993749633E+03  0.18916954715E+04  0.16999163241E+04 0.  0.
        4    1    3    3  502    0  0.75246375660E+03 -0.39388028992E+03 -0.37833228008E+03  0.92977433543E+03  0.12699999809E+01 0.  1.
       -4    1    3    3    0  502 -0.75246375660E+03  0.39388028992E+03 -0.45160521626E+03  0.96192113607E+03  0.12699999809E+01 0. -1.
</event>
<event>
 5   0  0.1423543E-05  0.1699961E+04  0.7818609E-02  0.8761387E-01
       -2   -1    0    0    0  501  0.00000000000E+00  0.00000000000E+00  0.55340307573E+03  0.55340307573E+03  0.25500000920E-02 0.  1.
        2   -1    0    0  501    0  0.00000000000E+00  0.00000000000E+00 -0.13054980279E+04  0.13054980279E+04  0.25500000920E-02 0. -1.
    10030    2    1    2    0    0  0.00000000000E+00  0.00000000000E+00 -0.75209495214E+03  0.18589011036E+04  0.16999607337E+04 0.  0.
        3    1    3    3  502    0 -0.48691579186E+03 -0.42159939795E+03  0.23045734880E+03  0.68406406172E+03  0.10100000352E+00 0.  1.
       -3    1    3    3    0  502  0.48691579186E+03  0.42159939795E+03 -0.98255230094E+03  0.11748370419E+04  0.10100000352E+00 0. -1.
</event>
<event>
 5   0  0.7082527E-06  0.1692764E+04  0.7818609E-02  0.8765502E-01
       -1   -1    0    0    0  501  0.00000000000E+00  0.00000000000E+00  0.49939126492E+03  0.49939126495E+03  0.50400001928E-02 0. -1.
        1   -1    0    0  501    0  0.00000000000E+00  0.00000000000E+00 -0.14344721651E+04  0.14344721651E+04  0.50400001928E-02 0.  1.
    10030    2    1    2    0    0  0.00000000000E+00  0.00000000000E+00 -0.93508090013E+03  0.19338634300E+04  0.16927644479E+04 0.  0.
        1    1    3    3  502    0  0.50281374088E+03 -0.68063387438E+03 -0.48661388656E+03  0.97615429293E+03  0.50400001928E-02 0. -1.
       -1    1    3    3    0  502 -0.50281374088E+03  0.68063387438E+03 -0.44846701356E+03  0.95770913708E+03  0.50400001928E-02 0.  1.
</event>
<event>
 5   0  0.1435301E-05  0.1699805E+04  0.7818609E-02  0.8761475E-01
        2   -1    0    0  501    0  0.00000000000E+00  0.00000000000E+00  0.60896168877E+03  0.60896168877E+03  0.25500000920E-02 0. -1.
       -2   -1    0    0    0  501  0.00000000000E+00  0.00000000000E+00 -0.11861741260E+04  0.11861741260E+04  0.25500000920E-02 0.  1.
    10030    2    1    2    0    0  0.00000000000E+00  0.00000000000E+00 -0.57721243721E+03  0.17951358148E+04  0.16998053994E+04 0.  0.
        2    1    3    3  502    0 -0.99947104467E+02 -0.52621105644E+03 -0.98549874667E+03  0.11216484651E+04  0.25500000920E-02 0.  1.
       -2    1    3    3    0  502  0.99947104467E+02  0.52621105644E+03  0.40828630947E+03  0.67348734963E+03  0.25500000920E-02 0. -1.
</event>
<event>
 5   0  0.1374441E-05  0.1700524E+04  0.7818609E-02  0.8761066E-01
       -2   -1    0    0    0  501  0.00000000000E+00  0.00000000000E+00  0.93211929651E+03  0.93211929652E+03  0.25500000920E-02 0.  1.
        2   -1    0    0  501    0  0.00000000000E+00  0.00000000000E+00 -0.77559323086E+03  0.77559323086E+03  0.25500000920E-02 0. -1.
    10030    2    1    2    0    0  0.00000000000E+00  0.00000000000E+00  0.15652606566E+03  0.17077125274E+04  0.17005239389E+04 0.  0.
        1    1    3    3  502    0 -0.76399661049E+03  0.18944562338E+03 -0.24460025660E+03  0.82426315617E+03  0.50400001928E-02 0. -1.
       -1    1    3    3    0  502  0.76399661049E+03 -0.18944562338E+03  0.40112632225E+03  0.88344937121E+03  0.50400001928E-02 0.  1.
</event>
<event>
 5   0  0.7476457E-06  0.1700128E+04  0.7818609E-02  0.8761291E-01
       -1   -1    0    0    0  501  0.00000000000E+00  0.00000000000E+00  0.65273013596E+03  0.65273013598E+03  0.50400001928E-02 0.  1.
        1   -1    0    0  501    0  0.00000000000E+00  0.00000000000E+00 -0.11070560698E+04  0.11070560698E+04  0.50400001928E-02 0. -1.
    10030    2    1    2    0    0  0.00000000000E+00  0.00000000000E+00 -0.45432593384E+03  0.17597862058E+04  0.17001280646E+04 0.  0.
        2    1    3    3  502    0  0.70502207033E+03  0.47447861517E+03 -0.24844617356E+03  0.88538781168E+03  0.25500000920E-02 0.  1.
       -2    1    3    3    0  502 -0.70502207033E+03 -0.47447861517E+03 -0.20587976028E+03  0.87439839410E+03  0.25500000920E-02 0. -1.
</event>
<event>
 5   0  0.7476457E-06  0.1700134E+04  0.7818609E-02  0.8761288E-01
       -1   -1    0    0    0  501  0.00000000000E+00  0.00000000000E+00  0.65131039778E+03  0.65131039780E+03  0.50400001928E-02 0.  1.
        1   -1    0    0  501    0  0.00000000000E+00  0.00000000000E+00 -0.11094775678E+04  0.11094775678E+04  0.50400001928E-02 0. -1.
    10030    2    1    2    0    0  0.00000000000E+00  0.00000000000E+00 -0.45816717004E+03  0.17607879656E+04  0.17001344371E+04 0.  0.
        2    1    3    3  502    0 -0.80236258314E+03 -0.21447680524E+03 -0.41433944226E+02  0.83156646550E+03  0.25500000920E-02 0.  1.
       -2    1    3    3    0  502  0.80236258314E+03  0.21447680524E+03 -0.41673322581E+03  0.92922150013E+03  0.25500000920E-02 0. -1.
</event>
<event>
 5   0  0.1374441E-05  0.1700253E+04  0.7818609E-02  0.8761220E-01
        2   -1    0    0  501    0  0.00000000000E+00  0.00000000000E+00  0.11277884962E+04  0.11277884962E+04  0.25500000920E-02 0. -1.
       -2   -1    0    0    0  501  0.00000000000E+00  0.00000000000E+00 -0.64082467148E+03  0.64082467148E+03  0.25500000920E-02 0.  1.
    10030    2    1    2    0    0  0.00000000000E+00  0.00000000000E+00  0.48696382470E+03  0.17686131677E+04  0.17002525607E+04 0.  0.
        1    1    3    3  502    0  0.22351286447E+03  0.16536020381E+03  0.10791583713E+04  0.11143988460E+04  0.50400001928E-02 0. -1.
       -1    1    3    3    0  502 -0.22351286447E+03 -0.16536020381E+03 -0.59219454661E+03  0.65421432165E+03  0.50400001928E-02 0.  1.
</event>
<event>
 5   0  0.1419012E-05  0.1699783E+04  0.7818609E-02  0.8761488E-01
       -2   -1    0    0    0  501  0.00000000000E+00  0.00000000000E+00  0.63830439789E+03  0.63830439789E+03  0.25500000920E-02 0. -1.
        2   -1    0    0  501    0  0.00000000000E+00  0.00000000000E+00 -0.11316157400E+04  0.11316157400E+04  0.25500000920E-02 0.  1.
    10030    2    1    2    0    0  0.00000000000E+00  0.00000000000E+00 -0.49331134213E+03  0.17699201379E+04  0.16997826962E+04 0.  0.
        4    1    3    3  502    0 -0.70436880806E+03  0.47345997208E+03 -0.19992713128E+03  0.87193591144E+03  0.12699999809E+01 0.  1.
       -4    1    3    3    0  502  0.70436880806E+03 -0.47345997208E+03 -0.29338421085E+03  0.89798422648E+03  0.12699999809E+01 0. -1.
</event>
<event>
 5   0  0.1419012E-05  0.1699325E+04  0.7818609E-02  0.8761749E-01
        2   -1    0    0  501    0  0.00000000000E+00  0.00000000000E+00  0.20412691985E+04  0.20412691985E+04  0.25500000920E-02 0.  1.
       -2   -1    0    0    0  501  0.00000000000E+00  0.00000000000E+00 -0.35366546845E+03  0.35366546846E+03  0.25500000920E-02 0. -1.
    10030    2    1    2    0    0  0.00000000000E+00  0.00000000000E+00  0.16876037301E+04  0.23949346670E+04  0.16993250747E+04 0.  0.
        4    1    3    3  502    0  0.27465822648E+03  0.69038929983E+03  0.14246336151E+04  0.16067535831E+04  0.12699999809E+01 0.  1.
       -4    1    3    3    0  502 -0.27465822648E+03 -0.69038929983E+03  0.26297011497E+03  0.78818108386E+03  0.12699999809E+01 0. -1.
</event>
<event>
 5   0  0.7461128E-06  0.1700332E+04  0.7818609E-02  0.8761175E-01
       -1   -1    0    0    0  501  0.00000000000E+00  0.00000000000E+00  0.15363141533E+04  0.15363141533E+04  0.50400001928E-02 0. -1.
        1   -1    0    0  501    0  0.00000000000E+00  0.00000000000E+00 -0.47046502504E+03  0.47046502507E+03  0.50400001928E-02 0.  1.
    10030    2    1    2    0    0  0.00000000000E+00  0.00000000000E+00  0.10658491283E+04  0.20067791784E+04  0.17003318225E+04 0.  0.
        3    1    3    3  502    0  0.31770399988E+03  0.24570603036E+02  0.14631677338E+04  0.14974643146E+04  0.10100000352E+00 0. -1.
       -3    1    3    3    0  502 -0.31770399988E+03 -0.24570603036E+02 -0.39731860547E+03  0.50931486384E+03  0.10100000352E+00 0.  1.
</event>
<event>
 5   0  0.7583716E-06  0.1699682E+04  0.7818609E-02  0.8761546E-01
        1   -1    0    0  501    0  0.00000000000E+00  0.00000000000E+00  0.20101614358E+04  0.20101614358E+04  0.50400001928E-02 0.  1.
       -1   -1    0    0    0  501  0.00000000000E+00  0.00000000000E+00 -0.35928940107E+03  0.35928940110E+03  0.50400001928E-02 0. -1.
    10030    2    1    2    0    0  0.00000000000E+00  0.00000000000E+00  0.16508720348E+04  0.23694508369E+04  0.16996819683E+04 0.  0.
        5    1    3    3  502    0 -0.41489736975E+02  0.34099853692E+03  0.19090450751E+04  0.19397104395E+04  0.46999998093E+01 0.  1.
       -5    1    3    3    0  502  0.41489736975E+02 -0.34099853692E+03 -0.25817304031E+03  0.42974039744E+03  0.46999998093E+01 0. -1.
</event>
<event>
 5   0  0.1435301E-05  0.1700095E+04  0.7818609E-02  0.8761310E-01
        2   -1    0    0  501    0  0.00000000000E+00  0.00000000000E+00  0.13342833060E+04  0.13342833060E+04  0.25500000920E-02 0.  1.
       -2   -1    0    0    0  501  0.00000000000E+00  0.00000000000E+00 -0.54154973000E+03  0.54154973000E+03  0.25500000920E-02 0. -1.
    10030    2    1    2    0    0  0.00000000000E+00  0.00000000000E+00  0.79273357603E+03  0.18758330360E+04  0.17000950140E+04 0.  0.
        2    1    3    3  502    0 -0.27993748497E+03 -0.66553712667E+03  0.89138034441E+03  0.11471109715E+04  0.25500000920E-02 0.  1.
       -2    1    3    3    0  502  0.27993748497E+03  0.66553712667E+03 -0.98646768380E+02  0.72872206456E+03  0.25500000920E-02 0. -1.
</event>
<event>
 5   0  0.7476457E-06  0.1701382E+04  0.7818609E-02  0.8760576E-01
       -1   -1    0    0    0  501  0.00000000000E+00  0.00000000000E+00  0.10033282312E+04  0.10033282312E+04  0.50400001928E-02 0.  1.
        1   -1    0    0  501    0  0.00000000000E+00  0.00000000000E+00 -0.72127486914E+03  0.72127486916E+03  0.50400001928E-02 0. -1.
    10030    2    1    2    0    0  0.00000000000E+00  0.00000000000E+00  0.28205336202E+03  0.17246031003E+04  0.17013823070E+04 0.  0.
        2    1    3    3  502    0 -0.16697818093E+03  0.63847353906E+03 -0.40309119549E+03  0.77331279886E+03  0.25500000920E-02 0. -1.
       -2    1    3    3    0  502  0.16697818093E+03 -0.63847353906E+03  0.68514455751E+03  0.95129030148E+03  0.25500000920E-02 0.  1.
</event>
<event>
 5   0  0.7476457E-06  0.1701492E+04  0.7818609E-02  0.8760514E-01
        1   -1    0    0  501    0  0.00000000000E+00  0.00000000000E+00  0.47631420171E+03  0.47631420173E+03  0.50400001928E-02 0. -1.
       -1   -1    0    0    0  501  0.00000000000E+00  0.00000000000E+00 -0.15195191030E+04  0.15195191030E+04  0.50400001928E-02 0.  1.
    10030    2    1    2    0    0  0.00000000000E+00  0.00000000000E+00 -0.10432049013E+04  0.19958333048E+04  0.17014917321E+04 0.  0.
        2    1    3    3  502    0 -0.16916866153E+03  0.75669066814E+03 -0.11093902208E+03  0.78326641057E+03  0.25500000920E-02 0. -1.
       -2    1    3    3    0  502  0.16916866153E+03 -0.75669066814E+03 -0.93226587923E+03  0.12125668942E+04  0.25500000920E-02 0.  1.
</event>
<event>
 5   0  0.7082527E-06  0.1700897E+04  0.7818609E-02  0.8760853E-01
       -1   -1    0    0    0  501  0.00000000000E+00  0.00000000000E+00  0.36614107439E+03  0.36614107443E+03  0.50400001928E-02 0.  1.
        1   -1    0    0  501    0  0.00000000000E+00  0.00000000000E+00 -0.19753658120E+04  0.19753658120E+04  0.50400001928E-02 0. -1.
    10030    2    1    2    0    0  0.00000000000E+00  0.00000000000E+00 -0.16092247376E+04  0.23415068864E+04  0.17008968937E+04 0.  0.
        1    1    3    3  502    0  0.39829994561E+03 -0.68018046811E+02  0.22555751885E+03  0.46275857173E+03  0.50400001928E-02 0.  1.
       -1    1    3    3    0  502 -0.39829994561E+03  0.68018046811E+02 -0.18347822564E+04  0.18787483147E+04  0.50400001928E-02 0. -1.
</event>
<event>
 5   0  0.1435301E-05  0.1699649E+04  0.7818609E-02  0.8761565E-01
        2   -1    0    0  501    0  0.00000000000E+00  0.00000000000E+00  0.85238688267E+03  0.85238688267E+03  0.25500000920E-02 0. -1.
       -2   -1    0    0    0  501  0.00000000000E+00  0.00000000000E+00 -0.84726970732E+03  0.84726970733E+03  0.25500000920E-02 0.  1.
    10030    2    1    2    0    0  0.00000000000E+00  0.00000000000E+00  0.51171753445E+01  0.16996565900E+04  0.16996488868E+04 0.  0.
        2    1    3    3  502    0 -0.54899050606E+03  0.64238932442E+03  0.92819534801E+02  0.85010004466E+03  0.25500000920E-02 0.  1.
       -2    1    3    3    0  502  0.54899050606E+03 -0.64238932442E+03 -0.87702359457E+02  0.84955654534E+03  0.25500000920E-02 0. -1.
</event>
<event>
 5   0  0.1419012E-05  0.1703299E+04  0.7818609E-02  0.8759485E-01
        2   -1    0    0  501    0  0.00000000000E+00  0.00000000000E+00  0.13827102339E+04  0.13827102339E+04  0.25500000920E-02 0. -1.
       -2   -1    0    0    0  501  0.00000000000E+00  0.00000000000E+00 -0.52455466674E+03  0.52455466674E+03  0.25500000920E-02 0.  1.
    10030    2    1    2    0    0  0.00000000000E+00  0.00000000000E+00  0.85815556713E+03  0.19072649006E+04  0.17032992760E+04 0.  0.
        4    1    3    3  502    0 -0.17204862153E+03 -0.26391184606E+03  0.13150628541E+04  0.13522729435E+04  0.12699999809E+01 0. -1.
       -4    1    3    3    0  502  0.17204862153E+03  0.26391184606E+03 -0.45690728696E+03  0.55499195710E+03  0.12699999809E+01 0.  1.
</event>
<event>
 5   0  0.7082527E-06  0.1699707E+04  0.7818609E-02  0.8761531E-01
        1   -1    0    0  501    0  0.00000000000E+00  0.00000000000E+00  0.11117042948E+04  0.11117042948E+04  0.50400001928E-02 0.  1.
       -1   -1    0    0    0  501  0.00000000000E+00  0.00000000000E+00 -0.64967912030E+03  0.64967912032E+03  0.50400001928E-02 0. -1.
    10030    2    1    2    0    0  0.00000000000E+00  0.00000000000E+00  0.46202517453E+03  0.17613834152E+04  0.16997071140E+04 0.  0.
        1    1    3    3  502    0 -0.25854237285E+03 -0.31233788784E+03 -0.54298443493E+03  0.67766600279E+03  0.50400001928E-02 0. -1.
       -1    1    3    3    0  502  0.25854237285E+03  0.31233788784E+03  0.10050096095E+04  0.10837174124E+04  0.50400001928E-02 0.  1.
</event>
<event>
 5   0  0.1374441E-05  0.1701077E+04  0.7818609E-02  0.8760750E-01
        2   -1    0    0  501    0  0.00000000000E+00  0.00000000000E+00  0.13103263379E+04  0.13103263379E+04  0.25500000920E-02 0.  1.
       -2   -1    0    0    0  501  0.00000000000E+00  0.00000000000E+00 -0.55208835554E+03  0.55208835554E+03  0.25500000920E-02 0. -1.
    10030    2    1    2    0    0  0.00000000000E+00  0.00000000000E+00  0.75823798232E+03  0.18624146934E+04  0.17010772035E+04 0.  0.
        1    1    3    3  502    0  0.46762932562E+03 -0.61043437130E+03  0.77705928699E+03  0.10932193025E+04  0.50400001928E-02 0.  1.
       -1    1    3    3    0  502 -0.46762932562E+03  0.61043437130E+03 -0.18821304674E+02  0.76919539090E+03  0.50400001928E-02 0. -1.
</event>
<event>
 5   0  0.7476457E-06  0.1692784E+04  0.7818609E-02  0.8765491E-01
        1   -1    0    0  501    0  0.00000000000E+00  0.00000000000E+00  0.60267366845E+03  0.60267366847E+03  0.50400001928E-02 0. -1.
       -1   -1    0    0    0  501  0.00000000000E+00  0.00000000000E+00 -0.11886690053E+04  0.11886690053E+04  0.50400001928E-02 0.  1.
    10030    2    1    2    0    0  0.00000000000E+00  0.00000000000E+00 -0.58599533686E+03  0.17913426738E+04  0.16927841091E+04 0.  0.
        2    1    3    3  502    0 -0.57153992710E+03  0.41768128384E+03  0.19798116312E+03  0.73505923849E+03  0.25500000920E-02 0. -1.
       -2    1    3    3    0  502  0.57153992710E+03 -0.41768128384E+03 -0.78397649998E+03  0.10562834353E+04  0.25500000920E-02 0.  1.
</event>
<event>
 5   0  0.7082527E-06  0.1699068E+04  0.7818609E-02  0.8761896E-01
        1   -1    0    0  501    0  0.00000000000E+00  0.00000000000E+00  0.96800100209E+03  0.96800100210E+03  0.50400001928E-02 0.  1.
       -1   -1    0    0    0  501  0.00000000000E+00  0.00000000000E+00 -0.74556579831E+03  0.74556579832E+03  0.50400001928E-02 0. -1.
    10030    2    1    2    0    0  0.00000000000E+00  0.00000000000E+00  0.22243520378E+03  0.17135668004E+04  0.16990684976E+04 0.  0.
        1    1    3    3  502    0 -0.45336983497E+03  0.49807066279E+03  0.63340974773E+03  0.92456827813E+03  0.50400001928E-02 0.  1.
       -1    1    3    3    0  502  0.45336983497E+03 -0.49807066279E+03 -0.41097454394E+03  0.78899852230E+03  0.50400001928E-02 0. -1.
</event>
<event>
 5   0  0.7082527E-06  0.1702518E+04  0.7818609E-02  0.8759930E-01
       -1   -1    0    0    0  501  0.00000000000E+00  0.00000000000E+00  0.43340165504E+03  0.43340165507E+03  0.50400001928E-02 0. -1.
        1   -1    0    0  501    0  0.00000000000E+00  0.00000000000E+00 -0.16719862176E+04  0.16719862176E+04  0.50400001928E-02 0.  1.
    10030    2    1    2    0    0  0.00000000000E+00  0.00000000000E+00 -0.12385845625E+04  0.21053878726E+04  0.17025176580E+04 0.  0.
        1    1    3    3  502    0 -0.50516598033E+03  0.51006868781E+03 -0.53570145306E+02  0.71988366731E+03  0.50400001928E-02 0. -1.
       -1    1    3    3    0  502  0.50516598033E+03 -0.51006868781E+03 -0.11850144172E+04  0.13855042053E+04  0.50400001928E-02 0.  1.
</event>
<event>
 5   0  0.7082527E-06  0.1700748E+04  0.7818609E-02  0.8760938E-01
       -1   -1    0    0    0  501  0.00000000000E+00  0.00000000000E+00  0.59724609867E+03  0.59724609869E+03  0.50400001928E-02 0.  1.
        1   -1    0    0  501    0  0.00000000000E+00  0.00000000000E+00 -0.12107834229E+04  0.12107834229E+04  0.50400001928E-02 0. -1.
    10030    2    1    2    0    0  0.00000000000E+00  0.00000000000E+00 -0.61353732423E+03  0.18080295216E+04  0.17007476893E+04 0.  0.
        1    1    3    3  502    0 -0.68261495791E+03 -0.22091963085E+03 -0.79203493662E+03  0.10686851758E+04  0.50400001928E-02 0. -1.
       -1    1    3    3    0  502  0.68261495791E+03  0.22091963085E+03  0.17849761239E+03  0.73934434583E+03  0.50400001928E-02 0.  1.
</event>
<event>
 5   0  0.7082527E-06  0.1699694E+04  0.7818609E-02  0.8761539E-01
       -1   -1    0    0    0  501  0.00000000000E+00  0.00000000000E+00  0.57186713821E+03  0.57186713823E+03  0.50400001928E-02 0. -1.
        1   -1    0    0  501    0  0.00000000000E+00  0.00000000000E+00 -0.12629512173E+04  0.12629512173E+04  0.50400001928E-02 0.  1.
    10030    2    1    2    0    0  0.00000000000E+00  0.00000000000E+00 -0.69108407907E+03  0.18348183555E+04  0.16996944412E+04 0.  0.
        1    1    3    3  502    0  0.12554450578E+03  0.30323824848E+03  0.50069524354E+03  0.59867402249E+03  0.50400001928E-02 0. -1.
       -1    1    3    3    0  502 -0.12554450578E+03 -0.30323824848E+03 -0.11917793226E+04  0.12361443330E+04  0.50400001928E-02 0.  1.
</event>
<event>
 5   0  0.7476457E-06  0.1700060E+04  0.7818609E-02  0.8761330E-01
        1   -1    0    0  501    0  0.00000000000E+00  0.00000000000E+00  0.73991661285E+03  0.73991661286E+03  0.50400001928E-02 0.  1.
       -1   -1    0    0    0  501  0.00000000000E+00  0.00000000000E+00 -0.97652994524E+03  0.97652994525E+03  0.50400001928E-02 0. -1.
    10030    2    1    2    0    0  0.00000000000E+00  0.00000000000E+00 -0.23661333239E+03  0.17164465581E+04  0.17000596807E+04 0.  0.
        2    1    3    3  502    0  0.60376433434E+03 -0.36841028354E+03 -0.59433108115E+03  0.92384357034E+03  0.25500000920E-02 0. -1.
       -2    1    3    3    0  502 -0.60376433434E+03  0.36841028354E+03  0.35771774876E+03  0.79260298777E+03  0.25500000920E-02 0.  1.
</event>
<event>
 5   0  0.7082527E-06  0.1699695E+04  0.7818609E-02  0.8761538E-01
        1   -1    0    0  501    0  0.00000000000E+00  0.00000000000E+00  0.11573634739E+04  0.11573634740E+04  0.50400001928E-02 0.  1.
       -1   -1    0    0    0  501  0.00000000000E+00  0.00000000000E+00 -0.62403995480E+03  0.62403995482E+03  0.50400001928E-02 0. -1.
    10030    2    1    2    0    0  0.00000000000E+00  0.00000000000E+00  0.53332351914E+03  0.17814034288E+04  0.16996953256E+04 0.  0.
        1    1    3    3  502    0  0.95911535254E+02 -0.66453984503E+03  0.81269512932E+03  0.10541753182E+04  0.50400001928E-02 0.  1.
       -1    1    3    3    0  502 -0.95911535254E+02  0.66453984503E+03 -0.27937161018E+03  0.72722811059E+03  0.50400001928E-02 0. -1.
</event>
<event>
 5   0  0.1435301E-05  0.1703858E+04  0.7818609E-02  0.8759167E-01
        2   -1    0    0  501    0  0.00000000000E+00  0.00000000000E+00  0.10477138468E+04  0.10477138468E+04  0.25500000920E-02 0. -1.
       -2   -1    0    0    0  501  0.00000000000E+00  0.00000000000E+00 -0.69273020357E+03  0.69273020357E+03  0.25500000920E-02 0.  1.
    10030    2    1    2    0    0  0.00000000000E+00  0.00000000000E+00  0.35498364322E+03  0.17404440504E+04  0.17038580063E+04 0.  0.
        2    1    3    3  502    0 -0.65011167584E+03  0.53828876211E+03  0.29566097349E+03  0.89432398700E+03  0.25500000920E-02 0. -1.
       -2    1    3    3    0  502  0.65011167584E+03 -0.53828876211E+03  0.59322669725E+02  0.84612006336E+03  0.25500000920E-02 0.  1.
</event>
<event>
 5   0  0.7476457E-06  0.1700425E+04  0.7818609E-02  0.8761122E-01
       -1   -1    0    0    0  501  0.00000000000E+00  0.00000000000E+00  0.74848069473E+03  0.74848069474E+03  0.50400001928E-02 0. -1.
        1   -1    0    0  501    0  0.00000000000E+00  0.00000000000E+00 -0.96577147188E+03  0.96577147189E+03  0.50400001928E-02 0.  1.
    10030    2    1    2    0    0  0.00000000000E+00  0.00000000000E+00 -0.21729077715E+03  0.17142521666E+04  0.17004250083E+04 0.  0.
        2    1    3    3  502    0 -0.76135087727E+03  0.20515375840E+03  0.21193107186E+03  0.81649127498E+03  0.25500000920E-02 0. -1.
       -2    1    3    3    0  502  0.76135087727E+03 -0.20515375840E+03 -0.42922184901E+03  0.89776089165E+03  0.25500000920E-02 0.  1.
</event>
<event>
 5   0  0.7583716E-06  0.1699901E+04  0.7818609E-02  0.8761421E-01
       -1   -1    0    0    0  501  0.00000000000E+00  0.00000000000E+00  0.88966827558E+03  0.88966827560E+03  0.50400001928E-02 0. -1.
        1   -1    0    0  501    0  0.00000000000E+00  0.00000000000E+00 -0.81200622945E+03  0.81200622947E+03  0.50400001928E-02 0.  1.
    10030    2    1    2    0    0  0.00000000000E+00  0.00000000000E+00  0.77662046133E+02  0.17016745051E+04  0.16999013877E+04 0.  0.
        5    1    3    3  502    0 -0.40923677353E+03 -0.24789423675E+03  0.74203638644E+03  0.88293056251E+03  0.46999998093E+01 0. -1.
       -5    1    3    3    0  502  0.40923677353E+03  0.24789423675E+03 -0.66437434030E+03  0.81874394256E+03  0.46999998093E+01 0.  1.
</event>
<event>
 5   0  0.1374441E-05  0.1699368E+04  0.7818609E-02  0.8761725E-01
        2   -1    0    0  501    0  0.00000000000E+00  0.00000000000E+00  0.18357110904E+04  0.18357110904E+04  0.25500000920E-02 0. -1.
       -2   -1    0    0    0  501  0.00000000000E+00  0.00000000000E+00 -0.39328797393E+03  0.39328797394E+03  0.25500000920E-02 0.  1.
    10030    2    1    2    0    0  0.00000000000E+00  0.00000000000E+00  0.14424231165E+04  0.22289990644E+04  0.16993682302E+04 0.  0.
        1    1    3    3  502    0  0.16136355916E+03  0.77479311278E+03  0.31561154196E+03  0.85202887937E+03  0.50400001928E-02 0.  1.
       -1    1    3    3    0  502 -0.16136355916E+03 -0.77479311278E+03  0.11268115745E+04  0.13769701850E+04  0.50400001928E-02 0. -1.
</event>
<event>
 5   0  0.1374441E-05  0.1701725E+04  0.7818609E-02  0.8760381E-01
       -2   -1    0    0    0  501  0.00000000000E+00  0.00000000000E+00  0.26765763467E+03  0.26765763468E+03  0.25500000920E-02 0.  1.
        2   -1    0    0  501    0  0.00000000000E+00  0.00000000000E+00 -0.27048262078E+04  0.27048262078E+04  0.25500000920E-02 0. -1.
    10030    2    1    2    0    0  0.00000000000E+00  0.00000000000E+00 -0.24371685732E+04  0.29724838425E+04  0.17017254597E+04 0.  0.
        1    1    3    3  502    0  0.52919773735E+03 -0.53324455552E+03 -0.19163378586E+04  0.20583368989E+04  0.50400001928E-02 0. -1.
       -1    1    3    3    0  502 -0.52919773735E+03  0.53324455552E+03 -0.52083071457E+03  0.91414694359E+03  0.50400001928E-02 0.  1.
</event>
<event>
 5   0  0.1435301E-05  0.1700767E+04  0.7818609E-02  0.8760927E-01
       -2   -1    0    0    0  501  0.00000000000E+00  0.00000000000E+00  0.46650377587E+03  0.46650377587E+03  0.25500000920E-02 0. -1.
        2   -1    0    0  501    0  0.00000000000E+00  0.00000000000E+00 -0.15501533098E+04  0.15501533098E+04  0.25500000920E-02 0.  1.
    10030    2    1    2    0    0  0.00000000000E+00  0.00000000000E+00 -0.10836495339E+04  0.20166570857E+04  0.17007673235E+04 0.  0.
        2    1    3    3  502    0 -0.31166817181E+03 -0.45546773233E+03  0.22530411207E+03  0.59611227754E+03  0.25500000920E-02 0. -1.
       -2    1    3    3    0  502  0.31166817181E+03  0.45546773233E+03 -0.13089536460E+04  0.14205448081E+04  0.25500000920E-02 0.  1.
</event>
<event>
 5   0  0.1441756E-05  0.1694530E+04  0.7818609E-02  0.8764490E-01
        2   -1    0    0  501    0  0.00000000000E+00  0.00000000000E+00  0.73724933288E+03  0.73724933289E+03  0.25500000920E-02 0.  1.
       -2   -1    0    0    0  501  0.00000000000E+00  0.00000000000E+00 -0.97369807521E+03  0.97369807522E+03  0.25500000920E-02 0. -1.
    10030    2    1    2    0    0  0.00000000000E+00  0.00000000000E+00 -0.23644874233E+03  0.17109474081E+04  0.16945303259E+04 0.  0.
        5    1    3    3  502    0 -0.58058249776E+03 -0.61379918327E+03 -0.54280785366E+02  0.84663685707E+03  0.46999998093E+01 0. -1.
       -5    1    3    3    0  502  0.58058249776E+03  0.61379918327E+03 -0.18216795696E+03  0.86431055103E+03  0.46999998093E+01 0.  1.
</event>
<event>
 5   0  0.7455669E-06  0.1700052E+04  0.7818609E-02  0.8761335E-01
       -1   -1    0    0    0  501  0.00000000000E+00  0.00000000000E+00  0.13729078791E+04  0.13729078791E+04  0.50400001928E-02 0. -1.
        1   -1    0    0  501    0  0.00000000000E+00  0.00000000000E+00 -0.52628765067E+03  0.52628765069E+03  0.50400001928E-02 0.  1.
    10030    2    1    2    0    0  0.00000000000E+00  0.00000000000E+00  0.84662022847E+03  0.18991955298E+04  0.17000523078E+04 0.  0.
        4    1    3    3  502    0  0.37599877296E+03 -0.76134402665E+03  0.46690783636E+03  0.96903268507E+03  0.12699999809E+01 0. -1.
       -4    1    3    3    0  502 -0.37599877296E+03  0.76134402665E+03  0.37971239211E+03  0.93016284477E+03  0.12699999809E+01 0.  1.
</event>
<event>
 5   0  0.1374441E-05  0.1700061E+04  0.7818609E-02  0.8761329E-01
        2   -1    0    0  501    0  0.00000000000E+00  0.00000000000E+00  0.17959813204E+04  0.17959813204E+04  0.25500000920E-02 0. -1.
       -2   -1    0    0    0  501  0.00000000000E+00  0.00000000000E+00 -0.40231607202E+03  0.40231607203E+03  0.25500000920E-02 0.  1.
    10030    2    1    2    0    0  0.00000000000E+00  0.00000000000E+00  0.13936652484E+04  0.21982973924E+04  0.17000613521E+04 0.  0.
        1    1    3    3  502    0 -0.32704756493E+03  0.73343631785E+03  0.10571867622E+04  0.13276041550E+04  0.50400001928E-02 0. -1.
       -1    1    3    3    0  502  0.32704756493E+03 -0.73343631785E+03  0.33647848617E+03  0.87069323746E+03  0.50400001928E-02 0.  1.
</event>
<event>
 5   0  0.7082527E-06  0.1700568E+04  0.7818609E-02  0.8761041E-01
       -1   -1    0    0    0  501  0.00000000000E+00  0.00000000000E+00  0.60740161229E+03  0.60740161231E+03  0.50400001928E-02 0. -1.
        1   -1    0    0  501    0  0.00000000000E+00  0.00000000000E+00 -0.11902879696E+04  0.11902879696E+04  0.50400001928E-02 0.  1.
    10030    2    1    2    0    0  0.00000000000E+00  0.00000000000E+00 -0.58288635732E+03  0.17976895819E+04  0.17005679426E+04 0.  0.
        1    1    3    3  502    0 -0.32748663236E+03  0.26491258795E+03  0.48935833014E+03  0.64567619511E+03  0.50400001928E-02 0. -1.
       -1    1    3    3    0  502  0.32748663236E+03 -0.26491258795E+03 -0.10722446875E+04  0.11520133868E+04  0.50400001928E-02 0.  1.
</event>
<event>
 5   0  0.7476457E-06  0.1699836E+04  0.7818609E-02  0.8761458E-01
       -1   -1    0    0    0  501  0.00000000000E+00  0.00000000000E+00  0.64358373584E+03  0.64358373586E+03  0.50400001928E-02 0. -1.
        1   -1    0    0  501    0  0.00000000000E+00  0.00000000000E+00 -0.11224035075E+04  0.11224035075E+04  0.50400001928E-02 0.  1.
    10030    2    1    2    0    0  0.00000000000E+00  0.00000000000E+00 -0.47881977170E+03  0.17659872434E+04  0.16998360421E+04 0.  0.
        2    1    3    3  502    0  0.16221221375E+03 -0.76783487012E+03 -0.57841742345E+03  0.97491020398E+03  0.25500000920E-02 0.  1.
       -2    1    3    3    0  502 -0.16221221375E+03  0.76783487012E+03  0.99597651754E+02  0.79107703942E+03  0.25500000920E-02 0. -1.
</event>
<event>
 5   0  0.7082527E-06  0.1700111E+04  0.7818609E-02  0.8761301E-01
       -1   -1    0    0    0  501  0.00000000000E+00  0.00000000000E+00  0.73164029463E+03  0.73164029465E+03  0.50400001928E-02 0. -1.
        1   -1    0    0  501    0  0.00000000000E+00  0.00000000000E+00 -0.98763599365E+03  0.98763599366E+03  0.50400001928E-02 0.  1.
    10030    2    1    2    0    0  0.00000000000E+00  0.00000000000E+00 -0.25599569901E+03  0.17192762883E+04  0.17001109251E+04 0.  0.
        1    1    3    3  502    0  0.58914954766E+03  0.46164707689E+03  0.27950762604E+03  0.79896165500E+03  0.50400001928E-02 0. -1.
       -1    1    3    3    0  502 -0.58914954766E+03 -0.46164707689E+03 -0.53550332505E+03  0.92031463331E+03  0.50400001928E-02 0.  1.
</event>
<event>
 5   0  0.7583716E-06  0.1699447E+04  0.7818609E-02  0.8761680E-01
        1   -1    0    0  501    0  0.00000000000E+00  0.00000000000E+00  0.75210073598E+03  0.75210073600E+03  0.50400001928E-02 0.  1.
       -1   -1    0    0    0  501  0.00000000000E+00  0.00000000000E+00 -0.96001728353E+03  0.96001728354E+03  0.50400001928E-02 0. -1.
    10030    2    1    2    0    0  0.00000000000E+00  0.00000000000E+00 -0.20791654755E+03  0.17121180195E+04  0.16994466223E+04 0.  0.
        5    1    3    3  502    0  0.30870555984E+03 -0.64874677492E+03  0.35311618923E+03  0.80055270516E+03  0.46999998093E+01 0.  1.
       -5    1    3    3    0  502 -0.30870555984E+03  0.64874677492E+03 -0.56103273678E+03  0.91156531438E+03  0.46999998093E+01 0. -1.
</event>
<event>
 5   0  0.7476457E-06  0.1700317E+04  0.7818609E-02  0.8761184E-01
       -1   -1    0    0    0  501  0.00000000000E+00  0.00000000000E+00  0.12023697161E+04  0.12023697161E+04  0.50400001928E-02 0. -1.
        1   -1    0    0  501    0  0.00000000000E+00  0.00000000000E+00 -0.60112087190E+03  0.60112087192E+03  0.50400001928E-02 0.  1.
    10030    2    1    2    0    0  0.00000000000E+00  0.00000000000E+00  0.60124884421E+03  0.18034905880E+04  0.17003170670E+04 0.  0.
        2    1    3    3  502    0  0.13918187276E+03 -0.35092022259E+03  0.11085895918E+04  0.11711052384E+04  0.25500000920E-02 0. -1.
       -2    1    3    3    0  502 -0.13918187276E+03  0.35092022259E+03 -0.50734074757E+03  0.63238534967E+03  0.25500000920E-02 0.  1.
</event>
<event>
 5   0  0.1374441E-05  0.1699927E+04  0.7818609E-02  0.8761406E-01
       -2   -1    0    0    0  501  0.00000000000E+00  0.00000000000E+00  0.19534620408E+04  0.19534620408E+04  0.25500000920E-02 0. -1.
        2   -1    0    0  501    0  0.00000000000E+00  0.00000000000E+00 -0.36982449663E+03  0.36982449664E+03  0.25500000920E-02 0.  1.
    10030    2    1    2    0    0  0.00000000000E+00  0.00000000000E+00  0.15836375442E+04  0.23232865375E+04  0.16999271937E+04 0.  0.
        1    1    3    3  502    0 -0.23481504183E+03 -0.69205433946E+03  0.13849731245E+04  0.15659590889E+04  0.50400001928E-02 0. -1.
       -1    1    3    3    0  502  0.23481504183E+03  0.69205433946E+03  0.19866441973E+03  0.75732744855E+03  0.50400001928E-02 0.  1.
</event>
<event>
 5   0  0.1423543E-05  0.1700575E+04  0.7818609E-02  0.8761037E-01
        2   -1    0    0  501    0  0.00000000000E+00  0.00000000000E+00  0.94049222885E+03  0.94049222886E+03  0.25500000920E-02 0. -1.
       -2   -1    0    0    0  501  0.00000000000E+00  0.00000000000E+00 -0.76873438025E+03  0.76873438025E+03  0.25500000920E-02 0.  1.
    10030    2    1    2    0    0  0.00000000000E+00  0.00000000000E+00  0.17175784860E+03  0.17092266091E+04  0.17005748566E+04 0.  0.
        3    1    3    3  502    0 -0.71073097226E+03  0.39140399853E+03 -0.16968441441E+03  0.82893209353E+03  0.10100000352E+00 0.  1.
       -3    1    3    3    0  502  0.71073097226E+03 -0.39140399853E+03  0.34144226301E+03  0.88029451558E+03  0.10100000352E+00 0. -1.
</event>
<event>
 5   0  0.7082527E-06  0.1699907E+04  0.7818609E-02  0.8761417E-01
       -1   -1    0    0    0  501  0.00000000000E+00  0.00000000000E+00  0.11750064148E+04  0.11750064148E+04  0.50400001928E-02 0. -1.
        1   -1    0    0  501    0  0.00000000000E+00  0.00000000000E+00 -0.61482317067E+03  0.61482317069E+03  0.50400001928E-02 0.  1.
    10030    2    1    2    0    0  0.00000000000E+00  0.00000000000E+00  0.56018324414E+03  0.17898295855E+04  0.16999072557E+04 0.  0.
        1    1    3    3  502    0 -0.48582697058E+03  0.37099349416E+03 -0.34170450965E+03  0.70030421246E+03  0.50400001928E-02 0.  1.
       -1    1    3    3    0  502  0.48582697058E+03 -0.37099349416E+03  0.90188775379E+03  0.10895253730E+04  0.50400001928E-02 0. -1.
</event>
<event>
 5   0  0.7476457E-06  0.1699959E+04  0.7818609E-02  0.8761388E-01
       -1   -1    0    0    0  501  0.00000000000E+00  0.00000000000E+00  0.58741036943E+03  0.58741036945E+03  0.50400001928E-02 0.  1.
        1   -1    0    0  501    0  0.00000000000E+00  0.00000000000E+00 -0.12299159692E+04  0.12299159692E+04  0.50400001928E-02 0. -1.
    10030    2    1    2    0    0  0.00000000000E+00  0.00000000000E+00 -0.64250559974E+03  0.18173263386E+04  0.16999592864E+04 0.  0.
        2    1    3    3  502    0 -0.76676553321E+02  0.45259561458E+03 -0.10860045639E+04  0.11790368938E+04  0.25500000920E-02 0. -1.
       -2    1    3    3    0  502  0.76676553321E+02 -0.45259561458E+03  0.44349896415E+03  0.63828944482E+03  0.25500000920E-02 0.  1.
</event>
<event>
 5   0  0.7082527E-06  0.1700451E+04  0.7818609E-02  0.8761107E-01
       -1   -1    0    0    0  501  0.00000000000E+00  0.00000000000E+00  0.42233199670E+03  0.42233199673E+03  0.50400001928E-02 0.  1.
        1   -1    0    0  501    0  0.00000000000E+00  0.00000000000E+00 -0.17116475612E+04  0.17116475612E+04  0.50400001928E-02 0. -1.
    10030    2    1    2    0    0  0.00000000000E+00  0.00000000000E+00 -0.12893155645E+04  0.21339795579E+04  0.17004511545E+04 0.  0.
        1    1    3    3  502    0 -0.50133506421E+03 -0.22436726667E+03  0.16980899892E+03  0.57490226396E+03  0.50400001928E-02 0.  1.
       -1    1    3    3    0  502  0.50133506421E+03  0.22436726667E+03 -0.14591245634E+04  0.15590772940E+04  0.50400001928E-02 0. -1.
</event>
<event>
 5   0  0.7476457E-06  0.1698764E+04  0.7818609E-02  0.8762070E-01
        1   -1    0    0  501    0  0.00000000000E+00  0.00000000000E+00  0.15756414127E+04  0.15756414128E+04  0.50400001928E-02 0.  1.
       -1   -1    0    0    0  501  0.00000000000E+00  0.00000000000E+00 -0.45787688904E+03  0.45787688906E+03  0.50400001928E-02 0. -1.
    10030    2    1    2    0    0  0.00000000000E+00  0.00000000000E+00  0.11177645237E+04  0.20335183018E+04  0.16987640076E+04 0.  0.
        2    1    3    3  502    0 -0.80586080756E+03  0.44089821835E+02  0.87580703203E+03  0.11909632702E+04  0.25500000920E-02 0. -1.
       -2    1    3    3    0  502  0.80586080756E+03 -0.44089821835E+02  0.24195749168E+03  0.84255503164E+03  0.25500000920E-02 0.  1.
</event>
<event>
 5   0  0.7461128E-06  0.1699650E+04  0.7818609E-02  0.8761564E-01
       -1   -1    0    0    0  501  0.00000000000E+00  0.00000000000E+00  0.72817713443E+03  0.72817713445E+03  0.50400001928E-02 0.  1.
        1   -1    0    0  501    0  0.00000000000E+00  0.00000000000E+00 -0.99179455331E+03  0.99179455333E+03  0.50400001928E-02 0. -1.
    10030    2    1    2    0    0  0.00000000000E+00  0.00000000000E+00 -0.26361741888E+03  0.17199716878E+04  0.16996495119E+04 0.  0.
        3    1    3    3  502    0 -0.56579158459E+03  0.59535881874E+03 -0.35266084401E+03  0.89383551135E+03  0.10100000352E+00 0. -1.
       -3    1    3    3    0  502  0.56579158459E+03 -0.59535881874E+03  0.89043425129E+02  0.82613617643E+03  0.10100000352E+00 0.  1.
</event>
<event>
 5   0  0.1374441E-05  0.1700206E+04  0.7818609E-02  0.8761247E-01
        2   -1    0    0  501    0  0.00000000000E+00  0.00000000000E+00  0.52599452002E+03  0.52599452003E+03  0.25500000920E-02 0. -1.
       -2   -1    0    0    0  501  0.00000000000E+00  0.00000000000E+00 -0.13739220843E+04  0.13739220843E+04  0.25500000920E-02 0.  1.
    10030    2    1    2    0    0  0.00000000000E+00  0.00000000000E+00 -0.84792756430E+03  0.18999166043E+04  0.17002064431E+04 0.  0.
        1    1    3    3  502    0  0.24489242387E+02  0.11316032837E+03 -0.13650704067E+04  0.13699716049E+04  0.50400001928E-02 0.  1.
       -1    1    3    3    0  502 -0.24489242387E+02 -0.11316032837E+03  0.51714284244E+03  0.52994499943E+03  0.50400001928E-02 0. -1.
</event>
<event>
 5   0  0.7583716E-06  0.1698061E+04  0.7818609E-02  0.8762471E-01
        1   -1    0    0  501    0  0.00000000000E+00  0.00000000000E+00  0.29373350491E+04  0.29373350491E+04  0.50400001928E-02 0.  1.
       -1   -1    0    0    0  501  0.00000000000E+00  0.00000000000E+00 -0.24541053559E+03  0.24541053564E+03  0.50400001928E-02 0. -1.
    10030    2    1    2    0    0  0.00000000000E+00  0.00000000000E+00  0.26919245135E+04  0.31827455847E+04  0.16980612094E+04 0.  0.
        5    1    3    3  502    0 -0.41731270150E+03  0.65602445159E+03  0.70672432736E+03  0.10507137273E+04  0.46999998093E+01 0. -1.
       -5    1    3    3    0  502  0.41731270150E+03 -0.65602445159E+03  0.19852001861E+04  0.21320318574E+04  0.46999998093E+01 0.  1.
</event>
<event>
 5   0  0.1435301E-05  0.1701531E+04  0.7818609E-02  0.8760492E-01
       -2   -1    0    0    0  501  0.00000000000E+00  0.00000000000E+00  0.67335422338E+03  0.67335422338E+03  0.25500000920E-02 0. -1.
        2   -1    0    0  501    0  0.00000000000E+00  0.00000000000E+00 -0.10749200383E+04  0.10749200383E+04  0.25500000920E-02 0.  1.
    10030    2    1    2    0    0  0.00000000000E+00  0.00000000000E+00 -0.40156581494E+03  0.17482742617E+04  0.17015310137E+04 0.  0.
        2    1    3    3  502    0 -0.42468211358E+03  0.16455705246E+03 -0.93911095384E+03  0.10437256846E+04  0.25500000920E-02 0.  1.
       -2    1    3    3    0  502  0.42468211358E+03 -0.16455705246E+03  0.53754513890E+03  0.70454857708E+03  0.25500000920E-02 0. -1.
</event>
<event>
 5   0  0.7476457E-06  0.1700307E+04  0.7818609E-02  0.8761189E-01
       -1   -1    0    0    0  501  0.00000000000E+00  0.00000000000E+00  0.38687019906E+03  0.38687019910E+03  0.50400001928E-02 0. -1.
        1   -1    0    0  501    0  0.00000000000E+00  0.00000000000E+00 -0.18682252351E+04  0.18682252351E+04  0.50400001928E-02 0.  1.
    10030    2    1    2    0    0  0.00000000000E+00  0.00000000000E+00 -0.14813550360E+04  0.22550954342E+04  0.17003066413E+04 0.  0.
        2    1    3    3  502    0 -0.40855553712E+03  0.67283942127E+03 -0.11665999460E+04  0.14073329200E+04  0.25500000920E-02 0.  1.
       -2    1    3    3    0  502  0.40855553712E+03 -0.67283942127E+03 -0.31475508998E+03  0.84776251415E+03  0.25500000920E-02 0. -1.
</event>
<event>
 5   0  0.1423543E-05  0.1699632E+04  0.7818609E-02  0.8761575E-01
        2   -1    0    0  501    0  0.00000000000E+00  0.00000000000E+00  0.57324322024E+03  0.57324322025E+03  0.25500000920E-02 0. -1.
       -2   -1    0    0    0  501  0.00000000000E+00  0.00000000000E+00 -0.12598262861E+04  0.12598262861E+04  0.25500000920E-02 0.  1.
    10030    2    1    2    0    0  0.00000000000E+00  0.00000000000E+00 -0.68658306583E+03  0.18330695063E+04  0.16996315803E+04 0.  0.
        3    1    3    3  502    0  0.72650221582E+03 -0.44065684884E+03 -0.35865562326E+03  0.92228943088E+03  0.10100000352E+00 0.  1.
       -3    1    3    3    0  502 -0.72650221582E+03  0.44065684884E+03 -0.32792744257E+03  0.91078007544E+03  0.10100000352E+00 0. -1.
</event>
<event>
 5   0  0.7082527E-06  0.1700580E+04  0.7818609E-02  0.8761034E-01
        1   -1    0    0  501    0  0.00000000000E+00  0.00000000000E+00  0.11894844753E+04  0.11894844753E+04  0.50400001928E-02 0.  1.
       -1   -1    0    0    0  501  0.00000000000E+00  0.00000000000E+00 -0.60782060285E+03  0.60782060287E+03  0.50400001928E-02 0. -1.
    10030    2    1    2    0    0  0.00000000000E+00  0.00000000000E+00  0.58166387248E+03  0.17973050782E+04  0.17005801021E+04 0.  0.
        1    1    3    3  502    0 -0.82541100922E+03 -0.75240116858E+02  0.90223415685E+02  0.83372937701E+03  0.50400001928E-02 0. -1.
       -1    1    3    3    0  502  0.82541100922E+03  0.75240116858E+02  0.49144045679E+03  0.96357570119E+03  0.50400001928E-02 0.  1.
</event>
<event>
 5   0  0.1423543E-05  0.1701821E+04  0.7818609E-02  0.8760326E-01
        2   -1    0    0  501    0  0.00000000000E+00  0.00000000000E+00  0.56062534670E+03  0.56062534671E+03  0.25500000920E-02 0.  1.
       -2   -1    0    0    0  501  0.00000000000E+00  0.00000000000E+00 -0.12915022791E+04  0.12915022791E+04  0.25500000920E-02 0. -1.
    10030    2    1    2    0    0  0.00000000000E+00  0.00000000000E+00 -0.73087693237E+03  0.18521276258E+04  0.17018212750E+04 0.  0.
        3    1    3    3  502    0 -0.17417353205E+03 -0.77226196658E+03 -0.70495958925E+03  0.10600438656E+04  0.10100000352E+00 0.  1.
       -3    1    3    3    0  502  0.17417353205E+03  0.77226196658E+03 -0.25917343113E+02  0.79208376019E+03  0.10100000352E+00 0. -1.
</event>
<event>
 5   0  0.7461128E-06  0.1699806E+04  0.7818609E-02  0.8761475E-01
        1   -1    0    0  501    0  0.00000000000E+00  0.00000000000E+00  0.69604176568E+03  0.69604176570E+03  0.50400001928E-02 0. -1.
       -1   -1    0    0    0  501  0.00000000000E+00  0.00000000000E+00 -0.10377754719E+04  0.10377754719E+04  0.50400001928E-02 0.  1.
    10030    2    1    2    0    0  0.00000000000E+00  0.00000000000E+00 -0.34173370624E+03  0.17338172376E+04  0.16998059558E+04 0.  0.
        3    1    3    3  502    0  0.27092527027E+03  0.28213914085E+03 -0.94050536604E+03  0.10186036278E+04  0.10100000352E+00 0.  1.
       -3    1    3    3    0  502 -0.27092527027E+03 -0.28213914085E+03  0.59877165980E+03  0.71521360980E+03  0.10100000352E+00 0. -1.
</event>
<event>
 5   0  0.7583716E-06  0.1700198E+04  0.7818609E-02  0.8761252E-01
        1   -1    0    0  501    0  0.00000000000E+00  0.00000000000E+00  0.14326232622E+04  0.14326232622E+04  0.50400001928E-02 0.  1.
       -1   -1    0    0    0  501  0.00000000000E+00  0.00000000000E+00 -0.50443695361E+03  0.50443695363E+03  0.50400001928E-02 0. -1.
    10030    2    1    2    0    0  0.00000000000E+00  0.00000000000E+00  0.92818630856E+03  0.19370602158E+04  0.17001977698E+04 0.  0.
        5    1    3    3  502    0  0.55523520907E+03 -0.58850226472E+03  0.76124461010E+03  0.11109169633E+04  0.46999998093E+01 0. -1.
       -5    1    3    3    0  502 -0.55523520907E+03  0.58850226472E+03  0.16694169846E+03  0.82614325250E+03  0.46999998093E+01 0.  1.
</event>
<event>
 5   0  0.7461128E-06  0.1700254E+04  0.7818609E-02  0.8761220E-01
        1   -1    0    0  501    0  0.00000000000E+00  0.00000000000E+00  0.16425333693E+04  0.16425333693E+04  0.50400001928E-02 0.  1.
       -1   -1    0    0    0  501  0.00000000000E+00  0.00000000000E+00 -0.44000072008E+03  0.44000072011E+03  0.50400001928E-02 0. -1.
    10030    2    1    2    0    0  0.00000000000E+00  0.00000000000E+00  0.12025326492E+04  0.20825340894E+04  0.17002539402E+04 0.  0.
        3    1    3    3  502    0  0.41634739652E+03 -0.48665726518E+03  0.12860098616E+04  0.14366634340E+04  0.10100000352E+00 0.  1.
       -3    1    3    3    0  502 -0.41634739652E+03  0.48665726518E+03 -0.83477212356E+02  0.64587065541E+03  0.10100000352E+00 0. -1.
</event>
<event>
 5   0  0.1441756E-05  0.1700181E+04  0.7818609E-02  0.8761261E-01
       -2   -1    0    0    0  501  0.00000000000E+00  0.00000000000E+00  0.34463231284E+03  0.34463231285E+03  0.25500000920E-02 0. -1.
        2   -1    0    0  501    0  0.00000000000E+00  0.00000000000E+00 -0.20968836178E+04  0.20968836178E+04  0.25500000920E-02 0.  1.
    10030    2    1    2    0    0  0.00000000000E+00  0.00000000000E+00 -0.17522513050E+04  0.24415159307E+04  0.17001809915E+04 0.  0.
        5    1    3    3  502    0  0.10168649971E+03  0.63051322948E+03 -0.16817704519E+04  0.17989610946E+04  0.46999998093E+01 0.  1.
       -5    1    3    3    0  502 -0.10168649971E+03 -0.63051322948E+03 -0.70480853054E+02  0.64255483612E+03  0.46999998093E+01 0. -1.
</event>
<event>
 5   0  0.1374441E-05  0.1700522E+04  0.7818609E-02  0.8761067E-01
        2   -1    0    0  501    0  0.00000000000E+00  0.00000000000E+00  0.10579466090E+04  0.10579466090E+04  0.25500000920E-02 0. -1.
       -2   -1    0    0    0  501  0.00000000000E+00  0.00000000000E+00 -0.68334630226E+03  0.68334630226E+03  0.25500000920E-02 0.  1.
    10030    2    1    2    0    0  0.00000000000E+00  0.00000000000E+00  0.37460030676E+03  0.17412929113E+04  0.17005221589E+04 0.  0.
        1    1    3    3  502    0 -0.24438929021E+03 -0.56066066325E+03 -0.41751958273E+03  0.74053298811E+03  0.50400001928E-02 0. -1.
       -1    1    3    3    0  502  0.24438929021E+03  0.56066066325E+03  0.79211988949E+03  0.10007599232E+04  0.50400001928E-02 0.  1.
</event>
<event>
 5   0  0.1374441E-05  0.1700182E+04  0.7818609E-02  0.8761261E-01
        2   -1    0    0  501    0  0.00000000000E+00  0.00000000000E+00  0.10522581780E+04  0.10522581780E+04  0.25500000920E-02 0. -1.
       -2   -1    0    0    0  501  0.00000000000E+00  0.00000000000E+00 -0.68676567186E+03  0.68676567187E+03  0.25500000920E-02 0.  1.
    10030    2    1    2    0    0  0.00000000000E+00  0.00000000000E+00  0.36549250614E+03  0.17390238499E+04  0.17001821015E+04 0.  0.
        1    1    3    3  502    0 -0.61137508001E+03  0.23938917134E+03 -0.36956020904E+03  0.75343308392E+03  0.50400001928E-02 0.  1.
       -1    1    3    3    0  502  0.61137508001E+03 -0.23938917134E+03  0.73505271518E+03  0.98559076595E+03  0.50400001928E-02 0. -1.
</event>
<event>
 5   0  0.7476457E-06  0.1701419E+04  0.7818609E-02  0.8760556E-01
       -1   -1    0    0    0  501  0.00000000000E+00  0.00000000000E+00  0.77349911805E+03  0.77349911807E+03  0.50400001928E-02 0. -1.
        1   -1    0    0  501    0  0.00000000000E+00  0.00000000000E+00 -0.93562663693E+03  0.93562663694E+03  0.50400001928E-02 0.  1.
    10030    2    1    2    0    0  0.00000000000E+00  0.00000000000E+00 -0.16212751888E+03  0.17091257550E+04  0.17014186769E+04 0.  0.
        2    1    3    3  502    0  0.59631768403E+03 -0.52580591727E+03  0.22302805959E+03  0.82571675428E+03  0.25500000920E-02 0. -1.
       -2    1    3    3    0  502 -0.59631768403E+03  0.52580591727E+03 -0.38515557847E+03  0.88340900073E+03  0.25500000920E-02 0.  1.
</event>
<event>
 5   0  0.5229750E-06  0.1695589E+04  0.7818609E-02  0.8763884E-01
       -4   -1    0    0    0  501  0.00000000000E+00  0.00000000000E+00  0.10406134213E+04  0.10406141963E+04  0.12699999809E+01 0.  1.
        4   -1    0    0  501    0  0.00000000000E+00  0.00000000000E+00 -0.69070199043E+03  0.69070315801E+03  0.12699999809E+01 0. -1.
    10030    2    1    2    0    0  0.00000000000E+00  0.00000000000E+00  0.34991143089E+03  0.17313173543E+04  0.16955889159E+04 0.  0.
        4    1    3    3  502    0  0.60375575987E+03 -0.56700104556E+03  0.35971780811E+03  0.90300039735E+03  0.12699999809E+01 0.  1.
       -4    1    3    3    0  502 -0.60375575987E+03  0.56700104556E+03 -0.98063772260E+01  0.82831695695E+03  0.12699999809E+01 0. -1.
</event>
<event>
 5   0  0.1435301E-05  0.1700312E+04  0.7818609E-02  0.8761186E-01
       -2   -1    0    0    0  501  0.00000000000E+00  0.00000000000E+00  0.60887069870E+03  0.60887069870E+03  0.25500000920E-02 0.  1.
        2   -1    0    0  501    0  0.00000000000E+00  0.00000000000E+00 -0.11870589789E+04  0.11870589789E+04  0.25500000920E-02 0. -1.
    10030    2    1    2    0    0  0.00000000000E+00  0.00000000000E+00 -0.57818828023E+03  0.17959296776E+04  0.17003122418E+04 0.  0.
        2    1    3    3  502    0 -0.11439721157E+03 -0.20463262053E+03 -0.11522420399E+04  0.11758498841E+04  0.25500000920E-02 0. -1.
       -2    1    3    3    0  502  0.11439721157E+03  0.20463262053E+03  0.57405375965E+03  0.62007979356E+03  0.25500000920E-02 0.  1.
</event>
<event>
 5   0  0.7583716E-06  0.1699208E+04  0.7818609E-02  0.8761816E-01
       -1   -1    0    0    0  501  0.00000000000E+00  0.00000000000E+00  0.68881383533E+03  0.68881383535E+03  0.50400001928E-02 0.  1.
        1   -1    0    0  501    0  0.00000000000E+00  0.00000000000E+00 -0.10479272506E+04  0.10479272506E+04  0.50400001928E-02 0. -1.
    10030    2    1    2    0    0  0.00000000000E+00  0.00000000000E+00 -0.35911341530E+03  0.17367410860E+04  0.16992078021E+04 0.  0.
        5    1    3    3  502    0  0.43690036648E+03  0.59544036524E+03 -0.60880176267E+03  0.95712738704E+03  0.46999998093E+01 0. -1.
       -5    1    3    3    0  502 -0.43690036648E+03 -0.59544036524E+03  0.24968834737E+03  0.77961369896E+03  0.46999998093E+01 0.  1.
</event>
<event>
 5   0  0.7455669E-06  0.1700224E+04  0.7818609E-02  0.8761237E-01
        1   -1    0    0  501    0  0.00000000000E+00  0.00000000000E+00  0.12265889003E+04  0.12265889003E+04  0.50400001928E-02 0.  1.
       -1   -1    0    0    0  501  0.00000000000E+00  0.00000000000E+00 -0.58918724540E+03  0.58918724542E+03  0.50400001928E-02 0. -1.
    10030    2    1    2    0    0  0.00000000000E+00  0.00000000000E+00  0.63740165488E+03  0.18157761457E+04  0.17002241446E+04 0.  0.
        4    1    3    3  502    0 -0.51987309607E+03  0.22567934374E+01 -0.39963082877E+03  0.65572825266E+03  0.12699999809E+01 0. -1.
       -4    1    3    3    0  502  0.51987309607E+03 -0.22567934374E+01  0.10370324837E+04  0.11600478931E+04  0.12699999809E+01 0.  1.
</event>
<event>
 5   0  0.7461128E-06  0.1699422E+04  0.7818609E-02  0.8761694E-01
        1   -1    0    0  501    0  0.00000000000E+00  0.00000000000E+00  0.78983210336E+03  0.78983210337E+03  0.50400001928E-02 0.  1.
       -1   -1    0    0    0  501  0.00000000000E+00  0.00000000000E+00 -0.91412957736E+03  0.91412957737E+03  0.50400001928E-02 0. -1.
    10030    2    1    2    0    0  0.00000000000E+00  0.00000000000E+00 -0.12429747400E+03  0.17039616807E+04  0.16994221216E+04 0.  0.
        3    1    3    3  502    0  0.55210178871E+03 -0.55467518608E+03  0.26968534975E+03  0.82777481553E+03  0.10100000352E+00 0. -1.
       -3    1    3    3    0  502 -0.55210178871E+03  0.55467518608E+03 -0.39398282375E+03  0.87618686521E+03  0.10100000352E+00 0.  1.
</event>
<event>
 5   0  0.7583716E-06  0.1700240E+04  0.7818609E-02  0.8761228E-01
        1   -1    0    0  501    0  0.00000000000E+00  0.00000000000E+00  0.15129622196E+04  0.15129622196E+04  0.50400001928E-02 0. -1.
       -1   -1    0    0    0  501  0.00000000000E+00  0.00000000000E+00 -0.47767480817E+03  0.47767480820E+03  0.50400001928E-02 0.  1.
    10030    2    1    2    0    0  0.00000000000E+00  0.00000000000E+00  0.10352874115E+04  0.19906370278E+04  0.17002399102E+04 0.  0.
        5    1    3    3  502    0 -0.40305515633E+03 -0.73647982099E+03  0.67396104192E+03  0.10766157912E+04  0.46999998093E+01 0. -1.
       -5    1    3    3    0  502  0.40305515633E+03  0.73647982099E+03  0.36132636954E+03  0.91402123667E+03  0.46999998093E+01 0.  1.
</event>
<event>
 5   0  0.1435301E-05  0.1712226E+04  0.7818609E-02  0.8754422E-01
        2   -1    0    0  501    0  0.00000000000E+00  0.00000000000E+00  0.12285738411E+04  0.12285738411E+04  0.25500000920E-02 0. -1.
       -2   -1    0    0    0  501  0.00000000000E+00  0.00000000000E+00 -0.59656966469E+03  0.59656966470E+03  0.25500000920E-02 0.  1.
    10030    2    1    2    0    0  0.00000000000E+00  0.00000000000E+00  0.63200417636E+03  0.18251435058E+04  0.17122264855E+04 0.  0.
        2    1    3    3  502    0 -0.25721476319E+03 -0.80548975277E+03  0.45884186710E+03  0.96203380150E+03  0.25500000920E-02 0. -1.
       -2    1    3    3    0  502  0.25721476319E+03  0.80548975277E+03  0.17316230927E+03  0.86310970425E+03  0.25500000920E-02 0.  1.
</event>
<event>
 5   0  0.1435301E-05  0.1700395E+04  0.7818609E-02  0.8761139E-01
        2   -1    0    0  501    0  0.00000000000E+00  0.00000000000E+00  0.17513584339E+04  0.17513584339E+04  0.25500000920E-02 0. -1.
       -2   -1    0    0    0  501  0.00000000000E+00  0.00000000000E+00 -0.41272860129E+03  0.41272860130E+03  0.25500000920E-02 0.  1.
    10030    2    1    2    0    0  0.00000000000E+00  0.00000000000E+00  0.13386298326E+04  0.21640870352E+04  0.17003949151E+04 0.  0.
        2    1    3    3  502    0  0.10089764006E+03 -0.75358682636E+03  0.11535459621E+04  0.13815721933E+04  0.25500000920E-02 0. -1.
       -2    1    3    3    0  502 -0.10089764006E+03  0.75358682636E+03  0.18508387049E+03  0.78251484188E+03  0.25500000920E-02 0.  1.
</event>
<event>
 5   0  0.7455669E-06  0.1699277E+04  0.7818609E-02  0.8761777E-01
       -1   -1    0    0    0  501  0.00000000000E+00  0.00000000000E+00  0.46582270569E+03  0.46582270572E+03  0.50400001928E-02 0.  1.
        1   -1    0    0  501    0  0.00000000000E+00  0.00000000000E+00 -0.15496994296E+04  0.15496994296E+04  0.50400001928E-02 0. -1.
    10030    2    1    2    0    0  0.00000000000E+00  0.00000000000E+00 -0.10838767239E+04  0.20155221354E+04  0.16992765300E+04 0.  0.
        4    1    3    3  502    0  0.96141886385E+02  0.47252246108E+03  0.28779585963E+03  0.56155926514E+03  0.12699999809E+01 0.  1.
       -4    1    3    3    0  502 -0.96141886385E+02 -0.47252246108E+03 -0.13716725836E+04  0.14539628702E+04  0.12699999809E+01 0. -1.
</event>
<event>
 5   0  0.7082527E-06  0.1700196E+04  0.7818609E-02  0.8761253E-01
       -1   -1    0    0    0  501  0.00000000000E+00  0.00000000000E+00  0.45867487843E+03  0.45867487846E+03  0.50400001928E-02 0.  1.
        1   -1    0    0  501    0  0.00000000000E+00  0.00000000000E+00 -0.15755522391E+04  0.15755522392E+04  0.50400001928E-02 0. -1.
    10030    2    1    2    0    0  0.00000000000E+00  0.00000000000E+00 -0.11168773607E+04  0.20342271176E+04  0.17001955556E+04 0.  0.
        1    1    3    3  502    0 -0.28785441877E+02  0.79651903798E+03 -0.91214595013E+03  0.12113139205E+04  0.50400001928E-02 0. -1.
       -1    1    3    3    0  502  0.28785441877E+02 -0.79651903798E+03 -0.20473141058E+03  0.82291319715E+03  0.50400001928E-02 0.  1.
</event>
<event>
 5   0  0.7082527E-06  0.1699696E+04  0.7818609E-02  0.8761538E-01
       -1   -1    0    0    0  501  0.00000000000E+00  0.00000000000E+00  0.45028288192E+03  0.45028288195E+03  0.50400001928E-02 0. -1.
        1   -1    0    0  501    0  0.00000000000E+00  0.00000000000E+00 -0.16039735798E+04  0.16039735798E+04  0.50400001928E-02 0.  1.
    10030    2    1    2    0    0  0.00000000000E+00  0.00000000000E+00 -0.11536906979E+04  0.20542564618E+04  0.16996962624E+04 0.  0.
        1    1    3    3  502    0 -0.48785924033E+03 -0.68325256279E+03 -0.73627615139E+03  0.11166661426E+04  0.50400001928E-02 0.  1.
       -1    1    3    3    0  502  0.48785924033E+03  0.68325256279E+03 -0.41741454651E+03  0.93759031916E+03  0.50400001928E-02 0. -1.
</event>
<event>
 5   0  0.7583716E-06  0.1701852E+04  0.7818609E-02  0.8760309E-01
       -1   -1    0    0    0  501  0.00000000000E+00  0.00000000000E+00  0.77455738055E+03  0.77455738056E+03  0.50400001928E-02 0. -1.
        1   -1    0    0  501    0  0.00000000000E+00  0.00000000000E+00 -0.93482405306E+03  0.93482405307E+03  0.50400001928E-02 0.  1.
    10030    2    1    2    0    0  0.00000000000E+00  0.00000000000E+00 -0.16026667251E+03  0.17093814336E+04  0.17018517795E+04 0.  0.
        5    1    3    3  502    0 -0.67533138320E+02 -0.47522460446E+02 -0.93077682928E+03  0.93444459704E+03  0.46999998093E+01 0.  1.
       -5    1    3    3    0  502  0.67533138320E+02  0.47522460446E+02  0.77051015677E+03  0.77493683659E+03  0.46999998093E+01 0. -1.
</event>
<event>
 5   0  0.1374441E-05  0.1700273E+04  0.7818609E-02  0.8761209E-01
       -2   -1    0    0    0  501  0.00000000000E+00  0.00000000000E+00  0.11513244323E+04  0.11513244323E+04  0.25500000920E-02 0. -1.
        2   -1    0    0  501    0  0.00000000000E+00  0.00000000000E+00 -0.62773954654E+03  0.62773954655E+03  0.25500000920E-02 0.  1.
    10030    2    1    2    0    0  0.00000000000E+00  0.00000000000E+00  0.52358488574E+03  0.17790639788E+04  0.17002727746E+04 0.  0.
        1    1    3    3  502    0 -0.62387301482E+03  0.48399754403E+03  0.59144896082E+03  0.98655108054E+03  0.50400001928E-02 0. -1.
       -1    1    3    3    0  502  0.62387301482E+03 -0.48399754403E+03 -0.67864075077E+02  0.79251289829E+03  0.50400001928E-02 0.  1.
</event>
<event>
 5   0  0.1423543E-05  0.1699501E+04  0.7818609E-02  0.8761649E-01
        2   -1    0    0  501    0  0.00000000000E+00  0.00000000000E+00  0.12891992555E+04  0.12891992555E+04  0.25500000920E-02 0. -1.
       -2   -1    0    0    0  501  0.00000000000E+00  0.00000000000E+00 -0.56009635413E+03  0.56009635414E+03  0.25500000920E-02 0.  1.
    10030    2    1    2    0    0  0.00000000000E+00  0.00000000000E+00  0.72910290132E+03  0.18492956096E+04  0.16995008711E+04 0.  0.
        3    1    3    3  502    0  0.22415768250E+03 -0.35194522656E+03  0.11700427158E+04  0.12422206230E+04  0.10100000352E+00 0. -1.
       -3    1    3    3    0  502 -0.22415768250E+03  0.35194522656E+03 -0.44093981452E+03  0.60707498659E+03  0.10100000352E+00 0.  1.
</event>
<event>
 5   0  0.1374441E-05  0.1701175E+04  0.7818609E-02  0.8760695E-01
       -2   -1    0    0    0  501  0.00000000000E+00  0.00000000000E+00  0.37223646688E+03  0.37223646689E+03  0.25500000920E-02 0.  1.
        2   -1    0    0  501    0  0.00000000000E+00  0.00000000000E+00 -0.19436540635E+04  0.19436540635E+04  0.25500000920E-02 0. -1.
    10030    2    1    2    0    0  0.00000000000E+00  0.00000000000E+00 -0.15714175966E+04  0.23158905304E+04  0.17011747958E+04 0.  0.
        1    1    3    3  502    0 -0.19023181418E+03 -0.13282701852E+03 -0.18997436645E+04  0.19138592296E+04  0.50400001928E-02 0. -1.
       -1    1    3    3    0  502  0.19023181418E+03  0.13282701852E+03  0.32832606784E+03  0.40203130081E+03  0.50400001928E-02 0.  1.
</event>
<event>
 5   0  0.1423543E-05  0.1700569E+04  0.7818609E-02  0.8761040E-01
       -2   -1    0    0    0  501  0.00000000000E+00  0.00000000000E+00  0.47157485972E+03  0.47157485972E+03  0.25500000920E-02 0.  1.
        2   -1    0    0  501    0  0.00000000000E+00  0.00000000000E+00 -0.15331252317E+04  0.15331252317E+04  0.25500000920E-02 0. -1.
    10030    2    1    2    0    0  0.00000000000E+00  0.00000000000E+00 -0.10615503720E+04  0.20047000914E+04  0.17005685121E+04 0.  0.
        3    1    3    3  502    0  0.67929573789E+03 -0.16240444650E+03  0.40890323877E+02  0.69963557124E+03  0.10100000352E+00 0.  1.
       -3    1    3    3    0  502 -0.67929573789E+03  0.16240444650E+03 -0.11024406958E+04  0.13050645202E+04  0.10100000352E+00 0. -1.
</event>
<event>
 5   0  0.1441756E-05  0.1703637E+04  0.7818609E-02  0.8759293E-01
        2   -1    0    0  501    0  0.00000000000E+00  0.00000000000E+00  0.92957500103E+03  0.92957500104E+03  0.25500000920E-02 0. -1.
       -2   -1    0    0    0  501  0.00000000000E+00  0.00000000000E+00 -0.78056639559E+03  0.78056639559E+03  0.25500000920E-02 0.  1.
    10030    2    1    2    0    0  0.00000000000E+00  0.00000000000E+00  0.14900860545E+03  0.17101413966E+04  0.17036372947E+04 0.  0.
        5    1    3    3  502    0  0.58051163407E+03 -0.27466981571E+03 -0.48721731812E+03  0.80612658437E+03  0.46999998093E+01 0.  1.
       -5    1    3    3    0  502 -0.58051163407E+03  0.27466981571E+03  0.63622592357E+03  0.90401481226E+03  0.46999998093E+01 0. -1.
</event>
<event>
 5   0  0.5229750E-06  0.1694893E+04  0.7818609E-02  0.8764283E-01
        4   -1    0    0  501    0  0.00000000000E+00  0.00000000000E+00  0.54027756202E+03  0.54027905467E+03  0.12699999809E+01 0.  1.
       -4   -1    0    0    0  501  0.00000000000E+00  0.00000000000E+00 -0.13292489157E+04  0.13292495224E+04  0.12699999809E+01 0. -1.
    10030    2    1    2    0    0  0.00000000000E+00  0.00000000000E+00 -0.78897135367E+03  0.18695285771E+04  0.16948927115E+04 0.  0.
        4    1    3    3  502    0  0.38249008485E+03  0.25494725400E+02  0.43917578022E+03  0.58294564486E+03  0.12699999809E+01 0.  1.
       -4    1    3    3    0  502 -0.38249008485E+03 -0.25494725400E+02 -0.12281471339E+04  0.12865829322E+04  0.12699999809E+01 0. -1.
</event>
<event>
 5   0  0.7082527E-06  0.1699697E+04  0.7818609E-02  0.8761537E-01
        1   -1    0    0  501    0  0.00000000000E+00  0.00000000000E+00  0.15554250867E+04  0.15554250867E+04  0.50400001928E-02 0.  1.
       -1   -1    0    0    0  501  0.00000000000E+00  0.00000000000E+00 -0.46433742317E+03  0.46433742320E+03  0.50400001928E-02 0. -1.
    10030    2    1    2    0    0  0.00000000000E+00  0.00000000000E+00  0.10910876636E+04  0.20197625099E+04  0.16996965338E+04 0.  0.
        1    1    3    3  502    0  0.80511608081E+03 -0.21467464954E+03  0.74419024426E+03  0.11171912228E+04  0.50400001928E-02 0.  1.
       -1    1    3    3    0  502 -0.80511608081E+03  0.21467464954E+03  0.34689741929E+03  0.90257128709E+03  0.50400001928E-02 0. -1.
</event>
<event>
 5   0  0.1374441E-05  0.1699657E+04  0.7818609E-02  0.8761560E-01
        2   -1    0    0  501    0  0.00000000000E+00  0.00000000000E+00  0.11212567717E+04  0.11212567717E+04  0.25500000920E-02 0.  1.
       -2   -1    0    0    0  501  0.00000000000E+00  0.00000000000E+00 -0.64410587531E+03  0.64410587532E+03  0.25500000920E-02 0. -1.
    10030    2    1    2    0    0  0.00000000000E+00  0.00000000000E+00  0.47715089642E+03  0.17653626471E+04  0.16996565234E+04 0.  0.
        1    1    3    3  502    0 -0.23205668267E+03  0.70971887810E+03  0.66004161235E+03  0.99659727069E+03  0.50400001928E-02 0.  1.
       -1    1    3    3    0  502  0.23205668267E+03 -0.70971887810E+03 -0.18289071592E+03  0.76876537636E+03  0.50400001928E-02 0. -1.
</event>
<event>
 5   0  0.7461128E-06  0.1699812E+04  0.7818609E-02  0.8761472E-01
       -1   -1    0    0    0  501  0.00000000000E+00  0.00000000000E+00  0.66695625743E+03  0.66695625745E+03  0.50400001928E-02 0.  1.
        1   -1    0    0  501    0  0.00000000000E+00  0.00000000000E+00 -0.10830399338E+04  0.10830399339E+04  0.50400001928E-02 0. -1.
    10030    2    1    2    0    0  0.00000000000E+00  0.00000000000E+00 -0.41608367641E+03  0.17499961913E+04  0.16998120613E+04 0.  0.
        3    1    3    3  502    0 -0.26595256430E+03  0.53281531701E+03 -0.83234170376E+03  0.10234332663E+04  0.10100000352E+00 0. -1.
       -3    1    3    3    0  502  0.26595256430E+03 -0.53281531701E+03  0.41625802735E+03  0.72656292503E+03  0.10100000352E+00 0.  1.
</event>
<event>
 5   0  0.7476457E-06  0.1700740E+04  0.7818609E-02  0.8760942E-01
       -1   -1    0    0    0  501  0.00000000000E+00  0.00000000000E+00  0.91481445253E+03  0.91481445254E+03  0.50400001928E-02 0. -1.
        1   -1    0    0  501    0  0.00000000000E+00  0.00000000000E+00 -0.79046544272E+03  0.79046544274E+03  0.50400001928E-02 0.  1.
    10030    2    1    2    0    0  0.00000000000E+00  0.00000000000E+00  0.12434900980E+03  0.17052798953E+04  0.17007400874E+04 0.  0.
        2    1    3    3  502    0 -0.74428548514E+03 -0.40709144407E+03  0.33247002022E+01  0.84834861989E+03  0.25500000920E-02 0.  1.
       -2    1    3    3    0  502  0.74428548514E+03  0.40709144407E+03  0.12102430960E+03  0.85693127539E+03  0.25500000920E-02 0. -1.
</event>
<event>
 5   0  0.7455669E-06  0.1700043E+04  0.7818609E-02  0.8761340E-01
        1   -1    0    0  501    0  0.00000000000E+00  0.00000000000E+00  0.83525405463E+03  0.83525405465E+03  0.50400001928E-02 0.  1.
       -1   -1    0    0    0  501  0.00000000000E+00  0.00000000000E+00 -0.86505038087E+03  0.86505038088E+03  0.50400001928E-02 0. -1.
    10030    2    1    2    0    0  0.00000000000E+00  0.00000000000E+00 -0.29796326234E+02  0.17003044355E+04  0.17000433384E+04 0.  0.
        4    1    3    3  502    0 -0.35361776393E+03  0.55430128179E+03 -0.55371997937E+03  0.85959459190E+03  0.12699999809E+01 0. -1.
       -4    1    3    3    0  502  0.35361776393E+03 -0.55430128179E+03  0.52392365314E+03  0.84070984363E+03  0.12699999809E+01 0.  1.
</event>
<event>
 5   0  0.1419012E-05  0.1699705E+04  0.7818609E-02  0.8761533E-01
       -2   -1    0    0    0  501  0.00000000000E+00  0.00000000000E+00  0.54496104268E+03  0.54496104269E+03  0.25500000920E-02 0. -1.
        2   -1    0    0  501    0  0.00000000000E+00  0.00000000000E+00 -0.13253225789E+04  0.13253225789E+04  0.25500000920E-02 0.  1.
    10030    2    1    2    0    0  0.00000000000E+00  0.00000000000E+00 -0.78036153625E+03  0.18702836216E+04  0.16997048856E+04 0.  0.
        4    1    3    3  502    0  0.10196912131E+03 -0.45525122360E+03 -0.11718192428E+04  0.12612744860E+04  0.12699999809E+01 0.  1.
       -4    1    3    3    0  502 -0.10196912131E+03  0.45525122360E+03  0.39145770659E+03  0.60900913560E+03  0.12699999809E+01 0. -1.
</event>
<event>
 5   0  0.7583716E-06  0.1699138E+04  0.7818609E-02  0.8761856E-01
       -1   -1    0    0    0  501  0.00000000000E+00  0.00000000000E+00  0.83954374119E+03  0.83954374120E+03  0.50400001928E-02 0. -1.
        1   -1    0    0  501    0  0.00000000000E+00  0.00000000000E+00 -0.85971392550E+03  0.85971392552E+03  0.50400001928E-02 0.  1.
    10030    2    1    2    0    0  0.00000000000E+00  0.00000000000E+00 -0.20170184314E+02  0.16992576667E+04  0.16991379525E+04 0.  0.
        5    1    3    3  502    0 -0.61578400245E+03  0.19757655890E+03 -0.56104942129E+03  0.85616877859E+03  0.46999998093E+01 0.  1.
       -5    1    3    3    0  502  0.61578400245E+03 -0.19757655890E+03  0.54087923698E+03  0.84308888813E+03  0.46999998093E+01 0. -1.
</event>
<event>
 5   0  0.7583716E-06  0.1699174E+04  0.7818609E-02  0.8761836E-01
        1   -1    0    0  501    0  0.00000000000E+00  0.00000000000E+00  0.15073189099E+04  0.15073189099E+04  0.50400001928E-02 0.  1.
       -1   -1    0    0    0  501  0.00000000000E+00  0.00000000000E+00 -0.47886208783E+03  0.47886208786E+03  0.50400001928E-02 0. -1.
    10030    2    1    2    0    0  0.00000000000E+00  0.00000000000E+00  0.10284568220E+04  0.19861809977E+04  0.16991737760E+04 0.  0.
        5    1    3    3  502    0  0.58932703889E+03 -0.13665415193E+03 -0.18300949736E+03  0.63205639157E+03  0.46999998093E+01 0. -1.
       -5    1    3    3    0  502 -0.58932703889E+03  0.13665415193E+03  0.12114663194E+04  0.13541246062E+04  0.46999998093E+01 0.  1.
</event>
<event>
 5   0  0.7583716E-06  0.1700249E+04  0.7818609E-02  0.8761222E-01
        1   -1    0    0  501    0  0.00000000000E+00  0.00000000000E+00  0.10707947607E+04  0.10707947607E+04  0.50400001928E-02 0.  1.
       -1   -1    0    0    0  501  0.00000000000E+00  0.00000000000E+00 -0.67493021871E+03  0.67493021873E+03  0.50400001928E-02 0. -1.
    10030    2    1    2    0    0  0.00000000000E+00  0.00000000000E+00  0.39586454194E+03  0.17457249794E+04  0.17002490900E+04 0.  0.
        5    1    3    3  502    0  0.31500894653E+02 -0.13046546072E+03  0.10598345896E+04  0.10683094075E+04  0.46999998093E+01 0.  1.
       -5    1    3    3    0  502 -0.31500894653E+02  0.13046546072E+03 -0.66397004769E+03  0.67741557189E+03  0.46999998093E+01 0. -1.
</event>
<event>
 5   0  0.1441756E-05  0.1700699E+04  0.7818609E-02  0.8760966E-01
        2   -1    0    0  501    0  0.00000000000E+00  0.00000000000E+00  0.24115797589E+04  0.24115797589E+04  0.25500000920E-02 0.  1.
       -2   -1    0    0    0  501  0.00000000000E+00  0.00000000000E+00 -0.29984259778E+03  0.29984259779E+03  0.25500000920E-02 0. -1.
    10030    2    1    2    0    0  0.00000000000E+00  0.00000000000E+00  0.21117371611E+04  0.27114223567E+04  0.17006990794E+04 0.  0.
        5    1    3    3  502    0  0.58295265122E+03  0.61897965119E+03  0.10720212370E+04  0.13682913523E+04  0.46999998093E+01 0.  1.
       -5    1    3    3    0  502 -0.58295265122E+03 -0.61897965119E+03  0.10397159241E+04  0.13431310044E+04  0.46999998093E+01 0. -1.
</event>
<event>
 5   0  0.1374441E-05  0.1700506E+04  0.7818609E-02  0.8761076E-01
        2   -1    0    0  501    0  0.00000000000E+00  0.00000000000E+00  0.56893388421E+03  0.56893388421E+03  0.25500000920E-02 0.  1.
       -2   -1    0    0    0  501  0.00000000000E+00  0.00000000000E+00 -0.12706758538E+04  0.12706758538E+04  0.25500000920E-02 0. -1.
    10030    2    1    2    0    0  0.00000000000E+00  0.00000000000E+00 -0.70174196955E+03  0.18396097380E+04  0.17005064529E+04 0.  0.
        1    1    3    3  502    0 -0.35021470787E+03 -0.61088449394E+01  0.48725813045E+03  0.60009011432E+03  0.50400001928E-02 0.  1.
       -1    1    3    3    0  502  0.35021470787E+03  0.61088449394E+01 -0.11890001000E+04  0.12395196236E+04  0.50400001928E-02 0. -1.
</event>
<event>
 5   0  0.7476457E-06  0.1701043E+04  0.7818609E-02  0.8760770E-01
        1   -1    0    0  501    0  0.00000000000E+00  0.00000000000E+00  0.76895591541E+03  0.76895591543E+03  0.50400001928E-02 0.  1.
       -1   -1    0    0    0  501  0.00000000000E+00  0.00000000000E+00 -0.94073915472E+03  0.94073915473E+03  0.50400001928E-02 0. -1.
    10030    2    1    2    0    0  0.00000000000E+00  0.00000000000E+00 -0.17178323931E+03  0.17096950702E+04  0.17010431363E+04 0.  0.
        2    1    3    3  502    0 -0.12067777352E+03  0.79669085108E+03  0.18771992372E+03  0.82735615486E+03  0.25500000920E-02 0.  1.
       -2    1    3    3    0  502  0.12067777352E+03 -0.79669085108E+03 -0.35950316303E+03  0.88233891530E+03  0.25500000920E-02 0. -1.
</event>
<event>
 5   0  0.5229750E-06  0.1699467E+04  0.7818609E-02  0.8761668E-01
        4   -1    0    0  501    0  0.00000000000E+00  0.00000000000E+00  0.10129430235E+04  0.10129438197E+04  0.12699999809E+01 0.  1.
       -4   -1    0    0    0  501  0.00000000000E+00  0.00000000000E+00 -0.71281954283E+03  0.71282067418E+03  0.12699999809E+01 0. -1.
    10030    2    1    2    0    0  0.00000000000E+00  0.00000000000E+00  0.30012348070E+03  0.17257644939E+04  0.16994672649E+04 0.  0.
        2    1    3    3  502    0  0.12895164295E+03 -0.65528085714E+03 -0.38344940945E+03  0.77010062821E+03  0.25500000920E-02 0. -1.
       -2    1    3    3    0  502 -0.12895164295E+03  0.65528085714E+03  0.68357289015E+03  0.95566386565E+03  0.25500000920E-02 0.  1.
</event>
<event>
 5   0  0.1374441E-05  0.1700710E+04  0.7818609E-02  0.8760960E-01
       -2   -1    0    0    0  501  0.00000000000E+00  0.00000000000E+00  0.31654201579E+03  0.31654201580E+03  0.25500000920E-02 0. -1.
        2   -1    0    0  501    0  0.00000000000E+00  0.00000000000E+00 -0.22843839032E+04  0.22843839033E+04  0.25500000920E-02 0.  1.
    10030    2    1    2    0    0  0.00000000000E+00  0.00000000000E+00 -0.19678418875E+04  0.26009259191E+04  0.17007098349E+04 0.  0.
        1    1    3    3  502    0  0.59068500691E+03 -0.24139931678E+03 -0.12433944220E+03  0.65010976338E+03  0.50400001928E-02 0. -1.
       -1    1    3    3    0  502 -0.59068500691E+03  0.24139931678E+03 -0.18435024453E+04  0.19508161557E+04  0.50400001928E-02 0.  1.
</event>
<event>
 5   0  0.5229750E-06  0.1698228E+04  0.7818609E-02  0.8762375E-01
       -3   -1    0    0    0  501  0.00000000000E+00  0.00000000000E+00  0.12862569993E+04  0.12862570033E+04  0.10100000352E+00 0.  1.
        3   -1    0    0  501    0  0.00000000000E+00  0.00000000000E+00 -0.56053717220E+03  0.56053718130E+03  0.10100000352E+00 0. -1.
    10030    2    1    2    0    0  0.00000000000E+00  0.00000000000E+00  0.72571982710E+03  0.18467941846E+04  0.16982283394E+04 0.  0.
        5    1    3    3  502    0  0.61624057907E+02 -0.80306303599E+02  0.12796577162E+04  0.12836637362E+04  0.46999998093E+01 0.  1.
       -5    1    3    3    0  502 -0.61624057907E+02  0.80306303599E+02 -0.55393788912E+03  0.56313044839E+03  0.46999998093E+01 0. -1.
</event>
<event>
 5   0  0.1374441E-05  0.1699540E+04  0.7818609E-02  0.8761627E-01
        2   -1    0    0  501    0  0.00000000000E+00  0.00000000000E+00  0.64532464873E+03  0.64532464873E+03  0.25500000920E-02 0.  1.
       -2   -1    0    0    0  501  0.00000000000E+00  0.00000000000E+00 -0.11189859754E+04  0.11189859754E+04  0.25500000920E-02 0. -1.
    10030    2    1    2    0    0  0.00000000000E+00  0.00000000000E+00 -0.47366132662E+03  0.17643106241E+04  0.16995402102E+04 0.  0.
        1    1    3    3  502    0 -0.22761121592E+03 -0.41794431487E+03 -0.96766706458E+03  0.10783616573E+04  0.50400001928E-02 0. -1.
       -1    1    3    3    0  502  0.22761121592E+03  0.41794431487E+03  0.49400573796E+03  0.68594896683E+03  0.50400001928E-02 0.  1.
</event>
<event>
 5   0  0.1423543E-05  0.1702237E+04  0.7818609E-02  0.8760090E-01
        2   -1    0    0  501    0  0.00000000000E+00  0.00000000000E+00  0.11293437163E+04  0.11293437163E+04  0.25500000920E-02 0.  1.
       -2   -1    0    0    0  501  0.00000000000E+00  0.00000000000E+00 -0.64143682369E+03  0.64143682370E+03  0.25500000920E-02 0. -1.
    10030    2    1    2    0    0  0.00000000000E+00  0.00000000000E+00  0.48790689265E+03  0.17707805400E+04  0.17022369357E+04 0.  0.
        3    1    3    3  502    0  0.47420377345E+03 -0.25137751695E+03  0.93111462942E+03  0.10747252384E+04  0.10100000352E+00 0.  1.
       -3    1    3    3    0  502 -0.47420377345E+03  0.25137751695E+03 -0.44320773677E+03  0.69605530162E+03  0.10100000352E+00 0. -1.
</event>
<event>
 5   0  0.7455669E-06  0.1701821E+04  0.7818609E-02  0.8760327E-01
        1   -1    0    0  501    0  0.00000000000E+00  0.00000000000E+00  0.75855462732E+03  0.75855462734E+03  0.50400001928E-02 0. -1.
       -1   -1    0    0    0  501  0.00000000000E+00  0.00000000000E+00 -0.95451045125E+03  0.95451045126E+03  0.50400001928E-02 0.  1.
    10030    2    1    2    0    0  0.00000000000E+00  0.00000000000E+00 -0.19595582393E+03  0.17130650786E+04  0.17018205777E+04 0.  0.
        4    1    3    3  502    0 -0.39677120698E+03 -0.61283869166E+03 -0.53795635704E+03  0.90686123947E+03  0.12699999809E+01 0.  1.
       -4    1    3    3    0  502  0.39677120698E+03  0.61283869166E+03  0.34200053311E+03  0.80620383913E+03  0.12699999809E+01 0. -1.
</event>
<event>
 5   0  0.7455669E-06  0.1699907E+04  0.7818609E-02  0.8761418E-01
        1   -1    0    0  501    0  0.00000000000E+00  0.00000000000E+00  0.67377133948E+03  0.67377133950E+03  0.50400001928E-02 0. -1.
       -1   -1    0    0    0  501  0.00000000000E+00  0.00000000000E+00 -0.10722046146E+04  0.10722046146E+04  0.50400001928E-02 0.  1.
    10030    2    1    2    0    0  0.00000000000E+00  0.00000000000E+00 -0.39843327508E+03  0.17459759541E+04  0.16999067497E+04 0.  0.
        4    1    3    3  502    0 -0.12375806963E+03 -0.83968201427E+03 -0.24557499416E+03  0.88356699550E+03  0.12699999809E+01 0.  1.
       -4    1    3    3    0  502  0.12375806963E+03  0.83968201427E+03 -0.15285828092E+03  0.86240895857E+03  0.12699999809E+01 0. -1.
</event>
<event>
 5   0  0.7082527E-06  0.1700412E+04  0.7818609E-02  0.8761129E-01
        1   -1    0    0  501    0  0.00000000000E+00  0.00000000000E+00  0.16575208653E+04  0.16575208653E+04  0.50400001928E-02 0. -1.
       -1   -1    0    0    0  501  0.00000000000E+00  0.00000000000E+00 -0.43610348454E+03  0.43610348456E+03  0.50400001928E-02 0.  1.
    10030    2    1    2    0    0  0.00000000000E+00  0.00000000000E+00  0.12214173808E+04  0.20936243499E+04  0.17004124501E+04 0.  0.
        1    1    3    3  502    0  0.40420884621E+03 -0.37820504144E+03  0.14052451121E+04  0.15103435602E+04  0.50400001928E-02 0. -1.
       -1    1    3    3    0  502 -0.40420884621E+03  0.37820504144E+03 -0.18382773136E+03  0.58328078965E+03  0.50400001928E-02 0.  1.
</event>
<event>
 5   0  0.1441756E-05  0.1697934E+04  0.7818609E-02  0.8762543E-01
       -2   -1    0    0    0  501  0.00000000000E+00  0.00000000000E+00  0.12031247827E+04  0.12031247827E+04  0.25500000920E-02 0. -1.
        2   -1    0    0  501    0  0.00000000000E+00  0.00000000000E+00 -0.59906110808E+03  0.59906110808E+03  0.25500000920E-02 0.  1.
    10030    2    1    2    0    0  0.00000000000E+00  0.00000000000E+00  0.60406367462E+03  0.18021858908E+04  0.16979343515E+04 0.  0.
        5    1    3    3  502    0  0.47448291729E+03  0.56123603666E+03 -0.14903559188E+03  0.74990241051E+03  0.46999998093E+01 0.  1.
       -5    1    3    3    0  502 -0.47448291729E+03 -0.56123603666E+03  0.75309926650E+03  0.10522834803E+04  0.46999998093E+01 0. -1.
</event>
<event>
 5   0  0.7082527E-06  0.1700097E+04  0.7818609E-02  0.8761309E-01
        1   -1    0    0  501    0  0.00000000000E+00  0.00000000000E+00  0.85677336884E+03  0.85677336885E+03  0.50400001928E-02 0. -1.
       -1   -1    0    0    0  501  0.00000000000E+00  0.00000000000E+00 -0.84337670495E+03  0.84337670497E+03  0.50400001928E-02 0.  1.
    10030    2    1    2    0    0  0.00000000000E+00  0.00000000000E+00  0.13396663884E+02  0.17001500738E+04  0.17000972922E+04 0.  0.
        1    1    3    3  502    0 -0.56009791583E+03  0.53071319333E+03  0.36338367103E+03  0.85288560856E+03  0.50400001928E-02 0. -1.
       -1    1    3    3    0  502  0.56009791583E+03 -0.53071319333E+03 -0.34998700714E+03  0.84726446526E+03  0.50400001928E-02 0.  1.
</event>
<event>
 5   0  0.1441756E-05  0.1700149E+04  0.7818609E-02  0.8761279E-01
        2   -1    0    0  501    0  0.00000000000E+00  0.00000000000E+00  0.11483154984E+04  0.11483154984E+04  0.25500000920E-02 0.  1.
       -2   -1    0    0    0  501  0.00000000000E+00  0.00000000000E+00 -0.62929310584E+03  0.62929310585E+03  0.25500000920E-02 0. -1.
    10030    2    1    2    0    0  0.00000000000E+00  0.00000000000E+00  0.51902239257E+03  0.17776086043E+04  0.17001494364E+04 0.  0.
        5    1    3    3  502    0  0.59436957781E+03  0.55862329324E+03  0.50972526258E+03  0.96186127487E+03  0.46999998093E+01 0.  1.
       -5    1    3    3    0  502 -0.59436957781E+03 -0.55862329324E+03  0.92971299917E+01  0.81574732939E+03  0.46999998093E+01 0. -1.
</event>
<event>
 5   0  0.1374441E-05  0.1699861E+04  0.7818609E-02  0.8761444E-01
       -2   -1    0    0    0  501  0.00000000000E+00  0.00000000000E+00  0.53368941389E+03  0.53368941390E+03  0.25500000920E-02 0. -1.
        2   -1    0    0  501    0  0.00000000000E+00  0.00000000000E+00 -0.13535621274E+04  0.13535621274E+04  0.25500000920E-02 0.  1.
    10030    2    1    2    0    0  0.00000000000E+00  0.00000000000E+00 -0.81987271355E+03  0.18872515413E+04  0.16998609101E+04 0.  0.
        1    1    3    3  502    0  0.64810773731E+01  0.64089802352E+03  0.20980118786E+03  0.67439515076E+03  0.50400001928E-02 0. -1.
       -1    1    3    3    0  502 -0.64810773731E+01 -0.64089802352E+03 -0.10296739014E+04  0.12128563906E+04  0.50400001928E-02 0.  1.
</event>
<event>
 5   0  0.1419012E-05  0.1700359E+04  0.7818609E-02  0.8761160E-01
        2   -1    0    0  501    0  0.00000000000E+00  0.00000000000E+00  0.26562012040E+04  0.26562012040E+04  0.25500000920E-02 0. -1.
       -2   -1    0    0    0  501  0.00000000000E+00  0.00000000000E+00 -0.27211989811E+03  0.27211989812E+03  0.25500000920E-02 0.  1.
    10030    2    1    2    0    0  0.00000000000E+00  0.00000000000E+00  0.23840813059E+04  0.29283211021E+04  0.17003590221E+04 0.  0.
        4    1    3    3  502    0 -0.15521585009E+01 -0.57006035846E+03  0.10579481939E+03  0.57979770454E+03  0.12699999809E+01 0.  1.
       -4    1    3    3    0  502  0.15521585009E+01  0.57006035846E+03  0.22782864865E+04  0.23485233976E+04  0.12699999809E+01 0. -1.
</event>
<event>
 5   0  0.1441756E-05  0.1700409E+04  0.7818609E-02  0.8761131E-01
       -2   -1    0    0    0  501  0.00000000000E+00  0.00000000000E+00  0.40609023626E+03  0.40609023627E+03  0.25500000920E-02 0. -1.
        2   -1    0    0  501    0  0.00000000000E+00  0.00000000000E+00 -0.17800176994E+04  0.17800176994E+04  0.25500000920E-02 0.  1.
    10030    2    1    2    0    0  0.00000000000E+00  0.00000000000E+00 -0.13739274632E+04  0.21861079357E+04  0.17004091368E+04 0.  0.
        5    1    3    3  502    0 -0.22614015037E+03 -0.22381305628E+03  0.32664793575E+03  0.45601821861E+03  0.46999998093E+01 0. -1.
       -5    1    3    3    0  502  0.22614015037E+03  0.22381305628E+03 -0.17005753989E+04  0.17300897171E+04  0.46999998093E+01 0.  1.
</event>
<event>
 5   0  0.7455669E-06  0.1699955E+04  0.7818609E-02  0.8761390E-01
        1   -1    0    0  501    0  0.00000000000E+00  0.00000000000E+00  0.26991320176E+04  0.26991320176E+04  0.50400001928E-02 0.  1.
       -1   -1    0    0    0  501  0.00000000000E+00  0.00000000000E+00 -0.26766458844E+03  0.26766458849E+03  0.50400001928E-02 0. -1.
    10030    2    1    2    0    0  0.00000000000E+00  0.00000000000E+00  0.24314674291E+04  0.29667966061E+04  0.16999553650E+04 0.  0.
        4    1    3    3  502    0  0.66730697404E+03 -0.50980108074E+03  0.14450473489E+04  0.16713345545E+04  0.12699999809E+01 0.  1.
       -4    1    3    3    0  502 -0.66730697404E+03  0.50980108074E+03  0.98642008024E+03  0.12954620516E+04  0.12699999809E+01 0. -1.
</event>
<event>
 5   0  0.1374441E-05  0.1701466E+04  0.7818609E-02  0.8760528E-01
       -2   -1    0    0    0  501  0.00000000000E+00  0.00000000000E+00  0.64512784504E+03  0.64512784505E+03  0.25500000920E-02 0. -1.
        2   -1    0    0  501    0  0.00000000000E+00  0.00000000000E+00 -0.11218660234E+04  0.11218660234E+04  0.25500000920E-02 0.  1.
    10030    2    1    2    0    0  0.00000000000E+00  0.00000000000E+00 -0.47673817837E+03  0.17669938685E+04  0.17014664382E+04 0.  0.
        1    1    3    3  502    0 -0.38286143483E+03  0.67551067933E+03  0.12265318837E+03  0.78609246327E+03  0.50400001928E-02 0. -1.
       -1    1    3    3    0  502  0.38286143483E+03 -0.67551067933E+03 -0.59939136674E+03  0.98090140520E+03  0.50400001928E-02 0.  1.
</event>
<event>
 5   0  0.7455669E-06  0.1700617E+04  0.7818609E-02  0.8761012E-01
       -1   -1    0    0    0  501  0.00000000000E+00  0.00000000000E+00  0.10445952716E+04  0.10445952716E+04  0.50400001928E-02 0. -1.
        1   -1    0    0  501    0  0.00000000000E+00  0.00000000000E+00 -0.69215786875E+03  0.69215786877E+03  0.50400001928E-02 0.  1.
    10030    2    1    2    0    0  0.00000000000E+00  0.00000000000E+00  0.35243740282E+03  0.17367531404E+04  0.17006173431E+04 0.  0.
        4    1    3    3  502    0  0.11859702134E+03  0.56190887933E+03 -0.46417535197E+03  0.73842210992E+03  0.12699999809E+01 0.  1.
       -4    1    3    3    0  502 -0.11859702134E+03 -0.56190887933E+03  0.81661275479E+03  0.99833103044E+03  0.12699999809E+01 0. -1.
</event>
<event>
 5   0  0.7476457E-06  0.1698274E+04  0.7818609E-02  0.8762349E-01
       -1   -1    0    0    0  501  0.00000000000E+00  0.00000000000E+00  0.46641278760E+03  0.46641278763E+03  0.50400001928E-02 0.  1.
        1   -1    0    0  501    0  0.00000000000E+00  0.00000000000E+00 -0.15459130995E+04  0.15459130995E+04  0.50400001928E-02 0. -1.
    10030    2    1    2    0    0  0.00000000000E+00  0.00000000000E+00 -0.10795003119E+04  0.20123258871E+04  0.16982739922E+04 0.  0.
        2    1    3    3  502    0 -0.27465492689E+03 -0.17564285066E+03 -0.14688001432E+04  0.15045463105E+04  0.25500000920E-02 0. -1.
       -2    1    3    3    0  502  0.27465492689E+03  0.17564285066E+03  0.38929983125E+03  0.50777957665E+03  0.25500000920E-02 0.  1.
</event>
<event>
 5   0  0.5229750E-06  0.1698707E+04  0.7818609E-02  0.8762102E-01
       -4   -1    0    0    0  501  0.00000000000E+00  0.00000000000E+00  0.12457327640E+04  0.12457334114E+04  0.12699999809E+01 0.  1.
        4   -1    0    0  501    0  0.00000000000E+00  0.00000000000E+00 -0.57909630922E+03  0.57909770182E+03  0.12699999809E+01 0. -1.
    10030    2    1    2    0    0  0.00000000000E+00  0.00000000000E+00  0.66663645479E+03  0.18248311132E+04  0.16987066930E+04 0.  0.
        5    1    3    3  502    0  0.29645894610E+03  0.77759528100E+03  0.51574012930E+03  0.97905684141E+03  0.46999998093E+01 0.  1.
       -5    1    3    3    0  502 -0.29645894610E+03 -0.77759528100E+03  0.15089632549E+03  0.84577427178E+03  0.46999998093E+01 0. -1.
</event>
<event>
 5   0  0.7082527E-06  0.1700391E+04  0.7818609E-02  0.8761141E-01
        1   -1    0    0  501    0  0.00000000000E+00  0.00000000000E+00  0.72484004282E+03  0.72484004284E+03  0.50400001928E-02 0.  1.
       -1   -1    0    0    0  501  0.00000000000E+00  0.00000000000E+00 -0.99723022369E+03  0.99723022370E+03  0.50400001928E-02 0. -1.
    10030    2    1    2    0    0  0.00000000000E+00  0.00000000000E+00 -0.27239018086E+03  0.17220702665E+04  0.17003910116E+04 0.  0.
        1    1    3    3  502    0 -0.78967848203E+03 -0.15019704566E+03 -0.41663921743E+03  0.90539466259E+03  0.50400001928E-02 0. -1.
       -1    1    3    3    0  502  0.78967848203E+03  0.15019704566E+03  0.14424903657E+03  0.81667560395E+03  0.50400001928E-02 0.  1.
</event>
<event>
 5   0  0.7455669E-06  0.1699612E+04  0.7818609E-02  0.8761586E-01
       -1   -1    0    0    0  501  0.00000000000E+00  0.00000000000E+00  0.73945595779E+03  0.73945595781E+03  0.50400001928E-02 0. -1.
        1   -1    0    0  501    0  0.00000000000E+00  0.00000000000E+00 -0.97662343457E+03  0.97662343458E+03  0.50400001928E-02 0.  1.
    10030    2    1    2    0    0  0.00000000000E+00  0.00000000000E+00 -0.23716747678E+03  0.17160793924E+04  0.16996117406E+04 0.  0.
        4    1    3    3  502    0 -0.79146832623E+03 -0.40853788220E+02 -0.42827573767E+03  0.90084008781E+03  0.12699999809E+01 0.  1.
       -4    1    3    3    0  502  0.79146832623E+03  0.40853788220E+02  0.19110826089E+03  0.81523930457E+03  0.12699999809E+01 0. -1.
</event>
<event>
 5   0  0.1419012E-05  0.1699813E+04  0.7818609E-02  0.8761471E-01
        2   -1    0    0  501    0  0.00000000000E+00  0.00000000000E+00  0.22818707225E+04  0.22818707225E+04  0.25500000920E-02 0.  1.
       -2   -1    0    0    0  501  0.00000000000E+00  0.00000000000E+00 -0.31655653124E+03  0.31655653125E+03  0.25500000920E-02 0. -1.
    10030    2    1    2    0    0  0.00000000000E+00  0.00000000000E+00  0.19653141912E+04  0.25984272537E+04  0.16998130258E+04 0.  0.
        4    1    3    3  502    0 -0.78325700322E+03 -0.25963451051E+03  0.67147969671E+03  0.10638553511E+04  0.12699999809E+01 0. -1.
       -4    1    3    3    0  502  0.78325700322E+03  0.25963451051E+03  0.12938344945E+04  0.15345719026E+04  0.12699999809E+01 0.  1.
</event>
<event>
 5   0  0.1419012E-05  0.1699597E+04  0.7818609E-02  0.8761595E-01
        2   -1    0    0  501    0  0.00000000000E+00  0.00000000000E+00  0.88839539460E+03  0.88839539461E+03  0.25500000920E-02 0.  1.
       -2   -1    0    0    0  501  0.00000000000E+00  0.00000000000E+00 -0.81287801712E+03  0.81287801713E+03  0.25500000920E-02 0. -1.
    10030    2    1    2    0    0  0.00000000000E+00  0.00000000000E+00  0.75517377480E+02  0.17012734117E+04  0.16995965248E+04 0.  0.
        4    1    3    3  502    0 -0.23425082596E+03 -0.26305193447E+03  0.81188172474E+03  0.88499904946E+03  0.12699999809E+01 0.  1.
       -4    1    3    3    0  502  0.23425082596E+03  0.26305193447E+03 -0.73636434726E+03  0.81627436227E+03  0.12699999809E+01 0. -1.
</event>
<event>
 5   0  0.7583716E-06  0.1699761E+04  0.7818609E-02  0.8761501E-01
        1   -1    0    0  501    0  0.00000000000E+00  0.00000000000E+00  0.12610645955E+04  0.12610645955E+04  0.50400001928E-02 0. -1.
       -1   -1    0    0    0  501  0.00000000000E+00  0.00000000000E+00 -0.57276723065E+03  0.57276723068E+03  0.50400001928E-02 0.  1.
    10030    2    1    2    0    0  0.00000000000E+00  0.00000000000E+00  0.68829736487E+03  0.18338318262E+04  0.16997605432E+04 0.  0.
        5    1    3    3  502    0 -0.41753207065E+03  0.65517736364E+03  0.71582749896E+03  0.10564191905E+04  0.46999998093E+01 0. -1.
       -5    1    3    3    0  502  0.41753207065E+03 -0.65517736364E+03 -0.27530134088E+02  0.77741263569E+03  0.46999998093E+01 0.  1.
</event>
<event>
 5   0  0.1435301E-05  0.1701624E+04  0.7818609E-02  0.8760439E-01
        2   -1    0    0  501    0  0.00000000000E+00  0.00000000000E+00  0.77212166541E+03  0.77212166541E+03  0.25500000920E-02 0. -1.
       -2   -1    0    0    0  501  0.00000000000E+00  0.00000000000E+00 -0.93752165901E+03  0.93752165901E+03  0.25500000920E-02 0.  1.
    10030    2    1    2    0    0  0.00000000000E+00  0.00000000000E+00 -0.16539999360E+03  0.17096433244E+04  0.17016236772E+04 0.  0.
        2    1    3    3  502    0 -0.51509275547E+03 -0.54788706115E+01 -0.76303995145E+03  0.92064137006E+03  0.25500000920E-02 0.  1.
       -2    1    3    3    0  502  0.51509275547E+03  0.54788706115E+01  0.59763995784E+03  0.78900195436E+03  0.25500000920E-02 0. -1.
</event>
<event>
 5   0  0.7583716E-06  0.1700663E+04  0.7818609E-02  0.8760986E-01
        1   -1    0    0  501    0  0.00000000000E+00  0.00000000000E+00  0.19004963019E+04  0.19004963019E+04  0.50400001928E-02 0. -1.
       -1   -1    0    0    0  501  0.00000000000E+00  0.00000000000E+00 -0.38046040116E+03  0.38046040119E+03  0.50400001928E-02 0.  1.
    10030    2    1    2    0    0  0.00000000000E+00  0.00000000000E+00  0.15200359007E+04  0.22809567030E+04  0.17006629124E+04 0.  0.
        5    1    3    3  502    0 -0.84129427562E+03  0.12149715193E+03  0.72991132529E+03  0.11204152127E+04  0.46999998093E+01 0.  1.
       -5    1    3    3    0  502  0.84129427562E+03 -0.12149715193E+03  0.79012457540E+03  0.11605414903E+04  0.46999998093E+01 0. -1.
</event>
<event>
 5   0  0.1374441E-05  0.1700219E+04  0.7818609E-02  0.8761239E-01
        2   -1    0    0  501    0  0.00000000000E+00  0.00000000000E+00  0.10730002097E+04  0.10730002097E+04  0.25500000920E-02 0.  1.
       -2   -1    0    0    0  501  0.00000000000E+00  0.00000000000E+00 -0.67351937479E+03  0.67351937480E+03  0.25500000920E-02 0. -1.
    10030    2    1    2    0    0  0.00000000000E+00  0.00000000000E+00  0.39948083492E+03  0.17465195845E+04  0.17002193157E+04 0.  0.
        1    1    3    3  502    0 -0.10215725662E+03  0.76287026876E+03  0.57051178282E+03  0.95806620148E+03  0.50400001928E-02 0.  1.
       -1    1    3    3    0  502  0.10215725662E+03 -0.76287026876E+03 -0.17103094791E+03  0.78845338303E+03  0.50400001928E-02 0. -1.
</event>
<event>
 5   0  0.1419012E-05  0.1699384E+04  0.7818609E-02  0.8761716E-01
       -2   -1    0    0    0  501  0.00000000000E+00  0.00000000000E+00  0.51940066209E+03  0.51940066209E+03  0.25500000920E-02 0. -1.
        2   -1    0    0  501    0  0.00000000000E+00  0.00000000000E+00 -0.13900183208E+04  0.13900183208E+04  0.25500000920E-02 0.  1.
    10030    2    1    2    0    0  0.00000000000E+00  0.00000000000E+00 -0.87061765871E+03  0.19094189829E+04  0.16993839309E+04 0.  0.
        4    1    3    3  502    0  0.72130206552E+03 -0.38506191407E+03 -0.17560166636E+03  0.83629355224E+03  0.12699999809E+01 0. -1.
       -4    1    3    3    0  502 -0.72130206552E+03  0.38506191407E+03 -0.69501599236E+03  0.10731254307E+04  0.12699999809E+01 0.  1.
</event>
<event>
 5   0  0.7461128E-06  0.1698216E+04  0.7818609E-02  0.8762382E-01
        1   -1    0    0  501    0  0.00000000000E+00  0.00000000000E+00  0.69926428711E+03  0.69926428713E+03  0.50400001928E-02 0. -1.
       -1   -1    0    0    0  501  0.00000000000E+00  0.00000000000E+00 -0.10310614156E+04  0.10310614157E+04  0.50400001928E-02 0.  1.
    10030    2    1    2    0    0  0.00000000000E+00  0.00000000000E+00 -0.33179712853E+03  0.17303257028E+04  0.16982160355E+04 0.  0.
        3    1    3    3  502    0  0.45093361659E+03  0.65399829989E+03 -0.47145120522E+03  0.92375383731E+03  0.10100000352E+00 0.  1.
       -3    1    3    3    0  502 -0.45093361659E+03 -0.65399829989E+03  0.13965407669E+03  0.80657186547E+03  0.10100000352E+00 0. -1.
</event>
<event>
 5   0  0.1419012E-05  0.1700023E+04  0.7818609E-02  0.8761351E-01
        2   -1    0    0  501    0  0.00000000000E+00  0.00000000000E+00  0.99441974644E+03  0.99441974645E+03  0.25500000920E-02 0.  1.
       -2   -1    0    0    0  501  0.00000000000E+00  0.00000000000E+00 -0.72657426619E+03  0.72657426620E+03  0.25500000920E-02 0. -1.
    10030    2    1    2    0    0  0.00000000000E+00  0.00000000000E+00  0.26784548025E+03  0.17209940126E+04  0.17000232911E+04 0.  0.
        4    1    3    3  502    0  0.37334483318E+03 -0.61412929788E+03 -0.32552262982E+03  0.78899160604E+03  0.12699999809E+01 0. -1.
       -4    1    3    3    0  502 -0.37334483318E+03  0.61412929788E+03  0.59336811007E+03  0.93200240661E+03  0.12699999809E+01 0.  1.
</event>
<event>
 5   0  0.1441756E-05  0.1700361E+04  0.7818609E-02  0.8761158E-01
       -2   -1    0    0    0  501  0.00000000000E+00  0.00000000000E+00  0.92764410201E+03  0.92764410201E+03  0.25500000920E-02 0.  1.
        2   -1    0    0  501    0  0.00000000000E+00  0.00000000000E+00 -0.77918581087E+03  0.77918581087E+03  0.25500000920E-02 0. -1.
    10030    2    1    2    0    0  0.00000000000E+00  0.00000000000E+00  0.14845829114E+03  0.17068299129E+04  0.17003612814E+04 0.  0.
        5    1    3    3  502    0  0.33478321990E+03  0.58044825864E+03 -0.45100614717E+03  0.80773053679E+03  0.46999998093E+01 0. -1.
       -5    1    3    3    0  502 -0.33478321990E+03 -0.58044825864E+03  0.59946443831E+03  0.89909937609E+03  0.46999998093E+01 0.  1.
</event>
<event>
 5   0  0.1374441E-05  0.1699448E+04  0.7818609E-02  0.8761679E-01
        2   -1    0    0  501    0  0.00000000000E+00  0.00000000000E+00  0.75908165604E+03  0.75908165604E+03  0.25500000920E-02 0. -1.
       -2   -1    0    0    0  501  0.00000000000E+00  0.00000000000E+00 -0.95119015031E+03  0.95119015032E+03  0.25500000920E-02 0.  1.
    10030    2    1    2    0    0  0.00000000000E+00  0.00000000000E+00 -0.19210849427E+03  0.17102718064E+04  0.16994481393E+04 0.  0.
        1    1    3    3  502    0  0.14972773365E+03  0.17134577061E+03 -0.91995837219E+03  0.94768200041E+03  0.50400001928E-02 0.  1.
       -1    1    3    3    0  502 -0.14972773365E+03 -0.17134577061E+03  0.72784987791E+03  0.76258980595E+03  0.50400001928E-02 0. -1.
</event>
<event>
 5   0  0.7455669E-06  0.1699971E+04  0.7818609E-02  0.8761381E-01
       -1   -1    0    0    0  501  0.00000000000E+00  0.00000000000E+00  0.76218842592E+03  0.76218842594E+03  0.50400001928E-02 0.  1.
        1   -1    0    0  501    0  0.00000000000E+00  0.00000000000E+00 -0.94789602453E+03  0.94789602455E+03  0.50400001928E-02 0. -1.
    10030    2    1    2    0    0  0.00000000000E+00  0.00000000000E+00 -0.18570759861E+03  0.17100844505E+04  0.16999710338E+04 0.  0.
        4    1    3    3  502    0  0.74877696553E+02 -0.74879424350E+03 -0.49039375898E+03  0.89821330445E+03  0.12699999809E+01 0.  1.
       -4    1    3    3    0  502 -0.74877696553E+02  0.74879424350E+03  0.30468616037E+03  0.81187114604E+03  0.12699999809E+01 0. -1.
</event>
<event>
 5   0  0.1374441E-05  0.1700612E+04  0.7818609E-02  0.8761015E-01
       -2   -1    0    0    0  501  0.00000000000E+00  0.00000000000E+00  0.11787424044E+04  0.11787424045E+04  0.25500000920E-02 0.  1.
        2   -1    0    0  501    0  0.00000000000E+00  0.00000000000E+00 -0.61338265741E+03  0.61338265741E+03  0.25500000920E-02 0. -1.
    10030    2    1    2    0    0  0.00000000000E+00  0.00000000000E+00  0.56535974704E+03  0.17921250619E+04  0.17006118293E+04 0.  0.
        1    1    3    3  502    0  0.79098608366E+03 -0.21572628627E+03  0.52025156521E+03  0.97100901451E+03  0.50400001928E-02 0.  1.
       -1    1    3    3    0  502 -0.79098608366E+03  0.21572628627E+03  0.45108181825E+02  0.82111604735E+03  0.50400001928E-02 0. -1.
</event>
<event>
 5   0  0.7476457E-06  0.1701253E+04  0.7818609E-02  0.8760650E-01
        1   -1    0    0  501    0  0.00000000000E+00  0.00000000000E+00  0.81049844646E+03  0.81049844648E+03  0.50400001928E-02 0. -1.
       -1   -1    0    0    0  501  0.00000000000E+00  0.00000000000E+00 -0.89274138604E+03  0.89274138606E+03  0.50400001928E-02 0.  1.
    10030    2    1    2    0    0  0.00000000000E+00  0.00000000000E+00 -0.82242939580E+02  0.17032398325E+04  0.17012530752E+04 0.  0.
        2    1    3    3  502    0  0.32559709036E+03 -0.14789072636E+03 -0.81382612330E+03  0.88893086973E+03  0.25500000920E-02 0.  1.
       -2    1    3    3    0  502 -0.32559709036E+03  0.14789072636E+03  0.73158318372E+03  0.81430896280E+03  0.25500000920E-02 0. -1.
</event>
<event>
 5   0  0.1423543E-05  0.1700470E+04  0.7818609E-02  0.8761096E-01
        2   -1    0    0  501    0  0.00000000000E+00  0.00000000000E+00  0.52467811311E+03  0.52467811311E+03  0.25500000920E-02 0. -1.
       -2   -1    0    0    0  501  0.00000000000E+00  0.00000000000E+00 -0.13777960558E+04  0.13777960558E+04  0.25500000920E-02 0.  1.
    10030    2    1    2    0    0  0.00000000000E+00  0.00000000000E+00 -0.85311794266E+03  0.19024741689E+04  0.17004698583E+04 0.  0.
        3    1    3    3  502    0  0.44534454396E+03  0.82308550133E+02 -0.12316183301E+04  0.13122462351E+04  0.10100000352E+00 0.  1.
       -3    1    3    3    0  502 -0.44534454396E+03 -0.82308550133E+02  0.37850038748E+03  0.59022793376E+03  0.10100000352E+00 0. -1.
</event>
<event>
 5   0  0.7455669E-06  0.1697316E+04  0.7818609E-02  0.8762897E-01
        1   -1    0    0  501    0  0.00000000000E+00  0.00000000000E+00  0.10040971820E+04  0.10040971820E+04  0.50400001928E-02 0. -1.
       -1   -1    0    0    0  501  0.00000000000E+00  0.00000000000E+00 -0.71728132208E+03  0.71728132210E+03  0.50400001928E-02 0.  1.
    10030    2    1    2    0    0  0.00000000000E+00  0.00000000000E+00  0.28681585994E+03  0.17213785041E+04  0.16973157093E+04 0.  0.
        4    1    3    3  502    0  0.75328310258E+03 -0.17231400091E+03  0.49922508559E+03  0.91997545974E+03  0.12699999809E+01 0. -1.
       -4    1    3    3    0  502 -0.75328310258E+03  0.17231400091E+03 -0.21240922564E+03  0.80140304440E+03  0.12699999809E+01 0.  1.
</event>
<event>
 5   0  0.7455669E-06  0.1701359E+04  0.7818609E-02  0.8760590E-01
        1   -1    0    0  501    0  0.00000000000E+00  0.00000000000E+00  0.45625257527E+03  0.45625257530E+03  0.50400001928E-02 0. -1.
       -1   -1    0    0    0  501  0.00000000000E+00  0.00000000000E+00 -0.15860860228E+04  0.15860860228E+04  0.50400001928E-02 0.  1.
    10030    2    1    2    0    0  0.00000000000E+00  0.00000000000E+00 -0.11298334476E+04  0.20423385981E+04  0.17013592596E+04 0.  0.
        4    1    3    3  502    0 -0.25886933308E+03  0.80878414260E+03 -0.50478680855E+03  0.98790508446E+03  0.12699999809E+01 0.  1.
       -4    1    3    3    0  502  0.25886933308E+03 -0.80878414260E+03 -0.62504663901E+03  0.10544335137E+04  0.12699999809E+01 0. -1.
</event>
<event>
 5   0  0.1374441E-05  0.1699841E+04  0.7818609E-02  0.8761455E-01
       -2   -1    0    0    0  501  0.00000000000E+00  0.00000000000E+00  0.61607091615E+03  0.61607091616E+03  0.25500000920E-02 0.  1.
        2   -1    0    0  501    0  0.00000000000E+00  0.00000000000E+00 -0.11725358594E+04  0.11725358594E+04  0.25500000920E-02 0. -1.
    10030    2    1    2    0    0  0.00000000000E+00  0.00000000000E+00 -0.55646494324E+03  0.17886067756E+04  0.16998414528E+04 0.  0.
        1    1    3    3  502    0  0.30019294739E+03  0.41111574887E+03 -0.99438632078E+03  0.11171106121E+04  0.50400001928E-02 0. -1.
       -1    1    3    3    0  502 -0.30019294739E+03 -0.41111574887E+03  0.43792137754E+03  0.67149616348E+03  0.50400001928E-02 0.  1.
</event>
<event>
 5   0  0.1419012E-05  0.1698423E+04  0.7818609E-02  0.8762264E-01
       -2   -1    0    0    0  501  0.00000000000E+00  0.00000000000E+00  0.10391428205E+04  0.10391428205E+04  0.25500000920E-02 0. -1.
        2   -1    0    0  501    0  0.00000000000E+00  0.00000000000E+00 -0.69399563756E+03  0.69399563757E+03  0.25500000920E-02 0.  1.
    10030    2    1    2    0    0  0.00000000000E+00  0.00000000000E+00  0.34514718293E+03  0.17331384581E+04  0.16984234857E+04 0.  0.
        4    1    3    3  502    0  0.81947984383E+03  0.15829088863E+03  0.33247927026E+03  0.89841376766E+03  0.12699999809E+01 0. -1.
       -4    1    3    3    0  502 -0.81947984383E+03 -0.15829088863E+03  0.12667912667E+02  0.83472469040E+03  0.12699999809E+01 0.  1.
</event>
<event>
 5   0  0.7583716E-06  0.1699632E+04  0.7818609E-02  0.8761574E-01
       -1   -1    0    0    0  501  0.00000000000E+00  0.00000000000E+00  0.37901252670E+03  0.37901252674E+03  0.50400001928E-02 0.  1.
        1   -1    0    0  501    0  0.00000000000E+00  0.00000000000E+00 -0.19054443768E+04  0.19054443768E+04  0.50400001928E-02 0. -1.
    10030    2    1    2    0    0  0.00000000000E+00  0.00000000000E+00 -0.15264318501E+04  0.22844569036E+04  0.16996320635E+04 0.  0.
        5    1    3    3  502    0  0.33788781535E+03  0.61932150817E+03 -0.13999764676E+04  0.15677000689E+04  0.46999998093E+01 0. -1.
       -5    1    3    3    0  502 -0.33788781535E+03 -0.61932150817E+03 -0.12645538251E+03  0.71675683464E+03  0.46999998093E+01 0.  1.
</event>
<event>
 5   0  0.1374441E-05  0.1699861E+04  0.7818609E-02  0.8761444E-01
       -2   -1    0    0    0  501  0.00000000000E+00  0.00000000000E+00  0.71232576672E+03  0.71232576672E+03  0.25500000920E-02 0. -1.
        2   -1    0    0  501    0  0.00000000000E+00  0.00000000000E+00 -0.10141169004E+04  0.10141169004E+04  0.25500000920E-02 0.  1.
    10030    2    1    2    0    0  0.00000000000E+00  0.00000000000E+00 -0.30179113364E+03  0.17264426671E+04  0.16998606985E+04 0.  0.
        1    1    3    3  502    0 -0.35764065214E+03 -0.20664353591E+03  0.60353475225E+03  0.73134300037E+03  0.50400001928E-02 0. -1.
       -1    1    3    3    0  502  0.35764065214E+03  0.20664353591E+03 -0.90532588589E+03  0.99509966670E+03  0.50400001928E-02 0.  1.
</event>
<event>
 5   0  0.1423543E-05  0.1699660E+04  0.7818609E-02  0.8761558E-01
        2   -1    0    0  501    0  0.00000000000E+00  0.00000000000E+00  0.98339976450E+03  0.98339976450E+03  0.25500000920E-02 0. -1.
       -2   -1    0    0    0  501  0.00000000000E+00  0.00000000000E+00 -0.73440260058E+03  0.73440260059E+03  0.25500000920E-02 0.  1.
    10030    2    1    2    0    0  0.00000000000E+00  0.00000000000E+00  0.24899716392E+03  0.17178023651E+04  0.16996603713E+04 0.  0.
        3    1    3    3  502    0 -0.65820305960E+03  0.23139222458E+03  0.61489699434E+03  0.92998492090E+03  0.10100000352E+00 0. -1.
       -3    1    3    3    0  502  0.65820305960E+03 -0.23139222458E+03 -0.36589983042E+03  0.78781744419E+03  0.10100000352E+00 0.  1.
</event>
<event>
 5   0  0.7082527E-06  0.1699924E+04  0.7818609E-02  0.8761408E-01
        1   -1    0    0  501    0  0.00000000000E+00  0.00000000000E+00  0.13769010805E+04  0.13769010805E+04  0.50400001928E-02 0.  1.
       -1   -1    0    0    0  501  0.00000000000E+00  0.00000000000E+00 -0.52468233394E+03  0.52468233396E+03  0.50400001928E-02 0. -1.
    10030    2    1    2    0    0  0.00000000000E+00  0.00000000000E+00  0.85221874658E+03  0.19015834145E+04  0.16999243190E+04 0.  0.
        1    1    3    3  502    0  0.63017687032E+03 -0.22627802126E+01 -0.21190864198E+03  0.66485583447E+03  0.50400001928E-02 0. -1.
       -1    1    3    3    0  502 -0.63017687032E+03  0.22627802126E+01  0.10641273886E+04  0.12367275800E+04  0.50400001928E-02 0.  1.
</event>
<event>
 5   0  0.7082527E-06  0.1700234E+04  0.7818609E-02  0.8761231E-01
       -1   -1    0    0    0  501  0.00000000000E+00  0.00000000000E+00  0.69632291552E+03  0.69632291554E+03  0.50400001928E-02 0.  1.
        1   -1    0    0  501    0  0.00000000000E+00  0.00000000000E+00 -0.10378787264E+04  0.10378787264E+04  0.50400001928E-02 0. -1.
    10030    2    1    2    0    0  0.00000000000E+00  0.00000000000E+00 -0.34155581084E+03  0.17342016419E+04  0.17002337965E+04 0.  0.
        1    1    3    3  502    0 -0.62937600809E+02  0.41670601711E+03 -0.92383261253E+03  0.10154170288E+04  0.50400001928E-02 0. -1.
       -1    1    3    3    0  502  0.62937600809E+02 -0.41670601711E+03  0.58227680169E+03  0.71878461315E+03  0.50400001928E-02 0.  1.
</event>
<event>
 5   0  0.7461128E-06  0.1700332E+04  0.7818609E-02  0.8761175E-01
       -1   -1    0    0    0  501  0.00000000000E+00  0.00000000000E+00  0.74488675745E+03  0.74488675747E+03  0.50400001928E-02 0.  1.
        1   -1    0    0  501    0  0.00000000000E+00  0.00000000000E+00 -0.97032472974E+03  0.97032472975E+03  0.50400001928E-02 0. -1.
    10030    2    1    2    0    0  0.00000000000E+00  0.00000000000E+00 -0.22543797229E+03  0.17152114872E+04  0.17003317813E+04 0.  0.
        3    1    3    3  502    0 -0.68102572269E+03  0.50265099922E+03 -0.19296365536E+03  0.86815266196E+03  0.10100000352E+00 0.  1.
       -3    1    3    3    0  502  0.68102572269E+03 -0.50265099922E+03 -0.32474316929E+02  0.84705882525E+03  0.10100000352E+00 0. -1.
</event>
<event>
 5   0  0.7583716E-06  0.1699992E+04  0.7818609E-02  0.8761369E-01
       -1   -1    0    0    0  501  0.00000000000E+00  0.00000000000E+00  0.47819356428E+03  0.47819356431E+03  0.50400001928E-02 0.  1.
        1   -1    0    0  501    0  0.00000000000E+00  0.00000000000E+00 -0.15108809102E+04  0.15108809102E+04  0.50400001928E-02 0. -1.
    10030    2    1    2    0    0  0.00000000000E+00  0.00000000000E+00 -0.10326873460E+04  0.19890744746E+04  0.16999923855E+04 0.  0.
        5    1    3    3  502    0 -0.79458625977E+03 -0.14187370152E+03 -0.82806012545E+03  0.11563741318E+04  0.46999998093E+01 0. -1.
       -5    1    3    3    0  502  0.79458625977E+03  0.14187370152E+03 -0.20462722051E+03  0.83270034273E+03  0.46999998093E+01 0.  1.
</event>
<event>
 5   0  0.7461128E-06  0.1700071E+04  0.7818609E-02  0.8761324E-01
       -1   -1    0    0    0  501  0.00000000000E+00  0.00000000000E+00  0.64777260013E+03  0.64777260015E+03  0.50400001928E-02 0. -1.
        1   -1    0    0  501    0  0.00000000000E+00  0.00000000000E+00 -0.11154540523E+04  0.11154540523E+04  0.50400001928E-02 0.  1.
    10030    2    1    2    0    0  0.00000000000E+00  0.00000000000E+00 -0.46768145214E+03  0.17632266524E+04  0.17000712594E+04 0.  0.
        3    1    3    3  502    0  0.68026201733E+03  0.43988255090E+03 -0.50090900841E+03  0.95245100436E+03  0.10100000352E+00 0.  1.
       -3    1    3    3    0  502 -0.68026201733E+03 -0.43988255090E+03  0.33227556265E+02  0.81077564807E+03  0.10100000352E+00 0. -1.
</event>
<event>
 5   0  0.1419012E-05  0.1699592E+04  0.7818609E-02  0.8761597E-01
        2   -1    0    0  501    0  0.00000000000E+00  0.00000000000E+00  0.70400206142E+03  0.70400206142E+03  0.25500000920E-02 0. -1.
       -2   -1    0    0    0  501  0.00000000000E+00  0.00000000000E+00 -0.10257823308E+04  0.10257823308E+04  0.25500000920E-02 0.  1.
    10030    2    1    2    0    0  0.00000000000E+00  0.00000000000E+00 -0.32178026942E+03  0.17297843923E+04  0.16995915692E+04 0.  0.
        4    1    3    3  502    0  0.35991618420E+03  0.33261907752E+03 -0.86746824870E+03  0.99633221658E+03  0.12699999809E+01 0.  1.
       -4    1    3    3    0  502 -0.35991618420E+03 -0.33261907752E+03  0.54568797929E+03  0.73345217569E+03  0.12699999809E+01 0. -1.
</event>
<event>
 5   0  0.1374441E-05  0.1700089E+04  0.7818609E-02  0.8761313E-01
        2   -1    0    0  501    0  0.00000000000E+00  0.00000000000E+00  0.25280164566E+04  0.25280164566E+04  0.25500000920E-02 0. -1.
       -2   -1    0    0    0  501  0.00000000000E+00  0.00000000000E+00 -0.28582720276E+03  0.28582720277E+03  0.25500000920E-02 0.  1.
    10030    2    1    2    0    0  0.00000000000E+00  0.00000000000E+00  0.22421892539E+04  0.28138436594E+04  0.17000892592E+04 0.  0.
        1    1    3    3  502    0 -0.10801144383E+03  0.21844779476E+03 -0.22677290538E+03  0.33288415654E+03  0.50400001928E-02 0.  1.
       -1    1    3    3    0  502  0.10801144383E+03 -0.21844779476E+03  0.24689621592E+04  0.24809595029E+04  0.50400001928E-02 0. -1.
</event>
<event>
 5   0  0.7476457E-06  0.1699646E+04  0.7818609E-02  0.8761566E-01
        1   -1    0    0  501    0  0.00000000000E+00  0.00000000000E+00  0.10364917486E+04  0.10364917486E+04  0.50400001928E-02 0.  1.
       -1   -1    0    0    0  501  0.00000000000E+00  0.00000000000E+00 -0.69677251057E+03  0.69677251059E+03  0.50400001928E-02 0. -1.
    10030    2    1    2    0    0  0.00000000000E+00  0.00000000000E+00  0.33971923801E+03  0.17332642592E+04  0.16996457959E+04 0.  0.
        2    1    3    3  502    0 -0.38799206628E+03 -0.22523173856E+03 -0.56617252807E+03  0.72237006520E+03  0.25500000920E-02 0. -1.
       -2    1    3    3    0  502  0.38799206628E+03  0.22523173856E+03  0.90589176608E+03  0.10108941940E+04  0.25500000920E-02 0.  1.
</event>
<event>
 5   0  0.1441756E-05  0.1700940E+04  0.7818609E-02  0.8760828E-01
        2   -1    0    0  501    0  0.00000000000E+00  0.00000000000E+00  0.10085831336E+04  0.10085831336E+04  0.25500000920E-02 0.  1.
       -2   -1    0    0    0  501  0.00000000000E+00  0.00000000000E+00 -0.71714426667E+03  0.71714426668E+03  0.25500000920E-02 0. -1.
    10030    2    1    2    0    0  0.00000000000E+00  0.00000000000E+00  0.29143886693E+03  0.17257274003E+04  0.17009404595E+04 0.  0.
        5    1    3    3  502    0  0.13052447043E+03  0.10114287840E+03  0.99214960470E+03  0.10058078581E+04  0.46999998093E+01 0.  1.
       -5    1    3    3    0  502 -0.13052447043E+03 -0.10114287840E+03 -0.70071073777E+03  0.71991954221E+03  0.46999998093E+01 0. -1.
</event>
<event>
 5   0  0.7476457E-06  0.1699833E+04  0.7818609E-02  0.8761460E-01
       -1   -1    0    0    0  501  0.00000000000E+00  0.00000000000E+00  0.12364887840E+04  0.12364887840E+04  0.50400001928E-02 0.  1.
        1   -1    0    0  501    0  0.00000000000E+00  0.00000000000E+00 -0.58420117394E+03  0.58420117396E+03  0.50400001928E-02 0. -1.
    10030    2    1    2    0    0  0.00000000000E+00  0.00000000000E+00  0.65228761004E+03  0.18206899579E+04  0.16998331673E+04 0.  0.
        2    1    3    3  502    0  0.16250935809E+03 -0.19017930944E+03  0.11961643614E+04  0.12220419963E+04  0.25500000920E-02 0.  1.
       -2    1    3    3    0  502 -0.16250935809E+03  0.19017930944E+03 -0.54387675141E+03  0.59864796161E+03  0.25500000920E-02 0. -1.
</event>
<event>
 5   0  0.1435301E-05  0.1699934E+04  0.7818609E-02  0.8761402E-01
        2   -1    0    0  501    0  0.00000000000E+00  0.00000000000E+00  0.11443313352E+04  0.11443313352E+04  0.25500000920E-02 0. -1.
       -2   -1    0    0    0  501  0.00000000000E+00  0.00000000000E+00 -0.63132441805E+03  0.63132441805E+03  0.25500000920E-02 0.  1.
    10030    2    1    2    0    0  0.00000000000E+00  0.00000000000E+00  0.51300691716E+03  0.17756557533E+04  0.16999344861E+04 0.  0.
        2    1    3    3  502    0 -0.39268908093E+03  0.75341749226E+03  0.23088162435E+03  0.88042544056E+03  0.25500000920E-02 0. -1.
       -2    1    3    3    0  502  0.39268908093E+03 -0.75341749226E+03  0.28212529281E+03  0.89523031270E+03  0.25500000920E-02 0.  1.
</event>
<event>
 5   0  0.1423543E-05  0.1698664E+04  0.7818609E-02  0.8762127E-01
       -2   -1    0    0    0  501  0.00000000000E+00  0.00000000000E+00  0.34307845589E+03  0.34307845590E+03  0.25500000920E-02 0.  1.
        2   -1    0    0  501    0  0.00000000000E+00  0.00000000000E+00 -0.21026238368E+04  0.21026238368E+04  0.25500000920E-02 0. -1.
    10030    2    1    2    0    0  0.00000000000E+00  0.00000000000E+00 -0.17595453809E+04  0.24457022927E+04  0.16986641095E+04 0.  0.
        3    1    3    3  502    0  0.64316457663E+03  0.13378181414E+03 -0.10468600308E+03  0.66521982522E+03  0.10100000352E+00 0.  1.
       -3    1    3    3    0  502 -0.64316457663E+03 -0.13378181414E+03 -0.16548593778E+04  0.17804824675E+04  0.10100000352E+00 0. -1.
</event>
<event>
 5   0  0.5229750E-06  0.1700214E+04  0.7818609E-02  0.8761242E-01
        3   -1    0    0  501    0  0.00000000000E+00  0.00000000000E+00  0.89312276447E+03  0.89312277018E+03  0.10100000352E+00 0.  1.
       -3   -1    0    0    0  501  0.00000000000E+00  0.00000000000E+00 -0.80916346253E+03  0.80916346883E+03  0.10100000352E+00 0. -1.
    10030    2    1    2    0    0  0.00000000000E+00  0.00000000000E+00  0.83959301941E+02  0.17022862390E+04  0.17002144792E+04 0.  0.
        5    1    3    3  502    0 -0.28016247996E+03 -0.38973006887E+03 -0.66050175922E+03  0.81649568627E+03  0.46999998093E+01 0. -1.
       -5    1    3    3    0  502  0.28016247996E+03  0.38973006887E+03  0.74446106116E+03  0.88579055275E+03  0.46999998093E+01 0.  1.
</event>
<event>
 5   0  0.1374441E-05  0.1699838E+04  0.7818609E-02  0.8761457E-01
       -2   -1    0    0    0  501  0.00000000000E+00  0.00000000000E+00  0.55944495677E+03  0.55944495677E+03  0.25500000920E-02 0. -1.
        2   -1    0    0  501    0  0.00000000000E+00  0.00000000000E+00 -0.12912119437E+04  0.12912119437E+04  0.25500000920E-02 0.  1.
    10030    2    1    2    0    0  0.00000000000E+00  0.00000000000E+00 -0.73176698690E+03  0.18506569004E+04  0.16998376511E+04 0.  0.
        1    1    3    3  502    0 -0.66565992130E+03  0.30464651845E+03  0.10422590719E+03  0.73944281170E+03  0.50400001928E-02 0. -1.
       -1    1    3    3    0  502  0.66565992130E+03 -0.30464651845E+03 -0.83599289409E+03  0.11112140887E+04  0.50400001928E-02 0.  1.
</event>
<event>
 5   0  0.1419012E-05  0.1700270E+04  0.7818609E-02  0.8761210E-01
       -2   -1    0    0    0  501  0.00000000000E+00  0.00000000000E+00  0.37831233796E+03  0.37831233797E+03  0.25500000920E-02 0. -1.
        2   -1    0    0  501    0  0.00000000000E+00  0.00000000000E+00 -0.19104053350E+04  0.19104053350E+04  0.25500000920E-02 0.  1.
    10030    2    1    2    0    0  0.00000000000E+00  0.00000000000E+00 -0.15320929970E+04  0.22887176730E+04  0.17002704594E+04 0.  0.
        4    1    3    3  502    0  0.76093327070E+03 -0.29222931118E+03 -0.44099735729E+03  0.92676733586E+03  0.12699999809E+01 0.  1.
       -4    1    3    3    0  502 -0.76093327070E+03  0.29222931118E+03 -0.10910956397E+04  0.13619503371E+04  0.12699999809E+01 0. -1.
</event>
<event>
 5   0  0.7583716E-06  0.1699512E+04  0.7818609E-02  0.8761643E-01
       -1   -1    0    0    0  501  0.00000000000E+00  0.00000000000E+00  0.46449099861E+03  0.46449099864E+03  0.50400001928E-02 0.  1.
        1   -1    0    0  501    0  0.00000000000E+00  0.00000000000E+00 -0.15545728315E+04  0.15545728315E+04  0.50400001928E-02 0. -1.
    10030    2    1    2    0    0  0.00000000000E+00  0.00000000000E+00 -0.10900818329E+04  0.20190638301E+04  0.16995117969E+04 0.  0.
        5    1    3    3  502    0  0.47157156563E+03 -0.57529175540E+03 -0.57049074897E+02  0.74606771294E+03  0.46999998093E+01 0.  1.
       -5    1    3    3    0  502 -0.47157156563E+03  0.57529175540E+03 -0.10330327580E+04  0.12729961172E+04  0.46999998093E+01 0. -1.
</event>
<event>
 5   0  0.7455669E-06  0.1700373E+04  0.7818609E-02  0.8761152E-01
       -1   -1    0    0    0  501  0.00000000000E+00  0.00000000000E+00  0.54237325726E+03  0.54237325729E+03  0.50400001928E-02 0.  1.
        1   -1    0    0  501    0  0.00000000000E+00  0.00000000000E+00 -0.13326923836E+04  0.13326923836E+04  0.50400001928E-02 0. -1.
    10030    2    1    2    0    0  0.00000000000E+00  0.00000000000E+00 -0.79031912630E+03  0.18750656409E+04  0.17003725580E+04 0.  0.
        4    1    3    3  502    0  0.84572083771E+03 -0.79635909249E+02 -0.43382595154E+03  0.95383026924E+03  0.12699999809E+01 0. -1.
       -4    1    3    3    0  502 -0.84572083771E+03  0.79635909249E+02 -0.35649317476E+03  0.92123537163E+03  0.12699999809E+01 0.  1.
</event>
<event>
 5   0  0.7583716E-06  0.1699528E+04  0.7818609E-02  0.8761634E-01
       -1   -1    0    0    0  501  0.00000000000E+00  0.00000000000E+00  0.60422766904E+03  0.60422766906E+03  0.50400001928E-02 0. -1.
        1   -1    0    0  501    0  0.00000000000E+00  0.00000000000E+00 -0.11950774302E+04  0.11950774302E+04  0.50400001928E-02 0.  1.
    10030    2    1    2    0    0  0.00000000000E+00  0.00000000000E+00 -0.59084976118E+03  0.17993050993E+04  0.16995279933E+04 0.  0.
        5    1    3    3  502    0 -0.18702985208E+03 -0.53289046954E+03 -0.96762099840E+03  0.11203860516E+04  0.46999998093E+01 0.  1.
       -5    1    3    3    0  502  0.18702985208E+03  0.53289046954E+03  0.37677123723E+03  0.67891904767E+03  0.46999998093E+01 0. -1.
</event>
<event>
 5   0  0.1423543E-05  0.1700411E+04  0.7818609E-02  0.8761130E-01
        2   -1    0    0  501    0  0.00000000000E+00  0.00000000000E+00  0.72957067903E+03  0.72957067904E+03  0.25500000920E-02 0. -1.
       -2   -1    0    0    0  501  0.00000000000E+00  0.00000000000E+00 -0.99078696464E+03  0.99078696464E+03  0.25500000920E-02 0.  1.
    10030    2    1    2    0    0  0.00000000000E+00  0.00000000000E+00 -0.26121628560E+03  0.17203576437E+04  0.17004106781E+04 0.  0.
        3    1    3    3  502    0  0.36972583100E+03  0.40469012731E+03  0.52692170147E+03  0.76034056773E+03  0.10100000352E+00 0. -1.
       -3    1    3    3    0  502 -0.36972583100E+03 -0.40469012731E+03 -0.78813798707E+03  0.96001707595E+03  0.10100000352E+00 0.  1.
</event>
<event>
 5   0  0.1435301E-05  0.1700454E+04  0.7818609E-02  0.8761105E-01
        2   -1    0    0  501    0  0.00000000000E+00  0.00000000000E+00  0.18360781262E+04  0.18360781262E+04  0.25500000920E-02 0. -1.
       -2   -1    0    0    0  501  0.00000000000E+00  0.00000000000E+00 -0.39371206994E+03  0.39371206995E+03  0.25500000920E-02 0.  1.
    10030    2    1    2    0    0  0.00000000000E+00  0.00000000000E+00  0.14423660562E+04  0.22297901961E+04  0.17004541977E+04 0.  0.
        2    1    3    3  502    0 -0.10561258881E+03 -0.31717398500E+03  0.17462844760E+04  0.17779940457E+04  0.25500000920E-02 0. -1.
       -2    1    3    3    0  502  0.10561258881E+03  0.31717398500E+03 -0.30391841971E+03  0.45179615041E+03  0.25500000920E-02 0.  1.
</event>
<event>
 5   0  0.1441756E-05  0.1699827E+04  0.7818609E-02  0.8761463E-01
       -2   -1    0    0    0  501  0.00000000000E+00  0.00000000000E+00  0.12885231305E+04  0.12885231305E+04  0.25500000920E-02 0.  1.
        2   -1    0    0  501    0  0.00000000000E+00  0.00000000000E+00 -0.56060511473E+03  0.56060511473E+03  0.25500000920E-02 0. -1.
    10030    2    1    2    0    0  0.00000000000E+00  0.00000000000E+00  0.72791801580E+03  0.18491282453E+04  0.16998266469E+04 0.  0.
        5    1    3    3  502    0  0.34839651294E+03  0.21578050853E+03  0.11739305933E+04  0.12434132402E+04  0.46999998093E+01 0.  1.
       -5    1    3    3    0  502 -0.34839651294E+03 -0.21578050853E+03 -0.44601257747E+03  0.60571500506E+03  0.46999998093E+01 0. -1.
</event>
<event>
 5   0  0.7455669E-06  0.1699740E+04  0.7818609E-02  0.8761513E-01
       -1   -1    0    0    0  501  0.00000000000E+00  0.00000000000E+00  0.73380863255E+03  0.73380863257E+03  0.50400001928E-02 0. -1.
        1   -1    0    0  501    0  0.00000000000E+00  0.00000000000E+00 -0.98428756775E+03  0.98428756776E+03  0.50400001928E-02 0.  1.
    10030    2    1    2    0    0  0.00000000000E+00  0.00000000000E+00 -0.25047893520E+03  0.17180962003E+04  0.16997396438E+04 0.  0.
        4    1    3    3  502    0 -0.67173211478E+03  0.93260304983E+02 -0.64297769045E+03  0.93452845961E+03  0.12699999809E+01 0.  1.
       -4    1    3    3    0  502  0.67173211478E+03 -0.93260304983E+02  0.39249875525E+03  0.78356774072E+03  0.12699999809E+01 0. -1.
</event>
<event>
 5   0  0.7082527E-06  0.1700190E+04  0.7818609E-02  0.8761256E-01
       -1   -1    0    0    0  501  0.00000000000E+00  0.00000000000E+00  0.85554836297E+03  0.85554836298E+03  0.50400001928E-02 0. -1.
        1   -1    0    0  501    0  0.00000000000E+00  0.00000000000E+00 -0.84467661080E+03  0.84467661082E+03  0.50400001928E-02 0.  1.
    10030    2    1    2    0    0  0.00000000000E+00  0.00000000000E+00  0.10871752163E+02  0.17002249738E+04  0.17001902148E+04 0.  0.
        1    1    3    3  502    0  0.19414424014E+03  0.81168907725E+03 -0.15621688743E+03  0.84907883029E+03  0.50400001928E-02 0.  1.
       -1    1    3    3    0  502 -0.19414424014E+03 -0.81168907725E+03  0.16708863959E+03  0.85114614351E+03  0.50400001928E-02 0. -1.
</event>
<event>
 5   0  0.1435301E-05  0.1698733E+04  0.7818609E-02  0.8762088E-01
        2   -1    0    0  501    0  0.00000000000E+00  0.00000000000E+00  0.82176859378E+03  0.82176859379E+03  0.25500000920E-02 0.  1.
       -2   -1    0    0    0  501  0.00000000000E+00  0.00000000000E+00 -0.87789082037E+03  0.87789082038E+03  0.25500000920E-02 0. -1.
    10030    2    1    2    0    0  0.00000000000E+00  0.00000000000E+00 -0.56122226589E+02  0.16996594142E+04  0.16987325922E+04 0.  0.
        2    1    3    3  502    0  0.31890977763E+02  0.80844893229E+03  0.23056859072E+03  0.84128983449E+03  0.25500000920E-02 0. -1.
       -2    1    3    3    0  502 -0.31890977763E+02 -0.80844893229E+03 -0.28669081731E+03  0.85836957968E+03  0.25500000920E-02 0.  1.
</event>
<event>
 5   0  0.5229750E-06  0.1699597E+04  0.7818609E-02  0.8761594E-01
        3   -1    0    0  501    0  0.00000000000E+00  0.00000000000E+00  0.14391099062E+04  0.14391099098E+04  0.10100000352E+00 0.  1.
       -3   -1    0    0    0  501  0.00000000000E+00  0.00000000000E+00 -0.50180862934E+03  0.50180863950E+03  0.10100000352E+00 0. -1.
    10030    2    1    2    0    0  0.00000000000E+00  0.00000000000E+00  0.93730127691E+03  0.19409185493E+04  0.16995973439E+04 0.  0.
        3    1    3    3  502    0  0.73390394997E+03 -0.39705636310E+03  0.28490417747E+03  0.88172510671E+03  0.10100000352E+00 0. -1.
       -3    1    3    3    0  502 -0.73390394997E+03  0.39705636310E+03  0.65239709944E+03  0.10591934426E+04  0.10100000352E+00 0.  1.
</event>
<event>
 5   0  0.7455669E-06  0.1701369E+04  0.7818609E-02  0.8760584E-01
        1   -1    0    0  501    0  0.00000000000E+00  0.00000000000E+00  0.11279369197E+04  0.11279369197E+04  0.50400001928E-02 0. -1.
       -1   -1    0    0    0  501  0.00000000000E+00  0.00000000000E+00 -0.64158176733E+03  0.64158176735E+03  0.50400001928E-02 0.  1.
    10030    2    1    2    0    0  0.00000000000E+00  0.00000000000E+00  0.48635515232E+03  0.17695186870E+04  0.17013685813E+04 0.  0.
        4    1    3    3  502    0  0.18320666351E+03  0.49768158426E+03  0.93495990167E+03  0.10748968655E+04  0.12699999809E+01 0. -1.
       -4    1    3    3    0  502 -0.18320666351E+03 -0.49768158426E+03 -0.44860474935E+03  0.69462182150E+03  0.12699999809E+01 0.  1.
</event>
<event>
 5   0  0.1419012E-05  0.1700195E+04  0.7818609E-02  0.8761253E-01
        2   -1    0    0  501    0  0.00000000000E+00  0.00000000000E+00  0.59563642311E+03  0.59563642311E+03  0.25500000920E-02 0.  1.
       -2   -1    0    0    0  501  0.00000000000E+00  0.00000000000E+00 -0.12132669668E+04  0.12132669668E+04  0.25500000920E-02 0. -1.
    10030    2    1    2    0    0  0.00000000000E+00  0.00000000000E+00 -0.61763054371E+03  0.18089033899E+04  0.17001952787E+04 0.  0.
        4    1    3    3  502    0  0.41916461329E+03  0.48802155290E+03 -0.90004392835E+03  0.11063203401E+04  0.12699999809E+01 0. -1.
       -4    1    3    3    0  502 -0.41916461329E+03 -0.48802155290E+03  0.28241338464E+03  0.70258304980E+03  0.12699999809E+01 0.  1.
</event>
<event>
 5   0  0.7583716E-06  0.1699756E+04  0.7818609E-02  0.8761503E-01
       -1   -1    0    0    0  501  0.00000000000E+00  0.00000000000E+00  0.50490328612E+03  0.50490328615E+03  0.50400001928E-02 0. -1.
        1   -1    0    0  501    0  0.00000000000E+00  0.00000000000E+00 -0.14305565204E+04  0.14305565204E+04  0.50400001928E-02 0.  1.
    10030    2    1    2    0    0  0.00000000000E+00  0.00000000000E+00 -0.92565323428E+03  0.19354598066E+04  0.16997560862E+04 0.  0.
        5    1    3    3  502    0  0.11506305102E+02 -0.14522208327E+03 -0.14162189641E+04  0.14236994390E+04  0.46999998093E+01 0.  1.
       -5    1    3    3    0  502 -0.11506305102E+02  0.14522208327E+03  0.49056572979E+03  0.51176036752E+03  0.46999998093E+01 0. -1.
</event>
<event>
 5   0  0.1423543E-05  0.1699259E+04  0.7818609E-02  0.8761787E-01
        2   -1    0    0  501    0  0.00000000000E+00  0.00000000000E+00  0.12936059459E+04  0.12936059459E+04  0.25500000920E-02 0. -1.
       -2   -1    0    0    0  501  0.00000000000E+00  0.00000000000E+00 -0.55802954327E+03  0.55802954328E+03  0.25500000920E-02 0.  1.
    10030    2    1    2    0    0  0.00000000000E+00  0.00000000000E+00  0.73557640259E+03  0.18516354891E+04  0.16992590564E+04 0.  0.
        3    1    3    3  502    0  0.23140395689E+02 -0.51398056992E+02  0.12915662466E+04  0.12927956597E+04  0.10100000352E+00 0. -1.
       -3    1    3    3    0  502 -0.23140395689E+02  0.51398056992E+02 -0.55598984399E+03  0.55883982946E+03  0.10100000352E+00 0.  1.
</event>
<event>
 5   0  0.1374441E-05  0.1699270E+04  0.7818609E-02  0.8761781E-01
        2   -1    0    0  501    0  0.00000000000E+00  0.00000000000E+00  0.10325653293E+04  0.10325653293E+04  0.25500000920E-02 0.  1.
       -2   -1    0    0    0  501  0.00000000000E+00  0.00000000000E+00 -0.69911263808E+03  0.69911263808E+03  0.25500000920E-02 0. -1.
    10030    2    1    2    0    0  0.00000000000E+00  0.00000000000E+00  0.33345269125E+03  0.17316779674E+04  0.16992698095E+04 0.  0.
        1    1    3    3  502    0 -0.38023746924E+03  0.65496340372E+03 -0.22574449714E+03  0.79026462102E+03  0.50400001928E-02 0. -1.
       -1    1    3    3    0  502  0.38023746924E+03 -0.65496340372E+03  0.55919718839E+03  0.94141334638E+03  0.50400001928E-02 0.  1.
</event>
<event>
 5   0  0.7461128E-06  0.1699863E+04  0.7818609E-02  0.8761442E-01
        1   -1    0    0  501    0  0.00000000000E+00  0.00000000000E+00  0.14716226640E+04  0.14716226641E+04  0.50400001928E-02 0. -1.
       -1   -1    0    0    0  501  0.00000000000E+00  0.00000000000E+00 -0.49087554411E+03  0.49087554414E+03  0.50400001928E-02 0.  1.
    10030    2    1    2    0    0  0.00000000000E+00  0.00000000000E+00  0.98074711994E+03  0.19624982082E+04  0.16998630250E+04 0.  0.
        3    1    3    3  502    0  0.25399558971E+03 -0.76524537545E+03  0.80073826738E+03  0.11363520701E+04  0.10100000352E+00 0. -1.
       -3    1    3    3    0  502 -0.25399558971E+03  0.76524537545E+03  0.18000885256E+03  0.82614613806E+03  0.10100000352E+00 0.  1.
</event>
<event>
 5   0  0.7476457E-06  0.1699768E+04  0.7818609E-02  0.8761497E-01
        1   -1    0    0  501    0  0.00000000000E+00  0.00000000000E+00  0.85763869184E+03  0.85763869186E+03  0.50400001928E-02 0. -1.
       -1   -1    0    0    0  501  0.00000000000E+00  0.00000000000E+00 -0.84219952867E+03  0.84219952869E+03  0.50400001928E-02 0.  1.
    10030    2    1    2    0    0  0.00000000000E+00  0.00000000000E+00  0.15439163166E+02  0.16998382205E+04  0.16997681043E+04 0.  0.
        2    1    3    3  502    0  0.18401067858E+01  0.50820527001E+03  0.68894289524E+03  0.85610647432E+03  0.25500000920E-02 0. -1.
       -2    1    3    3    0  502 -0.18401067858E+01 -0.50820527001E+03 -0.67350373207E+03  0.84373174622E+03  0.25500000920E-02 0.  1.
</event>
<event>
 5   0  0.7455669E-06  0.1700105E+04  0.7818609E-02  0.8761305E-01
        1   -1    0    0  501    0  0.00000000000E+00  0.00000000000E+00  0.10106931204E+04  0.10106931204E+04  0.50400001928E-02 0.  1.
       -1   -1    0    0    0  501  0.00000000000E+00  0.00000000000E+00 -0.71494391222E+03  0.71494391224E+03  0.50400001928E-02 0. -1.
    10030    2    1    2    0    0  0.00000000000E+00  0.00000000000E+00  0.29574920815E+03  0.17256370326E+04  0.17001045774E+04 0.  0.
        4    1    3    3  502    0 -0.51115579501E+03 -0.45305592614E+03  0.66148519223E+03  0.95084393642E+03  0.12699999809E+01 0.  1.
       -4    1    3    3    0  502  0.51115579501E+03  0.45305592614E+03 -0.36573598408E+03  0.77479309621E+03  0.12699999809E+01 0. -1.
</event>
<event>
 5   0  0.7455669E-06  0.1699441E+04  0.7818609E-02  0.8761683E-01
       -1   -1    0    0    0  501  0.00000000000E+00  0.00000000000E+00  0.12734509016E+04  0.12734509016E+04  0.50400001928E-02 0.  1.
        1   -1    0    0  501    0  0.00000000000E+00  0.00000000000E+00 -0.56698283292E+03  0.56698283294E+03  0.50400001928E-02 0. -1.
    10030    2    1    2    0    0  0.00000000000E+00  0.00000000000E+00  0.70646806867E+03  0.18404337345E+04  0.16994408490E+04 0.  0.
        4    1    3    3  502    0  0.59002534468E+03 -0.53820367396E+03  0.66753647336E+03  0.10408648607E+04  0.12699999809E+01 0.  1.
       -4    1    3    3    0  502 -0.59002534468E+03  0.53820367396E+03  0.38931595306E+02  0.79956887386E+03  0.12699999809E+01 0. -1.
</event>
<event>
 5   0  0.7082527E-06  0.1698457E+04  0.7818609E-02  0.8762245E-01
        1   -1    0    0  501    0  0.00000000000E+00  0.00000000000E+00  0.17244598492E+04  0.17244598492E+04  0.50400001928E-02 0.  1.
       -1   -1    0    0    0  501  0.00000000000E+00  0.00000000000E+00 -0.41821167108E+03  0.41821167111E+03  0.50400001928E-02 0. -1.
    10030    2    1    2    0    0  0.00000000000E+00  0.00000000000E+00  0.13062481782E+04  0.21426715204E+04  0.16984572238E+04 0.  0.
        1    1    3    3  502    0  0.22058865566E+03 -0.49813507456E+03 -0.16871015610E+03  0.57031660007E+03  0.50400001928E-02 0. -1.
       -1    1    3    3    0  502 -0.22058865566E+03  0.49813507456E+03  0.14749583343E+04  0.15723549203E+04  0.50400001928E-02 0.  1.
</event>
<event>
 5   0  0.1441756E-05  0.1700807E+04  0.7818609E-02  0.8760904E-01
        2   -1    0    0  501    0  0.00000000000E+00  0.00000000000E+00  0.10000446126E+04  0.10000446126E+04  0.25500000920E-02 0.  1.
       -2   -1    0    0    0  501  0.00000000000E+00  0.00000000000E+00 -0.72315352875E+03  0.72315352876E+03  0.25500000920E-02 0. -1.
    10030    2    1    2    0    0  0.00000000000E+00  0.00000000000E+00  0.27689108387E+03  0.17231981414E+04  0.17008066210E+04 0.  0.
        5    1    3    3  502    0 -0.58698566335E+03 -0.33957068641E+03  0.65833189174E+03  0.94513670425E+03  0.46999998093E+01 0.  1.
       -5    1    3    3    0  502  0.58698566335E+03  0.33957068641E+03 -0.38144080787E+03  0.77806143713E+03  0.46999998093E+01 0. -1.
</event>
<event>
 5   0  0.1435301E-05  0.1702574E+04  0.7818609E-02  0.8759898E-01
        2   -1    0    0  501    0  0.00000000000E+00  0.00000000000E+00  0.11486988686E+04  0.11486988686E+04  0.25500000920E-02 0.  1.
       -2   -1    0    0    0  501  0.00000000000E+00  0.00000000000E+00 -0.63087871999E+03  0.63087872000E+03  0.25500000920E-02 0. -1.
    10030    2    1    2    0    0  0.00000000000E+00  0.00000000000E+00  0.51782014863E+03  0.17795775886E+04  0.17025741357E+04 0.  0.
        2    1    3    3  502    0 -0.49033560904E+02 -0.82442563329E+02  0.11430321957E+04  0.11470499844E+04  0.25500000920E-02 0.  1.
       -2    1    3    3    0  502  0.49033560904E+02  0.82442563329E+02 -0.62521204704E+03  0.63252760423E+03  0.25500000920E-02 0. -1.
</event>
<event>
 5   0  0.7476457E-06  0.1699363E+04  0.7818609E-02  0.8761728E-01
       -1   -1    0    0    0  501  0.00000000000E+00  0.00000000000E+00  0.74371482967E+03  0.74371482968E+03  0.50400001928E-02 0.  1.
        1   -1    0    0  501    0  0.00000000000E+00  0.00000000000E+00 -0.97074637376E+03  0.97074637377E+03  0.50400001928E-02 0. -1.
    10030    2    1    2    0    0  0.00000000000E+00  0.00000000000E+00 -0.22703154409E+03  0.17144612035E+04  0.16993627912E+04 0.  0.
        2    1    3    3  502    0  0.83396271712E+03 -0.16255978109E+03 -0.10721706129E+03  0.85639651693E+03  0.25500000920E-02 0.  1.
       -2    1    3    3    0  502 -0.83396271712E+03  0.16255978109E+03 -0.11981448280E+03  0.85806468653E+03  0.25500000920E-02 0. -1.
</event>
<event>
 5   0  0.7082527E-06  0.1699894E+04  0.7818609E-02  0.8761425E-01
        1   -1    0    0  501    0  0.00000000000E+00  0.00000000000E+00  0.18898879191E+04  0.18898879191E+04  0.50400001928E-02 0. -1.
       -1   -1    0    0    0  501  0.00000000000E+00  0.00000000000E+00 -0.38225009795E+03  0.38225009798E+03  0.50400001928E-02 0.  1.
    10030    2    1    2    0    0  0.00000000000E+00  0.00000000000E+00  0.15076378211E+04  0.22721380171E+04  0.16998939287E+04 0.  0.
        1    1    3    3  502    0  0.66920781401E+03  0.15892652342E+03  0.86420084453E+02  0.69322807877E+03  0.50400001928E-02 0.  1.
       -1    1    3    3    0  502 -0.66920781401E+03 -0.15892652342E+03  0.14212177367E+04  0.15789099383E+04  0.50400001928E-02 0. -1.
</event>
<event>
 5   0  0.7461128E-06  0.1701020E+04  0.7818609E-02  0.8760783E-01
       -1   -1    0    0    0  501  0.00000000000E+00  0.00000000000E+00  0.31745383490E+03  0.31745383494E+03  0.50400001928E-02 0. -1.
        1   -1    0    0  501    0  0.00000000000E+00  0.00000000000E+00 -0.22786541517E+04  0.22786541517E+04  0.50400001928E-02 0.  1.
    10030    2    1    2    0    0  0.00000000000E+00  0.00000000000E+00 -0.19612003168E+04  0.25961079866E+04  0.17010202808E+04 0.  0.
        3    1    3    3  502    0  0.52631573871E+03  0.13585828475E+03  0.17755530914E+02  0.54385751758E+03  0.10100000352E+00 0. -1.
       -3    1    3    3    0  502 -0.52631573871E+03 -0.13585828475E+03 -0.19789558477E+04  0.20522504690E+04  0.10100000352E+00 0.  1.
</event>
<event>
 5   0  0.7082527E-06  0.1700121E+04  0.7818609E-02  0.8761295E-01
       -1   -1    0    0    0  501  0.00000000000E+00  0.00000000000E+00  0.52745407375E+03  0.52745407377E+03  0.50400001928E-02 0.  1.
        1   -1    0    0  501    0  0.00000000000E+00  0.00000000000E+00 -0.13699827856E+04  0.13699827856E+04  0.50400001928E-02 0. -1.
    10030    2    1    2    0    0  0.00000000000E+00  0.00000000000E+00 -0.84252871186E+03  0.18974368594E+04  0.17001211736E+04 0.  0.
        1    1    3    3  502    0  0.28634019193E+03 -0.17522926147E+03 -0.12928684594E+04  0.13357413121E+04  0.50400001928E-02 0. -1.
       -1    1    3    3    0  502 -0.28634019193E+03  0.17522926147E+03  0.45033974753E+03  0.56169554727E+03  0.50400001928E-02 0.  1.
</event>
<event>
 5   0  0.7455669E-06  0.1707757E+04  0.7818609E-02  0.8756953E-01
       -1   -1    0    0    0  501  0.00000000000E+00  0.00000000000E+00  0.51141480132E+03  0.51141480135E+03  0.50400001928E-02 0.  1.
        1   -1    0    0  501    0  0.00000000000E+00  0.00000000000E+00 -0.14256694880E+04  0.14256694880E+04  0.50400001928E-02 0. -1.
    10030    2    1    2    0    0  0.00000000000E+00  0.00000000000E+00 -0.91425468667E+03  0.19370842893E+04  0.17077569827E+04 0.  0.
        4    1    3    3  502    0 -0.34305308632E+03 -0.74373015389E+03 -0.18328037327E+03  0.83929331581E+03  0.12699999809E+01 0. -1.
       -4    1    3    3    0  502  0.34305308632E+03  0.74373015389E+03 -0.73097431340E+03  0.10977909735E+04  0.12699999809E+01 0.  1.
</event>
<event>
 5   0  0.7455669E-06  0.1700790E+04  0.7818609E-02  0.8760914E-01
        1   -1    0    0  501    0  0.00000000000E+00  0.00000000000E+00  0.13575488403E+04  0.13575488403E+04  0.50400001928E-02 0.  1.
       -1   -1    0    0    0  501  0.00000000000E+00  0.00000000000E+00 -0.53270393816E+03  0.53270393819E+03  0.50400001928E-02 0. -1.
    10030    2    1    2    0    0  0.00000000000E+00  0.00000000000E+00  0.82484490209E+03  0.18902527785E+04  0.17007899500E+04 0.  0.
        4    1    3    3  502    0 -0.33688402220E+02 -0.68660763665E+03 -0.14394806778E+03  0.70234437014E+03  0.12699999809E+01 0. -1.
       -4    1    3    3    0  502  0.33688402220E+02  0.68660763665E+03  0.96879296988E+03  0.11879084083E+04  0.12699999809E+01 0.  1.
</event>
<event>
 5   0  0.7461128E-06  0.1700391E+04  0.7818609E-02  0.8761141E-01
        1   -1    0    0  501    0  0.00000000000E+00  0.00000000000E+00  0.15914668162E+04  0.15914668162E+04  0.50400001928E-02 0. -1.
       -1   -1    0    0    0  501  0.00000000000E+00  0.00000000000E+00 -0.45419262828E+03  0.45419262831E+03  0.50400001928E-02 0.  1.
    10030    2    1    2    0    0  0.00000000000E+00  0.00000000000E+00  0.11372741879E+04  0.20456594445E+04  0.17003911269E+04 0.  0.
        3    1    3    3  502    0 -0.68846471582E+03 -0.10244332693E+03  0.11559856383E+04  0.13493632225E+04  0.10100000352E+00 0. -1.
       -3    1    3    3    0  502  0.68846471582E+03  0.10244332693E+03 -0.18711450383E+02  0.69629622198E+03  0.10100000352E+00 0.  1.
</event>
<event>
 5   0  0.1435301E-05  0.1699819E+04  0.7818609E-02  0.8761468E-01
       -2   -1    0    0    0  501  0.00000000000E+00  0.00000000000E+00  0.47978735107E+03  0.47978735107E+03  0.25500000920E-02 0. -1.
        2   -1    0    0  501    0  0.00000000000E+00  0.00000000000E+00 -0.15055545563E+04  0.15055545563E+04  0.25500000920E-02 0.  1.
    10030    2    1    2    0    0  0.00000000000E+00  0.00000000000E+00 -0.10257672053E+04  0.19853419074E+04  0.16998188521E+04 0.  0.
        2    1    3    3  502    0  0.69435842826E+03 -0.41158776685E+03 -0.20208892427E+03  0.83209257300E+03  0.25500000920E-02 0. -1.
       -2    1    3    3    0  502 -0.69435842826E+03  0.41158776685E+03 -0.82367828099E+03  0.11532493344E+04  0.25500000920E-02 0.  1.
</event>
<event>
 5   0  0.7583716E-06  0.1699770E+04  0.7818609E-02  0.8761495E-01
       -1   -1    0    0    0  501  0.00000000000E+00  0.00000000000E+00  0.41690200089E+03  0.41690200092E+03  0.50400001928E-02 0.  1.
        1   -1    0    0  501    0  0.00000000000E+00  0.00000000000E+00 -0.17325530898E+04  0.17325530898E+04  0.50400001928E-02 0. -1.
    10030    2    1    2    0    0  0.00000000000E+00  0.00000000000E+00 -0.13156510889E+04  0.21494550908E+04  0.16997703961E+04 0.  0.
        5    1    3    3  502    0 -0.20557898699E+03 -0.82446115090E+03 -0.67913061788E+03  0.10877680798E+04  0.46999998093E+01 0.  1.
       -5    1    3    3    0  502  0.20557898699E+03  0.82446115090E+03 -0.63652047106E+03  0.10616870110E+04  0.46999998093E+01 0. -1.
</event>
<event>
 5   0  0.1374441E-05  0.1699805E+04  0.7818609E-02  0.8761475E-01
       -2   -1    0    0    0  501  0.00000000000E+00  0.00000000000E+00  0.54290251313E+03  0.54290251314E+03  0.25500000920E-02 0.  1.
        2   -1    0    0  501    0  0.00000000000E+00  0.00000000000E+00 -0.13305052733E+04  0.13305052733E+04  0.25500000920E-02 0. -1.
    10030    2    1    2    0    0  0.00000000000E+00  0.00000000000E+00 -0.78760276019E+03  0.18734077865E+04  0.16998054673E+04 0.  0.
        1    1    3    3  502    0 -0.26672907477E+03  0.69276770322E+03 -0.84990664363E+03  0.11284559331E+04  0.50400001928E-02 0. -1.
       -1    1    3    3    0  502  0.26672907477E+03 -0.69276770322E+03  0.62303883443E+02  0.74495185339E+03  0.50400001928E-02 0.  1.
</event>
<event>
 5   0  0.7461128E-06  0.1700318E+04  0.7818609E-02  0.8761183E-01
       -1   -1    0    0    0  501  0.00000000000E+00  0.00000000000E+00  0.27249177375E+03  0.27249177379E+03  0.50400001928E-02 0.  1.
        1   -1    0    0  501    0  0.00000000000E+00  0.00000000000E+00 -0.26524484327E+04  0.26524484327E+04  0.50400001928E-02 0. -1.
    10030    2    1    2    0    0  0.00000000000E+00  0.00000000000E+00 -0.23799566590E+04  0.29249402065E+04  0.17003180623E+04 0.  0.
        3    1    3    3  502    0  0.62812201648E+03 -0.23632065605E+03 -0.29217970742E+03  0.73195198729E+03  0.10100000352E+00 0.  1.
       -3    1    3    3    0  502 -0.62812201648E+03  0.23632065605E+03 -0.20877769515E+04  0.21929882192E+04  0.10100000352E+00 0. -1.
</event>
<event>
 5   0  0.1374441E-05  0.1699830E+04  0.7818609E-02  0.8761461E-01
        2   -1    0    0  501    0  0.00000000000E+00  0.00000000000E+00  0.83316342579E+03  0.83316342580E+03  0.25500000920E-02 0.  1.
       -2   -1    0    0    0  501  0.00000000000E+00  0.00000000000E+00 -0.86700314552E+03  0.86700314553E+03  0.25500000920E-02 0. -1.
    10030    2    1    2    0    0  0.00000000000E+00  0.00000000000E+00 -0.33839719731E+02  0.17001665713E+04  0.16998297690E+04 0.  0.
        1    1    3    3  502    0  0.68695947898E+03 -0.93098295183E+02  0.47488346665E+03  0.84029454672E+03  0.50400001928E-02 0.  1.
       -1    1    3    3    0  502 -0.68695947898E+03  0.93098295183E+02 -0.50872318638E+03  0.85987202461E+03  0.50400001928E-02 0. -1.
</event>
<event>
 5   0  0.7082527E-06  0.1700042E+04  0.7818609E-02  0.8761341E-01
       -1   -1    0    0    0  501  0.00000000000E+00  0.00000000000E+00  0.10012462387E+04  0.10012462387E+04  0.50400001928E-02 0.  1.
        1   -1    0    0  501    0  0.00000000000E+00  0.00000000000E+00 -0.72163603772E+03  0.72163603773E+03  0.50400001928E-02 0. -1.
    10030    2    1    2    0    0  0.00000000000E+00  0.00000000000E+00  0.27961020101E+03  0.17228822765E+04  0.17000416095E+04 0.  0.
        1    1    3    3  502    0  0.18482634398E+03  0.68165416600E+03  0.61915272811E+03  0.93923547644E+03  0.50400001928E-02 0.  1.
       -1    1    3    3    0  502 -0.18482634398E+03 -0.68165416600E+03 -0.33954252710E+03  0.78364680003E+03  0.50400001928E-02 0. -1.
</event>
<event>
 5   0  0.1441756E-05  0.1700215E+04  0.7818609E-02  0.8761242E-01
        2   -1    0    0  501    0  0.00000000000E+00  0.00000000000E+00  0.10638156853E+04  0.10638156853E+04  0.25500000920E-02 0. -1.
       -2   -1    0    0    0  501  0.00000000000E+00  0.00000000000E+00 -0.67933051181E+03  0.67933051181E+03  0.25500000920E-02 0.  1.
    10030    2    1    2    0    0  0.00000000000E+00  0.00000000000E+00  0.38448517349E+03  0.17431461971E+04  0.17002146382E+04 0.  0.
        5    1    3    3  502    0 -0.71398483658E+02 -0.80626224418E+03  0.45861804991E+03  0.93032744534E+03  0.46999998093E+01 0.  1.
       -5    1    3    3    0  502  0.71398483658E+02  0.80626224418E+03 -0.74132876425E+02  0.81281875176E+03  0.46999998093E+01 0. -1.
</event>
<event>
 5   0  0.7476457E-06  0.1699990E+04  0.7818609E-02  0.8761370E-01
        1   -1    0    0  501    0  0.00000000000E+00  0.00000000000E+00  0.81943439665E+03  0.81943439666E+03  0.50400001928E-02 0. -1.
       -1   -1    0    0    0  501  0.00000000000E+00  0.00000000000E+00 -0.88169575412E+03  0.88169575414E+03  0.50400001928E-02 0.  1.
    10030    2    1    2    0    0  0.00000000000E+00  0.00000000000E+00 -0.62261357475E+02  0.17011301508E+04  0.16999903862E+04 0.  0.
        2    1    3    3  502    0 -0.78020678519E+03  0.28538907158E+03 -0.21103519280E+03  0.85714957997E+03  0.25500000920E-02 0.  1.
       -2    1    3    3    0  502  0.78020678519E+03 -0.28538907158E+03  0.14877383532E+03  0.84398057082E+03  0.25500000920E-02 0. -1.
</event>
<event>
 5   0  0.1423543E-05  0.1699530E+04  0.7818609E-02  0.8761633E-01
        2   -1    0    0  501    0  0.00000000000E+00  0.00000000000E+00  0.97602369939E+03  0.97602369939E+03  0.25500000920E-02 0.  1.
       -2   -1    0    0    0  501  0.00000000000E+00  0.00000000000E+00 -0.73983900074E+03  0.73983900074E+03  0.25500000920E-02 0. -1.
    10030    2    1    2    0    0  0.00000000000E+00  0.00000000000E+00  0.23618469865E+03  0.17158627001E+04  0.16995298155E+04 0.  0.
        3    1    3    3  502    0 -0.19895049356E+03 -0.78863940915E+03  0.36656104230E+03  0.89213251510E+03  0.10100000352E+00 0. -1.
       -3    1    3    3    0  502  0.19895049356E+03  0.78863940915E+03 -0.13037634365E+03  0.82373018504E+03  0.10100000352E+00 0.  1.
</event>
<event>
 5   0  0.1435301E-05  0.1700488E+04  0.7818609E-02  0.8761086E-01
       -2   -1    0    0    0  501  0.00000000000E+00  0.00000000000E+00  0.47303847903E+03  0.47303847904E+03  0.25500000920E-02 0. -1.
        2   -1    0    0  501    0  0.00000000000E+00  0.00000000000E+00 -0.15282374504E+04  0.15282374504E+04  0.25500000920E-02 0.  1.
    10030    2    1    2    0    0  0.00000000000E+00  0.00000000000E+00 -0.10551989713E+04  0.20012759294E+04  0.17004883053E+04 0.  0.
        2    1    3    3  502    0  0.69949957739E+03  0.47931509485E+03 -0.45436273859E+03  0.96202292964E+03  0.25500000920E-02 0. -1.
       -2    1    3    3    0  502 -0.69949957739E+03 -0.47931509485E+03 -0.60083623275E+03  0.10392529998E+04  0.25500000920E-02 0.  1.
</event>
<event>
 5   0  0.7476457E-06  0.1691183E+04  0.7818609E-02  0.8766409E-01
       -1   -1    0    0    0  501  0.00000000000E+00  0.00000000000E+00  0.55133001555E+03  0.55133001557E+03  0.50400001928E-02 0.  1.
        1   -1    0    0  501    0  0.00000000000E+00  0.00000000000E+00 -0.12969094677E+04  0.12969094677E+04  0.50400001928E-02 0. -1.
    10030    2    1    2    0    0  0.00000000000E+00  0.00000000000E+00 -0.74557945213E+03  0.18482394833E+04  0.16911831563E+04 0.  0.
        2    1    3    3  502    0  0.25344601456E+03 -0.26860668985E+03  0.45853764698E+03  0.58876243921E+03  0.25500000920E-02 0.  1.
       -2    1    3    3    0  502 -0.25344601456E+03  0.26860668985E+03 -0.12041170991E+04  0.12594770441E+04  0.25500000920E-02 0. -1.
</event>
<event>
 5   0  0.1441756E-05  0.1699963E+04  0.7818609E-02  0.8761385E-01
       -2   -1    0    0    0  501  0.00000000000E+00  0.00000000000E+00  0.46508777813E+03  0.46508777813E+03  0.25500000920E-02 0.  1.
        2   -1    0    0  501    0  0.00000000000E+00  0.00000000000E+00 -0.15534028544E+04  0.15534028544E+04  0.25500000920E-02 0. -1.
    10030    2    1    2    0    0  0.00000000000E+00  0.00000000000E+00 -0.10883150763E+04  0.20184906325E+04  0.16999631550E+04 0.  0.
        5    1    3    3  502    0 -0.52719926764E+03  0.64549185445E+03 -0.34601277514E+03  0.90241106627E+03  0.46999998093E+01 0.  1.
       -5    1    3    3    0  502  0.52719926764E+03 -0.64549185445E+03 -0.74230230111E+03  0.11160795662E+04  0.46999998093E+01 0. -1.
</event>
<event>
 5   0  0.1441756E-05  0.1698806E+04  0.7818609E-02  0.8762045E-01
       -2   -1    0    0    0  501  0.00000000000E+00  0.00000000000E+00  0.11010655609E+04  0.11010655609E+04  0.25500000920E-02 0.  1.
        2   -1    0    0  501    0  0.00000000000E+00  0.00000000000E+00 -0.65526144813E+03  0.65526144813E+03  0.25500000920E-02 0. -1.
    10030    2    1    2    0    0  0.00000000000E+00  0.00000000000E+00  0.44580411276E+03  0.17563270090E+04  0.16988064209E+04 0.  0.
        5    1    3    3  502    0  0.61774518835E+03  0.37884069556E+03  0.68100133990E+03  0.99444170532E+03  0.46999998093E+01 0.  1.
       -5    1    3    3    0  502 -0.61774518835E+03 -0.37884069556E+03 -0.23519722715E+03  0.76188530370E+03  0.46999998093E+01 0. -1.
</event>
<event>
 5   0  0.1423543E-05  0.1699856E+04  0.7818609E-02  0.8761446E-01
       -2   -1    0    0    0  501  0.00000000000E+00  0.00000000000E+00  0.82627284868E+03  0.82627284869E+03  0.25500000920E-02 0.  1.
        2   -1    0    0  501    0  0.00000000000E+00  0.00000000000E+00 -0.87426043907E+03  0.87426043908E+03  0.25500000920E-02 0. -1.
    10030    2    1    2    0    0  0.00000000000E+00  0.00000000000E+00 -0.47987590388E+02  0.17005332878E+04  0.16998560686E+04 0.  0.
        3    1    3    3  502    0  0.36356787932E+03 -0.90772316215E+02  0.73917082000E+03  0.82873079321E+03  0.10100000352E+00 0.  1.
       -3    1    3    3    0  502 -0.36356787932E+03  0.90772316215E+02 -0.78715841039E+03  0.87180249456E+03  0.10100000352E+00 0. -1.
</event>
<event>
 5   0  0.1374441E-05  0.1700106E+04  0.7818609E-02  0.8761304E-01
        2   -1    0    0  501    0  0.00000000000E+00  0.00000000000E+00  0.96392618986E+03  0.96392618986E+03  0.25500000920E-02 0.  1.
       -2   -1    0    0    0  501  0.00000000000E+00  0.00000000000E+00 -0.74963250305E+03  0.74963250305E+03  0.25500000920E-02 0. -1.
    10030    2    1    2    0    0  0.00000000000E+00  0.00000000000E+00  0.21429368681E+03  0.17135586929E+04  0.17001063525E+04 0.  0.
        1    1    3    3  502    0  0.36523735304E+03 -0.35252188487E+03  0.79439280313E+03  0.94272473663E+03  0.50400001928E-02 0.  1.
       -1    1    3    3    0  502 -0.36523735304E+03  0.35252188487E+03 -0.58009911632E+03  0.77083395628E+03  0.50400001928E-02 0. -1.
</event>
<event>
 5   0  0.7583716E-06  0.1700448E+04  0.7818609E-02  0.8761109E-01
        1   -1    0    0  501    0  0.00000000000E+00  0.00000000000E+00  0.50090929178E+03  0.50090929180E+03  0.50400001928E-02 0.  1.
       -1   -1    0    0    0  501  0.00000000000E+00  0.00000000000E+00 -0.14431377232E+04  0.14431377232E+04  0.50400001928E-02 0. -1.
    10030    2    1    2    0    0  0.00000000000E+00  0.00000000000E+00 -0.94222843146E+03  0.19440470151E+04  0.17004482879E+04 0.  0.
        5    1    3    3  502    0 -0.78334104338E+03 -0.32617449653E+03 -0.53210465137E+03  0.10015839667E+04  0.46999998093E+01 0. -1.
       -5    1    3    3    0  502  0.78334104338E+03  0.32617449653E+03 -0.41012378009E+03  0.94246304831E+03  0.46999998093E+01 0.  1.
</event>
<event>
 5   0  0.7082527E-06  0.1699208E+04  0.7818609E-02  0.8761816E-01
       -1   -1    0    0    0  501  0.00000000000E+00  0.00000000000E+00  0.43564117238E+03  0.43564117241E+03  0.50400001928E-02 0. -1.
        1   -1    0    0  501    0  0.00000000000E+00  0.00000000000E+00 -0.16569291263E+04  0.16569291263E+04  0.50400001928E-02 0.  1.
    10030    2    1    2    0    0  0.00000000000E+00  0.00000000000E+00 -0.12212879539E+04  0.20925702987E+04  0.16992075178E+04 0.  0.
        1    1    3    3  502    0 -0.24605357339E+03 -0.22430456446E+03 -0.15732402255E+04  0.16080857271E+04  0.50400001928E-02 0.  1.
       -1    1    3    3    0  502  0.24605357339E+03  0.22430456446E+03  0.35195227158E+03  0.48448457159E+03  0.50400001928E-02 0. -1.
</event>
<event>
 5   0  0.1435301E-05  0.1699887E+04  0.7818609E-02  0.8761429E-01
       -2   -1    0    0    0  501  0.00000000000E+00  0.00000000000E+00  0.12371987281E+04  0.12371987281E+04  0.25500000920E-02 0. -1.
        2   -1    0    0  501    0  0.00000000000E+00  0.00000000000E+00 -0.58390302177E+03  0.58390302177E+03  0.25500000920E-02 0.  1.
    10030    2    1    2    0    0  0.00000000000E+00  0.00000000000E+00  0.65329570630E+03  0.18211017498E+04  0.16998871443E+04 0.  0.
        2    1    3    3  502    0  0.77813100966E+03  0.33974089470E+03  0.28526248091E+03  0.89570443046E+03  0.25500000920E-02 0.  1.
       -2    1    3    3    0  502 -0.77813100966E+03 -0.33974089470E+03  0.36803322539E+03  0.92539731938E+03  0.25500000920E-02 0. -1.
</event>
<event>
 5   0  0.7476457E-06  0.1697013E+04  0.7818609E-02  0.8763070E-01
        1   -1    0    0  501    0  0.00000000000E+00  0.00000000000E+00  0.95233159967E+03  0.95233159968E+03  0.50400001928E-02 0.  1.
       -1   -1    0    0    0  501  0.00000000000E+00  0.00000000000E+00 -0.75600085680E+03  0.75600085682E+03  0.50400001928E-02 0. -1.
    10030    2    1    2    0    0  0.00000000000E+00  0.00000000000E+00  0.19633074287E+03  0.17083324565E+04  0.16970132649E+04 0.  0.
        2    1    3    3  502    0  0.22527168737E+03 -0.75245634777E+03 -0.22495159801E+03  0.81703189037E+03  0.25500000920E-02 0. -1.
       -2    1    3    3    0  502 -0.22527168737E+03  0.75245634777E+03  0.42128234088E+03  0.89130056613E+03  0.25500000920E-02 0.  1.
</event>
<event>
 5   0  0.1374441E-05  0.1699305E+04  0.7818609E-02  0.8761761E-01
       -2   -1    0    0    0  501  0.00000000000E+00  0.00000000000E+00  0.72473718696E+03  0.72473718697E+03  0.25500000920E-02 0.  1.
        2   -1    0    0  501    0  0.00000000000E+00  0.00000000000E+00 -0.99609817381E+03  0.99609817382E+03  0.25500000920E-02 0. -1.
    10030    2    1    2    0    0  0.00000000000E+00  0.00000000000E+00 -0.27136098685E+03  0.17208353608E+04  0.16993050208E+04 0.  0.
        1    1    3    3  502    0  0.78067633523E+03 -0.24255439242E+03  0.98815974283E+02  0.82343959734E+03  0.50400001928E-02 0.  1.
       -1    1    3    3    0  502 -0.78067633523E+03  0.24255439242E+03 -0.37017696113E+03  0.89739576344E+03  0.50400001928E-02 0. -1.
</event>
<event>
 5   0  0.1441756E-05  0.1699368E+04  0.7818609E-02  0.8761725E-01
       -2   -1    0    0    0  501  0.00000000000E+00  0.00000000000E+00  0.11584624624E+04  0.11584624624E+04  0.25500000920E-02 0. -1.
        2   -1    0    0  501    0  0.00000000000E+00  0.00000000000E+00 -0.62320764093E+03  0.62320764094E+03  0.25500000920E-02 0.  1.
    10030    2    1    2    0    0  0.00000000000E+00  0.00000000000E+00  0.53525482150E+03  0.17816701034E+04  0.16993677157E+04 0.  0.
        5    1    3    3  502    0  0.41912877632E+03 -0.31876424644E+03 -0.43149696675E+03  0.68080195230E+03  0.46999998093E+01 0.  1.
       -5    1    3    3    0  502 -0.41912877632E+03  0.31876424644E+03  0.96675178825E+03  0.11008681511E+04  0.46999998093E+01 0. -1.
</event>
<event>
 5   0  0.7461128E-06  0.1700301E+04  0.7818609E-02  0.8761193E-01
        1   -1    0    0  501    0  0.00000000000E+00  0.00000000000E+00  0.79012599111E+03  0.79012599113E+03  0.50400001928E-02 0. -1.
       -1   -1    0    0    0  501  0.00000000000E+00  0.00000000000E+00 -0.91473509745E+03  0.91473509746E+03  0.50400001928E-02 0.  1.
    10030    2    1    2    0    0  0.00000000000E+00  0.00000000000E+00 -0.12460910633E+03  0.17048610886E+04  0.17003011210E+04 0.  0.
        3    1    3    3  502    0  0.36417505777E+03  0.75010294690E+03  0.10390508510E+03  0.84028220293E+03  0.10100000352E+00 0.  1.
       -3    1    3    3    0  502 -0.36417505777E+03 -0.75010294690E+03 -0.22851419143E+03  0.86457888566E+03  0.10100000352E+00 0. -1.
</event>
<event>
 5   0  0.7583716E-06  0.1693229E+04  0.7818609E-02  0.8765236E-01
       -1   -1    0    0    0  501  0.00000000000E+00  0.00000000000E+00  0.22630394101E+04  0.22630394101E+04  0.50400001928E-02 0.  1.
        1   -1    0    0  501    0  0.00000000000E+00  0.00000000000E+00 -0.31672262047E+03  0.31672262051E+03  0.50400001928E-02 0. -1.
    10030    2    1    2    0    0  0.00000000000E+00  0.00000000000E+00  0.19463167896E+04  0.25797620306E+04  0.16932285991E+04 0.  0.
        5    1    3    3  502    0  0.50432755301E+03 -0.66492225656E+03  0.75626523002E+03  0.11262446786E+04  0.46999998093E+01 0. -1.
       -5    1    3    3    0  502 -0.50432755301E+03  0.66492225656E+03  0.11900515596E+04  0.14535173519E+04  0.46999998093E+01 0.  1.
</event>
<event>
 5   0  0.1374441E-05  0.1699872E+04  0.7818609E-02  0.8761437E-01
        2   -1    0    0  501    0  0.00000000000E+00  0.00000000000E+00  0.20865432648E+04  0.20865432648E+04  0.25500000920E-02 0. -1.
       -2   -1    0    0    0  501  0.00000000000E+00  0.00000000000E+00 -0.34621442900E+03  0.34621442901E+03  0.25500000920E-02 0.  1.
    10030    2    1    2    0    0  0.00000000000E+00  0.00000000000E+00  0.17403288358E+04  0.24327576938E+04  0.16998722129E+04 0.  0.
        1    1    3    3  502    0  0.35781671760E+03 -0.21824396228E+03  0.19283657394E+04  0.19733873556E+04  0.50400001928E-02 0. -1.
       -1    1    3    3    0  502 -0.35781671760E+03  0.21824396228E+03 -0.18803690359E+03  0.45937033819E+03  0.50400001928E-02 0.  1.
</event>
<event>
 5   0  0.1419012E-05  0.1699602E+04  0.7818609E-02  0.8761592E-01
        2   -1    0    0  501    0  0.00000000000E+00  0.00000000000E+00  0.11851655927E+04  0.11851655927E+04  0.25500000920E-02 0.  1.
       -2   -1    0    0    0  501  0.00000000000E+00  0.00000000000E+00 -0.60933384042E+03  0.60933384042E+03  0.25500000920E-02 0. -1.
    10030    2    1    2    0    0  0.00000000000E+00  0.00000000000E+00  0.57583175231E+03  0.17944994332E+04  0.16996017206E+04 0.  0.
        4    1    3    3  502    0  0.46457527398E+03 -0.71129916287E+03  0.30858450794E+03  0.90388201428E+03  0.12699999809E+01 0.  1.
       -4    1    3    3    0  502 -0.46457527398E+03  0.71129916287E+03  0.26724724437E+03  0.89061741888E+03  0.12699999809E+01 0. -1.
</event>
<event>
 5   0  0.5229750E-06  0.1699986E+04  0.7818609E-02  0.8761372E-01
        4   -1    0    0  501    0  0.00000000000E+00  0.00000000000E+00  0.77145565090E+03  0.77145669626E+03  0.12699999809E+01 0.  1.
       -4   -1    0    0    0  501  0.00000000000E+00  0.00000000000E+00 -0.93652338941E+03  0.93652425052E+03  0.12699999809E+01 0. -1.
    10030    2    1    2    0    0  0.00000000000E+00  0.00000000000E+00 -0.16506773851E+03  0.17079809468E+04  0.16999857518E+04 0.  0.
        3    1    3    3  502    0  0.10644996884E+03 -0.57386604271E+02 -0.92783678112E+03  0.93568473367E+03  0.10100000352E+00 0. -1.
       -3    1    3    3    0  502 -0.10644996884E+03  0.57386604271E+02  0.76276904261E+03  0.77229621311E+03  0.10100000352E+00 0.  1.
</event>
<event>
 5   0  0.7455669E-06  0.1701051E+04  0.7818609E-02  0.8760765E-01
       -1   -1    0    0    0  501  0.00000000000E+00  0.00000000000E+00  0.15649453554E+04  0.15649453554E+04  0.50400001928E-02 0. -1.
        1   -1    0    0  501    0  0.00000000000E+00  0.00000000000E+00 -0.46224847829E+03  0.46224847832E+03  0.50400001928E-02 0.  1.
    10030    2    1    2    0    0  0.00000000000E+00  0.00000000000E+00  0.11026968771E+04  0.20271938337E+04  0.17010509800E+04 0.  0.
        4    1    3    3  502    0 -0.71577548302E+03 -0.23258934357E+03  0.79207172980E+02  0.75677455955E+03  0.12699999809E+01 0.  1.
       -4    1    3    3    0  502  0.71577548302E+03  0.23258934357E+03  0.10234897041E+04  0.12704192742E+04  0.12699999809E+01 0. -1.
</event>
<event>
 5   0  0.1423543E-05  0.1699696E+04  0.7818609E-02  0.8761537E-01
       -2   -1    0    0    0  501  0.00000000000E+00  0.00000000000E+00  0.55893942315E+03  0.55893942315E+03  0.25500000920E-02 0. -1.
        2   -1    0    0  501    0  0.00000000000E+00  0.00000000000E+00 -0.12921651287E+04  0.12921651287E+04  0.25500000920E-02 0.  1.
    10030    2    1    2    0    0  0.00000000000E+00  0.00000000000E+00 -0.73322570556E+03  0.18511045519E+04  0.16996964807E+04 0.  0.
        3    1    3    3  502    0  0.63277379235E+03  0.45758291593E+02  0.24921852470E+03  0.68162040520E+03  0.10100000352E+00 0. -1.
       -3    1    3    3    0  502 -0.63277379235E+03 -0.45758291593E+02 -0.98244423026E+03  0.11694841467E+04  0.10100000352E+00 0.  1.
</event>
<event>
 5   0  0.7082527E-06  0.1700445E+04  0.7818609E-02  0.8761110E-01
        1   -1    0    0  501    0  0.00000000000E+00  0.00000000000E+00  0.95089029225E+03  0.95089029226E+03  0.50400001928E-02 0. -1.
       -1   -1    0    0    0  501  0.00000000000E+00  0.00000000000E+00 -0.76021239305E+03  0.76021239307E+03  0.50400001928E-02 0.  1.
    10030    2    1    2    0    0  0.00000000000E+00  0.00000000000E+00  0.19067789920E+03  0.17111026853E+04  0.17004453353E+04 0.  0.
        1    1    3    3  502    0 -0.57895723583E+03  0.52830548585E+03  0.42691957852E+03  0.89250125706E+03  0.50400001928E-02 0. -1.
       -1    1    3    3    0  502  0.57895723583E+03 -0.52830548585E+03 -0.23624167932E+03  0.81860142827E+03  0.50400001928E-02 0.  1.
</event>
<event>
 5   0  0.1441756E-05  0.1699702E+04  0.7818609E-02  0.8761534E-01
       -2   -1    0    0    0  501  0.00000000000E+00  0.00000000000E+00  0.35779383518E+03  0.35779383518E+03  0.25500000920E-02 0. -1.
        2   -1    0    0  501    0  0.00000000000E+00  0.00000000000E+00 -0.20186108076E+04  0.20186108076E+04  0.25500000920E-02 0.  1.
    10030    2    1    2    0    0  0.00000000000E+00  0.00000000000E+00 -0.16608169724E+04  0.23764046428E+04  0.16997017416E+04 0.  0.
        5    1    3    3  502    0  0.16324806553E+03 -0.26924332806E+03  0.27321377949E+03  0.41690497707E+03  0.46999998093E+01 0. -1.
       -5    1    3    3    0  502 -0.16324806553E+03  0.26924332806E+03 -0.19340307519E+04  0.19594996657E+04  0.46999998093E+01 0.  1.
</event>
<event>
 5   0  0.7476457E-06  0.1701899E+04  0.7818609E-02  0.8760282E-01
        1   -1    0    0  501    0  0.00000000000E+00  0.00000000000E+00  0.21661854673E+04  0.21661854673E+04  0.50400001928E-02 0. -1.
       -1   -1    0    0    0  501  0.00000000000E+00  0.00000000000E+00 -0.33428112639E+03  0.33428112643E+03  0.50400001928E-02 0.  1.
    10030    2    1    2    0    0  0.00000000000E+00  0.00000000000E+00  0.18319043410E+04  0.25004665938E+04  0.17018988431E+04 0.  0.
        2    1    3    3  502    0  0.54603269715E+03  0.12738152658E+02 -0.42765268678E+02  0.54785293200E+03  0.25500000920E-02 0.  1.
       -2    1    3    3    0  502 -0.54603269715E+03 -0.12738152658E+02  0.18746696096E+04  0.19526136618E+04  0.25500000920E-02 0. -1.
</event>
<event>
 5   0  0.1374441E-05  0.1699825E+04  0.7818609E-02  0.8761464E-01
       -2   -1    0    0    0  501  0.00000000000E+00  0.00000000000E+00  0.41523369255E+03  0.41523369256E+03  0.25500000920E-02 0.  1.
        2   -1    0    0  501    0  0.00000000000E+00  0.00000000000E+00 -0.17396258782E+04  0.17396258782E+04  0.25500000920E-02 0. -1.
    10030    2    1    2    0    0  0.00000000000E+00  0.00000000000E+00 -0.13243921857E+04  0.21548595708E+04  0.16998250229E+04 0.  0.
        1    1    3    3  502    0  0.54921650897E+03  0.39771363036E+03 -0.13117414670E+04  0.14766450426E+04  0.50400001928E-02 0. -1.
       -1    1    3    3    0  502 -0.54921650897E+03 -0.39771363036E+03 -0.12650718624E+02  0.67821452816E+03  0.50400001928E-02 0.  1.
</event>
<event>
 5   0  0.1435301E-05  0.1698859E+04  0.7818609E-02  0.8762015E-01
       -2   -1    0    0    0  501  0.00000000000E+00  0.00000000000E+00  0.10779582447E+04  0.10779582447E+04  0.25500000920E-02 0.  1.
        2   -1    0    0  501    0  0.00000000000E+00  0.00000000000E+00 -0.66934902667E+03  0.66934902667E+03  0.25500000920E-02 0. -1.
    10030    2    1    2    0    0  0.00000000000E+00  0.00000000000E+00  0.40860921806E+03  0.17473072714E+04  0.16988587957E+04 0.  0.
        2    1    3    3  502    0 -0.72731755272E+03  0.27021729695E+03  0.55988360057E+03  0.95680607035E+03  0.25500000920E-02 0.  1.
       -2    1    3    3    0  502  0.72731755272E+03 -0.27021729695E+03 -0.15127438251E+03  0.79050120106E+03  0.25500000920E-02 0. -1.
</event>
<event>
 5   0  0.5229750E-06  0.1702039E+04  0.7818609E-02  0.8760202E-01
        3   -1    0    0  501    0  0.00000000000E+00  0.00000000000E+00  0.15851571665E+04  0.15851571698E+04  0.10100000352E+00 0. -1.
       -3   -1    0    0    0  501  0.00000000000E+00  0.00000000000E+00 -0.45688474337E+03  0.45688475454E+03  0.10100000352E+00 0.  1.
    10030    2    1    2    0    0  0.00000000000E+00  0.00000000000E+00  0.11282724232E+04  0.20420419243E+04  0.17020389419E+04 0.  0.
        1    1    3    3  502    0 -0.35801656090E+03 -0.38661444652E+03 -0.23763132634E+03  0.57802701963E+03  0.50400001928E-02 0.  1.
       -1    1    3    3    0  502  0.35801656090E+03  0.38661444652E+03  0.13659037495E+04  0.14640149047E+04  0.50400001928E-02 0. -1.
</event>
<event>
 5   0  0.7455669E-06  0.1699312E+04  0.7818609E-02  0.8761757E-01
       -1   -1    0    0    0  501  0.00000000000E+00  0.00000000000E+00  0.34376835962E+03  0.34376835966E+03  0.50400001928E-02 0. -1.
        1   -1    0    0  501    0  0.00000000000E+00  0.00000000000E+00 -0.21000054562E+04  0.21000054562E+04  0.50400001928E-02 0.  1.
    10030    2    1    2    0    0  0.00000000000E+00  0.00000000000E+00 -0.17562370966E+04  0.24437738159E+04  0.16993121325E+04 0.  0.
        4    1    3    3  502    0 -0.61440718674E+03  0.57873789412E+03 -0.73809735399E+03  0.11212595855E+04  0.12699999809E+01 0. -1.
       -4    1    3    3    0  502  0.61440718674E+03 -0.57873789412E+03 -0.10181397426E+04  0.13225142304E+04  0.12699999809E+01 0.  1.
</event>
<event>
 5   0  0.1419012E-05  0.1700112E+04  0.7818609E-02  0.8761300E-01
       -2   -1    0    0    0  501  0.00000000000E+00  0.00000000000E+00  0.57952454253E+03  0.57952454253E+03  0.25500000920E-02 0. -1.
        2   -1    0    0  501    0  0.00000000000E+00  0.00000000000E+00 -0.12468761373E+04  0.12468761373E+04  0.25500000920E-02 0.  1.
    10030    2    1    2    0    0  0.00000000000E+00  0.00000000000E+00 -0.66735159474E+03  0.18264006798E+04  0.17001121411E+04 0.  0.
        4    1    3    3  502    0 -0.53593195118E+03  0.12958328902E+03 -0.10287115074E+04  0.11671605988E+04  0.12699999809E+01 0.  1.
       -4    1    3    3    0  502  0.53593195118E+03 -0.12958328902E+03  0.36135991261E+03  0.65924008102E+03  0.12699999809E+01 0. -1.
</event>
<event>
 5   0  0.1441756E-05  0.1700041E+04  0.7818609E-02  0.8761341E-01
       -2   -1    0    0    0  501  0.00000000000E+00  0.00000000000E+00  0.10568404752E+04  0.10568404752E+04  0.25500000920E-02 0.  1.
        2   -1    0    0  501    0  0.00000000000E+00  0.00000000000E+00 -0.68367466515E+03  0.68367466515E+03  0.25500000920E-02 0. -1.
    10030    2    1    2    0    0  0.00000000000E+00  0.00000000000E+00  0.37316581007E+03  0.17405151404E+04  0.17000412442E+04 0.  0.
        5    1    3    3  502    0 -0.95753839394E+01  0.82754925219E+03  0.38506304002E+03  0.91281163860E+03  0.46999998093E+01 0. -1.
       -5    1    3    3    0  502  0.95753839394E+01 -0.82754925219E+03 -0.11897229943E+02  0.82770350178E+03  0.46999998093E+01 0.  1.
</event>
<event>
 5   0  0.7082527E-06  0.1700076E+04  0.7818609E-02  0.8761321E-01
       -1   -1    0    0    0  501  0.00000000000E+00  0.00000000000E+00  0.69502502015E+03  0.69502502017E+03  0.50400001928E-02 0. -1.
        1   -1    0    0  501    0  0.00000000000E+00  0.00000000000E+00 -0.10396240590E+04  0.10396240590E+04  0.50400001928E-02 0.  1.
    10030    2    1    2    0    0  0.00000000000E+00  0.00000000000E+00 -0.34459903885E+03  0.17346490792E+04  0.17000761543E+04 0.  0.
        1    1    3    3  502    0 -0.60193978812E+03 -0.40173721200E+03  0.28268393948E+03  0.77693919047E+03  0.50400001928E-02 0. -1.
       -1    1    3    3    0  502  0.60193978812E+03  0.40173721200E+03 -0.62728297833E+03  0.95770988872E+03  0.50400001928E-02 0.  1.
</event>
<event>
 5   0  0.1419012E-05  0.1710251E+04  0.7818609E-02  0.8755539E-01
        2   -1    0    0  501    0  0.00000000000E+00  0.00000000000E+00  0.54831693731E+03  0.54831693731E+03  0.25500000920E-02 0.  1.
       -2   -1    0    0    0  501  0.00000000000E+00  0.00000000000E+00 -0.13336077007E+04  0.13336077007E+04  0.25500000920E-02 0. -1.
    10030    2    1    2    0    0  0.00000000000E+00  0.00000000000E+00 -0.78529076340E+03  0.18819246380E+04  0.17102510810E+04 0.  0.
        4    1    3    3  502    0 -0.66949743749E+03  0.52106578692E+03 -0.51065664192E+03  0.99020613609E+03  0.12699999809E+01 0. -1.
       -4    1    3    3    0  502  0.66949743749E+03 -0.52106578692E+03 -0.27463412148E+03  0.89171850193E+03  0.12699999809E+01 0.  1.
</event>
<event>
 5   0  0.5229750E-06  0.1700522E+04  0.7818609E-02  0.8761067E-01
        3   -1    0    0  501    0  0.00000000000E+00  0.00000000000E+00  0.90036240345E+03  0.90036240911E+03  0.10100000352E+00 0. -1.
       -3   -1    0    0    0  501  0.00000000000E+00  0.00000000000E+00 -0.80294768885E+03  0.80294769520E+03  0.10100000352E+00 0.  1.
    10030    2    1    2    0    0  0.00000000000E+00  0.00000000000E+00  0.97414714598E+02  0.17033101043E+04  0.17005221800E+04 0.  0.
        5    1    3    3  502    0 -0.55007457598E+03  0.39017917708E+03  0.56733997923E+03  0.88131638553E+03  0.46999998093E+01 0. -1.
       -5    1    3    3    0  502  0.55007457598E+03 -0.39017917708E+03 -0.46992526464E+03  0.82199371878E+03  0.46999998093E+01 0.  1.
</event>
<event>
 5   0  0.7461128E-06  0.1700474E+04  0.7818609E-02  0.8761094E-01
        1   -1    0    0  501    0  0.00000000000E+00  0.00000000000E+00  0.13809734357E+04  0.13809734357E+04  0.50400001928E-02 0. -1.
       -1   -1    0    0    0  501  0.00000000000E+00  0.00000000000E+00 -0.52347365766E+03  0.52347365769E+03  0.50400001928E-02 0.  1.
    10030    2    1    2    0    0  0.00000000000E+00  0.00000000000E+00  0.85749977807E+03  0.19044470934E+04  0.17004743051E+04 0.  0.
        3    1    3    3  502    0  0.68136565986E+03  0.47248577961E+03  0.63947098690E+03  0.10471032077E+04  0.10100000352E+00 0.  1.
       -3    1    3    3    0  502 -0.68136565986E+03 -0.47248577961E+03  0.21802879117E+03  0.85734388570E+03  0.10100000352E+00 0. -1.
</event>
<event>
 5   0  0.7476457E-06  0.1700174E+04  0.7818609E-02  0.8761265E-01
        1   -1    0    0  501    0  0.00000000000E+00  0.00000000000E+00  0.75997314683E+03  0.75997314685E+03  0.50400001928E-02 0.  1.
       -1   -1    0    0    0  501  0.00000000000E+00  0.00000000000E+00 -0.95088609710E+03  0.95088609711E+03  0.50400001928E-02 0. -1.
    10030    2    1    2    0    0  0.00000000000E+00  0.00000000000E+00 -0.19091295027E+03  0.17108592440E+04  0.17001739905E+04 0.  0.
        2    1    3    3  502    0  0.50574925097E+03 -0.57375463852E+03 -0.46882910308E+03  0.89709387356E+03  0.25500000920E-02 0. -1.
       -2    1    3    3    0  502 -0.50574925097E+03  0.57375463852E+03  0.27791615281E+03  0.81376537041E+03  0.25500000920E-02 0.  1.
</event>
<event>
 5   0  0.7476457E-06  0.1698800E+04  0.7818609E-02  0.8762049E-01
        1   -1    0    0  501    0  0.00000000000E+00  0.00000000000E+00  0.10959963569E+04  0.10959963569E+04  0.50400001928E-02 0. -1.
       -1   -1    0    0    0  501  0.00000000000E+00  0.00000000000E+00 -0.65828725294E+03  0.65828725296E+03  0.50400001928E-02 0.  1.
    10030    2    1    2    0    0  0.00000000000E+00  0.00000000000E+00  0.43770910396E+03  0.17542836099E+04  0.16988000836E+04 0.  0.
        2    1    3    3  502    0 -0.46133530004E+03  0.52321577020E+03 -0.28163476940E+03  0.75226534188E+03  0.25500000920E-02 0.  1.
       -2    1    3    3    0  502  0.46133530004E+03 -0.52321577020E+03  0.71934387337E+03  0.10020182680E+04  0.25500000920E-02 0. -1.
</event>
<event>
 5   0  0.7082527E-06  0.1700223E+04  0.7818609E-02  0.8761237E-01
        1   -1    0    0  501    0  0.00000000000E+00  0.00000000000E+00  0.10587026996E+04  0.10587026996E+04  0.50400001928E-02 0.  1.
       -1   -1    0    0    0  501  0.00000000000E+00  0.00000000000E+00 -0.68261834782E+03  0.68261834784E+03  0.50400001928E-02 0. -1.
    10030    2    1    2    0    0  0.00000000000E+00  0.00000000000E+00  0.37608435177E+03  0.17413210474E+04  0.17002233826E+04 0.  0.
        1    1    3    3  502    0  0.41939746901E+02  0.16208478247E+02 -0.68139969940E+03  0.68288154720E+03  0.50400001928E-02 0. -1.
       -1    1    3    3    0  502 -0.41939746901E+02 -0.16208478247E+02  0.10574840512E+04  0.10584395002E+04  0.50400001928E-02 0.  1.
</event>
<event>
 5   0  0.7583716E-06  0.1705821E+04  0.7818609E-02  0.8758052E-01
       -1   -1    0    0    0  501  0.00000000000E+00  0.00000000000E+00  0.36272406145E+03  0.36272406148E+03  0.50400001928E-02 0.  1.
        1   -1    0    0  501    0  0.00000000000E+00  0.00000000000E+00 -0.20055356166E+04  0.20055356166E+04  0.50400001928E-02 0. -1.
    10030    2    1    2    0    0  0.00000000000E+00  0.00000000000E+00 -0.16428115551E+04  0.23682596781E+04  0.17058206521E+04 0.  0.
        5    1    3    3  502    0  0.28727814301E+03 -0.72008871913E+03 -0.32785626360E+03  0.84176499954E+03  0.46999998093E+01 0. -1.
       -5    1    3    3    0  502 -0.28727814301E+03  0.72008871913E+03 -0.13149552915E+04  0.15264946785E+04  0.46999998093E+01 0.  1.
</event>
<event>
 5   0  0.7476457E-06  0.1699868E+04  0.7818609E-02  0.8761440E-01
        1   -1    0    0  501    0  0.00000000000E+00  0.00000000000E+00  0.99464335479E+03  0.99464335480E+03  0.50400001928E-02 0. -1.
       -1   -1    0    0    0  501  0.00000000000E+00  0.00000000000E+00 -0.72627833558E+03  0.72627833560E+03  0.50400001928E-02 0.  1.
    10030    2    1    2    0    0  0.00000000000E+00  0.00000000000E+00  0.26836501921E+03  0.17209216904E+04  0.16998681363E+04 0.  0.
        2    1    3    3  502    0 -0.77514585715E+03 -0.30915295413E+03 -0.28938106570E+02  0.83502339065E+03  0.25500000920E-02 0.  1.
       -2    1    3    3    0  502  0.77514585715E+03  0.30915295413E+03  0.29730312578E+03  0.88589829976E+03  0.25500000920E-02 0. -1.
</event>
<event>
 5   0  0.1419012E-05  0.1694409E+04  0.7818609E-02  0.8764560E-01
       -2   -1    0    0    0  501  0.00000000000E+00  0.00000000000E+00  0.12653183374E+04  0.12653183374E+04  0.25500000920E-02 0.  1.
        2   -1    0    0  501    0  0.00000000000E+00  0.00000000000E+00 -0.56725268840E+03  0.56725268840E+03  0.25500000920E-02 0. -1.
    10030    2    1    2    0    0  0.00000000000E+00  0.00000000000E+00  0.69806564905E+03  0.18325710259E+04  0.16944087212E+04 0.  0.
        4    1    3    3  502    0 -0.67351640913E+03  0.43786482206E+03  0.58012783453E+02  0.80542973108E+03  0.12699999809E+01 0.  1.
       -4    1    3    3    0  502  0.67351640913E+03 -0.43786482206E+03  0.64005286560E+03  0.10271412948E+04  0.12699999809E+01 0. -1.
</event>
<event>
 5   0  0.1419012E-05  0.1699679E+04  0.7818609E-02  0.8761548E-01
        2   -1    0    0  501    0  0.00000000000E+00  0.00000000000E+00  0.10587235803E+04  0.10587235803E+04  0.25500000920E-02 0.  1.
       -2   -1    0    0    0  501  0.00000000000E+00  0.00000000000E+00 -0.68216758141E+03  0.68216758142E+03  0.25500000920E-02 0. -1.
    10030    2    1    2    0    0  0.00000000000E+00  0.00000000000E+00  0.37655599885E+03  0.17408911617E+04  0.16996786804E+04 0.  0.
        4    1    3    3  502    0  0.81055078736E+03  0.17321634876E+03  0.38052243276E+03  0.91202818877E+03  0.12699999809E+01 0. -1.
       -4    1    3    3    0  502 -0.81055078736E+03 -0.17321634876E+03 -0.39664339101E+01  0.82886297292E+03  0.12699999809E+01 0.  1.
</event>
<event>
 5   0  0.1374441E-05  0.1699062E+04  0.7818609E-02  0.8761900E-01
        2   -1    0    0  501    0  0.00000000000E+00  0.00000000000E+00  0.72375411759E+03  0.72375411759E+03  0.25500000920E-02 0. -1.
       -2   -1    0    0    0  501  0.00000000000E+00  0.00000000000E+00 -0.99716572361E+03  0.99716572361E+03  0.25500000920E-02 0.  1.
    10030    2    1    2    0    0  0.00000000000E+00  0.00000000000E+00 -0.27341160602E+03  0.17209198412E+04  0.16990618569E+04 0.  0.
        1    1    3    3  502    0  0.42414366711E+03 -0.17903654779E+03  0.58644760317E+03  0.74556872727E+03  0.50400001928E-02 0. -1.
       -1    1    3    3    0  502 -0.42414366711E+03  0.17903654779E+03 -0.85985920919E+03  0.97535111393E+03  0.50400001928E-02 0.  1.
</event>
<event>
 5   0  0.7455669E-06  0.1699848E+04  0.7818609E-02  0.8761451E-01
       -1   -1    0    0    0  501  0.00000000000E+00  0.00000000000E+00  0.51948374112E+03  0.51948374114E+03  0.50400001928E-02 0.  1.
        1   -1    0    0  501    0  0.00000000000E+00  0.00000000000E+00 -0.13905545954E+04  0.13905545955E+04  0.50400001928E-02 0. -1.
    10030    2    1    2    0    0  0.00000000000E+00  0.00000000000E+00 -0.87107085433E+03  0.19100383366E+04  0.16998476443E+04 0.  0.
        4    1    3    3  502    0 -0.72457854506E+03  0.12484314804E+03  0.43526887497E+02  0.73654333370E+03  0.12699999809E+01 0.  1.
       -4    1    3    3    0  502  0.72457854506E+03 -0.12484314804E+03 -0.91459774182E+03  0.11734950029E+04  0.12699999809E+01 0. -1.
</event>
<event>
 5   0  0.7455669E-06  0.1699713E+04  0.7818609E-02  0.8761528E-01
       -1   -1    0    0    0  501  0.00000000000E+00  0.00000000000E+00  0.52082369515E+03  0.52082369517E+03  0.50400001928E-02 0. -1.
        1   -1    0    0  501    0  0.00000000000E+00  0.00000000000E+00 -0.13867578927E+04  0.13867578927E+04  0.50400001928E-02 0.  1.
    10030    2    1    2    0    0  0.00000000000E+00  0.00000000000E+00 -0.86593419752E+03  0.19075815879E+04  0.16997133523E+04 0.  0.
        4    1    3    3  502    0  0.54880289414E+03  0.51404127307E+03  0.11484399743E+02  0.75203494026E+03  0.12699999809E+01 0. -1.
       -4    1    3    3    0  502 -0.54880289414E+03 -0.51404127307E+03 -0.87741859726E+03  0.11555466476E+04  0.12699999809E+01 0.  1.
</event>
<event>
 5   0  0.1441756E-05  0.1699444E+04  0.7818609E-02  0.8761681E-01
       -2   -1    0    0    0  501  0.00000000000E+00  0.00000000000E+00  0.49345268005E+03  0.49345268006E+03  0.25500000920E-02 0. -1.
        2   -1    0    0  501    0  0.00000000000E+00  0.00000000000E+00 -0.14632159437E+04  0.14632159437E+04  0.25500000920E-02 0.  1.
    10030    2    1    2    0    0  0.00000000000E+00  0.00000000000E+00 -0.96976326363E+03  0.19566686237E+04  0.16994444138E+04 0.  0.
        5    1    3    3  502    0  0.55467981744E+03  0.81635006813E+02 -0.12200141493E+04  0.13426803747E+04  0.46999998093E+01 0.  1.
       -5    1    3    3    0  502 -0.55467981744E+03 -0.81635006813E+02  0.25025088563E+03  0.61398824904E+03  0.46999998093E+01 0. -1.
</event>
<event>
 5   0  0.7583716E-06  0.1698514E+04  0.7818609E-02  0.8762212E-01
       -1   -1    0    0    0  501  0.00000000000E+00  0.00000000000E+00  0.60065640447E+03  0.60065640449E+03  0.50400001928E-02 0.  1.
        1   -1    0    0  501    0  0.00000000000E+00  0.00000000000E+00 -0.12007494230E+04  0.12007494230E+04  0.50400001928E-02 0. -1.
    10030    2    1    2    0    0  0.00000000000E+00  0.00000000000E+00 -0.60009301851E+03  0.18014058275E+04  0.16985144463E+04 0.  0.
        5    1    3    3  502    0 -0.44916355703E+03  0.38020988750E+02 -0.10633838770E+04  0.11549895482E+04  0.46999998093E+01 0. -1.
       -5    1    3    3    0  502  0.44916355703E+03 -0.38020988750E+02  0.46329085851E+03  0.64641627929E+03  0.46999998093E+01 0.  1.
</event>
<event>
 5   0  0.7583716E-06  0.1699853E+04  0.7818609E-02  0.8761448E-01
       -1   -1    0    0    0  501  0.00000000000E+00  0.00000000000E+00  0.72367514526E+03  0.72367514527E+03  0.50400001928E-02 0.  1.
        1   -1    0    0  501    0  0.00000000000E+00  0.00000000000E+00 -0.99820384955E+03  0.99820384957E+03  0.50400001928E-02 0. -1.
    10030    2    1    2    0    0  0.00000000000E+00  0.00000000000E+00 -0.27452870430E+03  0.17218789948E+04  0.16998533064E+04 0.  0.
        5    1    3    3  502    0  0.13958204283E+03 -0.81104692141E+03 -0.35231921824E+03  0.89522688574E+03  0.46999998093E+01 0. -1.
       -5    1    3    3    0  502 -0.13958204283E+03  0.81104692141E+03  0.77790513946E+02  0.82665210910E+03  0.46999998093E+01 0.  1.
</event>
<event>
 5   0  0.1435301E-05  0.1700195E+04  0.7818609E-02  0.8761253E-01
        2   -1    0    0  501    0  0.00000000000E+00  0.00000000000E+00  0.58293947943E+03  0.58293947943E+03  0.25500000920E-02 0. -1.
       -2   -1    0    0    0  501  0.00000000000E+00  0.00000000000E+00 -0.12396931798E+04  0.12396931798E+04  0.25500000920E-02 0.  1.
    10030    2    1    2    0    0  0.00000000000E+00  0.00000000000E+00 -0.65675370038E+03  0.18226326592E+04  0.17001953969E+04 0.  0.
        2    1    3    3  502    0  0.15374632712E+01  0.27572924895E+03 -0.11904232171E+04  0.12219396132E+04  0.25500000920E-02 0.  1.
       -2    1    3    3    0  502 -0.15374632712E+01 -0.27572924895E+03  0.53366951669E+03  0.60069304605E+03  0.25500000920E-02 0. -1.
</event>
<event>
 5   0  0.7461128E-06  0.1700144E+04  0.7818609E-02  0.8761282E-01
        1   -1    0    0  501    0  0.00000000000E+00  0.00000000000E+00  0.11037152503E+04  0.11037152503E+04  0.50400001928E-02 0.  1.
       -1   -1    0    0    0  501  0.00000000000E+00  0.00000000000E+00 -0.65471820037E+03  0.65471820039E+03  0.50400001928E-02 0. -1.
    10030    2    1    2    0    0  0.00000000000E+00  0.00000000000E+00  0.44899704994E+03  0.17584334507E+04  0.17001440673E+04 0.  0.
        3    1    3    3  502    0  0.39943226625E+03 -0.65804586515E+03 -0.14849273644E+03  0.78397742246E+03  0.10100000352E+00 0. -1.
       -3    1    3    3    0  502 -0.39943226625E+03  0.65804586515E+03  0.59748978637E+03  0.97445602824E+03  0.10100000352E+00 0.  1.
</event>
<event>
 5   0  0.1423543E-05  0.1698141E+04  0.7818609E-02  0.8762425E-01
        2   -1    0    0  501    0  0.00000000000E+00  0.00000000000E+00  0.13650092699E+04  0.13650092699E+04  0.25500000920E-02 0. -1.
       -2   -1    0    0    0  501  0.00000000000E+00  0.00000000000E+00 -0.52814340881E+03  0.52814340882E+03  0.25500000920E-02 0.  1.
    10030    2    1    2    0    0  0.00000000000E+00  0.00000000000E+00  0.83686586113E+03  0.18931526788E+04  0.16981409234E+04 0.  0.
        3    1    3    3  502    0 -0.74950097069E+03 -0.37532237465E+03  0.56925391307E+03  0.10132465730E+04  0.10100000352E+00 0.  1.
       -3    1    3    3    0  502  0.74950097069E+03  0.37532237465E+03  0.26761194806E+03  0.87990610575E+03  0.10100000352E+00 0. -1.
</event>
<event>
 5   0  0.1419012E-05  0.1699457E+04  0.7818609E-02  0.8761674E-01
       -2   -1    0    0    0  501  0.00000000000E+00  0.00000000000E+00  0.70312925053E+03  0.70312925054E+03  0.25500000920E-02 0.  1.
        2   -1    0    0  501    0  0.00000000000E+00  0.00000000000E+00 -0.10268928454E+04  0.10268928454E+04  0.25500000920E-02 0. -1.
    10030    2    1    2    0    0  0.00000000000E+00  0.00000000000E+00 -0.32376359489E+03  0.17300220960E+04  0.16994568506E+04 0.  0.
        4    1    3    3  502    0 -0.66418907305E+03 -0.41678629110E+03  0.17138806900E+03  0.80264152665E+03  0.12699999809E+01 0.  1.
       -4    1    3    3    0  502  0.66418907305E+03  0.41678629110E+03 -0.49515166389E+03  0.92738056932E+03  0.12699999809E+01 0. -1.
</event>
<event>
 5   0  0.1419012E-05  0.1699917E+04  0.7818609E-02  0.8761412E-01
        2   -1    0    0  501    0  0.00000000000E+00  0.00000000000E+00  0.64903853529E+03  0.64903853530E+03  0.25500000920E-02 0. -1.
       -2   -1    0    0    0  501  0.00000000000E+00  0.00000000000E+00 -0.11130763627E+04  0.11130763627E+04  0.25500000920E-02 0.  1.
    10030    2    1    2    0    0  0.00000000000E+00  0.00000000000E+00 -0.46403782740E+03  0.17621148980E+04  0.16999170005E+04 0.  0.
        4    1    3    3  502    0 -0.27779615656E+03  0.52405742627E+03 -0.86308012604E+03  0.10472420004E+04  0.12699999809E+01 0.  1.
       -4    1    3    3    0  502  0.27779615656E+03 -0.52405742627E+03  0.39904229865E+03  0.71487289754E+03  0.12699999809E+01 0. -1.
</event>
<event>
 5   0  0.7476457E-06  0.1700183E+04  0.7818609E-02  0.8761260E-01
       -1   -1    0    0    0  501  0.00000000000E+00  0.00000000000E+00  0.43088532744E+03  0.43088532747E+03  0.50400001928E-02 0.  1.
        1   -1    0    0  501    0  0.00000000000E+00  0.00000000000E+00 -0.16771417939E+04  0.16771417939E+04  0.50400001928E-02 0. -1.
    10030    2    1    2    0    0  0.00000000000E+00  0.00000000000E+00 -0.12462564665E+04  0.21080271214E+04  0.17001832737E+04 0.  0.
        2    1    3    3  502    0 -0.13715171287E+03  0.23361239547E+03 -0.16221921473E+04  0.16446558018E+04  0.25500000920E-02 0. -1.
       -2    1    3    3    0  502  0.13715171287E+03 -0.23361239547E+03  0.37593568084E+03  0.46337131957E+03  0.25500000920E-02 0.  1.
</event>
<event>
 5   0  0.1374441E-05  0.1699645E+04  0.7818609E-02  0.8761567E-01
       -2   -1    0    0    0  501  0.00000000000E+00  0.00000000000E+00  0.56335466003E+03  0.56335466003E+03  0.25500000920E-02 0. -1.
        2   -1    0    0  501    0  0.00000000000E+00  0.00000000000E+00 -0.12819596561E+04  0.12819596561E+04  0.25500000920E-02 0.  1.
    10030    2    1    2    0    0  0.00000000000E+00  0.00000000000E+00 -0.71860499607E+03  0.18453143161E+04  0.16996446055E+04 0.  0.
        1    1    3    3  502    0  0.34754059179E+03  0.69699636002E+03 -0.72845779131E+03  0.10664141515E+04  0.50400001928E-02 0.  1.
       -1    1    3    3    0  502 -0.34754059179E+03 -0.69699636002E+03  0.98527952406E+01  0.77890016461E+03  0.50400001928E-02 0. -1.
</event>
<event>
 5   0  0.7082527E-06  0.1700640E+04  0.7818609E-02  0.8760999E-01
       -1   -1    0    0    0  501  0.00000000000E+00  0.00000000000E+00  0.50241377672E+03  0.50241377675E+03  0.50400001928E-02 0.  1.
        1   -1    0    0  501    0  0.00000000000E+00  0.00000000000E+00 -0.14391412367E+04  0.14391412367E+04  0.50400001928E-02 0. -1.
    10030    2    1    2    0    0  0.00000000000E+00  0.00000000000E+00 -0.93672746002E+03  0.19415550135E+04  0.17006403312E+04 0.  0.
        1    1    3    3  502    0  0.18780896406E+03 -0.52008114332E+03  0.26912444396E+03  0.61496712837E+03  0.50400001928E-02 0.  1.
       -1    1    3    3    0  502 -0.18780896406E+03  0.52008114332E+03 -0.12058519040E+04  0.13265878851E+04  0.50400001928E-02 0. -1.
</event>
<event>
 5   0  0.7583716E-06  0.1700279E+04  0.7818609E-02  0.8761205E-01
       -1   -1    0    0    0  501  0.00000000000E+00  0.00000000000E+00  0.67799299894E+03  0.67799299896E+03  0.50400001928E-02 0.  1.
        1   -1    0    0  501    0  0.00000000000E+00  0.00000000000E+00 -0.10659953212E+04  0.10659953213E+04  0.50400001928E-02 0. -1.
    10030    2    1    2    0    0  0.00000000000E+00  0.00000000000E+00 -0.38800232231E+03  0.17439883202E+04  0.17002792297E+04 0.  0.
        5    1    3    3  502    0 -0.60265338195E+03  0.18103606050E+03 -0.78031642542E+03  0.10024375131E+04  0.46999998093E+01 0. -1.
       -5    1    3    3    0  502  0.60265338195E+03 -0.18103606050E+03  0.39231410311E+03  0.74155080707E+03  0.46999998093E+01 0.  1.
</event>
<event>
 5   0  0.1374441E-05  0.1706524E+04  0.7818609E-02  0.8757652E-01
       -2   -1    0    0    0  501  0.00000000000E+00  0.00000000000E+00  0.78948189440E+03  0.78948189441E+03  0.25500000920E-02 0. -1.
        2   -1    0    0  501    0  0.00000000000E+00  0.00000000000E+00 -0.92219499939E+03  0.92219499940E+03  0.25500000920E-02 0.  1.
    10030    2    1    2    0    0  0.00000000000E+00  0.00000000000E+00 -0.13271310499E+03  0.17116768938E+04  0.17065242514E+04 0.  0.
        1    1    3    3  502    0  0.42354542714E+03  0.23155631030E+03  0.63936377753E+03  0.80112114798E+03  0.50400001928E-02 0. -1.
       -1    1    3    3    0  502 -0.42354542714E+03 -0.23155631030E+03 -0.77207688252E+03  0.91055574582E+03  0.50400001928E-02 0.  1.
</event>
<event>
 5   0  0.7583716E-06  0.1703108E+04  0.7818609E-02  0.8759594E-01
        1   -1    0    0  501    0  0.00000000000E+00  0.00000000000E+00  0.73782393047E+03  0.73782393049E+03  0.50400001928E-02 0. -1.
       -1   -1    0    0    0  501  0.00000000000E+00  0.00000000000E+00 -0.98281444613E+03  0.98281444614E+03  0.50400001928E-02 0.  1.
    10030    2    1    2    0    0  0.00000000000E+00  0.00000000000E+00 -0.24499051566E+03  0.17206383766E+04  0.17031077683E+04 0.  0.
        5    1    3    3  502    0  0.10152905715E+03 -0.29771134030E+03 -0.92195697734E+03  0.97414934668E+03  0.46999998093E+01 0.  1.
       -5    1    3    3    0  502 -0.10152905715E+03  0.29771134030E+03  0.67696646168E+03  0.74648902994E+03  0.46999998093E+01 0. -1.
</event>
<event>
 5   0  0.7461128E-06  0.1701641E+04  0.7818609E-02  0.8760429E-01
        1   -1    0    0  501    0  0.00000000000E+00  0.00000000000E+00  0.17842998898E+04  0.17842998898E+04  0.50400001928E-02 0. -1.
       -1   -1    0    0    0  501  0.00000000000E+00  0.00000000000E+00 -0.40570280215E+03  0.40570280218E+03  0.50400001928E-02 0.  1.
    10030    2    1    2    0    0  0.00000000000E+00  0.00000000000E+00  0.13785970876E+04  0.21900026919E+04  0.17016409318E+04 0.  0.
        3    1    3    3  502    0  0.94603139223E+02  0.65433429644E+03  0.13785227007E+04  0.15288649293E+04  0.10100000352E+00 0. -1.
       -3    1    3    3    0  502 -0.94603139223E+02 -0.65433429644E+03  0.74386880324E-01  0.66113776263E+03  0.10100000352E+00 0.  1.
</event>
<event>
 5   0  0.7455669E-06  0.1697818E+04  0.7818609E-02  0.8762610E-01
       -1   -1    0    0    0  501  0.00000000000E+00  0.00000000000E+00  0.56972776761E+03  0.56972776764E+03  0.50400001928E-02 0.  1.
        1   -1    0    0  501    0  0.00000000000E+00  0.00000000000E+00 -0.12648964716E+04  0.12648964716E+04  0.50400001928E-02 0. -1.
    10030    2    1    2    0    0  0.00000000000E+00  0.00000000000E+00 -0.69516870395E+03  0.18346242392E+04  0.16978181799E+04 0.  0.
        4    1    3    3  502    0  0.28619540839E+03 -0.37336128581E+03  0.41599381751E+03  0.62798003999E+03  0.12699999809E+01 0.  1.
       -4    1    3    3    0  502 -0.28619540839E+03  0.37336128581E+03 -0.11111625215E+04  0.12066441992E+04  0.12699999809E+01 0. -1.
</event>
<event>
 5   0  0.1441756E-05  0.1699248E+04  0.7818609E-02  0.8761793E-01
        2   -1    0    0  501    0  0.00000000000E+00  0.00000000000E+00  0.99969646416E+03  0.99969646416E+03  0.25500000920E-02 0.  1.
       -2   -1    0    0    0  501  0.00000000000E+00  0.00000000000E+00 -0.72208049619E+03  0.72208049619E+03  0.25500000920E-02 0. -1.
    10030    2    1    2    0    0  0.00000000000E+00  0.00000000000E+00  0.27761596797E+03  0.17217769604E+04  0.16992484443E+04 0.  0.
        5    1    3    3  502    0 -0.65514910899E+03 -0.22405786042E+03 -0.36007822846E+03  0.78044903769E+03  0.46999998093E+01 0.  1.
       -5    1    3    3    0  502  0.65514910899E+03  0.22405786042E+03  0.63769419643E+03  0.94132792266E+03  0.46999998093E+01 0. -1.
</event>
<event>
 5   0  0.1374441E-05  0.1700284E+04  0.7818609E-02  0.8761203E-01
        2   -1    0    0  501    0  0.00000000000E+00  0.00000000000E+00  0.19994814500E+04  0.19994814500E+04  0.25500000920E-02 0.  1.
       -2   -1    0    0    0  501  0.00000000000E+00  0.00000000000E+00 -0.36146422815E+03  0.36146422815E+03  0.25500000920E-02 0. -1.
    10030    2    1    2    0    0  0.00000000000E+00  0.00000000000E+00  0.16380172219E+04  0.23609456782E+04  0.17002835282E+04 0.  0.
        1    1    3    3  502    0  0.68446781161E+03  0.37300683717E+03  0.12901188655E+04  0.15073277589E+04  0.50400001928E-02 0.  1.
       -1    1    3    3    0  502 -0.68446781161E+03 -0.37300683717E+03  0.34789835643E+03  0.85361791929E+03  0.50400001928E-02 0. -1.
</event>
<event>
 5   0  0.7476457E-06  0.1700022E+04  0.7818609E-02  0.8761352E-01
       -1   -1    0    0    0  501  0.00000000000E+00  0.00000000000E+00  0.71480363709E+03  0.71480363711E+03  0.50400001928E-02 0. -1.
        1   -1    0    0  501    0  0.00000000000E+00  0.00000000000E+00 -0.10107931539E+04  0.10107931540E+04  0.50400001928E-02 0.  1.
    10030    2    1    2    0    0  0.00000000000E+00  0.00000000000E+00 -0.29598951684E+03  0.17255967911E+04  0.17000219090E+04 0.  0.
        2    1    3    3  502    0 -0.70739517199E+03 -0.42382208527E+03  0.61226275570E+02  0.82691096628E+03  0.25500000920E-02 0. -1.
       -2    1    3    3    0  502  0.70739517199E+03  0.42382208527E+03 -0.35721579241E+03  0.89868582479E+03  0.25500000920E-02 0.  1.
</event>
<event>
 5   0  0.7583716E-06  0.1700983E+04  0.7818609E-02  0.8760804E-01
       -1   -1    0    0    0  501  0.00000000000E+00  0.00000000000E+00  0.10267777886E+04  0.10267777886E+04  0.50400001928E-02 0.  1.
        1   -1    0    0  501    0  0.00000000000E+00  0.00000000000E+00 -0.70447183866E+03  0.70447183868E+03  0.50400001928E-02 0. -1.
    10030    2    1    2    0    0  0.00000000000E+00  0.00000000000E+00  0.32230594995E+03  0.17312496273E+04  0.17009832882E+04 0.  0.
        5    1    3    3  502    0  0.23001849897E+03  0.79108979386E+02 -0.66830009934E+03  0.71120591481E+03  0.46999998093E+01 0. -1.
       -5    1    3    3    0  502 -0.23001849897E+03 -0.79108979386E+02  0.99060604929E+03  0.10200437125E+04  0.46999998093E+01 0.  1.
</event>
<event>
 5   0  0.1423543E-05  0.1700363E+04  0.7818609E-02  0.8761157E-01
       -2   -1    0    0    0  501  0.00000000000E+00  0.00000000000E+00  0.33595720438E+03  0.33595720439E+03  0.25500000920E-02 0.  1.
        2   -1    0    0  501    0  0.00000000000E+00  0.00000000000E+00 -0.21514905351E+04  0.21514905351E+04  0.25500000920E-02 0. -1.
    10030    2    1    2    0    0  0.00000000000E+00  0.00000000000E+00 -0.18155333307E+04  0.24874477395E+04  0.17003631911E+04 0.  0.
        3    1    3    3  502    0  0.51762644826E+03 -0.25903700966E+03 -0.18187284749E+04  0.19086148348E+04  0.10100000352E+00 0. -1.
       -3    1    3    3    0  502 -0.51762644826E+03  0.25903700966E+03  0.31951441732E+01  0.57883290462E+03  0.10100000352E+00 0.  1.
</event>
<event>
 5   0  0.1374441E-05  0.1699636E+04  0.7818609E-02  0.8761572E-01
        2   -1    0    0  501    0  0.00000000000E+00  0.00000000000E+00  0.16224779055E+04  0.16224779055E+04  0.25500000920E-02 0. -1.
       -2   -1    0    0    0  501  0.00000000000E+00  0.00000000000E+00 -0.44511584806E+03  0.44511584807E+03  0.25500000920E-02 0.  1.
    10030    2    1    2    0    0  0.00000000000E+00  0.00000000000E+00  0.11773620575E+04  0.20675937536E+04  0.16996359950E+04 0.  0.
        1    1    3    3  502    0 -0.34867827671E+03  0.24340877412E+03  0.14837466630E+04  0.15434793591E+04  0.50400001928E-02 0. -1.
       -1    1    3    3    0  502  0.34867827671E+03 -0.24340877412E+03 -0.30638460554E+03  0.52411439449E+03  0.50400001928E-02 0.  1.
</event>
<event>
 5   0  0.5229750E-06  0.1700614E+04  0.7818609E-02  0.8761014E-01
        3   -1    0    0  501    0  0.00000000000E+00  0.00000000000E+00  0.45468858032E+03  0.45468859153E+03  0.10100000352E+00 0. -1.
       -3   -1    0    0    0  501  0.00000000000E+00  0.00000000000E+00 -0.15901471225E+04  0.15901471257E+04  0.10100000352E+00 0.  1.
    10030    2    1    2    0    0  0.00000000000E+00  0.00000000000E+00 -0.11354585421E+04  0.20448357172E+04  0.17006137155E+04 0.  0.
        2    1    3    3  502    0  0.48772273672E+03  0.42979093534E+03  0.91327725068E+02  0.65645599197E+03  0.25500000920E-02 0. -1.
       -2    1    3    3    0  502 -0.48772273672E+03 -0.42979093534E+03 -0.12267862672E+04  0.13883797252E+04  0.25500000920E-02 0.  1.
</event>
<event>
 5   0  0.7476457E-06  0.1700339E+04  0.7818609E-02  0.8761171E-01
       -1   -1    0    0    0  501  0.00000000000E+00  0.00000000000E+00  0.37121151378E+03  0.37121151381E+03  0.50400001928E-02 0. -1.
        1   -1    0    0  501    0  0.00000000000E+00  0.00000000000E+00 -0.19471051121E+04  0.19471051121E+04  0.50400001928E-02 0.  1.
    10030    2    1    2    0    0  0.00000000000E+00  0.00000000000E+00 -0.15758935983E+04  0.23183166259E+04  0.17003385971E+04 0.  0.
        2    1    3    3  502    0 -0.63667924794E+03  0.46658479237E+03 -0.35737900421E+03  0.86647653511E+03  0.25500000920E-02 0. -1.
       -2    1    3    3    0  502  0.63667924794E+03 -0.46658479237E+03 -0.12185145941E+04  0.14518400908E+04  0.25500000920E-02 0.  1.
</event>
<event>
 5   0  0.7583716E-06  0.1699981E+04  0.7818609E-02  0.8761375E-01
        1   -1    0    0  501    0  0.00000000000E+00  0.00000000000E+00  0.11567490489E+04  0.11567490489E+04  0.50400001928E-02 0. -1.
       -1   -1    0    0    0  501  0.00000000000E+00  0.00000000000E+00 -0.62458099906E+03  0.62458099908E+03  0.50400001928E-02 0.  1.
    10030    2    1    2    0    0  0.00000000000E+00  0.00000000000E+00  0.53216804980E+03  0.17813300480E+04  0.16999805606E+04 0.  0.
        5    1    3    3  502    0 -0.55790104719E+02  0.53526659933E+03 -0.42330345125E+03  0.68471218039E+03  0.46999998093E+01 0.  1.
       -5    1    3    3    0  502  0.55790104719E+02 -0.53526659933E+03  0.95547150105E+03  0.10966178676E+04  0.46999998093E+01 0. -1.
</event>
<event>
 5   0  0.7476457E-06  0.1700094E+04  0.7818609E-02  0.8761311E-01
        1   -1    0    0  501    0  0.00000000000E+00  0.00000000000E+00  0.73994915723E+03  0.73994915724E+03  0.50400001928E-02 0. -1.
       -1   -1    0    0    0  501  0.00000000000E+00  0.00000000000E+00 -0.97652623733E+03  0.97652623735E+03  0.50400001928E-02 0.  1.
    10030    2    1    2    0    0  0.00000000000E+00  0.00000000000E+00 -0.23657708011E+03  0.17164753946E+04  0.17000938402E+04 0.  0.
        2    1    3    3  502    0  0.32016502377E+03 -0.36929216267E+03  0.58389650383E+03  0.76145746502E+03  0.25500000920E-02 0. -1.
       -2    1    3    3    0  502 -0.32016502377E+03  0.36929216267E+03 -0.82047358393E+03  0.95501792956E+03  0.25500000920E-02 0.  1.
</event>
<event>
 5   0  0.7583716E-06  0.1699989E+04  0.7818609E-02  0.8761371E-01
       -1   -1    0    0    0  501  0.00000000000E+00  0.00000000000E+00  0.42809855844E+03  0.42809855847E+03  0.50400001928E-02 0.  1.
        1   -1    0    0  501    0  0.00000000000E+00  0.00000000000E+00 -0.16876731374E+04  0.16876731375E+04  0.50400001928E-02 0. -1.
    10030    2    1    2    0    0  0.00000000000E+00  0.00000000000E+00 -0.12595745790E+04  0.21157716959E+04  0.16999887497E+04 0.  0.
        5    1    3    3  502    0  0.32934136289E+03  0.14401335721E+03  0.32883230567E+03  0.48719437149E+03  0.46999998093E+01 0.  1.
       -5    1    3    3    0  502 -0.32934136289E+03 -0.14401335721E+03 -0.15884068847E+04  0.16285773244E+04  0.46999998093E+01 0. -1.
</event>
<event>
 5   0  0.7476457E-06  0.1700176E+04  0.7818609E-02  0.8761264E-01
        1   -1    0    0  501    0  0.00000000000E+00  0.00000000000E+00  0.95464643113E+03  0.95464643114E+03  0.50400001928E-02 0.  1.
       -1   -1    0    0    0  501  0.00000000000E+00  0.00000000000E+00 -0.75698116006E+03  0.75698116008E+03  0.50400001928E-02 0. -1.
    10030    2    1    2    0    0  0.00000000000E+00  0.00000000000E+00  0.19766527106E+03  0.17116275912E+04  0.17001757120E+04 0.  0.
        2    1    3    3  502    0  0.65625977112E+02 -0.69772452762E+03  0.58324209380E+03  0.91175524419E+03  0.25500000920E-02 0.  1.
       -2    1    3    3    0  502 -0.65625977112E+02  0.69772452762E+03 -0.38557682273E+03  0.79987234704E+03  0.25500000920E-02 0. -1.
</event>
<event>
 5   0  0.1423543E-05  0.1699901E+04  0.7818609E-02  0.8761421E-01
       -2   -1    0    0    0  501  0.00000000000E+00  0.00000000000E+00  0.77470783680E+03  0.77470783680E+03  0.25500000920E-02 0.  1.
        2   -1    0    0  501    0  0.00000000000E+00  0.00000000000E+00 -0.93250147724E+03  0.93250147724E+03  0.25500000920E-02 0. -1.
    10030    2    1    2    0    0  0.00000000000E+00  0.00000000000E+00 -0.15779364044E+03  0.17072093140E+04  0.16999014116E+04 0.  0.
        3    1    3    3  502    0  0.10387784201E+03 -0.23410745409E+03  0.73503117261E+03  0.77837506450E+03  0.10100000352E+00 0.  1.
       -3    1    3    3    0  502 -0.10387784201E+03  0.23410745409E+03 -0.89282481306E+03  0.92883424955E+03  0.10100000352E+00 0. -1.
</event>
<event>
 5   0  0.1435301E-05  0.1700787E+04  0.7818609E-02  0.8760916E-01
       -2   -1    0    0    0  501  0.00000000000E+00  0.00000000000E+00  0.95856356671E+03  0.95856356671E+03  0.25500000920E-02 0. -1.
        2   -1    0    0  501    0  0.00000000000E+00  0.00000000000E+00 -0.75442988224E+03  0.75442988224E+03  0.25500000920E-02 0.  1.
    10030    2    1    2    0    0  0.00000000000E+00  0.00000000000E+00  0.20413368447E+03  0.17129934490E+04  0.17007868752E+04 0.  0.
        2    1    3    3  502    0  0.45117210482E+03  0.21875328009E+03  0.79384403683E+03  0.93893430044E+03  0.25500000920E-02 0. -1.
       -2    1    3    3    0  502 -0.45117210482E+03 -0.21875328009E+03 -0.58971035236E+03  0.77405914852E+03  0.25500000920E-02 0.  1.
</event>
<event>
 5   0  0.1374441E-05  0.1700058E+04  0.7818609E-02  0.8761331E-01
       -2   -1    0    0    0  501  0.00000000000E+00  0.00000000000E+00  0.27328825651E+03  0.27328825652E+03  0.25500000920E-02 0. -1.
        2   -1    0    0  501    0  0.00000000000E+00  0.00000000000E+00 -0.26439085186E+04  0.26439085186E+04  0.25500000920E-02 0.  1.
    10030    2    1    2    0    0  0.00000000000E+00  0.00000000000E+00 -0.23706202621E+04  0.29171967751E+04  0.17000578219E+04 0.  0.
        1    1    3    3  502    0  0.70356558603E+03 -0.44484187913E+03 -0.88978805127E+03  0.12184463909E+04  0.50400001928E-02 0. -1.
       -1    1    3    3    0  502 -0.70356558603E+03  0.44484187913E+03 -0.14808322109E+04  0.16987503843E+04  0.50400001928E-02 0.  1.
</event>
<event>
 5   0  0.7476457E-06  0.1700045E+04  0.7818609E-02  0.8761339E-01
        1   -1    0    0  501    0  0.00000000000E+00  0.00000000000E+00  0.18330423394E+04  0.18330423394E+04  0.50400001928E-02 0.  1.
       -1   -1    0    0    0  501  0.00000000000E+00  0.00000000000E+00 -0.39417431161E+03  0.39417431164E+03  0.50400001928E-02 0. -1.
    10030    2    1    2    0    0  0.00000000000E+00  0.00000000000E+00  0.14388680278E+04  0.22272166510E+04  0.17000449433E+04 0.  0.
        2    1    3    3  502    0 -0.14896482270E+03  0.16951312858E+03  0.17930812330E+04  0.18072259203E+04  0.25500000920E-02 0.  1.
       -2    1    3    3    0  502  0.14896482270E+03 -0.16951312858E+03 -0.35421320516E+03  0.41999073071E+03  0.25500000920E-02 0. -1.
</event>
<event>
 5   0  0.1419012E-05  0.1700342E+04  0.7818609E-02  0.8761169E-01
        2   -1    0    0  501    0  0.00000000000E+00  0.00000000000E+00  0.13565671781E+04  0.13565671781E+04  0.25500000920E-02 0. -1.
       -2   -1    0    0    0  501  0.00000000000E+00  0.00000000000E+00 -0.53280864331E+03  0.53280864332E+03  0.25500000920E-02 0.  1.
    10030    2    1    2    0    0  0.00000000000E+00  0.00000000000E+00  0.82375853475E+03  0.18893758214E+04  0.17003419864E+04 0.  0.
        4    1    3    3  502    0 -0.78139247894E+03  0.16975746169E+03  0.73277066671E+03  0.10845949773E+04  0.12699999809E+01 0. -1.
       -4    1    3    3    0  502  0.78139247894E+03 -0.16975746169E+03  0.90987868044E+02  0.80478084407E+03  0.12699999809E+01 0.  1.
</event>
<event>
 5   0  0.7082527E-06  0.1700351E+04  0.7818609E-02  0.8761164E-01
       -1   -1    0    0    0  501  0.00000000000E+00  0.00000000000E+00  0.64188306220E+03  0.64188306222E+03  0.50400001928E-02 0.  1.
        1   -1    0    0  501    0  0.00000000000E+00  0.00000000000E+00 -0.11260597065E+04  0.11260597065E+04  0.50400001928E-02 0. -1.
    10030    2    1    2    0    0  0.00000000000E+00  0.00000000000E+00 -0.48417664430E+03  0.17679427687E+04  0.17003513198E+04 0.  0.
        1    1    3    3  502    0 -0.59832721854E+02 -0.64370078460E+03  0.33200891736E+03  0.72674656926E+03  0.50400001928E-02 0.  1.
       -1    1    3    3    0  502  0.59832721854E+02  0.64370078460E+03 -0.81618556166E+03  0.10411961995E+04  0.50400001928E-02 0. -1.
</event>
<event>
 5   0  0.7455669E-06  0.1699378E+04  0.7818609E-02  0.8761719E-01
       -1   -1    0    0    0  501  0.00000000000E+00  0.00000000000E+00  0.11842225888E+04  0.11842225888E+04  0.50400001928E-02 0. -1.
        1   -1    0    0  501    0  0.00000000000E+00  0.00000000000E+00 -0.60965883796E+03  0.60965883798E+03  0.50400001928E-02 0.  1.
    10030    2    1    2    0    0  0.00000000000E+00  0.00000000000E+00  0.57456375085E+03  0.17938814268E+04  0.16993784363E+04 0.  0.
        4    1    3    3  502    0 -0.54642646870E+03  0.76033148802E+02  0.96944404978E+03  0.11154309947E+04  0.12699999809E+01 0. -1.
       -4    1    3    3    0  502  0.54642646870E+03 -0.76033148802E+02 -0.39488029893E+03  0.67845043209E+03  0.12699999809E+01 0.  1.
</event>
<event>
 5   0  0.1423543E-05  0.1697926E+04  0.7818609E-02  0.8762548E-01
        2   -1    0    0  501    0  0.00000000000E+00  0.00000000000E+00  0.10508113396E+04  0.10508113396E+04  0.25500000920E-02 0. -1.
       -2   -1    0    0    0  501  0.00000000000E+00  0.00000000000E+00 -0.68588759561E+03  0.68588759562E+03  0.25500000920E-02 0.  1.
    10030    2    1    2    0    0  0.00000000000E+00  0.00000000000E+00  0.36492374395E+03  0.17366989352E+04  0.16979263390E+04 0.  0.
        3    1    3    3  502    0  0.56687413476E+03 -0.52746998696E+03  0.53850196984E+03  0.94316236859E+03  0.10100000352E+00 0. -1.
       -3    1    3    3    0  502 -0.56687413476E+03  0.52746998696E+03 -0.17357822589E+03  0.79353656659E+03  0.10100000352E+00 0.  1.
</event>
<event>
 5   0  0.7583716E-06  0.1699913E+04  0.7818609E-02  0.8761414E-01
        1   -1    0    0  501    0  0.00000000000E+00  0.00000000000E+00  0.16192185025E+04  0.16192185025E+04  0.50400001928E-02 0.  1.
       -1   -1    0    0    0  501  0.00000000000E+00  0.00000000000E+00 -0.44615725661E+03  0.44615725664E+03  0.50400001928E-02 0. -1.
    10030    2    1    2    0    0  0.00000000000E+00  0.00000000000E+00  0.11730612459E+04  0.20653757591E+04  0.16999130389E+04 0.  0.
        5    1    3    3  502    0 -0.46360124868E+03 -0.53971870574E+03  0.21617413982E+02  0.71183692072E+03  0.46999998093E+01 0. -1.
       -5    1    3    3    0  502  0.46360124868E+03  0.53971870574E+03  0.11514438319E+04  0.13535388384E+04  0.46999998093E+01 0.  1.
</event>
<event>
 5   0  0.1423543E-05  0.1699554E+04  0.7818609E-02  0.8761619E-01
       -2   -1    0    0    0  501  0.00000000000E+00  0.00000000000E+00  0.82554357718E+03  0.82554357718E+03  0.25500000920E-02 0. -1.
        2   -1    0    0  501    0  0.00000000000E+00  0.00000000000E+00 -0.87472220567E+03  0.87472220568E+03  0.25500000920E-02 0.  1.
    10030    2    1    2    0    0  0.00000000000E+00  0.00000000000E+00 -0.49178628497E+02  0.17002657829E+04  0.16995544107E+04 0.  0.
        3    1    3    3  502    0 -0.73599548015E+03 -0.48219385817E+02 -0.44679301146E+03  0.86234474618E+03  0.10100000352E+00 0.  1.
       -3    1    3    3    0  502  0.73599548015E+03  0.48219385817E+02  0.39761438296E+03  0.83792103668E+03  0.10100000352E+00 0. -1.
</event>
<event>
 5   0  0.7455669E-06  0.1699819E+04  0.7818609E-02  0.8761467E-01
        1   -1    0    0  501    0  0.00000000000E+00  0.00000000000E+00  0.99859582190E+03  0.99859582192E+03  0.50400001928E-02 0. -1.
       -1   -1    0    0    0  501  0.00000000000E+00  0.00000000000E+00 -0.72336223312E+03  0.72336223314E+03  0.50400001928E-02 0.  1.
    10030    2    1    2    0    0  0.00000000000E+00  0.00000000000E+00  0.27523358879E+03  0.17219580551E+04  0.16998194066E+04 0.  0.
        4    1    3    3  502    0  0.72279306595E+03 -0.23537761377E+03  0.52271582243E+03  0.92253231985E+03  0.12699999809E+01 0. -1.
       -4    1    3    3    0  502 -0.72279306595E+03  0.23537761377E+03 -0.24748223364E+03  0.79942573521E+03  0.12699999809E+01 0.  1.
</event>
<event>
 5   0  0.7583716E-06  0.1702409E+04  0.7818609E-02  0.8759991E-01
       -1   -1    0    0    0  501  0.00000000000E+00  0.00000000000E+00  0.79164319816E+03  0.79164319817E+03  0.50400001928E-02 0. -1.
        1   -1    0    0  501    0  0.00000000000E+00  0.00000000000E+00 -0.91524735750E+03  0.91524735751E+03  0.50400001928E-02 0.  1.
    10030    2    1    2    0    0  0.00000000000E+00  0.00000000000E+00 -0.12360415934E+03  0.17068905557E+04  0.17024092871E+04 0.  0.
        5    1    3    3  502    0 -0.42916979618E+03 -0.65444120969E+03  0.27381363334E+03  0.82914172895E+03  0.46999998093E+01 0. -1.
       -5    1    3    3    0  502  0.42916979618E+03  0.65444120969E+03 -0.39741779268E+03  0.87774882673E+03  0.46999998093E+01 0.  1.
</event>
<event>
 5   0  0.1441756E-05  0.1700893E+04  0.7818609E-02  0.8760855E-01
        2   -1    0    0  501    0  0.00000000000E+00  0.00000000000E+00  0.12209450182E+04  0.12209450182E+04  0.25500000920E-02 0.  1.
       -2   -1    0    0    0  501  0.00000000000E+00  0.00000000000E+00 -0.59237672220E+03  0.59237672220E+03  0.25500000920E-02 0. -1.
    10030    2    1    2    0    0  0.00000000000E+00  0.00000000000E+00  0.62856829603E+03  0.18133217404E+04  0.17008931864E+04 0.  0.
        5    1    3    3  502    0 -0.48282946427E+01  0.65644162863E+03  0.89066698645E+03  0.11064577240E+04  0.46999998093E+01 0.  1.
       -5    1    3    3    0  502  0.48282946427E+01 -0.65644162863E+03 -0.26209869042E+03  0.70686401645E+03  0.46999998093E+01 0. -1.
</event>
<event>
 5   0  0.7082527E-06  0.1699452E+04  0.7818609E-02  0.8761677E-01
        1   -1    0    0  501    0  0.00000000000E+00  0.00000000000E+00  0.67441444193E+03  0.67441444194E+03  0.50400001928E-02 0.  1.
       -1   -1    0    0    0  501  0.00000000000E+00  0.00000000000E+00 -0.10706090626E+04  0.10706090626E+04  0.50400001928E-02 0. -1.
    10030    2    1    2    0    0  0.00000000000E+00  0.00000000000E+00 -0.39619462070E+03  0.17450235046E+04  0.16994519276E+04 0.  0.
        1    1    3    3  502    0  0.43351358864E+03 -0.46523848264E+03  0.38062351042E+03  0.74111748999E+03  0.50400001928E-02 0.  1.
       -1    1    3    3    0  502 -0.43351358864E+03  0.46523848264E+03 -0.77681813112E+03  0.10039060146E+04  0.50400001928E-02 0. -1.
</event>
<event>
 5   0  0.1441756E-05  0.1699351E+04  0.7818609E-02  0.8761734E-01
       -2   -1    0    0    0  501  0.00000000000E+00  0.00000000000E+00  0.53327717514E+03  0.53327717514E+03  0.25500000920E-02 0. -1.
        2   -1    0    0  501    0  0.00000000000E+00  0.00000000000E+00 -0.13537962321E+04  0.13537962321E+04  0.25500000920E-02 0.  1.
    10030    2    1    2    0    0  0.00000000000E+00  0.00000000000E+00 -0.82051905700E+03  0.18870734073E+04  0.16993512061E+04 0.  0.
        5    1    3    3  502    0  0.70171040453E+03 -0.19212950935E+03  0.77101773019E+02  0.73162696341E+03  0.46999998093E+01 0. -1.
       -5    1    3    3    0  502 -0.70171040453E+03  0.19212950935E+03 -0.89762083002E+03  0.11554464439E+04  0.46999998093E+01 0.  1.
</event>
<event>
 5   0  0.7476457E-06  0.1700699E+04  0.7818609E-02  0.8760966E-01
        1   -1    0    0  501    0  0.00000000000E+00  0.00000000000E+00  0.47712359969E+03  0.47712359972E+03  0.50400001928E-02 0. -1.
       -1   -1    0    0    0  501  0.00000000000E+00  0.00000000000E+00 -0.15155289014E+04  0.15155289014E+04  0.50400001928E-02 0.  1.
    10030    2    1    2    0    0  0.00000000000E+00  0.00000000000E+00 -0.10384053017E+04  0.19926525011E+04  0.17006993913E+04 0.  0.
        2    1    3    3  502    0 -0.82230545339E+03 -0.97142699005E+02 -0.74600908774E+03  0.11145189642E+04  0.25500000920E-02 0. -1.
       -2    1    3    3    0  502  0.82230545339E+03  0.97142699005E+02 -0.29239621397E+03  0.87813353688E+03  0.25500000920E-02 0.  1.
</event>
<event>
 5   0  0.7461128E-06  0.1699354E+04  0.7818609E-02  0.8761733E-01
       -1   -1    0    0    0  501  0.00000000000E+00  0.00000000000E+00  0.33628215807E+03  0.33628215811E+03  0.50400001928E-02 0.  1.
        1   -1    0    0  501    0  0.00000000000E+00  0.00000000000E+00 -0.21468619819E+04  0.21468619819E+04  0.50400001928E-02 0. -1.
    10030    2    1    2    0    0  0.00000000000E+00  0.00000000000E+00 -0.18105798238E+04  0.24831441400E+04  0.16993544426E+04 0.  0.
        3    1    3    3  502    0 -0.53683327717E+03  0.22106913473E+03 -0.18118282648E+04  0.19025727847E+04  0.10100000352E+00 0. -1.
       -3    1    3    3    0  502  0.53683327717E+03 -0.22106913473E+03  0.12484409533E+01  0.58057135532E+03  0.10100000352E+00 0.  1.
</event>
<event>
 5   0  0.7583716E-06  0.1700202E+04  0.7818609E-02  0.8761249E-01
       -1   -1    0    0    0  501  0.00000000000E+00  0.00000000000E+00  0.10183873131E+04  0.10183873131E+04  0.50400001928E-02 0. -1.
        1   -1    0    0  501    0  0.00000000000E+00  0.00000000000E+00 -0.70962390727E+03  0.70962390729E+03  0.50400001928E-02 0.  1.
    10030    2    1    2    0    0  0.00000000000E+00  0.00000000000E+00  0.30876340586E+03  0.17280112204E+04  0.17002023224E+04 0.  0.
        5    1    3    3  502    0  0.60817092188E+03  0.28244727021E+03  0.68542327448E+03  0.95889284379E+03  0.46999998093E+01 0. -1.
       -5    1    3    3    0  502 -0.60817092188E+03 -0.28244727021E+03 -0.37665986862E+03  0.76911837665E+03  0.46999998093E+01 0.  1.
</event>
<event>
 5   0  0.1435301E-05  0.1698724E+04  0.7818609E-02  0.8762092E-01
        2   -1    0    0  501    0  0.00000000000E+00  0.00000000000E+00  0.10974647058E+04  0.10974647058E+04  0.25500000920E-02 0. -1.
       -2   -1    0    0    0  501  0.00000000000E+00  0.00000000000E+00 -0.65734788515E+03  0.65734788515E+03  0.25500000920E-02 0.  1.
    10030    2    1    2    0    0  0.00000000000E+00  0.00000000000E+00  0.44011682067E+03  0.17548125910E+04  0.16987243489E+04 0.  0.
        2    1    3    3  502    0 -0.31610809057E+03 -0.49183400485E+03 -0.41639385264E+03  0.71778050529E+03  0.25500000920E-02 0.  1.
       -2    1    3    3    0  502  0.31610809057E+03  0.49183400485E+03  0.85651067331E+03  0.10370320857E+04  0.25500000920E-02 0. -1.
</event>
<event>
 5   0  0.1374441E-05  0.1699463E+04  0.7818609E-02  0.8761671E-01
        2   -1    0    0  501    0  0.00000000000E+00  0.00000000000E+00  0.70425519568E+03  0.70425519568E+03  0.25500000920E-02 0. -1.
       -2   -1    0    0    0  501  0.00000000000E+00  0.00000000000E+00 -0.10252583257E+04  0.10252583257E+04  0.25500000920E-02 0.  1.
    10030    2    1    2    0    0  0.00000000000E+00  0.00000000000E+00 -0.32100313003E+03  0.17295135214E+04  0.16994628596E+04 0.  0.
        1    1    3    3  502    0 -0.60471528186E+03 -0.83319511181E+02  0.44106910570E+03  0.75310335883E+03  0.50400001928E-02 0. -1.
       -1    1    3    3    0  502  0.60471528186E+03  0.83319511181E+02 -0.76207223572E+03  0.97641016256E+03  0.50400001928E-02 0.  1.
</event>
<event>
 5   0  0.7082527E-06  0.1699610E+04  0.7818609E-02  0.8761587E-01
       -1   -1    0    0    0  501  0.00000000000E+00  0.00000000000E+00  0.11201415851E+04  0.11201415851E+04  0.50400001928E-02 0. -1.
        1   -1    0    0  501    0  0.00000000000E+00  0.00000000000E+00 -0.64471184206E+03  0.64471184208E+03  0.50400001928E-02 0.  1.
    10030    2    1    2    0    0  0.00000000000E+00  0.00000000000E+00  0.47542974302E+03  0.17648534272E+04  0.16996100079E+04 0.  0.
        1    1    3    3  502    0  0.28144213253E+03  0.28847248522E+02  0.10698037733E+04  0.11065811996E+04  0.50400001928E-02 0. -1.
       -1    1    3    3    0  502 -0.28144213253E+03 -0.28847248522E+02 -0.59437403033E+03  0.65827222762E+03  0.50400001928E-02 0.  1.
</event>
<event>
 5   0  0.7461128E-06  0.1699322E+04  0.7818609E-02  0.8761751E-01
        1   -1    0    0  501    0  0.00000000000E+00  0.00000000000E+00  0.14783118793E+04  0.14783118793E+04  0.50400001928E-02 0. -1.
       -1   -1    0    0    0  501  0.00000000000E+00  0.00000000000E+00 -0.48834341070E+03  0.48834341073E+03  0.50400001928E-02 0.  1.
    10030    2    1    2    0    0  0.00000000000E+00  0.00000000000E+00  0.98996846860E+03  0.19666552900E+04  0.16993220592E+04 0.  0.
        3    1    3    3  502    0 -0.51554198844E+03 -0.14173431992E+03 -0.26924129150E+03  0.59863431453E+03  0.10100000352E+00 0.  1.
       -3    1    3    3    0  502  0.51554198844E+03  0.14173431992E+03  0.12592097601E+04  0.13680209755E+04  0.10100000352E+00 0. -1.
</event>
<event>
 5   0  0.7461128E-06  0.1699196E+04  0.7818609E-02  0.8761823E-01
        1   -1    0    0  501    0  0.00000000000E+00  0.00000000000E+00  0.10023091565E+04  0.10023091565E+04  0.50400001928E-02 0. -1.
       -1   -1    0    0    0  501  0.00000000000E+00  0.00000000000E+00 -0.72015409163E+03  0.72015409164E+03  0.50400001928E-02 0.  1.
    10030    2    1    2    0    0  0.00000000000E+00  0.00000000000E+00  0.28215506491E+03  0.17224632482E+04  0.16991963279E+04 0.  0.
        3    1    3    3  502    0 -0.16288597943E+03  0.82423785524E+02 -0.70003808556E+03  0.72344927545E+03  0.10100000352E+00 0.  1.
       -3    1    3    3    0  502  0.16288597943E+03 -0.82423785524E+02  0.98219315046E+03  0.99901397274E+03  0.10100000352E+00 0. -1.
</event>
<event>
 5   0  0.7476457E-06  0.1699873E+04  0.7818609E-02  0.8761437E-01
        1   -1    0    0  501    0  0.00000000000E+00  0.00000000000E+00  0.68620702575E+03  0.68620702577E+03  0.50400001928E-02 0. -1.
       -1   -1    0    0    0  501  0.00000000000E+00  0.00000000000E+00 -0.10527321807E+04  0.10527321808E+04  0.50400001928E-02 0.  1.
    10030    2    1    2    0    0  0.00000000000E+00  0.00000000000E+00 -0.36652515500E+03  0.17389392065E+04  0.16998731937E+04 0.  0.
        2    1    3    3  502    0 -0.13848144189E+03  0.34037103558E+03 -0.96727156920E+03  0.10347192084E+04  0.25500000920E-02 0.  1.
       -2    1    3    3    0  502  0.13848144189E+03 -0.34037103558E+03  0.60074641420E+03  0.70421999815E+03  0.25500000920E-02 0. -1.
</event>
<event>
 5   0  0.1374441E-05  0.1700170E+04  0.7818609E-02  0.8761268E-01
       -2   -1    0    0    0  501  0.00000000000E+00  0.00000000000E+00  0.67417829778E+03  0.67417829779E+03  0.25500000920E-02 0.  1.
        2   -1    0    0  501    0  0.00000000000E+00  0.00000000000E+00 -0.10718888259E+04  0.10718888259E+04  0.25500000920E-02 0. -1.
    10030    2    1    2    0    0  0.00000000000E+00  0.00000000000E+00 -0.39771052815E+03  0.17460671237E+04  0.17001696199E+04 0.  0.
        1    1    3    3  502    0 -0.36058127706E+03  0.75224625222E+03 -0.36682765522E+03  0.91129348182E+03  0.50400001928E-02 0. -1.
       -1    1    3    3    0  502  0.36058127706E+03 -0.75224625222E+03 -0.30882872938E+02  0.83477364190E+03  0.50400001928E-02 0.  1.
</event>
<event>
 5   0  0.1423543E-05  0.1700340E+04  0.7818609E-02  0.8761171E-01
        2   -1    0    0  501    0  0.00000000000E+00  0.00000000000E+00  0.24145759046E+04  0.24145759046E+04  0.25500000920E-02 0. -1.
       -2   -1    0    0    0  501  0.00000000000E+00  0.00000000000E+00 -0.29934403993E+03  0.29934403994E+03  0.25500000920E-02 0.  1.
    10030    2    1    2    0    0  0.00000000000E+00  0.00000000000E+00  0.21152318647E+04  0.27139199446E+04  0.17003398555E+04 0.  0.
        3    1    3    3  502    0  0.74953072710E+03  0.97551155075E+02  0.43641267543E+03  0.87279354501E+03  0.10100000352E+00 0.  1.
       -3    1    3    3    0  502 -0.74953072710E+03 -0.97551155075E+02  0.16788191893E+04  0.18411263996E+04  0.10100000352E+00 0. -1.
</event>
<event>
 5   0  0.7461128E-06  0.1699934E+04  0.7818609E-02  0.8761402E-01
        1   -1    0    0  501    0  0.00000000000E+00  0.00000000000E+00  0.65634844428E+03  0.65634844430E+03  0.50400001928E-02 0.  1.
       -1   -1    0    0    0  501  0.00000000000E+00  0.00000000000E+00 -0.11007021262E+04  0.11007021262E+04  0.50400001928E-02 0. -1.
    10030    2    1    2    0    0  0.00000000000E+00  0.00000000000E+00 -0.44435368188E+03  0.17570505705E+04  0.16999342671E+04 0.  0.
        3    1    3    3  502    0 -0.20874123406E+03 -0.51450634224E+03 -0.88734782018E+03  0.10467453574E+04  0.10100000352E+00 0. -1.
       -3    1    3    3    0  502  0.20874123406E+03  0.51450634224E+03  0.44299413829E+03  0.71030521311E+03  0.10100000352E+00 0.  1.
</event>
<event>
 5   0  0.1419012E-05  0.1700064E+04  0.7818609E-02  0.8761328E-01
       -2   -1    0    0    0  501  0.00000000000E+00  0.00000000000E+00  0.77729417945E+03  0.77729417946E+03  0.25500000920E-02 0.  1.
        2   -1    0    0  501    0  0.00000000000E+00  0.00000000000E+00 -0.92957686702E+03  0.92957686702E+03  0.25500000920E-02 0. -1.
    10030    2    1    2    0    0  0.00000000000E+00  0.00000000000E+00 -0.15228268757E+03  0.17068710465E+04  0.17000643377E+04 0.  0.
        4    1    3    3  502    0  0.60367882993E+03 -0.46390445689E+02  0.52288208070E+03  0.79999217895E+03  0.12699999809E+01 0.  1.
       -4    1    3    3    0  502 -0.60367882993E+03  0.46390445689E+02 -0.67516476827E+03  0.90687886753E+03  0.12699999809E+01 0. -1.
</event>
<event>
 5   0  0.7461128E-06  0.1699536E+04  0.7818609E-02  0.8761629E-01
       -1   -1    0    0    0  501  0.00000000000E+00  0.00000000000E+00  0.44894813658E+03  0.44894813661E+03  0.50400001928E-02 0.  1.
        1   -1    0    0  501    0  0.00000000000E+00  0.00000000000E+00 -0.16084390870E+04  0.16084390870E+04  0.50400001928E-02 0. -1.
    10030    2    1    2    0    0  0.00000000000E+00  0.00000000000E+00 -0.11594909505E+04  0.20573872237E+04  0.16995360908E+04 0.  0.
        3    1    3    3  502    0 -0.70888833885E+03  0.45950476910E+03 -0.69094834212E+03  0.10913647106E+04  0.10100000352E+00 0.  1.
       -3    1    3    3    0  502  0.70888833885E+03 -0.45950476910E+03 -0.46854260834E+03  0.96602251309E+03  0.10100000352E+00 0. -1.
</event>
<event>
 5   0  0.7461128E-06  0.1697758E+04  0.7818609E-02  0.8762644E-01
        1   -1    0    0  501    0  0.00000000000E+00  0.00000000000E+00  0.97916657728E+03  0.97916657729E+03  0.50400001928E-02 0. -1.
       -1   -1    0    0    0  501  0.00000000000E+00  0.00000000000E+00 -0.73592768040E+03  0.73592768042E+03  0.50400001928E-02 0.  1.
    10030    2    1    2    0    0  0.00000000000E+00  0.00000000000E+00  0.24323889688E+03  0.17150942577E+04  0.16977582725E+04 0.  0.
        3    1    3    3  502    0  0.11372178446E+03  0.46390329381E+03  0.83053782898E+03  0.95808768171E+03  0.10100000352E+00 0. -1.
       -3    1    3    3    0  502 -0.11372178446E+03 -0.46390329381E+03 -0.58729893210E+03  0.75700657601E+03  0.10100000352E+00 0.  1.
</event>
<event>
 5   0  0.1423543E-05  0.1700346E+04  0.7818609E-02  0.8761167E-01
        2   -1    0    0  501    0  0.00000000000E+00  0.00000000000E+00  0.59016339218E+03  0.59016339218E+03  0.25500000920E-02 0.  1.
       -2   -1    0    0    0  501  0.00000000000E+00  0.00000000000E+00 -0.12247353288E+04  0.12247353288E+04  0.25500000920E-02 0. -1.
    10030    2    1    2    0    0  0.00000000000E+00  0.00000000000E+00 -0.63457193662E+03  0.18148987210E+04  0.17003457956E+04 0.  0.
        3    1    3    3  502    0  0.17974173480E+02  0.65859588424E+03  0.25624296810E+03  0.70691730673E+03  0.10100000352E+00 0.  1.
       -3    1    3    3    0  502 -0.17974173480E+02 -0.65859588424E+03 -0.89081490472E+03  0.11079814142E+04  0.10100000352E+00 0. -1.
</event>
<event>
 5   0  0.7455669E-06  0.1703328E+04  0.7818609E-02  0.8759468E-01
       -1   -1    0    0    0  501  0.00000000000E+00  0.00000000000E+00  0.69288775169E+03  0.69288775171E+03  0.50400001928E-02 0.  1.
        1   -1    0    0  501    0  0.00000000000E+00  0.00000000000E+00 -0.10468241990E+04  0.10468241990E+04  0.50400001928E-02 0. -1.
    10030    2    1    2    0    0  0.00000000000E+00  0.00000000000E+00 -0.35393644727E+03  0.17397119507E+04  0.17033281136E+04 0.  0.
        4    1    3    3  502    0 -0.26974773078E+03 -0.44412159810E+03  0.51222096316E+03  0.72964358434E+03  0.12699999809E+01 0.  1.
       -4    1    3    3    0  502  0.26974773078E+03  0.44412159810E+03 -0.86615741044E+03  0.10100683664E+04  0.12699999809E+01 0. -1.
</event>
<event>
 5   0  0.7461128E-06  0.1700774E+04  0.7818609E-02  0.8760923E-01
        1   -1    0    0  501    0  0.00000000000E+00  0.00000000000E+00  0.92836704413E+03  0.92836704415E+03  0.50400001928E-02 0. -1.
       -1   -1    0    0    0  501  0.00000000000E+00  0.00000000000E+00 -0.77895697704E+03  0.77895697706E+03  0.50400001928E-02 0.  1.
    10030    2    1    2    0    0  0.00000000000E+00  0.00000000000E+00  0.14941006709E+03  0.17073240212E+04  0.17007739254E+04 0.  0.
        3    1    3    3  502    0 -0.68928428093E+03  0.29695184270E+03 -0.32666572634E+03  0.81853755185E+03  0.10100000352E+00 0.  1.
       -3    1    3    3    0  502  0.68928428093E+03 -0.29695184270E+03  0.47607579343E+03  0.88878646936E+03  0.10100000352E+00 0. -1.
</event>
<event>
 5   0  0.1435301E-05  0.1701291E+04  0.7818609E-02  0.8760629E-01
        2   -1    0    0  501    0  0.00000000000E+00  0.00000000000E+00  0.12807472181E+04  0.12807472181E+04  0.25500000920E-02 0.  1.
       -2   -1    0    0    0  501  0.00000000000E+00  0.00000000000E+00 -0.56498067668E+03  0.56498067668E+03  0.25500000920E-02 0. -1.
    10030    2    1    2    0    0  0.00000000000E+00  0.00000000000E+00  0.71576654140E+03  0.18457278948E+04  0.17012906041E+04 0.  0.
        2    1    3    3  502    0 -0.78004302330E+03  0.23620693218E+02 -0.93390995284E+01  0.78045645242E+03  0.25500000920E-02 0.  1.
       -2    1    3    3    0  502  0.78004302330E+03 -0.23620693218E+02  0.72510564093E+03  0.10652714423E+04  0.25500000920E-02 0. -1.
</event>
<event>
 5   0  0.7455669E-06  0.1702816E+04  0.7818609E-02  0.8759760E-01
       -1   -1    0    0    0  501  0.00000000000E+00  0.00000000000E+00  0.53573246438E+03  0.53573246440E+03  0.50400001928E-02 0.  1.
        1   -1    0    0  501    0  0.00000000000E+00  0.00000000000E+00 -0.13530929483E+04  0.13530929483E+04  0.50400001928E-02 0. -1.
    10030    2    1    2    0    0  0.00000000000E+00  0.00000000000E+00 -0.81736048390E+03  0.18888254127E+04  0.17028162787E+04 0.  0.
        4    1    3    3  502    0 -0.71299720094E+03  0.18222174842E+03  0.66254783160E+02  0.73889179407E+03  0.12699999809E+01 0.  1.
       -4    1    3    3    0  502  0.71299720094E+03 -0.18222174842E+03 -0.88361526706E+03  0.11499336186E+04  0.12699999809E+01 0. -1.
</event>
<event>
 5   0  0.1374441E-05  0.1699870E+04  0.7818609E-02  0.8761439E-01
       -2   -1    0    0    0  501  0.00000000000E+00  0.00000000000E+00  0.57044198621E+03  0.57044198622E+03  0.25500000920E-02 0. -1.
        2   -1    0    0  501    0  0.00000000000E+00  0.00000000000E+00 -0.12663675868E+04  0.12663675868E+04  0.25500000920E-02 0.  1.
    10030    2    1    2    0    0  0.00000000000E+00  0.00000000000E+00 -0.69592560060E+03  0.18368095730E+04  0.16998696909E+04 0.  0.
        1    1    3    3  502    0 -0.41391753151E+03 -0.45112444346E+03  0.28906158875E+03  0.67705065430E+03  0.50400001928E-02 0. -1.
       -1    1    3    3    0  502  0.41391753151E+03  0.45112444346E+03 -0.98498718935E+03  0.11597589187E+04  0.50400001928E-02 0.  1.
</event>
<event>
 5   0  0.7476457E-06  0.1700007E+04  0.7818609E-02  0.8761360E-01
       -1   -1    0    0    0  501  0.00000000000E+00  0.00000000000E+00  0.12285887274E+04  0.12285887274E+04  0.50400001928E-02 0.  1.
        1   -1    0    0  501    0  0.00000000000E+00  0.00000000000E+00 -0.58807800440E+03  0.58807800442E+03  0.50400001928E-02 0. -1.
    10030    2    1    2    0    0  0.00000000000E+00  0.00000000000E+00  0.64051072300E+03  0.18166667318E+04  0.17000070671E+04 0.  0.
        2    1    3    3  502    0  0.18108495406E+03 -0.69952575215E+03  0.79860948392E+03  0.10769889258E+04  0.25500000920E-02 0.  1.
       -2    1    3    3    0  502 -0.18108495406E+03  0.69952575215E+03 -0.15809876092E+03  0.73967780602E+03  0.25500000920E-02 0. -1.
</event>
<event>
 5   0  0.7455669E-06  0.1699871E+04  0.7818609E-02  0.8761438E-01
       -1   -1    0    0    0  501  0.00000000000E+00  0.00000000000E+00  0.91534208967E+03  0.91534208969E+03  0.50400001928E-02 0. -1.
        1   -1    0    0  501    0  0.00000000000E+00  0.00000000000E+00 -0.78920262058E+03  0.78920262060E+03  0.50400001928E-02 0.  1.
    10030    2    1    2    0    0  0.00000000000E+00  0.00000000000E+00  0.12613946909E+03  0.17045447103E+04  0.16998710256E+04 0.  0.
        4    1    3    3  502    0 -0.18133291679E+02 -0.11015768259E+03  0.90795693690E+03  0.91479557469E+03  0.12699999809E+01 0. -1.
       -4    1    3    3    0  502  0.18133291679E+02  0.11015768259E+03 -0.78181746781E+03  0.78974913560E+03  0.12699999809E+01 0.  1.
</event>
<event>
 5   0  0.1423543E-05  0.1700546E+04  0.7818609E-02  0.8761053E-01
       -2   -1    0    0    0  501  0.00000000000E+00  0.00000000000E+00  0.27576334961E+03  0.27576334962E+03  0.25500000920E-02 0.  1.
        2   -1    0    0  501    0  0.00000000000E+00  0.00000000000E+00 -0.26216843287E+04  0.26216843287E+04  0.25500000920E-02 0. -1.
    10030    2    1    2    0    0  0.00000000000E+00  0.00000000000E+00 -0.23459209791E+04  0.28974476783E+04  0.17005463265E+04 0.  0.
        3    1    3    3  502    0  0.71040492473E+03  0.16745438057E+03 -0.42979155968E+03  0.84701648250E+03  0.10100000352E+00 0.  1.
       -3    1    3    3    0  502 -0.71040492473E+03 -0.16745438057E+03 -0.19161294194E+04  0.20504311958E+04  0.10100000352E+00 0. -1.
</event>
<event>
 5   0  0.7461128E-06  0.1700034E+04  0.7818609E-02  0.8761345E-01
       -1   -1    0    0    0  501  0.00000000000E+00  0.00000000000E+00  0.39399528606E+03  0.39399528610E+03  0.50400001928E-02 0. -1.
        1   -1    0    0  501    0  0.00000000000E+00  0.00000000000E+00 -0.18338519366E+04  0.18338519366E+04  0.50400001928E-02 0.  1.
    10030    2    1    2    0    0  0.00000000000E+00  0.00000000000E+00 -0.14398566506E+04  0.22278472227E+04  0.17000341390E+04 0.  0.
        3    1    3    3  502    0  0.55619477063E+03 -0.25608757497E+03 -0.14925463928E+04  0.16132663183E+04  0.10100000352E+00 0.  1.
       -3    1    3    3    0  502 -0.55619477063E+03  0.25608757497E+03  0.52689742242E+02  0.61458090442E+03  0.10100000352E+00 0. -1.
</event>
<event>
 5   0  0.1435301E-05  0.1699872E+04  0.7818609E-02  0.8761437E-01
       -2   -1    0    0    0  501  0.00000000000E+00  0.00000000000E+00  0.69675751227E+03  0.69675751227E+03  0.25500000920E-02 0.  1.
        2   -1    0    0  501    0  0.00000000000E+00  0.00000000000E+00 -0.10367904399E+04  0.10367904399E+04  0.25500000920E-02 0. -1.
    10030    2    1    2    0    0  0.00000000000E+00  0.00000000000E+00 -0.34003292759E+03  0.17335479521E+04  0.16998723807E+04 0.  0.
        2    1    3    3  502    0  0.50367807069E+03 -0.34475025928E+03 -0.77321285575E+03  0.98509007734E+03  0.25500000920E-02 0. -1.
       -2    1    3    3    0  502 -0.50367807069E+03  0.34475025928E+03  0.43317992817E+03  0.74845787479E+03  0.25500000920E-02 0.  1.
</event>
<event>
 5   0  0.1423543E-05  0.1699899E+04  0.7818609E-02  0.8761422E-01
        2   -1    0    0  501    0  0.00000000000E+00  0.00000000000E+00  0.21019474027E+04  0.21019474027E+04  0.25500000920E-02 0. -1.
       -2   -1    0    0    0  501  0.00000000000E+00  0.00000000000E+00 -0.34368800280E+03  0.34368800281E+03  0.25500000920E-02 0.  1.
    10030    2    1    2    0    0  0.00000000000E+00  0.00000000000E+00  0.17582593998E+04  0.24456354055E+04  0.16998989439E+04 0.  0.
        3    1    3    3  502    0  0.76396998367E+03 -0.36628952659E+03  0.97666365818E+03  0.12929385386E+04  0.10100000352E+00 0.  1.
       -3    1    3    3    0  502 -0.76396998367E+03  0.36628952659E+03  0.78159574167E+03  0.11526968668E+04  0.10100000352E+00 0. -1.
</event>
<event>
 5   0  0.1435301E-05  0.1699016E+04  0.7818609E-02  0.8761926E-01
       -2   -1    0    0    0  501  0.00000000000E+00  0.00000000000E+00  0.36404991190E+03  0.36404991191E+03  0.25500000920E-02 0.  1.
        2   -1    0    0  501    0  0.00000000000E+00  0.00000000000E+00 -0.19823212226E+04  0.19823212226E+04  0.25500000920E-02 0. -1.
    10030    2    1    2    0    0  0.00000000000E+00  0.00000000000E+00 -0.16182713107E+04  0.23463711345E+04  0.16990160287E+04 0.  0.
        2    1    3    3  502    0 -0.52251059179E+03  0.32268856876E+03 -0.16197337721E+04  0.17322478816E+04  0.25500000920E-02 0. -1.
       -2    1    3    3    0  502  0.52251059179E+03 -0.32268856876E+03  0.14624613791E+01  0.61412325289E+03  0.25500000920E-02 0.  1.
</event>
<event>
 5   0  0.1435301E-05  0.1700529E+04  0.7818609E-02  0.8761063E-01
       -2   -1    0    0    0  501  0.00000000000E+00  0.00000000000E+00  0.39404221974E+03  0.39404221975E+03  0.25500000920E-02 0.  1.
        2   -1    0    0  501    0  0.00000000000E+00  0.00000000000E+00 -0.18347014209E+04  0.18347014209E+04  0.25500000920E-02 0. -1.
    10030    2    1    2    0    0  0.00000000000E+00  0.00000000000E+00 -0.14406592012E+04  0.22287436407E+04  0.17005291182E+04 0.  0.
        2    1    3    3  502    0  0.84380730476E+03 -0.10454255005E+03 -0.72445505653E+03  0.11170385138E+04  0.25500000920E-02 0.  1.
       -2    1    3    3    0  502 -0.84380730476E+03  0.10454255005E+03 -0.71620414463E+03  0.11117051269E+04  0.25500000920E-02 0. -1.
</event>
<event>
 5   0  0.7583716E-06  0.1699995E+04  0.7818609E-02  0.8761367E-01
        1   -1    0    0  501    0  0.00000000000E+00  0.00000000000E+00  0.56469656869E+03  0.56469656872E+03  0.50400001928E-02 0.  1.
       -1   -1    0    0    0  501  0.00000000000E+00  0.00000000000E+00 -0.12794412748E+04  0.12794412748E+04  0.50400001928E-02 0. -1.
    10030    2    1    2    0    0  0.00000000000E+00  0.00000000000E+00 -0.71474470609E+03  0.18441378435E+04  0.16999954091E+04 0.  0.
        5    1    3    3  502    0  0.61599862597E+03  0.31733623220E+03  0.17662357625E+03  0.71510458616E+03  0.46999998093E+01 0.  1.
       -5    1    3    3    0  502 -0.61599862597E+03 -0.31733623220E+03 -0.89136828233E+03  0.11290332574E+04  0.46999998093E+01 0. -1.
</event>
<event>
 5   0  0.7455669E-06  0.1699853E+04  0.7818609E-02  0.8761448E-01
        1   -1    0    0  501    0  0.00000000000E+00  0.00000000000E+00  0.68126841284E+03  0.68126841286E+03  0.50400001928E-02 0.  1.
       -1   -1    0    0    0  501  0.00000000000E+00  0.00000000000E+00 -0.10603380785E+04  0.10603380785E+04  0.50400001928E-02 0. -1.
    10030    2    1    2    0    0  0.00000000000E+00  0.00000000000E+00 -0.37906966568E+03  0.17416064914E+04  0.16998527464E+04 0.  0.
        4    1    3    3  502    0 -0.61433709165E+02 -0.66632705227E+03 -0.72643660858E+03  0.98766269566E+03  0.12699999809E+01 0. -1.
       -4    1    3    3    0  502  0.61433709165E+02  0.66632705227E+03  0.34736694290E+03  0.75394379573E+03  0.12699999809E+01 0.  1.
</event>
<event>
 5   0  0.1435301E-05  0.1699609E+04  0.7818609E-02  0.8761587E-01
       -2   -1    0    0    0  501  0.00000000000E+00  0.00000000000E+00  0.13285790505E+04  0.13285790505E+04  0.25500000920E-02 0. -1.
        2   -1    0    0  501    0  0.00000000000E+00  0.00000000000E+00 -0.54356392703E+03  0.54356392703E+03  0.25500000920E-02 0.  1.
    10030    2    1    2    0    0  0.00000000000E+00  0.00000000000E+00  0.78501512351E+03  0.18721429776E+04  0.16996089504E+04 0.  0.
        2    1    3    3  502    0 -0.37638739573E+03  0.46326474853E+03  0.10587969071E+04  0.12154557126E+04  0.25500000920E-02 0. -1.
       -2    1    3    3    0  502  0.37638739573E+03 -0.46326474853E+03 -0.27378178359E+03  0.65668726493E+03  0.25500000920E-02 0.  1.
</event>
<event>
 5   0  0.1435301E-05  0.1701915E+04  0.7818609E-02  0.8760273E-01
        2   -1    0    0  501    0  0.00000000000E+00  0.00000000000E+00  0.84065681092E+03  0.84065681092E+03  0.25500000920E-02 0.  1.
       -2   -1    0    0    0  501  0.00000000000E+00  0.00000000000E+00 -0.86138438132E+03  0.86138438132E+03  0.25500000920E-02 0. -1.
    10030    2    1    2    0    0  0.00000000000E+00  0.00000000000E+00 -0.20727570398E+02  0.17020411922E+04  0.17019149767E+04 0.  0.
        2    1    3    3  502    0  0.49830274932E+03  0.25747325025E+03 -0.65035697810E+03  0.85881447562E+03  0.25500000920E-02 0. -1.
       -2    1    3    3    0  502 -0.49830274932E+03 -0.25747325025E+03  0.62962940770E+03  0.84322671662E+03  0.25500000920E-02 0.  1.
</event>
<event>
 5   0  0.5229750E-06  0.1700529E+04  0.7818609E-02  0.8761063E-01
       -3   -1    0    0    0  501  0.00000000000E+00  0.00000000000E+00  0.37856343793E+03  0.37856345141E+03  0.10100000352E+00 0.  1.
        3   -1    0    0  501    0  0.00000000000E+00  0.00000000000E+00 -0.19097183746E+04  0.19097183772E+04  0.10100000352E+00 0. -1.
    10030    2    1    2    0    0  0.00000000000E+00  0.00000000000E+00 -0.15311549366E+04  0.22882818286E+04  0.17005288258E+04 0.  0.
        3    1    3    3  502    0 -0.57178663812E+03 -0.17072928178E+03 -0.15806126471E+04  0.16895043053E+04  0.10100000352E+00 0. -1.
       -3    1    3    3    0  502  0.57178663812E+03  0.17072928178E+03  0.49457710441E+02  0.59877752339E+03  0.10100000352E+00 0.  1.
</event>
<event>
 5   0  0.1423543E-05  0.1700678E+04  0.7818609E-02  0.8760978E-01
        2   -1    0    0  501    0  0.00000000000E+00  0.00000000000E+00  0.10167135263E+04  0.10167135263E+04  0.25500000920E-02 0.  1.
       -2   -1    0    0    0  501  0.00000000000E+00  0.00000000000E+00 -0.71118967896E+03  0.71118967896E+03  0.25500000920E-02 0. -1.
    10030    2    1    2    0    0  0.00000000000E+00  0.00000000000E+00  0.30552384731E+03  0.17279032052E+04  0.17006777077E+04 0.  0.
        3    1    3    3  502    0  0.71393188036E+03 -0.38503413238E+03 -0.10652169026E+03  0.81810567385E+03  0.10100000352E+00 0.  1.
       -3    1    3    3    0  502 -0.71393188036E+03  0.38503413238E+03  0.41204553757E+03  0.90979753139E+03  0.10100000352E+00 0. -1.
</event>
<event>
 5   0  0.5229750E-06  0.1700095E+04  0.7818609E-02  0.8761310E-01
        4   -1    0    0  501    0  0.00000000000E+00  0.00000000000E+00  0.54522729901E+03  0.54522877812E+03  0.12699999809E+01 0. -1.
       -4   -1    0    0    0  501  0.00000000000E+00  0.00000000000E+00 -0.13252791962E+04  0.13252798047E+04  0.12699999809E+01 0.  1.
    10030    2    1    2    0    0  0.00000000000E+00  0.00000000000E+00 -0.78005189717E+03  0.18705085828E+04  0.17000945256E+04 0.  0.
        5    1    3    3  502    0 -0.42399799846E+02  0.69451373704E+03  0.14719130170E+03  0.71122039008E+03  0.46999998093E+01 0. -1.
       -5    1    3    3    0  502  0.42399799846E+02 -0.69451373704E+03 -0.92724319887E+03  0.11592881927E+04  0.46999998093E+01 0.  1.
</event>
<event>
 5   0  0.7082527E-06  0.1699800E+04  0.7818609E-02  0.8761479E-01
        1   -1    0    0  501    0  0.00000000000E+00  0.00000000000E+00  0.12911286078E+04  0.12911286078E+04  0.50400001928E-02 0. -1.
       -1   -1    0    0    0  501  0.00000000000E+00  0.00000000000E+00 -0.55945597368E+03  0.55945597370E+03  0.50400001928E-02 0.  1.
    10030    2    1    2    0    0  0.00000000000E+00  0.00000000000E+00  0.73167263411E+03  0.18505845815E+04  0.16997995322E+04 0.  0.
        1    1    3    3  502    0  0.63440824611E+02  0.61367421765E+03 -0.27057711024E+03  0.67367110391E+03  0.50400001928E-02 0.  1.
       -1    1    3    3    0  502 -0.63440824611E+02 -0.61367421765E+03  0.10022497444E+04  0.11769134776E+04  0.50400001928E-02 0. -1.
</event>
<event>
 5   0  0.1435301E-05  0.1699979E+04  0.7818609E-02  0.8761376E-01
        2   -1    0    0  501    0  0.00000000000E+00  0.00000000000E+00  0.18681836425E+04  0.18681836425E+04  0.25500000920E-02 0.  1.
       -2   -1    0    0    0  501  0.00000000000E+00  0.00000000000E+00 -0.38672961224E+03  0.38672961225E+03  0.25500000920E-02 0. -1.
    10030    2    1    2    0    0  0.00000000000E+00  0.00000000000E+00  0.14814540303E+04  0.22549132548E+04  0.16999787477E+04 0.  0.
        2    1    3    3  502    0  0.63610052757E+03  0.19553355891E+03  0.39313549952E+02  0.66663543939E+03  0.25500000920E-02 0. -1.
       -2    1    3    3    0  502 -0.63610052757E+03 -0.19553355891E+03  0.14421404804E+04  0.15882778154E+04  0.25500000920E-02 0.  1.
</event>
<event>
 5   0  0.1441756E-05  0.1699893E+04  0.7818609E-02  0.8761425E-01
       -2   -1    0    0    0  501  0.00000000000E+00  0.00000000000E+00  0.46998313265E+03  0.46998313266E+03  0.25500000920E-02 0.  1.
        2   -1    0    0  501    0  0.00000000000E+00  0.00000000000E+00 -0.15370954626E+04  0.15370954626E+04  0.25500000920E-02 0. -1.
    10030    2    1    2    0    0  0.00000000000E+00  0.00000000000E+00 -0.10671123299E+04  0.20070785952E+04  0.16998928680E+04 0.  0.
        5    1    3    3  502    0 -0.75838658962E+03  0.20269078815E+03 -0.14886774010E+03  0.79901030592E+03  0.46999998093E+01 0.  1.
       -5    1    3    3    0  502  0.75838658962E+03 -0.20269078815E+03 -0.91824458981E+03  0.12080682893E+04  0.46999998093E+01 0. -1.
</event>
<event>
 5   0  0.5229750E-06  0.1698854E+04  0.7818609E-02  0.8762018E-01
       -4   -1    0    0    0  501  0.00000000000E+00  0.00000000000E+00  0.14807758744E+04  0.14807764190E+04  0.12699999809E+01 0. -1.
        4   -1    0    0  501    0  0.00000000000E+00  0.00000000000E+00 -0.48726060252E+03  0.48726225759E+03  0.12699999809E+01 0.  1.
    10030    2    1    2    0    0  0.00000000000E+00  0.00000000000E+00  0.99351527187E+03  0.19680386766E+04  0.16988536244E+04 0.  0.
        3    1    3    3  502    0  0.71666190547E+03 -0.20262615952E+03  0.96997352757E+03  0.12229105861E+04  0.10100000352E+00 0. -1.
       -3    1    3    3    0  502 -0.71666190547E+03  0.20262615952E+03  0.23541744306E+02  0.74512809047E+03  0.10100000352E+00 0.  1.
</event>
<event>
 5   0  0.7583716E-06  0.1700077E+04  0.7818609E-02  0.8761320E-01
       -1   -1    0    0    0  501  0.00000000000E+00  0.00000000000E+00  0.54413467592E+03  0.54413467594E+03  0.50400001928E-02 0. -1.
        1   -1    0    0  501    0  0.00000000000E+00  0.00000000000E+00 -0.13279166611E+04  0.13279166611E+04  0.50400001928E-02 0.  1.
    10030    2    1    2    0    0  0.00000000000E+00  0.00000000000E+00 -0.78378198517E+03  0.18720513370E+04  0.17000770595E+04 0.  0.
        5    1    3    3  502    0 -0.41103698740E+03 -0.15319896841E+03 -0.11936375337E+04  0.12716972835E+04  0.46999998093E+01 0.  1.
       -5    1    3    3    0  502  0.41103698740E+03  0.15319896841E+03  0.40985554855E+03  0.60035405354E+03  0.46999998093E+01 0. -1.
</event>
<event>
 5   0  0.1419012E-05  0.1699650E+04  0.7818609E-02  0.8761564E-01
        2   -1    0    0  501    0  0.00000000000E+00  0.00000000000E+00  0.10225895213E+04  0.10225895213E+04  0.25500000920E-02 0.  1.
       -2   -1    0    0    0  501  0.00000000000E+00  0.00000000000E+00 -0.70624833379E+03  0.70624833379E+03  0.25500000920E-02 0. -1.
    10030    2    1    2    0    0  0.00000000000E+00  0.00000000000E+00  0.31634118751E+03  0.17288378551E+04  0.16996495469E+04 0.  0.
        4    1    3    3  502    0  0.16478270400E+03  0.61856178485E+01  0.10061593100E+04  0.10195831361E+04  0.12699999809E+01 0.  1.
       -4    1    3    3    0  502 -0.16478270400E+03 -0.61856178485E+01 -0.68981812249E+03  0.70925471900E+03  0.12699999809E+01 0. -1.
</event>
<event>
 5   0  0.7461128E-06  0.1700576E+04  0.7818609E-02  0.8761036E-01
       -1   -1    0    0    0  501  0.00000000000E+00  0.00000000000E+00  0.10421739264E+04  0.10421739264E+04  0.50400001928E-02 0.  1.
        1   -1    0    0  501    0  0.00000000000E+00  0.00000000000E+00 -0.69373258576E+03  0.69373258578E+03  0.50400001928E-02 0. -1.
    10030    2    1    2    0    0  0.00000000000E+00  0.00000000000E+00  0.34844134067E+03  0.17359065122E+04  0.17005763880E+04 0.  0.
        3    1    3    3  502    0  0.38828335567E+02 -0.28308159142E+03 -0.64325866082E+03  0.70386400815E+03  0.10100000352E+00 0. -1.
       -3    1    3    3    0  502 -0.38828335567E+02  0.28308159142E+03  0.99170000149E+03  0.10320425041E+04  0.10100000352E+00 0.  1.
</event>
<event>
 5   0  0.7476457E-06  0.1699423E+04  0.7818609E-02  0.8761693E-01
        1   -1    0    0  501    0  0.00000000000E+00  0.00000000000E+00  0.78446853869E+03  0.78446853870E+03  0.50400001928E-02 0.  1.
       -1   -1    0    0    0  501  0.00000000000E+00  0.00000000000E+00 -0.92038081678E+03  0.92038081679E+03  0.50400001928E-02 0. -1.
    10030    2    1    2    0    0  0.00000000000E+00  0.00000000000E+00 -0.13591227809E+03  0.17048493555E+04  0.16994231897E+04 0.  0.
        2    1    3    3  502    0  0.58673630623E+03 -0.24108286018E+03  0.49920674122E+03  0.80720989155E+03  0.25500000920E-02 0.  1.
       -2    1    3    3    0  502 -0.58673630623E+03  0.24108286018E+03 -0.63511901931E+03  0.89763946394E+03  0.25500000920E-02 0. -1.
</event>
<event>
 5   0  0.1435301E-05  0.1703091E+04  0.7818609E-02  0.8759603E-01
        2   -1    0    0  501    0  0.00000000000E+00  0.00000000000E+00  0.12892522772E+04  0.12892522772E+04  0.25500000920E-02 0. -1.
       -2   -1    0    0    0  501  0.00000000000E+00  0.00000000000E+00 -0.56244215192E+03  0.56244215192E+03  0.25500000920E-02 0.  1.
    10030    2    1    2    0    0  0.00000000000E+00  0.00000000000E+00  0.72681012530E+03  0.18516944291E+04  0.17030911017E+04 0.  0.
        2    1    3    3  502    0 -0.32282360684E+03 -0.36902019557E+03  0.11203867084E+04  0.12229707119E+04  0.25500000920E-02 0. -1.
       -2    1    3    3    0  502  0.32282360684E+03  0.36902019557E+03 -0.39357658307E+03  0.62872371724E+03  0.25500000920E-02 0.  1.
</event>
<event>
 5   0  0.1423543E-05  0.1699042E+04  0.7818609E-02  0.8761911E-01
        2   -1    0    0  501    0  0.00000000000E+00  0.00000000000E+00  0.95860739939E+03  0.95860739939E+03  0.25500000920E-02 0. -1.
       -2   -1    0    0    0  501  0.00000000000E+00  0.00000000000E+00 -0.75284843846E+03  0.75284843847E+03  0.25500000920E-02 0.  1.
    10030    2    1    2    0    0  0.00000000000E+00  0.00000000000E+00  0.20575896093E+03  0.17114558379E+04  0.16990421816E+04 0.  0.
        3    1    3    3  502    0 -0.78589040548E+03  0.20602741592E+03  0.35291685590E+03  0.88578854300E+03  0.10100000352E+00 0. -1.
       -3    1    3    3    0  502  0.78589040548E+03 -0.20602741592E+03 -0.14715789497E+03  0.82566729485E+03  0.10100000352E+00 0.  1.
</event>
<event>
 5   0  0.7455669E-06  0.1700020E+04  0.7818609E-02  0.8761353E-01
        1   -1    0    0  501    0  0.00000000000E+00  0.00000000000E+00  0.13839324608E+04  0.13839324608E+04  0.50400001928E-02 0. -1.
       -1   -1    0    0    0  501  0.00000000000E+00  0.00000000000E+00 -0.52207524362E+03  0.52207524364E+03  0.50400001928E-02 0.  1.
    10030    2    1    2    0    0  0.00000000000E+00  0.00000000000E+00  0.86185721720E+03  0.19060077045E+04  0.17000198548E+04 0.  0.
        4    1    3    3  502    0  0.70903813324E+03 -0.44191691534E+03  0.25547521854E+03  0.87366746227E+03  0.12699999809E+01 0.  1.
       -4    1    3    3    0  502 -0.70903813324E+03  0.44191691534E+03  0.60638199867E+03  0.10323402422E+04  0.12699999809E+01 0. -1.
</event>
<event>
 5   0  0.1423543E-05  0.1700598E+04  0.7818609E-02  0.8761023E-01
       -2   -1    0    0    0  501  0.00000000000E+00  0.00000000000E+00  0.52518883212E+03  0.52518883213E+03  0.25500000920E-02 0.  1.
        2   -1    0    0  501    0  0.00000000000E+00  0.00000000000E+00 -0.13766639429E+04  0.13766639429E+04  0.25500000920E-02 0. -1.
    10030    2    1    2    0    0  0.00000000000E+00  0.00000000000E+00 -0.85147511077E+03  0.19018527750E+04  0.17005981635E+04 0.  0.
        3    1    3    3  502    0 -0.55951606229E+03  0.92497551259E+02  0.28279677212E+03  0.63370974860E+03  0.10100000352E+00 0.  1.
       -3    1    3    3    0  502  0.55951606229E+03 -0.92497551259E+02 -0.11342718829E+04  0.12681430264E+04  0.10100000352E+00 0. -1.
</event>
<event>
 5   0  0.7461128E-06  0.1695698E+04  0.7818609E-02  0.8763822E-01
       -1   -1    0    0    0  501  0.00000000000E+00  0.00000000000E+00  0.56381423109E+03  0.56381423111E+03  0.50400001928E-02 0. -1.
        1   -1    0    0  501    0  0.00000000000E+00  0.00000000000E+00 -0.12749736307E+04  0.12749736308E+04  0.50400001928E-02 0.  1.
    10030    2    1    2    0    0  0.00000000000E+00  0.00000000000E+00 -0.71115939966E+03  0.18387878619E+04  0.16956984134E+04 0.  0.
        3    1    3    3  502    0 -0.82543595721E+03 -0.18917167152E+03 -0.31063560445E+03  0.90201160177E+03  0.10100000352E+00 0. -1.
       -3    1    3    3    0  502  0.82543595721E+03  0.18917167152E+03 -0.40052379521E+03  0.93677626011E+03  0.10100000352E+00 0.  1.
</event>
<event>
 5   0  0.1435301E-05  0.1700284E+04  0.7818609E-02  0.8761202E-01
       -2   -1    0    0    0  501  0.00000000000E+00  0.00000000000E+00  0.75376267971E+03  0.75376267971E+03  0.25500000920E-02 0.  1.
        2   -1    0    0  501    0  0.00000000000E+00  0.00000000000E+00 -0.95884532738E+03  0.95884532739E+03  0.25500000920E-02 0. -1.
    10030    2    1    2    0    0  0.00000000000E+00  0.00000000000E+00 -0.20508264767E+03  0.17126080071E+04  0.17002844743E+04 0.  0.
        2    1    3    3  502    0 -0.80211367633E+03 -0.27538016381E+01  0.18118790187E+03  0.82232778682E+03  0.25500000920E-02 0.  1.
       -2    1    3    3    0  502  0.80211367633E+03  0.27538016381E+01 -0.38627054954E+03  0.89028022028E+03  0.25500000920E-02 0. -1.
</event>
<event>
 5   0  0.1423543E-05  0.1700479E+04  0.7818609E-02  0.8761091E-01
       -2   -1    0    0    0  501  0.00000000000E+00  0.00000000000E+00  0.41447038843E+03  0.41447038844E+03  0.25500000920E-02 0. -1.
        2   -1    0    0  501    0  0.00000000000E+00  0.00000000000E+00 -0.17441711269E+04  0.17441711269E+04  0.25500000920E-02 0.  1.
    10030    2    1    2    0    0  0.00000000000E+00  0.00000000000E+00 -0.13297007385E+04  0.21586415154E+04  0.17004790907E+04 0.  0.
        3    1    3    3  502    0 -0.43222228792E+03 -0.40518737653E+03 -0.14390103220E+04  0.15561952426E+04  0.10100000352E+00 0.  1.
       -3    1    3    3    0  502  0.43222228792E+03  0.40518737653E+03  0.10930958347E+03  0.60244627272E+03  0.10100000352E+00 0. -1.
</event>
<event>
 5   0  0.1374441E-05  0.1701015E+04  0.7818609E-02  0.8760786E-01
        2   -1    0    0  501    0  0.00000000000E+00  0.00000000000E+00  0.88192952426E+03  0.88192952427E+03  0.25500000920E-02 0.  1.
       -2   -1    0    0    0  501  0.00000000000E+00  0.00000000000E+00 -0.82020468358E+03  0.82020468358E+03  0.25500000920E-02 0. -1.
    10030    2    1    2    0    0  0.00000000000E+00  0.00000000000E+00  0.61724840687E+02  0.17021342078E+04  0.17010146694E+04 0.  0.
        1    1    3    3  502    0 -0.17603563565E+03 -0.41298556415E+03 -0.69198210556E+03  0.82485444513E+03  0.50400001928E-02 0. -1.
       -1    1    3    3    0  502  0.17603563565E+03  0.41298556415E+03  0.75370694625E+03  0.87727976271E+03  0.50400001928E-02 0.  1.
</event>
<event>
 5   0  0.7082527E-06  0.1700602E+04  0.7818609E-02  0.8761021E-01
       -1   -1    0    0    0  501  0.00000000000E+00  0.00000000000E+00  0.35018525281E+03  0.35018525285E+03  0.50400001928E-02 0. -1.
        1   -1    0    0  501    0  0.00000000000E+00  0.00000000000E+00 -0.20646551422E+04  0.20646551422E+04  0.50400001928E-02 0.  1.
    10030    2    1    2    0    0  0.00000000000E+00  0.00000000000E+00 -0.17144698894E+04  0.24148403951E+04  0.17006019911E+04 0.  0.
        1    1    3    3  502    0  0.66188865841E+02 -0.11212028423E+03 -0.20504164406E+04  0.20545460579E+04  0.50400001928E-02 0.  1.
       -1    1    3    3    0  502 -0.66188865841E+02  0.11212028423E+03  0.33594655121E+03  0.36029433717E+03  0.50400001928E-02 0. -1.
</event>
<event>
 5   0  0.1423543E-05  0.1700382E+04  0.7818609E-02  0.8761147E-01
        2   -1    0    0  501    0  0.00000000000E+00  0.00000000000E+00  0.11418593933E+04  0.11418593933E+04  0.25500000920E-02 0. -1.
       -2   -1    0    0    0  501  0.00000000000E+00  0.00000000000E+00 -0.63302417190E+03  0.63302417191E+03  0.25500000920E-02 0.  1.
    10030    2    1    2    0    0  0.00000000000E+00  0.00000000000E+00  0.50883522141E+03  0.17748835652E+04  0.17003818358E+04 0.  0.
        3    1    3    3  502    0  0.84789451929E+03  0.61206939329E+02  0.24149868315E+03  0.88373810002E+03  0.10100000352E+00 0. -1.
       -3    1    3    3    0  502 -0.84789451929E+03 -0.61206939329E+02  0.26733653826E+03  0.89114546520E+03  0.10100000352E+00 0.  1.
</event>
<event>
 5   0  0.7455669E-06  0.1699531E+04  0.7818609E-02  0.8761632E-01
       -1   -1    0    0    0  501  0.00000000000E+00  0.00000000000E+00  0.49622644781E+03  0.49622644784E+03  0.50400001928E-02 0.  1.
        1   -1    0    0  501    0  0.00000000000E+00  0.00000000000E+00 -0.14551854396E+04  0.14551854396E+04  0.50400001928E-02 0. -1.
    10030    2    1    2    0    0  0.00000000000E+00  0.00000000000E+00 -0.95895899174E+03  0.19514118874E+04  0.16995311137E+04 0.  0.
        4    1    3    3  502    0  0.28659167362E+03 -0.58270946354E+03  0.14985346189E+03  0.66644037935E+03  0.12699999809E+01 0.  1.
       -4    1    3    3    0  502 -0.28659167362E+03  0.58270946354E+03 -0.11088124536E+04  0.12849715081E+04  0.12699999809E+01 0. -1.
</event>
<event>
 5   0  0.1441756E-05  0.1700011E+04  0.7818609E-02  0.8761358E-01
       -2   -1    0    0    0  501  0.00000000000E+00  0.00000000000E+00  0.46163060249E+03  0.46163060250E+03  0.25500000920E-02 0. -1.
        2   -1    0    0  501    0  0.00000000000E+00  0.00000000000E+00 -0.15651238826E+04  0.15651238826E+04  0.25500000920E-02 0.  1.
    10030    2    1    2    0    0  0.00000000000E+00  0.00000000000E+00 -0.11034932801E+04  0.20267544851E+04  0.17000106834E+04 0.  0.
        5    1    3    3  502    0  0.21395238682E+03  0.80565283582E+03 -0.35355823341E+03  0.90547094381E+03  0.46999998093E+01 0. -1.
       -5    1    3    3    0  502 -0.21395238682E+03 -0.80565283582E+03 -0.74993504669E+03  0.11212835413E+04  0.46999998093E+01 0.  1.
</event>
<event>
 5   0  0.7455669E-06  0.1700002E+04  0.7818609E-02  0.8761363E-01
       -1   -1    0    0    0  501  0.00000000000E+00  0.00000000000E+00  0.10066224187E+04  0.10066224187E+04  0.50400001928E-02 0. -1.
        1   -1    0    0  501    0  0.00000000000E+00  0.00000000000E+00 -0.71774836002E+03  0.71774836003E+03  0.50400001928E-02 0.  1.
    10030    2    1    2    0    0  0.00000000000E+00  0.00000000000E+00  0.28887405870E+03  0.17243707788E+04  0.17000018708E+04 0.  0.
        4    1    3    3  502    0  0.70050297699E+03  0.30282864335E+03 -0.23521471134E+03  0.79858448604E+03  0.12699999809E+01 0. -1.
       -4    1    3    3    0  502 -0.70050297699E+03 -0.30282864335E+03  0.52408877004E+03  0.92578629272E+03  0.12699999809E+01 0.  1.
</event>
<event>
 5   0  0.7461128E-06  0.1700183E+04  0.7818609E-02  0.8761260E-01
        1   -1    0    0  501    0  0.00000000000E+00  0.00000000000E+00  0.17406443477E+04  0.17406443477E+04  0.50400001928E-02 0.  1.
       -1   -1    0    0    0  501  0.00000000000E+00  0.00000000000E+00 -0.41516569228E+03  0.41516569231E+03  0.50400001928E-02 0. -1.
    10030    2    1    2    0    0  0.00000000000E+00  0.00000000000E+00  0.13254786554E+04  0.21558100400E+04  0.17001833027E+04 0.  0.
        3    1    3    3  502    0  0.54425219872E+03  0.20794167264E+02  0.14903501196E+04  0.15867533969E+04  0.10100000352E+00 0.  1.
       -3    1    3    3    0  502 -0.54425219872E+03 -0.20794167264E+02 -0.16487146420E+03  0.56905664315E+03  0.10100000352E+00 0. -1.
</event>
<event>
 5   0  0.1374441E-05  0.1700431E+04  0.7818609E-02  0.8761118E-01
       -2   -1    0    0    0  501  0.00000000000E+00  0.00000000000E+00  0.60196444469E+03  0.60196444469E+03  0.25500000920E-02 0. -1.
        2   -1    0    0  501    0  0.00000000000E+00  0.00000000000E+00 -0.12008462801E+04  0.12008462801E+04  0.25500000920E-02 0.  1.
    10030    2    1    2    0    0  0.00000000000E+00  0.00000000000E+00 -0.59888183540E+03  0.18028107248E+04  0.17004314325E+04 0.  0.
        1    1    3    3  502    0 -0.65404017538E+03  0.27085571811E+03  0.19979809855E+03  0.73556145307E+03  0.50400001928E-02 0. -1.
       -1    1    3    3    0  502  0.65404017538E+03 -0.27085571811E+03 -0.79867993395E+03  0.10672492717E+04  0.50400001928E-02 0.  1.
</event>
<event>
 5   0  0.1419012E-05  0.1699950E+04  0.7818609E-02  0.8761393E-01
        2   -1    0    0  501    0  0.00000000000E+00  0.00000000000E+00  0.21315320442E+04  0.21315320442E+04  0.25500000920E-02 0. -1.
       -2   -1    0    0    0  501  0.00000000000E+00  0.00000000000E+00 -0.33893808428E+03  0.33893808429E+03  0.25500000920E-02 0.  1.
    10030    2    1    2    0    0  0.00000000000E+00  0.00000000000E+00  0.17925939599E+04  0.24704701285E+04  0.16999498671E+04 0.  0.
        4    1    3    3  502    0  0.75856068073E+03 -0.30438127935E+03  0.12352324466E+04  0.14811694972E+04  0.12699999809E+01 0. -1.
       -4    1    3    3    0  502 -0.75856068073E+03  0.30438127935E+03  0.55736151336E+03  0.98930063127E+03  0.12699999809E+01 0.  1.
</event>
<event>
 5   0  0.1423543E-05  0.1699999E+04  0.7818609E-02  0.8761365E-01
       -2   -1    0    0    0  501  0.00000000000E+00  0.00000000000E+00  0.11478111101E+04  0.11478111101E+04  0.25500000920E-02 0. -1.
        2   -1    0    0  501    0  0.00000000000E+00  0.00000000000E+00 -0.62945809490E+03  0.62945809490E+03  0.25500000920E-02 0.  1.
    10030    2    1    2    0    0  0.00000000000E+00  0.00000000000E+00  0.51835301521E+03  0.17772692050E+04  0.16999988173E+04 0.  0.
        3    1    3    3  502    0 -0.68072261453E+02 -0.38854869985E+03  0.10463236673E+04  0.11182115864E+04  0.10100000352E+00 0. -1.
       -3    1    3    3    0  502  0.68072261453E+02  0.38854869985E+03 -0.52797065213E+03  0.65905761861E+03  0.10100000352E+00 0.  1.
</event>
<event>
 5   0  0.7476457E-06  0.1699761E+04  0.7818609E-02  0.8761500E-01
        1   -1    0    0  501    0  0.00000000000E+00  0.00000000000E+00  0.11151415364E+04  0.11151415364E+04  0.50400001928E-02 0. -1.
       -1   -1    0    0    0  501  0.00000000000E+00  0.00000000000E+00 -0.64771791109E+03  0.64771791111E+03  0.50400001928E-02 0.  1.
    10030    2    1    2    0    0  0.00000000000E+00  0.00000000000E+00  0.46742362528E+03  0.17628594475E+04  0.16997613321E+04 0.  0.
        2    1    3    3  502    0 -0.19055221830E+03  0.13036121950E+03  0.10819943233E+04  0.11063525257E+04  0.25500000920E-02 0. -1.
       -2    1    3    3    0  502  0.19055221830E+03 -0.13036121950E+03 -0.61457069804E+03  0.65650692178E+03  0.25500000920E-02 0.  1.
</event>
<event>
 5   0  0.7476457E-06  0.1699556E+04  0.7818609E-02  0.8761618E-01
        1   -1    0    0  501    0  0.00000000000E+00  0.00000000000E+00  0.74719856254E+03  0.74719856256E+03  0.50400001928E-02 0.  1.
       -1   -1    0    0    0  501  0.00000000000E+00  0.00000000000E+00 -0.96643990547E+03  0.96643990548E+03  0.50400001928E-02 0. -1.
    10030    2    1    2    0    0  0.00000000000E+00  0.00000000000E+00 -0.21924134293E+03  0.17136384680E+04  0.16995558339E+04 0.  0.
        2    1    3    3  502    0 -0.51515254678E+03 -0.67123038509E+03 -0.18894998862E+03  0.86696855452E+03  0.25500000920E-02 0. -1.
       -2    1    3    3    0  502  0.51515254678E+03  0.67123038509E+03 -0.30291354307E+02  0.84666991352E+03  0.25500000920E-02 0.  1.
</event>
<event>
 5   0  0.1441756E-05  0.1697460E+04  0.7818609E-02  0.8762815E-01
       -2   -1    0    0    0  501  0.00000000000E+00  0.00000000000E+00  0.13781888836E+04  0.13781888836E+04  0.25500000920E-02 0.  1.
        2   -1    0    0  501    0  0.00000000000E+00  0.00000000000E+00 -0.52267306731E+03  0.52267306732E+03  0.25500000920E-02 0. -1.
    10030    2    1    2    0    0  0.00000000000E+00  0.00000000000E+00  0.85551581624E+03  0.19008619509E+04  0.16974595266E+04 0.  0.
        5    1    3    3  502    0 -0.31065435058E+03 -0.44134569090E+02  0.13108370019E+04  0.13478760037E+04  0.46999998093E+01 0.  1.
       -5    1    3    3    0  502  0.31065435058E+03  0.44134569090E+02 -0.45532118564E+03  0.55298594721E+03  0.46999998093E+01 0. -1.
</event>
<event>
 5   0  0.7082527E-06  0.1700299E+04  0.7818609E-02  0.8761194E-01
       -1   -1    0    0    0  501  0.00000000000E+00  0.00000000000E+00  0.17728724163E+04  0.17728724163E+04  0.50400001928E-02 0.  1.
        1   -1    0    0  501    0  0.00000000000E+00  0.00000000000E+00 -0.40767409616E+03  0.40767409619E+03  0.50400001928E-02 0. -1.
    10030    2    1    2    0    0  0.00000000000E+00  0.00000000000E+00  0.13651983202E+04  0.21805465125E+04  0.17002989854E+04 0.  0.
        1    1    3    3  502    0  0.46303210453E+03  0.71200720673E+03  0.73060401003E+03  0.11203281715E+04  0.50400001928E-02 0.  1.
       -1    1    3    3    0  502 -0.46303210453E+03 -0.71200720673E+03  0.63459431013E+03  0.10602183411E+04  0.50400001928E-02 0. -1.
</event>
<event>
 5   0  0.1423543E-05  0.1699823E+04  0.7818609E-02  0.8761466E-01
        2   -1    0    0  501    0  0.00000000000E+00  0.00000000000E+00  0.12630233398E+04  0.12630233398E+04  0.25500000920E-02 0. -1.
       -2   -1    0    0    0  501  0.00000000000E+00  0.00000000000E+00 -0.57192068103E+03  0.57192068104E+03  0.25500000920E-02 0.  1.
    10030    2    1    2    0    0  0.00000000000E+00  0.00000000000E+00  0.69110265880E+03  0.18349440209E+04  0.16998225421E+04 0.  0.
        3    1    3    3  502    0 -0.89356264619E+01 -0.82807547080E+03  0.13914439893E+03  0.83973210294E+03  0.10100000352E+00 0.  1.
       -3    1    3    3    0  502  0.89356264619E+01  0.82807547080E+03  0.55195825986E+03  0.99521191793E+03  0.10100000352E+00 0. -1.
</event>
<event>
 5   0  0.7476457E-06  0.1700149E+04  0.7818609E-02  0.8761280E-01
        1   -1    0    0  501    0  0.00000000000E+00  0.00000000000E+00  0.15866039419E+04  0.15866039419E+04  0.50400001928E-02 0. -1.
       -1   -1    0    0    0  501  0.00000000000E+00  0.00000000000E+00 -0.45545479391E+03  0.45545479394E+03  0.50400001928E-02 0.  1.
    10030    2    1    2    0    0  0.00000000000E+00  0.00000000000E+00  0.11311491480E+04  0.20420587359E+04  0.17001486658E+04 0.  0.
        2    1    3    3  502    0 -0.31410235966E+03  0.27950333642E+03 -0.32181758445E+03  0.52947990054E+03  0.25500000920E-02 0.  1.
       -2    1    3    3    0  502  0.31410235966E+03 -0.27950333642E+03  0.14529667325E+04  0.15125788353E+04  0.25500000920E-02 0. -1.
</event>
<event>
 5   0  0.7455669E-06  0.1699392E+04  0.7818609E-02  0.8761711E-01
        1   -1    0    0  501    0  0.00000000000E+00  0.00000000000E+00  0.50042248593E+03  0.50042248596E+03  0.50400001928E-02 0. -1.
       -1   -1    0    0    0  501  0.00000000000E+00  0.00000000000E+00 -0.14427479766E+04  0.14427479766E+04  0.50400001928E-02 0.  1.
    10030    2    1    2    0    0  0.00000000000E+00  0.00000000000E+00 -0.94232549068E+03  0.19431704626E+04  0.16993922785E+04 0.  0.
        4    1    3    3  502    0 -0.16280013124E+03 -0.75544770049E+03 -0.87507235943E+03  0.11674580755E+04  0.12699999809E+01 0.  1.
       -4    1    3    3    0  502  0.16280013124E+03  0.75544770049E+03 -0.67253131253E+02  0.77571238708E+03  0.12699999809E+01 0. -1.
</event>
<event>
 5   0  0.5229750E-06  0.1700193E+04  0.7818609E-02  0.8761254E-01
       -3   -1    0    0    0  501  0.00000000000E+00  0.00000000000E+00  0.70345556580E+03  0.70345557305E+03  0.10100000352E+00 0. -1.
        3   -1    0    0  501    0  0.00000000000E+00  0.00000000000E+00 -0.10273055835E+04  0.10273055885E+04  0.10100000352E+00 0.  1.
    10030    2    1    2    0    0  0.00000000000E+00  0.00000000000E+00 -0.32385001774E+03  0.17307611616E+04  0.17001927433E+04 0.  0.
        2    1    3    3  502    0 -0.31028514132E+03 -0.44101632387E+03 -0.83092536440E+03  0.99056005777E+03  0.25500000920E-02 0.  1.
       -2    1    3    3    0  502  0.31028514132E+03  0.44101632387E+03  0.50707534666E+03  0.74020110378E+03  0.25500000920E-02 0. -1.
</event>
<event>
 5   0  0.1419012E-05  0.1699668E+04  0.7818609E-02  0.8761554E-01
        2   -1    0    0  501    0  0.00000000000E+00  0.00000000000E+00  0.97225971397E+03  0.97225971397E+03  0.25500000920E-02 0. -1.
       -2   -1    0    0    0  501  0.00000000000E+00  0.00000000000E+00 -0.74282397257E+03  0.74282397257E+03  0.25500000920E-02 0.  1.
    10030    2    1    2    0    0  0.00000000000E+00  0.00000000000E+00  0.22943574140E+03  0.17150836865E+04  0.16996679948E+04 0.  0.
        4    1    3    3  502    0 -0.25343701190E+03 -0.29864853379E+03  0.87574315023E+03  0.95934818695E+03  0.12699999809E+01 0. -1.
       -4    1    3    3    0  502  0.25343701190E+03  0.29864853379E+03 -0.64630740883E+03  0.75573549959E+03  0.12699999809E+01 0.  1.
</event>
<event>
 5   0  0.7583716E-06  0.1699955E+04  0.7818609E-02  0.8761390E-01
       -1   -1    0    0    0  501  0.00000000000E+00  0.00000000000E+00  0.81269494899E+03  0.81269494901E+03  0.50400001928E-02 0.  1.
        1   -1    0    0  501    0  0.00000000000E+00  0.00000000000E+00 -0.88897017540E+03  0.88897017542E+03  0.50400001928E-02 0. -1.
    10030    2    1    2    0    0  0.00000000000E+00  0.00000000000E+00 -0.76275226409E+02  0.17016651244E+04  0.16999547893E+04 0.  0.
        5    1    3    3  502    0 -0.27526773633E+03 -0.80060538044E+03  0.37424621090E+02  0.84744557000E+03  0.46999998093E+01 0. -1.
       -5    1    3    3    0  502  0.27526773633E+03  0.80060538044E+03 -0.11369984750E+03  0.85421955443E+03  0.46999998093E+01 0.  1.
</event>
<event>
 5   0  0.1435301E-05  0.1699887E+04  0.7818609E-02  0.8761429E-01
       -2   -1    0    0    0  501  0.00000000000E+00  0.00000000000E+00  0.47597650356E+03  0.47597650357E+03  0.25500000920E-02 0. -1.
        2   -1    0    0  501    0  0.00000000000E+00  0.00000000000E+00 -0.15177300097E+04  0.15177300097E+04  0.25500000920E-02 0.  1.
    10030    2    1    2    0    0  0.00000000000E+00  0.00000000000E+00 -0.10417535062E+04  0.19937065133E+04  0.16998868473E+04 0.  0.
        2    1    3    3  502    0  0.52445574054E+03  0.64856005770E+03 -0.32916080951E+03  0.89667765153E+03  0.25500000920E-02 0.  1.
       -2    1    3    3    0  502 -0.52445574054E+03 -0.64856005770E+03 -0.71259269666E+03  0.10970288618E+04  0.25500000920E-02 0. -1.
</event>
<event>
 5   0  0.7476457E-06  0.1699568E+04  0.7818609E-02  0.8761611E-01
       -1   -1    0    0    0  501  0.00000000000E+00  0.00000000000E+00  0.94942452491E+03  0.94942452493E+03  0.50400001928E-02 0. -1.
        1   -1    0    0  501    0  0.00000000000E+00  0.00000000000E+00 -0.76060055978E+03  0.76060055979E+03  0.50400001928E-02 0.  1.
    10030    2    1    2    0    0  0.00000000000E+00  0.00000000000E+00  0.18882396514E+03  0.17100250847E+04  0.16995679747E+04 0.  0.
        2    1    3    3  502    0 -0.45966869665E+03 -0.16763260203E+03  0.79347955520E+03  0.93220480822E+03  0.25500000920E-02 0. -1.
       -2    1    3    3    0  502  0.45966869665E+03  0.16763260203E+03 -0.60465559006E+03  0.77782027650E+03  0.25500000920E-02 0.  1.
</event>
<event>
 5   0  0.7082527E-06  0.1699634E+04  0.7818609E-02  0.8761573E-01
        1   -1    0    0  501    0  0.00000000000E+00  0.00000000000E+00  0.99800451347E+03  0.99800451348E+03  0.50400001928E-02 0. -1.
       -1   -1    0    0    0  501  0.00000000000E+00  0.00000000000E+00 -0.72363322628E+03  0.72363322630E+03  0.50400001928E-02 0.  1.
    10030    2    1    2    0    0  0.00000000000E+00  0.00000000000E+00  0.27437128719E+03  0.17216377398E+04  0.16996343442E+04 0.  0.
        1    1    3    3  502    0  0.65891022397E+03  0.14986671190E+03 -0.38481727380E+03  0.77762912036E+03  0.50400001928E-02 0.  1.
       -1    1    3    3    0  502 -0.65891022397E+03 -0.14986671190E+03  0.65918856099E+03  0.94400861943E+03  0.50400001928E-02 0. -1.
</event>
<event>
 5   0  0.1435301E-05  0.1689560E+04  0.7818609E-02  0.8767341E-01
        2   -1    0    0  501    0  0.00000000000E+00  0.00000000000E+00  0.72323657873E+03  0.72323657873E+03  0.25500000920E-02 0.  1.
       -2   -1    0    0    0  501  0.00000000000E+00  0.00000000000E+00 -0.98674959813E+03  0.98674959813E+03  0.25500000920E-02 0. -1.
    10030    2    1    2    0    0  0.00000000000E+00  0.00000000000E+00 -0.26351301940E+03  0.17099861769E+04  0.16895601835E+04 0.  0.
        2    1    3    3  502    0  0.41764460854E+03  0.71492338017E+03 -0.30144666809E+03  0.88114275362E+03  0.25500000920E-02 0. -1.
       -2    1    3    3    0  502 -0.41764460854E+03 -0.71492338017E+03  0.37933648688E+02  0.82884342324E+03  0.25500000920E-02 0.  1.
</event>
<event>
 5   0  0.1374441E-05  0.1700273E+04  0.7818609E-02  0.8761209E-01
        2   -1    0    0  501    0  0.00000000000E+00  0.00000000000E+00  0.10244722625E+04  0.10244722625E+04  0.25500000920E-02 0. -1.
       -2   -1    0    0    0  501  0.00000000000E+00  0.00000000000E+00 -0.70546761698E+03  0.70546761699E+03  0.25500000920E-02 0.  1.
    10030    2    1    2    0    0  0.00000000000E+00  0.00000000000E+00  0.31900464554E+03  0.17299398795E+04  0.17002729260E+04 0.  0.
        1    1    3    3  502    0 -0.20341703671E+03  0.82195559105E+03  0.23660397321E+03  0.87918765042E+03  0.50400001928E-02 0. -1.
       -1    1    3    3    0  502  0.20341703671E+03 -0.82195559105E+03  0.82400672327E+02  0.85075222909E+03  0.50400001928E-02 0.  1.
</event>
<event>
 5   0  0.7476457E-06  0.1698984E+04  0.7818609E-02  0.8761944E-01
        1   -1    0    0  501    0  0.00000000000E+00  0.00000000000E+00  0.15148467308E+04  0.15148467308E+04  0.50400001928E-02 0. -1.
       -1   -1    0    0    0  501  0.00000000000E+00  0.00000000000E+00 -0.47637586289E+03  0.47637586292E+03  0.50400001928E-02 0.  1.
    10030    2    1    2    0    0  0.00000000000E+00  0.00000000000E+00  0.10384708679E+04  0.19912225937E+04  0.16989837181E+04 0.  0.
        2    1    3    3  502    0 -0.62909110892E+03 -0.16843742070E+03  0.11585007011E+04  0.13290036353E+04  0.25500000920E-02 0. -1.
       -2    1    3    3    0  502  0.62909110892E+03  0.16843742070E+03 -0.12002983326E+03  0.66221895842E+03  0.25500000920E-02 0.  1.
</event>
<event>
 5   0  0.7082527E-06  0.1700475E+04  0.7818609E-02  0.8761093E-01
       -1   -1    0    0    0  501  0.00000000000E+00  0.00000000000E+00  0.70901510419E+03  0.70901510421E+03  0.50400001928E-02 0. -1.
        1   -1    0    0  501    0  0.00000000000E+00  0.00000000000E+00 -0.10195893186E+04  0.10195893186E+04  0.50400001928E-02 0.  1.
    10030    2    1    2    0    0  0.00000000000E+00  0.00000000000E+00 -0.31057421444E+03  0.17286044229E+04  0.17004754947E+04 0.  0.
        1    1    3    3  502    0  0.68823457449E+03  0.44795335996E+03 -0.37933067125E+03  0.90455558171E+03  0.50400001928E-02 0.  1.
       -1    1    3    3    0  502 -0.68823457449E+03 -0.44795335996E+03  0.68756456808E+02  0.82404884115E+03  0.50400001928E-02 0. -1.
</event>
<event>
 5   0  0.7455669E-06  0.1698744E+04  0.7818609E-02  0.8762081E-01
        1   -1    0    0  501    0  0.00000000000E+00  0.00000000000E+00  0.12642761693E+04  0.12642761693E+04  0.50400001928E-02 0.  1.
       -1   -1    0    0    0  501  0.00000000000E+00  0.00000000000E+00 -0.57062928559E+03  0.57062928562E+03  0.50400001928E-02 0. -1.
    10030    2    1    2    0    0  0.00000000000E+00  0.00000000000E+00  0.69364688369E+03  0.18349054549E+04  0.16987442507E+04 0.  0.
        4    1    3    3  502    0  0.93363181988E+02  0.82843238630E+03  0.17127102084E+03  0.85108887779E+03  0.12699999809E+01 0.  1.
       -4    1    3    3    0  502 -0.93363181988E+02 -0.82843238630E+03  0.52237586285E+03  0.98381657712E+03  0.12699999809E+01 0. -1.
</event>
<event>
 5   0  0.1419012E-05  0.1700225E+04  0.7818609E-02  0.8761236E-01
        2   -1    0    0  501    0  0.00000000000E+00  0.00000000000E+00  0.58459600963E+03  0.58459600964E+03  0.25500000920E-02 0. -1.
       -2   -1    0    0    0  501  0.00000000000E+00  0.00000000000E+00 -0.12362228463E+04  0.12362228463E+04  0.25500000920E-02 0.  1.
    10030    2    1    2    0    0  0.00000000000E+00  0.00000000000E+00 -0.65162683670E+03  0.18208188560E+04  0.17002246240E+04 0.  0.
        4    1    3    3  502    0  0.17341542009E+03 -0.76639966505E+03 -0.67324341810E+03  0.10347461850E+04  0.12699999809E+01 0.  1.
       -4    1    3    3    0  502 -0.17341542009E+03  0.76639966505E+03  0.21616581401E+02  0.78607267094E+03  0.12699999809E+01 0. -1.
</event>
<event>
 5   0  0.7461128E-06  0.1702228E+04  0.7818609E-02  0.8760095E-01
        1   -1    0    0  501    0  0.00000000000E+00  0.00000000000E+00  0.15429444217E+04  0.15429444217E+04  0.50400001928E-02 0. -1.
       -1   -1    0    0    0  501  0.00000000000E+00  0.00000000000E+00 -0.46948856126E+03  0.46948856129E+03  0.50400001928E-02 0.  1.
    10030    2    1    2    0    0  0.00000000000E+00  0.00000000000E+00  0.10734558604E+04  0.20124329830E+04  0.17022276659E+04 0.  0.
        3    1    3    3  502    0  0.73583029272E+03  0.36361342363E+03  0.27043937626E+03  0.86417498689E+03  0.10100000352E+00 0.  1.
       -3    1    3    3    0  502 -0.73583029272E+03 -0.36361342363E+03  0.80301648415E+03  0.11482579961E+04  0.10100000352E+00 0. -1.
</event>
<event>
 5   0  0.7082527E-06  0.1697851E+04  0.7818609E-02  0.8762591E-01
       -1   -1    0    0    0  501  0.00000000000E+00  0.00000000000E+00  0.35864095264E+03  0.35864095267E+03  0.50400001928E-02 0.  1.
        1   -1    0    0  501    0  0.00000000000E+00  0.00000000000E+00 -0.20094603377E+04  0.20094603378E+04  0.50400001928E-02 0. -1.
    10030    2    1    2    0    0  0.00000000000E+00  0.00000000000E+00 -0.16508193851E+04  0.23681012904E+04  0.16978513125E+04 0.  0.
        1    1    3    3  502    0 -0.58142283913E+03 -0.61837062029E+03 -0.80380084894E+03  0.11689869746E+04  0.50400001928E-02 0. -1.
       -1    1    3    3    0  502  0.58142283913E+03  0.61837062029E+03 -0.84701853617E+03  0.11991143159E+04  0.50400001928E-02 0.  1.
</event>
<event>
 5   0  0.7082527E-06  0.1699188E+04  0.7818609E-02  0.8761828E-01
       -1   -1    0    0    0  501  0.00000000000E+00  0.00000000000E+00  0.10770315871E+04  0.10770315871E+04  0.50400001928E-02 0. -1.
        1   -1    0    0  501    0  0.00000000000E+00  0.00000000000E+00 -0.67018440284E+03  0.67018440286E+03  0.50400001928E-02 0.  1.
    10030    2    1    2    0    0  0.00000000000E+00  0.00000000000E+00  0.40684718426E+03  0.17472159900E+04  0.16991877719E+04 0.  0.
        1    1    3    3  502    0 -0.17599295713E+03 -0.99613774872E+02 -0.64507503654E+03  0.67603123292E+03  0.50400001928E-02 0.  1.
       -1    1    3    3    0  502  0.17599295713E+03  0.99613774872E+02  0.10519222208E+04  0.10711847571E+04  0.50400001928E-02 0. -1.
</event>
<event>
 5   0  0.1419012E-05  0.1700332E+04  0.7818609E-02  0.8761175E-01
        2   -1    0    0  501    0  0.00000000000E+00  0.00000000000E+00  0.98872420494E+03  0.98872420494E+03  0.25500000920E-02 0. -1.
       -2   -1    0    0    0  501  0.00000000000E+00  0.00000000000E+00 -0.73102544299E+03  0.73102544300E+03  0.25500000920E-02 0.  1.
    10030    2    1    2    0    0  0.00000000000E+00  0.00000000000E+00  0.25769876194E+03  0.17197496479E+04  0.17003323792E+04 0.  0.
        4    1    3    3  502    0 -0.81209768844E+03  0.20970992050E+03  0.26936040664E+03  0.88092993359E+03  0.12699999809E+01 0. -1.
       -4    1    3    3    0  502  0.81209768844E+03 -0.20970992050E+03 -0.11661644699E+02  0.83881971435E+03  0.12699999809E+01 0.  1.
</event>
<event>
 5   0  0.1423543E-05  0.1700526E+04  0.7818609E-02  0.8761064E-01
        2   -1    0    0  501    0  0.00000000000E+00  0.00000000000E+00  0.16195249134E+04  0.16195249134E+04  0.25500000920E-02 0.  1.
       -2   -1    0    0    0  501  0.00000000000E+00  0.00000000000E+00 -0.44639459267E+03  0.44639459268E+03  0.25500000920E-02 0. -1.
    10030    2    1    2    0    0  0.00000000000E+00  0.00000000000E+00  0.11731303208E+04  0.20659195061E+04  0.17005259940E+04 0.  0.
        3    1    3    3  502    0 -0.55865716948E+03 -0.61605602973E+03  0.37154918283E+03  0.91086314573E+03  0.10100000352E+00 0. -1.
       -3    1    3    3    0  502  0.55865716948E+03  0.61605602973E+03  0.80158113794E+03  0.11550563604E+04  0.10100000352E+00 0.  1.
</event>
<event>
 5   0  0.1441756E-05  0.1698498E+04  0.7818609E-02  0.8762222E-01
        2   -1    0    0  501    0  0.00000000000E+00  0.00000000000E+00  0.16395239768E+04  0.16395239768E+04  0.25500000920E-02 0.  1.
       -2   -1    0    0    0  501  0.00000000000E+00  0.00000000000E+00 -0.43989817775E+03  0.43989817776E+03  0.25500000920E-02 0. -1.
    10030    2    1    2    0    0  0.00000000000E+00  0.00000000000E+00  0.11996257991E+04  0.20794221546E+04  0.16984977007E+04 0.  0.
        5    1    3    3  502    0 -0.10660672548E+03  0.63036930160E+02 -0.42876661998E+03  0.44632001175E+03  0.46999998093E+01 0. -1.
       -5    1    3    3    0  502  0.10660672548E+03 -0.63036930160E+02  0.16283924190E+04  0.16331021428E+04  0.46999998093E+01 0.  1.
</event>
<event>
 5   0  0.1423543E-05  0.1698608E+04  0.7818609E-02  0.8762159E-01
        2   -1    0    0  501    0  0.00000000000E+00  0.00000000000E+00  0.10006882973E+04  0.10006882973E+04  0.25500000920E-02 0.  1.
       -2   -1    0    0    0  501  0.00000000000E+00  0.00000000000E+00 -0.72082122473E+03  0.72082122474E+03  0.25500000920E-02 0. -1.
    10030    2    1    2    0    0  0.00000000000E+00  0.00000000000E+00  0.27986707253E+03  0.17215095220E+04  0.16986080937E+04 0.  0.
        3    1    3    3  502    0 -0.66928233597E+03 -0.60789155018E+02  0.66624541999E+03  0.94631767207E+03  0.10100000352E+00 0.  1.
       -3    1    3    3    0  502  0.66928233597E+03  0.60789155018E+02 -0.38637834746E+03  0.77519184993E+03  0.10100000352E+00 0. -1.
</event>
<event>
 5   0  0.7583716E-06  0.1699528E+04  0.7818609E-02  0.8761634E-01
        1   -1    0    0  501    0  0.00000000000E+00  0.00000000000E+00  0.86190584751E+03  0.86190584753E+03  0.50400001928E-02 0.  1.
       -1   -1    0    0    0  501  0.00000000000E+00  0.00000000000E+00 -0.83779328467E+03  0.83779328468E+03  0.50400001928E-02 0. -1.
    10030    2    1    2    0    0  0.00000000000E+00  0.00000000000E+00  0.24112562843E+02  0.16996991322E+04  0.16995280887E+04 0.  0.
        5    1    3    3  502    0 -0.70568288130E+02  0.76717169234E+03  0.37062346826E+03  0.85493633332E+03  0.46999998093E+01 0.  1.
       -5    1    3    3    0  502  0.70568288130E+02 -0.76717169234E+03 -0.34651090542E+03  0.84476279889E+03  0.46999998093E+01 0. -1.
</event>
<event>
 5   0  0.1441756E-05  0.1699558E+04  0.7818609E-02  0.8761617E-01
       -2   -1    0    0    0  501  0.00000000000E+00  0.00000000000E+00  0.72685104515E+03  0.72685104515E+03  0.25500000920E-02 0.  1.
        2   -1    0    0  501    0  0.00000000000E+00  0.00000000000E+00 -0.99349697524E+03  0.99349697524E+03  0.25500000920E-02 0. -1.
    10030    2    1    2    0    0  0.00000000000E+00  0.00000000000E+00 -0.26664593009E+03  0.17203480204E+04  0.16995579600E+04 0.  0.
        5    1    3    3  502    0 -0.26819284534E+03 -0.73353224575E+03  0.20559402502E+03  0.80764345535E+03  0.46999998093E+01 0.  1.
       -5    1    3    3    0  502  0.26819284534E+03  0.73353224575E+03 -0.47223995511E+03  0.91270456504E+03  0.46999998093E+01 0. -1.
</event>
<event>
 5   0  0.1435301E-05  0.1700461E+04  0.7818609E-02  0.8761101E-01
       -2   -1    0    0    0  501  0.00000000000E+00  0.00000000000E+00  0.62483277224E+03  0.62483277224E+03  0.25500000920E-02 0.  1.
        2   -1    0    0  501    0  0.00000000000E+00  0.00000000000E+00 -0.11569369302E+04  0.11569369302E+04  0.25500000920E-02 0. -1.
    10030    2    1    2    0    0  0.00000000000E+00  0.00000000000E+00 -0.53210415801E+03  0.17817697025E+04  0.17004612426E+04 0.  0.
        2    1    3    3  502    0  0.36147612391E+03  0.64661624649E+03 -0.70327444061E+03  0.10214560672E+04  0.25500000920E-02 0. -1.
       -2    1    3    3    0  502 -0.36147612391E+03 -0.64661624649E+03  0.17117028260E+03  0.76031363530E+03  0.25500000920E-02 0.  1.
</event>
<event>
 5   0  0.1441756E-05  0.1700411E+04  0.7818609E-02  0.8761130E-01
        2   -1    0    0  501    0  0.00000000000E+00  0.00000000000E+00  0.82644311111E+03  0.82644311112E+03  0.25500000920E-02 0. -1.
       -2   -1    0    0    0  501  0.00000000000E+00  0.00000000000E+00 -0.87465132534E+03  0.87465132534E+03  0.25500000920E-02 0.  1.
    10030    2    1    2    0    0  0.00000000000E+00  0.00000000000E+00 -0.48208214227E+02  0.17010944365E+04  0.17004112002E+04 0.  0.
        5    1    3    3  502    0 -0.15107809279E+03 -0.10484796343E+03  0.80629555289E+03  0.82701408342E+03  0.46999998093E+01 0. -1.
       -5    1    3    3    0  502  0.15107809279E+03  0.10484796343E+03 -0.85450376712E+03  0.87408035304E+03  0.46999998093E+01 0.  1.
</event>
<event>
 5   0  0.7082527E-06  0.1697992E+04  0.7818609E-02  0.8762510E-01
       -1   -1    0    0    0  501  0.00000000000E+00  0.00000000000E+00  0.10176589211E+04  0.10176589211E+04  0.50400001928E-02 0. -1.
        1   -1    0    0  501    0  0.00000000000E+00  0.00000000000E+00 -0.70828678322E+03  0.70828678324E+03  0.50400001928E-02 0.  1.
    10030    2    1    2    0    0  0.00000000000E+00  0.00000000000E+00  0.30937213788E+03  0.17259457044E+04  0.16979921833E+04 0.  0.
        1    1    3    3  502    0  0.16167631289E+03  0.72800439515E+03 -0.25778333714E+03  0.78903857855E+03  0.50400001928E-02 0.  1.
       -1    1    3    3    0  502 -0.16167631289E+03 -0.72800439515E+03  0.56715547502E+03  0.93690712580E+03  0.50400001928E-02 0. -1.
</event>
<event>
 5   0  0.1435301E-05  0.1700080E+04  0.7818609E-02  0.8761319E-01
        2   -1    0    0  501    0  0.00000000000E+00  0.00000000000E+00  0.18821366654E+04  0.18821366654E+04  0.25500000920E-02 0. -1.
       -2   -1    0    0    0  501  0.00000000000E+00  0.00000000000E+00 -0.38390823375E+03  0.38390823376E+03  0.25500000920E-02 0.  1.
    10030    2    1    2    0    0  0.00000000000E+00  0.00000000000E+00  0.14982284316E+04  0.22660448992E+04  0.17000797192E+04 0.  0.
        2    1    3    3  502    0  0.35555471918E+03 -0.72249820994E+03  0.38616991046E+03  0.89305656117E+03  0.25500000920E-02 0.  1.
       -2    1    3    3    0  502 -0.35555471918E+03  0.72249820994E+03  0.11120585212E+04  0.13729883380E+04  0.25500000920E-02 0. -1.
</event>
<event>
 5   0  0.7583716E-06  0.1700392E+04  0.7818609E-02  0.8761141E-01
       -1   -1    0    0    0  501  0.00000000000E+00  0.00000000000E+00  0.12244853168E+04  0.12244853169E+04  0.50400001928E-02 0.  1.
        1   -1    0    0  501    0  0.00000000000E+00  0.00000000000E+00 -0.59031576583E+03  0.59031576585E+03  0.50400001928E-02 0. -1.
    10030    2    1    2    0    0  0.00000000000E+00  0.00000000000E+00  0.63416955102E+03  0.18148010827E+04  0.17003917050E+04 0.  0.
        5    1    3    3  502    0 -0.35487095701E+03  0.25334463839E+03 -0.46188203277E+03  0.63519603598E+03  0.46999998093E+01 0. -1.
       -5    1    3    3    0  502  0.35487095701E+03 -0.25334463839E+03  0.10960515838E+04  0.11796050467E+04  0.46999998093E+01 0.  1.
</event>
<event>
 5   0  0.7461128E-06  0.1700050E+04  0.7818609E-02  0.8761336E-01
       -1   -1    0    0    0  501  0.00000000000E+00  0.00000000000E+00  0.68758222434E+03  0.68758222436E+03  0.50400001928E-02 0.  1.
        1   -1    0    0  501    0  0.00000000000E+00  0.00000000000E+00 -0.10508446465E+04  0.10508446465E+04  0.50400001928E-02 0. -1.
    10030    2    1    2    0    0  0.00000000000E+00  0.00000000000E+00 -0.36326242214E+03  0.17384268709E+04  0.17000495281E+04 0.  0.
        3    1    3    3  502    0 -0.15023910003E+03  0.29511174309E+03 -0.98216994603E+03  0.10364943517E+04  0.10100000352E+00 0. -1.
       -3    1    3    3    0  502  0.15023910003E+03 -0.29511174309E+03  0.61890752388E+03  0.70193251913E+03  0.10100000352E+00 0.  1.
</event>
<event>
 5   0  0.1419012E-05  0.1699670E+04  0.7818609E-02  0.8761553E-01
        2   -1    0    0  501    0  0.00000000000E+00  0.00000000000E+00  0.12845857310E+04  0.12845857310E+04  0.25500000920E-02 0.  1.
       -2   -1    0    0    0  501  0.00000000000E+00  0.00000000000E+00 -0.56221979342E+03  0.56221979342E+03  0.25500000920E-02 0. -1.
    10030    2    1    2    0    0  0.00000000000E+00  0.00000000000E+00  0.72236593761E+03  0.18468055244E+04  0.16996699966E+04 0.  0.
        4    1    3    3  502    0  0.66008489736E+03 -0.24707304279E+02  0.94216156421E+03  0.11506487512E+04  0.12699999809E+01 0.  1.
       -4    1    3    3    0  502 -0.66008489736E+03  0.24707304279E+02 -0.21979562660E+03  0.69615677327E+03  0.12699999809E+01 0. -1.
</event>
<event>
 5   0  0.7461128E-06  0.1700021E+04  0.7818609E-02  0.8761353E-01
        1   -1    0    0  501    0  0.00000000000E+00  0.00000000000E+00  0.69282923966E+03  0.69282923968E+03  0.50400001928E-02 0.  1.
       -1   -1    0    0    0  501  0.00000000000E+00  0.00000000000E+00 -0.10428509120E+04  0.10428509120E+04  0.50400001928E-02 0. -1.
    10030    2    1    2    0    0  0.00000000000E+00  0.00000000000E+00 -0.35002167233E+03  0.17356801517E+04  0.17000207110E+04 0.  0.
        3    1    3    3  502    0 -0.69916502023E+02  0.59133166973E+03 -0.79432855868E+03  0.99273326237E+03  0.10100000352E+00 0. -1.
       -3    1    3    3    0  502  0.69916502023E+02 -0.59133166973E+03  0.44430688635E+03  0.74294688931E+03  0.10100000352E+00 0.  1.
</event>
<event>
 5   0  0.7455669E-06  0.1698928E+04  0.7818609E-02  0.8761976E-01
        1   -1    0    0  501    0  0.00000000000E+00  0.00000000000E+00  0.13606749780E+04  0.13606749780E+04  0.50400001928E-02 0.  1.
       -1   -1    0    0    0  501  0.00000000000E+00  0.00000000000E+00 -0.53031687639E+03  0.53031687641E+03  0.50400001928E-02 0. -1.
    10030    2    1    2    0    0  0.00000000000E+00  0.00000000000E+00  0.83035810157E+03  0.18909918544E+04  0.16989277844E+04 0.  0.
        4    1    3    3  502    0 -0.82101433680E+03  0.56096733815E+02  0.18070847072E+03  0.84253697193E+03  0.12699999809E+01 0. -1.
       -4    1    3    3    0  502  0.82101433680E+03 -0.56096733815E+02  0.64964963085E+03  0.10484548825E+04  0.12699999809E+01 0.  1.
</event>
<event>
 5   0  0.7461128E-06  0.1698660E+04  0.7818609E-02  0.8762129E-01
       -1   -1    0    0    0  501  0.00000000000E+00  0.00000000000E+00  0.52281914509E+03  0.52281914511E+03  0.50400001928E-02 0. -1.
        1   -1    0    0  501    0  0.00000000000E+00  0.00000000000E+00 -0.13797537796E+04  0.13797537796E+04  0.50400001928E-02 0.  1.
    10030    2    1    2    0    0  0.00000000000E+00  0.00000000000E+00 -0.85693463449E+03  0.19025729247E+04  0.16986602856E+04 0.  0.
        3    1    3    3  502    0 -0.64701140088E+03  0.87865635374E+01 -0.10446547162E+04  0.12288223805E+04  0.10100000352E+00 0.  1.
       -3    1    3    3    0  502  0.64701140088E+03 -0.87865635374E+01  0.18772008167E+03  0.67375054422E+03  0.10100000352E+00 0. -1.
</event>
<event>
 5   0  0.1441756E-05  0.1700063E+04  0.7818609E-02  0.8761328E-01
       -2   -1    0    0    0  501  0.00000000000E+00  0.00000000000E+00  0.58812805651E+03  0.58812805652E+03  0.25500000920E-02 0. -1.
        2   -1    0    0  501    0  0.00000000000E+00  0.00000000000E+00 -0.12285648638E+04  0.12285648638E+04  0.25500000920E-02 0.  1.
    10030    2    1    2    0    0  0.00000000000E+00  0.00000000000E+00 -0.64043680728E+03  0.18166929203E+04  0.17000628996E+04 0.  0.
        5    1    3    3  502    0  0.24719875994E+01  0.32250003464E+03 -0.11606319689E+04  0.12046165532E+04  0.46999998093E+01 0.  1.
       -5    1    3    3    0  502 -0.24719875994E+01 -0.32250003464E+03  0.52019516158E+03  0.61207636713E+03  0.46999998093E+01 0. -1.
</event>
<event>
 5   0  0.7455669E-06  0.1700379E+04  0.7818609E-02  0.8761149E-01
       -1   -1    0    0    0  501  0.00000000000E+00  0.00000000000E+00  0.37358040853E+03  0.37358040857E+03  0.50400001928E-02 0. -1.
        1   -1    0    0  501    0  0.00000000000E+00  0.00000000000E+00 -0.19348492429E+04  0.19348492429E+04  0.50400001928E-02 0.  1.
    10030    2    1    2    0    0  0.00000000000E+00  0.00000000000E+00 -0.15612688344E+04  0.23084296515E+04  0.17003785116E+04 0.  0.
        4    1    3    3  502    0 -0.48792929846E+03  0.47861940133E+03 -0.14670857538E+04  0.16184850180E+04  0.12699999809E+01 0.  1.
       -4    1    3    3    0  502  0.48792929846E+03 -0.47861940133E+03 -0.94183080524E+02  0.68994463342E+03  0.12699999809E+01 0. -1.
</event>
<event>
 5   0  0.7583716E-06  0.1699939E+04  0.7818609E-02  0.8761399E-01
        1   -1    0    0  501    0  0.00000000000E+00  0.00000000000E+00  0.57093595822E+03  0.57093595824E+03  0.50400001928E-02 0. -1.
       -1   -1    0    0    0  501  0.00000000000E+00  0.00000000000E+00 -0.12653747585E+04  0.12653747585E+04  0.50400001928E-02 0.  1.
    10030    2    1    2    0    0  0.00000000000E+00  0.00000000000E+00 -0.69443880024E+03  0.18363107167E+04  0.16999387639E+04 0.  0.
        5    1    3    3  502    0 -0.20017999498E+02  0.84449663707E+03 -0.24559487939E+03  0.87972394824E+03  0.46999998093E+01 0.  1.
       -5    1    3    3    0  502  0.20017999498E+02 -0.84449663707E+03 -0.44884392084E+03  0.95658676847E+03  0.46999998093E+01 0. -1.
</event>
<event>
 5   0  0.1441756E-05  0.1698757E+04  0.7818609E-02  0.8762073E-01
       -2   -1    0    0    0  501  0.00000000000E+00  0.00000000000E+00  0.71296675177E+03  0.71296675178E+03  0.25500000920E-02 0.  1.
        2   -1    0    0  501    0  0.00000000000E+00  0.00000000000E+00 -0.10118903619E+04  0.10118903619E+04  0.25500000920E-02 0. -1.
    10030    2    1    2    0    0  0.00000000000E+00  0.00000000000E+00 -0.29892361011E+03  0.17248571137E+04  0.16987574100E+04 0.  0.
        5    1    3    3  502    0 -0.41543616652E+03 -0.73414807596E+03 -0.25029255519E+03  0.87990286911E+03  0.46999998093E+01 0.  1.
       -5    1    3    3    0  502  0.41543616652E+03  0.73414807596E+03 -0.48631054924E+02  0.84495424456E+03  0.46999998093E+01 0. -1.
</event>
<event>
 5   0  0.7583716E-06  0.1699601E+04  0.7818609E-02  0.8761592E-01
       -1   -1    0    0    0  501  0.00000000000E+00  0.00000000000E+00  0.27380455336E+03  0.27380455341E+03  0.50400001928E-02 0.  1.
        1   -1    0    0  501    0  0.00000000000E+00  0.00000000000E+00 -0.26375042745E+04  0.26375042745E+04  0.50400001928E-02 0. -1.
    10030    2    1    2    0    0  0.00000000000E+00  0.00000000000E+00 -0.23636997211E+04  0.29113088279E+04  0.16996007530E+04 0.  0.
        5    1    3    3  502    0 -0.39041114149E+03 -0.17680662702E+03  0.75097051579E+02  0.43513572586E+03  0.46999998093E+01 0.  1.
       -5    1    3    3    0  502  0.39041114149E+03  0.17680662702E+03 -0.24387967727E+04  0.24761731020E+04  0.46999998093E+01 0. -1.
</event>
<event>
 5   0  0.1419012E-05  0.1700552E+04  0.7818609E-02  0.8761050E-01
       -2   -1    0    0    0  501  0.00000000000E+00  0.00000000000E+00  0.38559832691E+03  0.38559832692E+03  0.25500000920E-02 0.  1.
        2   -1    0    0  501    0  0.00000000000E+00  0.00000000000E+00 -0.18749284011E+04  0.18749284011E+04  0.25500000920E-02 0. -1.
    10030    2    1    2    0    0  0.00000000000E+00  0.00000000000E+00 -0.14893300742E+04  0.22605267281E+04  0.17005519746E+04 0.  0.
        4    1    3    3  502    0 -0.71896624003E+02  0.54589368799E+03  0.11660676485E+03  0.56282128037E+03  0.12699999809E+01 0.  1.
       -4    1    3    3    0  502  0.71896624003E+02 -0.54589368799E+03 -0.16059368391E+04  0.16977054477E+04  0.12699999809E+01 0. -1.
</event>
<event>
 5   0  0.7455669E-06  0.1700045E+04  0.7818609E-02  0.8761339E-01
       -1   -1    0    0    0  501  0.00000000000E+00  0.00000000000E+00  0.77045964209E+03  0.77045964210E+03  0.50400001928E-02 0. -1.
        1   -1    0    0  501    0  0.00000000000E+00  0.00000000000E+00 -0.93780134659E+03  0.93780134660E+03  0.50400001928E-02 0.  1.
    10030    2    1    2    0    0  0.00000000000E+00  0.00000000000E+00 -0.16734170450E+03  0.17082609887E+04  0.17000448110E+04 0.  0.
        4    1    3    3  502    0 -0.10981795385E+03  0.10206167776E+03 -0.92441036243E+03  0.93648956220E+03  0.12699999809E+01 0.  1.
       -4    1    3    3    0  502  0.10981795385E+03 -0.10206167776E+03  0.75706865793E+03  0.77177142650E+03  0.12699999809E+01 0. -1.
</event>
<event>
 5   0  0.7476457E-06  0.1698873E+04  0.7818609E-02  0.8762007E-01
       -1   -1    0    0    0  501  0.00000000000E+00  0.00000000000E+00  0.56129667269E+03  0.56129667271E+03  0.50400001928E-02 0.  1.
        1   -1    0    0  501    0  0.00000000000E+00  0.00000000000E+00 -0.12854920011E+04  0.12854920011E+04  0.50400001928E-02 0. -1.
    10030    2    1    2    0    0  0.00000000000E+00  0.00000000000E+00 -0.72419532843E+03  0.18467886739E+04  0.16988730182E+04 0.  0.
        2    1    3    3  502    0  0.45034619125E+02 -0.20420979595E+03 -0.12570730898E+04  0.12743478767E+04  0.25500000920E-02 0. -1.
       -2    1    3    3    0  502 -0.45034619125E+02  0.20420979595E+03  0.53287776138E+03  0.57244079716E+03  0.25500000920E-02 0.  1.
</event>
<event>
 5   0  0.7461128E-06  0.1699827E+04  0.7818609E-02  0.8761463E-01
        1   -1    0    0  501    0  0.00000000000E+00  0.00000000000E+00  0.14540802682E+04  0.14540802682E+04  0.50400001928E-02 0. -1.
       -1   -1    0    0    0  501  0.00000000000E+00  0.00000000000E+00 -0.49677664110E+03  0.49677664113E+03  0.50400001928E-02 0.  1.
    10030    2    1    2    0    0  0.00000000000E+00  0.00000000000E+00  0.95730362709E+03  0.19508569093E+04  0.16998271813E+04 0.  0.
        3    1    3    3  502    0 -0.28642898103E+03 -0.58294268787E+03 -0.15047065793E+03  0.66671220749E+03  0.10100000352E+00 0. -1.
       -3    1    3    3    0  502  0.28642898103E+03  0.58294268787E+03  0.11077742850E+04  0.12841447018E+04  0.10100000352E+00 0.  1.
</event>
<event>
 5   0  0.1423543E-05  0.1700523E+04  0.7818609E-02  0.8761066E-01
        2   -1    0    0  501    0  0.00000000000E+00  0.00000000000E+00  0.10478662238E+04  0.10478662239E+04  0.25500000920E-02 0.  1.
       -2   -1    0    0    0  501  0.00000000000E+00  0.00000000000E+00 -0.68992040461E+03  0.68992040462E+03  0.25500000920E-02 0. -1.
    10030    2    1    2    0    0  0.00000000000E+00  0.00000000000E+00  0.35794581924E+03  0.17377866285E+04  0.17005226128E+04 0.  0.
        3    1    3    3  502    0 -0.34675679910E+03 -0.53344951145E+03  0.75536788804E+03  0.98761800078E+03  0.10100000352E+00 0.  1.
       -3    1    3    3    0  502  0.34675679910E+03  0.53344951145E+03 -0.39742206881E+03  0.75016862768E+03  0.10100000352E+00 0. -1.
</event>
<event>
 5   0  0.7476457E-06  0.1699573E+04  0.7818609E-02  0.8761608E-01
       -1   -1    0    0    0  501  0.00000000000E+00  0.00000000000E+00  0.90885003087E+03  0.90885003089E+03  0.50400001928E-02 0.  1.
        1   -1    0    0  501    0  0.00000000000E+00  0.00000000000E+00 -0.79456115253E+03  0.79456115254E+03  0.50400001928E-02 0. -1.
    10030    2    1    2    0    0  0.00000000000E+00  0.00000000000E+00  0.11428887835E+03  0.17034111834E+04  0.16995728028E+04 0.  0.
        2    1    3    3  502    0 -0.38212890867E+03  0.57085522538E+03 -0.44422399897E+03  0.81806671639E+03  0.25500000920E-02 0. -1.
       -2    1    3    3    0  502  0.38212890867E+03 -0.57085522538E+03  0.55851287732E+03  0.88534446705E+03  0.25500000920E-02 0.  1.
</event>
<event>
 5   0  0.7476457E-06  0.1698644E+04  0.7818609E-02  0.8762138E-01
        1   -1    0    0  501    0  0.00000000000E+00  0.00000000000E+00  0.46582086531E+03  0.46582086534E+03  0.50400001928E-02 0.  1.
       -1   -1    0    0    0  501  0.00000000000E+00  0.00000000000E+00 -0.15485523590E+04  0.15485523590E+04  0.50400001928E-02 0. -1.
    10030    2    1    2    0    0  0.00000000000E+00  0.00000000000E+00 -0.10827314937E+04  0.20143732244E+04  0.16986441651E+04 0.  0.
        2    1    3    3  502    0 -0.31653399586E+02 -0.19391111452E+03  0.43850015914E+03  0.48050582474E+03  0.25500000920E-02 0.  1.
       -2    1    3    3    0  502  0.31653399586E+02  0.19391111452E+03 -0.15212316529E+04  0.15338673997E+04  0.25500000920E-02 0. -1.
</event>
<event>
 5   0  0.1441756E-05  0.1700821E+04  0.7818609E-02  0.8760897E-01
        2   -1    0    0  501    0  0.00000000000E+00  0.00000000000E+00  0.13708462355E+04  0.13708462355E+04  0.25500000920E-02 0. -1.
       -2   -1    0    0    0  501  0.00000000000E+00  0.00000000000E+00 -0.52755560056E+03  0.52755560056E+03  0.25500000920E-02 0.  1.
    10030    2    1    2    0    0  0.00000000000E+00  0.00000000000E+00  0.84329063493E+03  0.18984018360E+04  0.17008205185E+04 0.  0.
        5    1    3    3  502    0 -0.83790966339E+03 -0.13080517877E+03  0.49199863514E+03  0.98045262291E+03  0.46999998093E+01 0. -1.
       -5    1    3    3    0  502  0.83790966339E+03  0.13080517877E+03  0.35129199979E+03  0.91794921314E+03  0.46999998093E+01 0.  1.
</event>
<event>
 5   0  0.1419012E-05  0.1702520E+04  0.7818609E-02  0.8759929E-01
       -2   -1    0    0    0  501  0.00000000000E+00  0.00000000000E+00  0.93844933265E+03  0.93844933265E+03  0.25500000920E-02 0. -1.
        2   -1    0    0  501    0  0.00000000000E+00  0.00000000000E+00 -0.77217099549E+03  0.77217099550E+03  0.25500000920E-02 0.  1.
    10030    2    1    2    0    0  0.00000000000E+00  0.00000000000E+00  0.16627833716E+03  0.17106203282E+04  0.17025197272E+04 0.  0.
        4    1    3    3  502    0  0.65773463103E+03 -0.53470351712E+03  0.16173569465E+03  0.86295002398E+03  0.12699999809E+01 0. -1.
       -4    1    3    3    0  502 -0.65773463103E+03  0.53470351712E+03  0.45426425056E+01  0.84767030417E+03  0.12699999809E+01 0.  1.
</event>
<event>
 5   0  0.7476457E-06  0.1701980E+04  0.7818609E-02  0.8760236E-01
       -1   -1    0    0    0  501  0.00000000000E+00  0.00000000000E+00  0.13064726110E+04  0.13064726111E+04  0.50400001928E-02 0. -1.
        1   -1    0    0  501    0  0.00000000000E+00  0.00000000000E+00 -0.55430465698E+03  0.55430465700E+03  0.50400001928E-02 0.  1.
    10030    2    1    2    0    0  0.00000000000E+00  0.00000000000E+00  0.75216795407E+03  0.18607772681E+04  0.17019798501E+04 0.  0.
        2    1    3    3  502    0 -0.34630319078E+03  0.77583555920E+03  0.42893849611E+03  0.95175361744E+03  0.25500000920E-02 0. -1.
       -2    1    3    3    0  502  0.34630319078E+03 -0.77583555920E+03  0.32322945796E+03  0.90902365061E+03  0.25500000920E-02 0.  1.
</event>
<event>
 5   0  0.7082527E-06  0.1699837E+04  0.7818609E-02  0.8761457E-01
       -1   -1    0    0    0  501  0.00000000000E+00  0.00000000000E+00  0.55896152819E+03  0.55896152821E+03  0.50400001928E-02 0. -1.
        1   -1    0    0  501    0  0.00000000000E+00  0.00000000000E+00 -0.12923276072E+04  0.12923276072E+04  0.50400001928E-02 0.  1.
    10030    2    1    2    0    0  0.00000000000E+00  0.00000000000E+00 -0.73336607903E+03  0.18512891354E+04  0.16998369502E+04 0.  0.
        1    1    3    3  502    0 -0.45871836528E+03  0.14475032434E+03  0.39645242799E+03  0.62333756723E+03  0.50400001928E-02 0. -1.
       -1    1    3    3    0  502  0.45871836528E+03 -0.14475032434E+03 -0.11298185070E+04  0.12279515682E+04  0.50400001928E-02 0.  1.
</event>
<event>
 5   0  0.7461128E-06  0.1700226E+04  0.7818609E-02  0.8761236E-01
       -1   -1    0    0    0  501  0.00000000000E+00  0.00000000000E+00  0.64231185615E+03  0.64231185617E+03  0.50400001928E-02 0.  1.
        1   -1    0    0  501    0  0.00000000000E+00  0.00000000000E+00 -0.11251419673E+04  0.11251419674E+04  0.50400001928E-02 0. -1.
    10030    2    1    2    0    0  0.00000000000E+00  0.00000000000E+00 -0.48283011119E+03  0.17674538235E+04  0.17002258973E+04 0.  0.
        3    1    3    3  502    0  0.76527499692E+03 -0.19656143789E+03 -0.56752242567E+03  0.97281238356E+03  0.10100000352E+00 0. -1.
       -3    1    3    3    0  502 -0.76527499692E+03  0.19656143789E+03  0.84692314477E+02  0.79464143996E+03  0.10100000352E+00 0.  1.
</event>
<event>
 5   0  0.1435301E-05  0.1699723E+04  0.7818609E-02  0.8761522E-01
        2   -1    0    0  501    0  0.00000000000E+00  0.00000000000E+00  0.96504503806E+03  0.96504503806E+03  0.25500000920E-02 0. -1.
       -2   -1    0    0    0  501  0.00000000000E+00  0.00000000000E+00 -0.74842595360E+03  0.74842595360E+03  0.25500000920E-02 0.  1.
    10030    2    1    2    0    0  0.00000000000E+00  0.00000000000E+00  0.21661908446E+03  0.17134709917E+04  0.16997232161E+04 0.  0.
        2    1    3    3  502    0  0.72929047352E+03  0.17634349711E+03 -0.29404666283E+03  0.80586913557E+03  0.25500000920E-02 0. -1.
       -2    1    3    3    0  502 -0.72929047352E+03 -0.17634349711E+03  0.51066574728E+03  0.90760185610E+03  0.25500000920E-02 0.  1.
</event>
<event>
 5   0  0.7082527E-06  0.1699895E+04  0.7818609E-02  0.8761424E-01
        1   -1    0    0  501    0  0.00000000000E+00  0.00000000000E+00  0.14359242050E+04  0.14359242051E+04  0.50400001928E-02 0.  1.
       -1   -1    0    0    0  501  0.00000000000E+00  0.00000000000E+00 -0.50309831296E+03  0.50309831299E+03  0.50400001928E-02 0. -1.
    10030    2    1    2    0    0  0.00000000000E+00  0.00000000000E+00  0.93282589208E+03  0.19390225180E+04  0.16998953440E+04 0.  0.
        1    1    3    3  502    0  0.29842169844E+03 -0.37411559863E+03  0.12676429125E+04  0.13549673593E+04  0.50400001928E-02 0.  1.
       -1    1    3    3    0  502 -0.29842169844E+03  0.37411559863E+03 -0.33481702041E+03  0.58405515871E+03  0.50400001928E-02 0. -1.
</event>
<event>
 5   0  0.1441756E-05  0.1700433E+04  0.7818609E-02  0.8761117E-01
        2   -1    0    0  501    0  0.00000000000E+00  0.00000000000E+00  0.60853427092E+03  0.60853427092E+03  0.25500000920E-02 0. -1.
       -2   -1    0    0    0  501  0.00000000000E+00  0.00000000000E+00 -0.11878844060E+04  0.11878844060E+04  0.25500000920E-02 0.  1.
    10030    2    1    2    0    0  0.00000000000E+00  0.00000000000E+00 -0.57935013506E+03  0.17964186769E+04  0.17004333223E+04 0.  0.
        5    1    3    3  502    0  0.45224791110E+02  0.23626775874E+03  0.57181796921E+03  0.62037538270E+03  0.46999998093E+01 0. -1.
       -5    1    3    3    0  502 -0.45224791110E+02 -0.23626775874E+03 -0.11511681043E+04  0.11760432942E+04  0.46999998093E+01 0.  1.
</event>
<event>
 5   0  0.7461128E-06  0.1702017E+04  0.7818609E-02  0.8760215E-01
        1   -1    0    0  501    0  0.00000000000E+00  0.00000000000E+00  0.78121432181E+03  0.78121432182E+03  0.50400001928E-02 0.  1.
       -1   -1    0    0    0  501  0.00000000000E+00  0.00000000000E+00 -0.92703834892E+03  0.92703834893E+03  0.50400001928E-02 0. -1.
    10030    2    1    2    0    0  0.00000000000E+00  0.00000000000E+00 -0.14582402711E+03  0.17082526708E+04  0.17020171974E+04 0.  0.
        3    1    3    3  502    0  0.98725868556E+02  0.68380607923E+03  0.42577656825E+03  0.81155606546E+03  0.10100000352E+00 0.  1.
       -3    1    3    3    0  502 -0.98725868556E+02 -0.68380607923E+03 -0.57160059536E+03  0.89669660529E+03  0.10100000352E+00 0. -1.
</event>
<event>
 5   0  0.1435301E-05  0.1696300E+04  0.7818609E-02  0.8763477E-01
        2   -1    0    0  501    0  0.00000000000E+00  0.00000000000E+00  0.11483955407E+04  0.11483955407E+04  0.25500000920E-02 0.  1.
       -2   -1    0    0    0  501  0.00000000000E+00  0.00000000000E+00 -0.62640292950E+03  0.62640292950E+03  0.25500000920E-02 0. -1.
    10030    2    1    2    0    0  0.00000000000E+00  0.00000000000E+00  0.52199261122E+03  0.17747984702E+04  0.16962998920E+04 0.  0.
        2    1    3    3  502    0  0.65796376900E+03  0.10872119097E+03  0.80929075147E+03  0.10486601638E+04  0.25500000920E-02 0.  1.
       -2    1    3    3    0  502 -0.65796376900E+03 -0.10872119097E+03 -0.28729814025E+03  0.72613830644E+03  0.25500000920E-02 0. -1.
</event>
<event>
 5   0  0.5229750E-06  0.1699818E+04  0.7818609E-02  0.8761468E-01
       -3   -1    0    0    0  501  0.00000000000E+00  0.00000000000E+00  0.97114687409E+03  0.97114687935E+03  0.10100000352E+00 0.  1.
        3   -1    0    0  501    0  0.00000000000E+00  0.00000000000E+00 -0.74380681108E+03  0.74380681793E+03  0.10100000352E+00 0. -1.
    10030    2    1    2    0    0  0.00000000000E+00  0.00000000000E+00  0.22734006302E+03  0.17149536973E+04  0.16998184255E+04 0.  0.
        3    1    3    3  502    0  0.13585298451E+03  0.62504191848E+03  0.67830688341E+03  0.93232701964E+03  0.10100000352E+00 0.  1.
       -3    1    3    3    0  502 -0.13585298451E+03 -0.62504191848E+03 -0.45096682039E+03  0.78262667764E+03  0.10100000352E+00 0. -1.
</event>
<event>
 5   0  0.1441756E-05  0.1696427E+04  0.7818609E-02  0.8763405E-01
       -2   -1    0    0    0  501  0.00000000000E+00  0.00000000000E+00  0.13155980596E+04  0.13155980596E+04  0.25500000920E-02 0.  1.
        2   -1    0    0  501    0  0.00000000000E+00  0.00000000000E+00 -0.54687371753E+03  0.54687371754E+03  0.25500000920E-02 0. -1.
    10030    2    1    2    0    0  0.00000000000E+00  0.00000000000E+00  0.76872434208E+03  0.18624717772E+04  0.16964268350E+04 0.  0.
        5    1    3    3  502    0  0.14658487234E+03 -0.84318710209E+02  0.12968888054E+04  0.13078759243E+04  0.46999998093E+01 0.  1.
       -5    1    3    3    0  502 -0.14658487234E+03  0.84318710209E+02 -0.52816446334E+03  0.55459585287E+03  0.46999998093E+01 0. -1.
</event>
<event>
 5   0  0.7082527E-06  0.1699551E+04  0.7818609E-02  0.8761620E-01
        1   -1    0    0  501    0  0.00000000000E+00  0.00000000000E+00  0.70397649892E+03  0.70397649894E+03  0.50400001928E-02 0. -1.
       -1   -1    0    0    0  501  0.00000000000E+00  0.00000000000E+00 -0.10257706798E+04  0.10257706798E+04  0.50400001928E-02 0.  1.
    10030    2    1    2    0    0  0.00000000000E+00  0.00000000000E+00 -0.32179418083E+03  0.17297471787E+04  0.16995510606E+04 0.  0.
        1    1    3    3  502    0 -0.28557943970E+03  0.73119786721E+03  0.17032710466E+03  0.80325416899E+03  0.50400001928E-02 0. -1.
       -1    1    3    3    0  502  0.28557943970E+03 -0.73119786721E+03 -0.49212128549E+03  0.92649300972E+03  0.50400001928E-02 0.  1.
</event>
<event>
 5   0  0.7455669E-06  0.1700064E+04  0.7818609E-02  0.8761328E-01
       -1   -1    0    0    0  501  0.00000000000E+00  0.00000000000E+00  0.56812216304E+03  0.56812216306E+03  0.50400001928E-02 0. -1.
        1   -1    0    0  501    0  0.00000000000E+00  0.00000000000E+00 -0.12718287879E+04  0.12718287879E+04  0.50400001928E-02 0.  1.
    10030    2    1    2    0    0  0.00000000000E+00  0.00000000000E+00 -0.70370662484E+03  0.18399509509E+04  0.17000636718E+04 0.  0.
        4    1    3    3  502    0  0.10293604175E+03  0.83612725970E+03 -0.47452854672E+03  0.96689377785E+03  0.12699999809E+01 0.  1.
       -4    1    3    3    0  502 -0.10293604175E+03 -0.83612725970E+03 -0.22917807812E+03  0.87305717310E+03  0.12699999809E+01 0. -1.
</event>
<event>
 5   0  0.1423543E-05  0.1699763E+04  0.7818609E-02  0.8761499E-01
       -2   -1    0    0    0  501  0.00000000000E+00  0.00000000000E+00  0.11105602471E+04  0.11105602471E+04  0.25500000920E-02 0. -1.
        2   -1    0    0  501    0  0.00000000000E+00  0.00000000000E+00 -0.65039152455E+03  0.65039152456E+03  0.25500000920E-02 0.  1.
    10030    2    1    2    0    0  0.00000000000E+00  0.00000000000E+00  0.46016872253E+03  0.17609517716E+04  0.16997634803E+04 0.  0.
        3    1    3    3  502    0 -0.58997621736E+03 -0.19549739728E+03 -0.37044416561E+03  0.72354686056E+03  0.10100000352E+00 0.  1.
       -3    1    3    3    0  502  0.58997621736E+03  0.19549739728E+03  0.83061288814E+03  0.10374049111E+04  0.10100000352E+00 0. -1.
</event>
<event>
 5   0  0.7583716E-06  0.1700093E+04  0.7818609E-02  0.8761311E-01
       -1   -1    0    0    0  501  0.00000000000E+00  0.00000000000E+00  0.59691201786E+03  0.59691201788E+03  0.50400001928E-02 0. -1.
        1   -1    0    0  501    0  0.00000000000E+00  0.00000000000E+00 -0.12105287761E+04  0.12105287761E+04  0.50400001928E-02 0.  1.
    10030    2    1    2    0    0  0.00000000000E+00  0.00000000000E+00 -0.61361675828E+03  0.18074407940E+04  0.17000931439E+04 0.  0.
        5    1    3    3  502    0  0.68124456936E+03  0.29299975976E+03  0.13489370699E+03  0.75376483381E+03  0.46999998093E+01 0. -1.
       -5    1    3    3    0  502 -0.68124456936E+03 -0.29299975976E+03 -0.74851046527E+03  0.10536759602E+04  0.46999998093E+01 0.  1.
</event>
<event>
 5   0  0.1374441E-05  0.1700789E+04  0.7818609E-02  0.8760915E-01
       -2   -1    0    0    0  501  0.00000000000E+00  0.00000000000E+00  0.10824996838E+04  0.10824996839E+04  0.25500000920E-02 0. -1.
        2   -1    0    0  501    0  0.00000000000E+00  0.00000000000E+00 -0.66805621907E+03  0.66805621908E+03  0.25500000920E-02 0.  1.
    10030    2    1    2    0    0  0.00000000000E+00  0.00000000000E+00  0.41444346478E+03  0.17505559029E+04  0.17007888122E+04 0.  0.
        1    1    3    3  502    0  0.13638918574E+03 -0.56583055693E+03  0.84536733126E+03  0.10263586868E+04  0.50400001928E-02 0. -1.
       -1    1    3    3    0  502 -0.13638918574E+03  0.56583055693E+03 -0.43092386648E+03  0.72419721615E+03  0.50400001928E-02 0.  1.
</event>
<event>
 5   0  0.7082527E-06  0.1697324E+04  0.7818609E-02  0.8762892E-01
       -1   -1    0    0    0  501  0.00000000000E+00  0.00000000000E+00  0.18371560483E+04  0.18371560483E+04  0.50400001928E-02 0.  1.
        1   -1    0    0  501    0  0.00000000000E+00  0.00000000000E+00 -0.39203390547E+03  0.39203390550E+03  0.50400001928E-02 0. -1.
    10030    2    1    2    0    0  0.00000000000E+00  0.00000000000E+00  0.14451221428E+04  0.22291899538E+04  0.16973243186E+04 0.  0.
        1    1    3    3  502    0  0.58253696941E+03 -0.61082773818E+03  0.60680972141E+03  0.10395565807E+04  0.50400001928E-02 0. -1.
       -1    1    3    3    0  502 -0.58253696941E+03  0.61082773818E+03  0.83831242141E+03  0.11896333731E+04  0.50400001928E-02 0.  1.
</event>
<event>
 5   0  0.1435301E-05  0.1699567E+04  0.7818609E-02  0.8761612E-01
        2   -1    0    0  501    0  0.00000000000E+00  0.00000000000E+00  0.89331994622E+03  0.89331994623E+03  0.25500000920E-02 0. -1.
       -2   -1    0    0    0  501  0.00000000000E+00  0.00000000000E+00 -0.80836838279E+03  0.80836838279E+03  0.25500000920E-02 0.  1.
    10030    2    1    2    0    0  0.00000000000E+00  0.00000000000E+00  0.84951563438E+02  0.17016883290E+04  0.16995665333E+04 0.  0.
        2    1    3    3  502    0  0.72758727479E+03 -0.31769440716E+03  0.34586995347E+03  0.86599018672E+03  0.25500000920E-02 0.  1.
       -2    1    3    3    0  502 -0.72758727479E+03  0.31769440716E+03 -0.26091839003E+03  0.83569814230E+03  0.25500000920E-02 0. -1.
</event>
<event>
 5   0  0.7461128E-06  0.1699964E+04  0.7818609E-02  0.8761385E-01
        1   -1    0    0  501    0  0.00000000000E+00  0.00000000000E+00  0.73266692549E+03  0.73266692551E+03  0.50400001928E-02 0.  1.
       -1   -1    0    0    0  501  0.00000000000E+00  0.00000000000E+00 -0.98608131835E+03  0.98608131837E+03  0.50400001928E-02 0. -1.
    10030    2    1    2    0    0  0.00000000000E+00  0.00000000000E+00 -0.25341439286E+03  0.17187482439E+04  0.16999637265E+04 0.  0.
        3    1    3    3  502    0 -0.37362707610E+03  0.52518972560E+03  0.43353465648E+03  0.77677136175E+03  0.10100000352E+00 0.  1.
       -3    1    3    3    0  502  0.37362707610E+03 -0.52518972560E+03 -0.68694904934E+03  0.94197688213E+03  0.10100000352E+00 0. -1.
</event>
<event>
 5   0  0.1419012E-05  0.1694863E+04  0.7818609E-02  0.8764300E-01
        2   -1    0    0  501    0  0.00000000000E+00  0.00000000000E+00  0.69035640781E+03  0.69035640782E+03  0.25500000920E-02 0. -1.
       -2   -1    0    0    0  501  0.00000000000E+00  0.00000000000E+00 -0.10402450937E+04  0.10402450937E+04  0.25500000920E-02 0.  1.
    10030    2    1    2    0    0  0.00000000000E+00  0.00000000000E+00 -0.34988868588E+03  0.17306015015E+04  0.16948626683E+04 0.  0.
        4    1    3    3  502    0 -0.43915697641E+03 -0.72382672728E+03 -0.21252077498E+03  0.87289785986E+03  0.12699999809E+01 0.  1.
       -4    1    3    3    0  502  0.43915697641E+03  0.72382672728E+03 -0.13736791090E+03  0.85770364165E+03  0.12699999809E+01 0. -1.
</event>
<event>
 5   0  0.1374441E-05  0.1699938E+04  0.7818609E-02  0.8761399E-01
        2   -1    0    0  501    0  0.00000000000E+00  0.00000000000E+00  0.15057349669E+04  0.15057349669E+04  0.25500000920E-02 0. -1.
       -2   -1    0    0    0  501  0.00000000000E+00  0.00000000000E+00 -0.47979740075E+03  0.47979740076E+03  0.25500000920E-02 0.  1.
    10030    2    1    2    0    0  0.00000000000E+00  0.00000000000E+00  0.10259375661E+04  0.19855323676E+04  0.16999384969E+04 0.  0.
        1    1    3    3  502    0 -0.49506901686E+03  0.25693782906E+03 -0.23613645149E+03  0.60569860757E+03  0.50400001928E-02 0.  1.
       -1    1    3    3    0  502  0.49506901686E+03 -0.25693782906E+03  0.12620740176E+04  0.13798337601E+04  0.50400001928E-02 0. -1.
</event>
<event>
 5   0  0.7461128E-06  0.1702678E+04  0.7818609E-02  0.8759838E-01
       -1   -1    0    0    0  501  0.00000000000E+00  0.00000000000E+00  0.13072536523E+04  0.13072536523E+04  0.50400001928E-02 0. -1.
        1   -1    0    0  501    0  0.00000000000E+00  0.00000000000E+00 -0.55442826178E+03  0.55442826181E+03  0.50400001928E-02 0.  1.
    10030    2    1    2    0    0  0.00000000000E+00  0.00000000000E+00  0.75282539052E+03  0.18616819141E+04  0.17026783257E+04 0.  0.
        3    1    3    3  502    0 -0.83043226258E+03  0.11726555008E+03  0.53639619814E+03  0.99553495345E+03  0.10100000352E+00 0. -1.
       -3    1    3    3    0  502  0.83043226258E+03 -0.11726555008E+03  0.21642919239E+03  0.86614696067E+03  0.10100000352E+00 0.  1.
</event>
<event>
 5   0  0.7583716E-06  0.1699563E+04  0.7818609E-02  0.8761614E-01
        1   -1    0    0  501    0  0.00000000000E+00  0.00000000000E+00  0.10595430610E+04  0.10595430610E+04  0.50400001928E-02 0. -1.
       -1   -1    0    0    0  501  0.00000000000E+00  0.00000000000E+00 -0.68154694916E+03  0.68154694918E+03  0.50400001928E-02 0.  1.
    10030    2    1    2    0    0  0.00000000000E+00  0.00000000000E+00  0.37799611185E+03  0.17410900102E+04  0.16995626976E+04 0.  0.
        5    1    3    3  502    0 -0.28254898403E+03  0.79720939507E+02  0.10059268704E+04  0.10479028176E+04  0.46999998093E+01 0. -1.
       -5    1    3    3    0  502  0.28254898403E+03 -0.79720939507E+02 -0.62793075850E+03  0.69318719264E+03  0.46999998093E+01 0.  1.
</event>
<event>
 5   0  0.7461128E-06  0.1700144E+04  0.7818609E-02  0.8761282E-01
       -1   -1    0    0    0  501  0.00000000000E+00  0.00000000000E+00  0.93334514634E+03  0.93334514635E+03  0.50400001928E-02 0.  1.
        1   -1    0    0  501    0  0.00000000000E+00  0.00000000000E+00 -0.77422868997E+03  0.77422868999E+03  0.50400001928E-02 0. -1.
    10030    2    1    2    0    0  0.00000000000E+00  0.00000000000E+00  0.15911645636E+03  0.17075738363E+04  0.17001442174E+04 0.  0.
        3    1    3    3  502    0  0.93578663078E+02  0.51830685252E+03 -0.59060844596E+03  0.79133893256E+03  0.10100000352E+00 0. -1.
       -3    1    3    3    0  502 -0.93578663078E+02 -0.51830685252E+03  0.74972490232E+03  0.91623490378E+03  0.10100000352E+00 0.  1.
</event>
<event>
 5   0  0.7583716E-06  0.1700410E+04  0.7818609E-02  0.8761130E-01
        1   -1    0    0  501    0  0.00000000000E+00  0.00000000000E+00  0.23084920190E+04  0.23084920190E+04  0.50400001928E-02 0. -1.
       -1   -1    0    0    0  501  0.00000000000E+00  0.00000000000E+00 -0.31312601251E+03  0.31312601255E+03  0.50400001928E-02 0.  1.
    10030    2    1    2    0    0  0.00000000000E+00  0.00000000000E+00  0.19953660065E+04  0.26216180315E+04  0.17004104221E+04 0.  0.
        5    1    3    3  502    0  0.48743396123E+03 -0.44406045214E+02  0.20694674523E+04  0.21265656326E+04  0.46999998093E+01 0. -1.
       -5    1    3    3    0  502 -0.48743396123E+03  0.44406045214E+02 -0.74101445871E+02  0.49505239894E+03  0.46999998093E+01 0.  1.
</event>
<event>
 5   0  0.1435301E-05  0.1701058E+04  0.7818609E-02  0.8760761E-01
        2   -1    0    0  501    0  0.00000000000E+00  0.00000000000E+00  0.12143745757E+04  0.12143745757E+04  0.25500000920E-02 0.  1.
       -2   -1    0    0    0  501  0.00000000000E+00  0.00000000000E+00 -0.59569754002E+03  0.59569754002E+03  0.25500000920E-02 0. -1.
    10030    2    1    2    0    0  0.00000000000E+00  0.00000000000E+00  0.61867703564E+03  0.18100721157E+04  0.17010584321E+04 0.  0.
        2    1    3    3  502    0 -0.38462918352E+03  0.48310600963E+03  0.93168674323E+03  0.11177527512E+04  0.25500000920E-02 0.  1.
       -2    1    3    3    0  502  0.38462918352E+03 -0.48310600963E+03 -0.31300970759E+03  0.69231936446E+03  0.25500000920E-02 0. -1.
</event>
<event>
 5   0  0.7461128E-06  0.1699289E+04  0.7818609E-02  0.8761770E-01
        1   -1    0    0  501    0  0.00000000000E+00  0.00000000000E+00  0.99831194807E+03  0.99831194808E+03  0.50400001928E-02 0. -1.
       -1   -1    0    0    0  501  0.00000000000E+00  0.00000000000E+00 -0.72311618767E+03  0.72311618769E+03  0.50400001928E-02 0.  1.
    10030    2    1    2    0    0  0.00000000000E+00  0.00000000000E+00  0.27519576039E+03  0.17214281358E+04  0.16992887100E+04 0.  0.
        3    1    3    3  502    0  0.58303573935E+03 -0.56218480524E+03 -0.12248248416E+03  0.81913637310E+03  0.10100000352E+00 0.  1.
       -3    1    3    3    0  502 -0.58303573935E+03  0.56218480524E+03  0.39767824455E+03  0.90229176267E+03  0.10100000352E+00 0. -1.
</event>
<event>
 5   0  0.1374441E-05  0.1700214E+04  0.7818609E-02  0.8761243E-01
       -2   -1    0    0    0  501  0.00000000000E+00  0.00000000000E+00  0.62698076850E+03  0.62698076851E+03  0.25500000920E-02 0.  1.
        2   -1    0    0  501    0  0.00000000000E+00  0.00000000000E+00 -0.11526374084E+04  0.11526374084E+04  0.25500000920E-02 0. -1.
    10030    2    1    2    0    0  0.00000000000E+00  0.00000000000E+00 -0.52565663991E+03  0.17796181769E+04  0.17002135021E+04 0.  0.
        1    1    3    3  502    0  0.62410769127E+03  0.23433599086E+03 -0.81496548913E+03  0.10528972008E+04  0.50400001928E-02 0. -1.
       -1    1    3    3    0  502 -0.62410769127E+03 -0.23433599086E+03  0.28930884922E+03  0.72672097615E+03  0.50400001928E-02 0.  1.
</event>
<event>
 5   0  0.1419012E-05  0.1701174E+04  0.7818609E-02  0.8760695E-01
       -2   -1    0    0    0  501  0.00000000000E+00  0.00000000000E+00  0.51936357617E+03  0.51936357618E+03  0.25500000920E-02 0.  1.
        2   -1    0    0  501    0  0.00000000000E+00  0.00000000000E+00 -0.13930470930E+04  0.13930470930E+04  0.25500000920E-02 0. -1.
    10030    2    1    2    0    0  0.00000000000E+00  0.00000000000E+00 -0.87368351686E+03  0.19124106692E+04  0.17011736184E+04 0.  0.
        4    1    3    3  502    0 -0.32923876024E+03  0.78173341216E+01 -0.13184652481E+04  0.13589744278E+04  0.12699999809E+01 0. -1.
       -4    1    3    3    0  502  0.32923876024E+03 -0.78173341216E+01  0.44478173127E+03  0.55343624143E+03  0.12699999809E+01 0.  1.
</event>
<event>
 5   0  0.7461128E-06  0.1700209E+04  0.7818609E-02  0.8761245E-01
       -1   -1    0    0    0  501  0.00000000000E+00  0.00000000000E+00  0.10583090814E+04  0.10583090815E+04  0.50400001928E-02 0. -1.
        1   -1    0    0  501    0  0.00000000000E+00  0.00000000000E+00 -0.68286049757E+03  0.68286049758E+03  0.50400001928E-02 0.  1.
    10030    2    1    2    0    0  0.00000000000E+00  0.00000000000E+00  0.37544858388E+03  0.17411695790E+04  0.17002087707E+04 0.  0.
        3    1    3    3  502    0 -0.63134737972E+03  0.38329542819E+03  0.61877145190E+03  0.96353153505E+03  0.10100000352E+00 0. -1.
       -3    1    3    3    0  502  0.63134737972E+03 -0.38329542819E+03 -0.24332286802E+03  0.77763804399E+03  0.10100000352E+00 0.  1.
</event>
<event>
 5   0  0.1423543E-05  0.1700630E+04  0.7818609E-02  0.8761005E-01
        2   -1    0    0  501    0  0.00000000000E+00  0.00000000000E+00  0.17941011341E+04  0.17941011341E+04  0.25500000920E-02 0.  1.
       -2   -1    0    0    0  501  0.00000000000E+00  0.00000000000E+00 -0.40300716147E+03  0.40300716148E+03  0.25500000920E-02 0. -1.
    10030    2    1    2    0    0  0.00000000000E+00  0.00000000000E+00  0.13910939726E+04  0.21971082956E+04  0.17006300073E+04 0.  0.
        3    1    3    3  502    0  0.85028759807E+03  0.55070596225E+01  0.69033611675E+03  0.10952548979E+04  0.10100000352E+00 0. -1.
       -3    1    3    3    0  502 -0.85028759807E+03 -0.55070596225E+01  0.70075785589E+03  0.11018533977E+04  0.10100000352E+00 0.  1.
</event>
<event>
 5   0  0.1423543E-05  0.1700446E+04  0.7818609E-02  0.8761110E-01
        2   -1    0    0  501    0  0.00000000000E+00  0.00000000000E+00  0.21783364091E+04  0.21783364091E+04  0.25500000920E-02 0.  1.
       -2   -1    0    0    0  501  0.00000000000E+00  0.00000000000E+00 -0.33184919299E+03  0.33184919300E+03  0.25500000920E-02 0. -1.
    10030    2    1    2    0    0  0.00000000000E+00  0.00000000000E+00  0.18464872161E+04  0.25101856021E+04  0.17004460349E+04 0.  0.
        3    1    3    3  502    0 -0.48758560456E+03 -0.24697133099E+03 -0.38147179405E+02  0.54789577257E+03  0.10100000352E+00 0. -1.
       -3    1    3    3    0  502  0.48758560456E+03  0.24697133099E+03  0.18846343955E+04  0.19622898295E+04  0.10100000352E+00 0.  1.
</event>
<event>
 5   0  0.7476457E-06  0.1700620E+04  0.7818609E-02  0.8761011E-01
       -1   -1    0    0    0  501  0.00000000000E+00  0.00000000000E+00  0.10244588172E+04  0.10244588172E+04  0.50400001928E-02 0.  1.
        1   -1    0    0  501    0  0.00000000000E+00  0.00000000000E+00 -0.70576527874E+03  0.70576527875E+03  0.50400001928E-02 0. -1.
    10030    2    1    2    0    0  0.00000000000E+00  0.00000000000E+00  0.31869353843E+03  0.17302240959E+04  0.17006204311E+04 0.  0.
        2    1    3    3  502    0  0.45190412391E+03  0.69082532974E+02  0.88879161800E+03  0.99946999645E+03  0.25500000920E-02 0.  1.
       -2    1    3    3    0  502 -0.45190412391E+03 -0.69082532974E+02 -0.57009807957E+03  0.73075409948E+03  0.25500000920E-02 0. -1.
</event>
<event>
 5   0  0.7583716E-06  0.1700350E+04  0.7818609E-02  0.8761165E-01
       -1   -1    0    0    0  501  0.00000000000E+00  0.00000000000E+00  0.11396022775E+04  0.11396022775E+04  0.50400001928E-02 0. -1.
        1   -1    0    0  501    0  0.00000000000E+00  0.00000000000E+00 -0.63425411797E+03  0.63425411799E+03  0.50400001928E-02 0.  1.
    10030    2    1    2    0    0  0.00000000000E+00  0.00000000000E+00  0.50534815955E+03  0.17738563955E+04  0.17003498903E+04 0.  0.
        5    1    3    3  502    0 -0.28546839619E+03  0.70337517631E+03  0.65203713938E+03  0.10007014365E+04  0.46999998093E+01 0. -1.
       -5    1    3    3    0  502  0.28546839619E+03 -0.70337517631E+03 -0.14668897983E+03  0.77315495903E+03  0.46999998093E+01 0.  1.
</event>
<event>
 5   0  0.7082527E-06  0.1700155E+04  0.7818609E-02  0.8761276E-01
        1   -1    0    0  501    0  0.00000000000E+00  0.00000000000E+00  0.40055582383E+03  0.40055582386E+03  0.50400001928E-02 0.  1.
       -1   -1    0    0    0  501  0.00000000000E+00  0.00000000000E+00 -0.18040735825E+04  0.18040735825E+04  0.50400001928E-02 0. -1.
    10030    2    1    2    0    0  0.00000000000E+00  0.00000000000E+00 -0.14035177587E+04  0.22046294063E+04  0.17001554989E+04 0.  0.
        1    1    3    3  502    0  0.48048175123E+02  0.28970972424E+03 -0.17362082716E+04  0.17608689655E+04  0.50400001928E-02 0. -1.
       -1    1    3    3    0  502 -0.48048175123E+02 -0.28970972424E+03  0.33269051290E+03  0.44376044084E+03  0.50400001928E-02 0.  1.
</event>
<event>
 5   0  0.1441756E-05  0.1699735E+04  0.7818609E-02  0.8761516E-01
        2   -1    0    0  501    0  0.00000000000E+00  0.00000000000E+00  0.74385452580E+03  0.74385452580E+03  0.25500000920E-02 0.  1.
       -2   -1    0    0    0  501  0.00000000000E+00  0.00000000000E+00 -0.97098914765E+03  0.97098914766E+03  0.25500000920E-02 0. -1.
    10030    2    1    2    0    0  0.00000000000E+00  0.00000000000E+00 -0.22713462185E+03  0.17148436735E+04  0.16997348876E+04 0.  0.
        5    1    3    3  502    0 -0.29559979776E+03 -0.75144645512E+03 -0.38087826075E+03  0.89282772967E+03  0.46999998093E+01 0. -1.
       -5    1    3    3    0  502  0.29559979776E+03  0.75144645512E+03  0.15374363890E+03  0.82201594379E+03  0.46999998093E+01 0.  1.
</event>
<event>
 5   0  0.1423543E-05  0.1699105E+04  0.7818609E-02  0.8761875E-01
       -2   -1    0    0    0  501  0.00000000000E+00  0.00000000000E+00  0.10043508359E+04  0.10043508359E+04  0.25500000920E-02 0.  1.
        2   -1    0    0  501    0  0.00000000000E+00  0.00000000000E+00 -0.71861318847E+03  0.71861318847E+03  0.25500000920E-02 0. -1.
    10030    2    1    2    0    0  0.00000000000E+00  0.00000000000E+00  0.28573764742E+03  0.17229640244E+04  0.16991053605E+04 0.  0.
        3    1    3    3  502    0  0.32407006437E+02  0.78616704635E+02 -0.71428691036E+03  0.71933066168E+03  0.10100000352E+00 0. -1.
       -3    1    3    3    0  502 -0.32407006437E+02 -0.78616704635E+02  0.10000245578E+04  0.10036333627E+04  0.10100000352E+00 0.  1.
</event>
<event>
 5   0  0.1419012E-05  0.1699824E+04  0.7818609E-02  0.8761465E-01
       -2   -1    0    0    0  501  0.00000000000E+00  0.00000000000E+00  0.76975299681E+03  0.76975299681E+03  0.25500000920E-02 0. -1.
        2   -1    0    0  501    0  0.00000000000E+00  0.00000000000E+00 -0.93841834547E+03  0.93841834548E+03  0.25500000920E-02 0.  1.
    10030    2    1    2    0    0  0.00000000000E+00  0.00000000000E+00 -0.16866534867E+03  0.17081713423E+04  0.16998239129E+04 0.  0.
        4    1    3    3  502    0 -0.43500251593E+01 -0.65732791696E+03  0.45706136167E+03  0.80062826228E+03  0.12699999809E+01 0. -1.
       -4    1    3    3    0  502  0.43500251593E+01  0.65732791696E+03 -0.62572671034E+03  0.90754308001E+03  0.12699999809E+01 0.  1.
</event>
<event>
 5   0  0.1423543E-05  0.1699891E+04  0.7818609E-02  0.8761427E-01
       -2   -1    0    0    0  501  0.00000000000E+00  0.00000000000E+00  0.40453740344E+03  0.40453740345E+03  0.25500000920E-02 0. -1.
        2   -1    0    0  501    0  0.00000000000E+00  0.00000000000E+00 -0.17857611567E+04  0.17857611567E+04  0.25500000920E-02 0.  1.
    10030    2    1    2    0    0  0.00000000000E+00  0.00000000000E+00 -0.13812237533E+04  0.21902985602E+04  0.16998907983E+04 0.  0.
        3    1    3    3  502    0  0.19854092309E+03  0.62767324336E+03  0.20837821828E+01  0.65832860406E+03  0.10100000352E+00 0. -1.
       -3    1    3    3    0  502 -0.19854092309E+03 -0.62767324336E+03 -0.13833075355E+04  0.15319699561E+04  0.10100000352E+00 0.  1.
</event>
<event>
 5   0  0.7583716E-06  0.1705356E+04  0.7818609E-02  0.8758316E-01
       -1   -1    0    0    0  501  0.00000000000E+00  0.00000000000E+00  0.71897828866E+03  0.71897828868E+03  0.50400001928E-02 0.  1.
        1   -1    0    0  501    0  0.00000000000E+00  0.00000000000E+00 -0.10112398261E+04  0.10112398261E+04  0.50400001928E-02 0. -1.
    10030    2    1    2    0    0  0.00000000000E+00  0.00000000000E+00 -0.29226153747E+03  0.17302181148E+04  0.17053556575E+04 0.  0.
        5    1    3    3  502    0 -0.11078337676E+03  0.36260378498E+03 -0.92099483460E+03  0.99599600241E+03  0.46999998093E+01 0. -1.
       -5    1    3    3    0  502  0.11078337676E+03 -0.36260378498E+03  0.62873329713E+03  0.73422211242E+03  0.46999998093E+01 0.  1.
</event>
<event>
 5   0  0.7455669E-06  0.1700192E+04  0.7818609E-02  0.8761255E-01
       -1   -1    0    0    0  501  0.00000000000E+00  0.00000000000E+00  0.47478506066E+03  0.47478506069E+03  0.50400001928E-02 0. -1.
        1   -1    0    0  501    0  0.00000000000E+00  0.00000000000E+00 -0.15220852336E+04  0.15220852336E+04  0.50400001928E-02 0.  1.
    10030    2    1    2    0    0  0.00000000000E+00  0.00000000000E+00 -0.10473001730E+04  0.19968702943E+04  0.17001921421E+04 0.  0.
        4    1    3    3  502    0  0.62413602079E+03  0.46068980547E+02 -0.11993621086E+04  0.13528263761E+04  0.12699999809E+01 0.  1.
       -4    1    3    3    0  502 -0.62413602079E+03 -0.46068980547E+02  0.15206193565E+03  0.64404391821E+03  0.12699999809E+01 0. -1.
</event>
<event>
 5   0  0.7583716E-06  0.1700124E+04  0.7818609E-02  0.8761294E-01
        1   -1    0    0  501    0  0.00000000000E+00  0.00000000000E+00  0.97522841636E+03  0.97522841638E+03  0.50400001928E-02 0. -1.
       -1   -1    0    0    0  501  0.00000000000E+00  0.00000000000E+00 -0.74095991918E+03  0.74095991920E+03  0.50400001928E-02 0.  1.
    10030    2    1    2    0    0  0.00000000000E+00  0.00000000000E+00  0.23426849718E+03  0.17161883356E+04  0.17001237233E+04 0.  0.
        5    1    3    3  502    0  0.40844664835E+03 -0.37754244990E+03  0.76602717843E+03  0.94667137598E+03  0.46999998093E+01 0. -1.
       -5    1    3    3    0  502 -0.40844664835E+03  0.37754244990E+03 -0.53175868124E+03  0.76951695959E+03  0.46999998093E+01 0.  1.
</event>
<event>
 5   0  0.7455669E-06  0.1700353E+04  0.7818609E-02  0.8761163E-01
       -1   -1    0    0    0  501  0.00000000000E+00  0.00000000000E+00  0.13018597089E+04  0.13018597089E+04  0.50400001928E-02 0. -1.
        1   -1    0    0  501    0  0.00000000000E+00  0.00000000000E+00 -0.55520569792E+03  0.55520569794E+03  0.50400001928E-02 0.  1.
    10030    2    1    2    0    0  0.00000000000E+00  0.00000000000E+00  0.74665401101E+03  0.18570654069E+04  0.17003528202E+04 0.  0.
        4    1    3    3  502    0  0.30421255878E+03  0.61549123308E+03  0.92096195176E+03  0.11487154863E+04  0.12699999809E+01 0. -1.
       -4    1    3    3    0  502 -0.30421255878E+03 -0.61549123308E+03 -0.17430794075E+03  0.70834992061E+03  0.12699999809E+01 0.  1.
</event>
<event>
 5   0  0.1423543E-05  0.1698689E+04  0.7818609E-02  0.8762112E-01
       -2   -1    0    0    0  501  0.00000000000E+00  0.00000000000E+00  0.28505605930E+03  0.28505605931E+03  0.25500000920E-02 0. -1.
        2   -1    0    0  501    0  0.00000000000E+00  0.00000000000E+00 -0.25306812833E+04  0.25306812833E+04  0.25500000920E-02 0.  1.
    10030    2    1    2    0    0  0.00000000000E+00  0.00000000000E+00 -0.22456252240E+04  0.28157373426E+04  0.16986889462E+04 0.  0.
        3    1    3    3  502    0  0.59980294629E+03  0.56391024666E+03 -0.77658686992E+03  0.11317444576E+04  0.10100000352E+00 0. -1.
       -3    1    3    3    0  502 -0.59980294629E+03 -0.56391024666E+03 -0.14690383540E+04  0.16839928849E+04  0.10100000352E+00 0.  1.
</event>
<event>
 5   0  0.7461128E-06  0.1700362E+04  0.7818609E-02  0.8761158E-01
       -1   -1    0    0    0  501  0.00000000000E+00  0.00000000000E+00  0.83884762356E+03  0.83884762358E+03  0.50400001928E-02 0.  1.
        1   -1    0    0  501    0  0.00000000000E+00  0.00000000000E+00 -0.86166786304E+03  0.86166786306E+03  0.50400001928E-02 0. -1.
    10030    2    1    2    0    0  0.00000000000E+00  0.00000000000E+00 -0.22820239481E+02  0.17005154866E+04  0.17003623605E+04 0.  0.
        3    1    3    3  502    0  0.49979208427E+02 -0.95833636822E+02  0.83194870573E+03  0.83894020430E+03  0.10100000352E+00 0.  1.
       -3    1    3    3    0  502 -0.49979208427E+02  0.95833636822E+02 -0.85476894522E+03  0.86157528233E+03  0.10100000352E+00 0. -1.
</event>
<event>
 5   0  0.1441756E-05  0.1699673E+04  0.7818609E-02  0.8761551E-01
        2   -1    0    0  501    0  0.00000000000E+00  0.00000000000E+00  0.69397432782E+03  0.69397432782E+03  0.25500000920E-02 0.  1.
       -2   -1    0    0    0  501  0.00000000000E+00  0.00000000000E+00 -0.10407045059E+04  0.10407045059E+04  0.25500000920E-02 0. -1.
    10030    2    1    2    0    0  0.00000000000E+00  0.00000000000E+00 -0.34673017806E+03  0.17346788337E+04  0.16996731567E+04 0.  0.
        5    1    3    3  502    0  0.42595614224E+03 -0.73221472004E+03 -0.24275874543E+03  0.88120992381E+03  0.46999998093E+01 0.  1.
       -5    1    3    3    0  502 -0.42595614224E+03  0.73221472004E+03 -0.10397143262E+03  0.85346890989E+03  0.46999998093E+01 0. -1.
</event>
<event>
 5   0  0.1423543E-05  0.1700198E+04  0.7818609E-02  0.8761252E-01
        2   -1    0    0  501    0  0.00000000000E+00  0.00000000000E+00  0.75151540671E+03  0.75151540671E+03  0.25500000920E-02 0.  1.
       -2   -1    0    0    0  501  0.00000000000E+00  0.00000000000E+00 -0.96161424472E+03  0.96161424472E+03  0.25500000920E-02 0. -1.
    10030    2    1    2    0    0  0.00000000000E+00  0.00000000000E+00 -0.21009883801E+03  0.17131296514E+04  0.17001975417E+04 0.  0.
        3    1    3    3  502    0  0.12827681598E+03 -0.33742708783E+03 -0.88055016157E+03  0.95167251634E+03  0.10100000352E+00 0. -1.
       -3    1    3    3    0  502 -0.12827681598E+03  0.33742708783E+03  0.67045132356E+03  0.76145713509E+03  0.10100000352E+00 0.  1.
</event>
<event>
 5   0  0.7461128E-06  0.1699815E+04  0.7818609E-02  0.8761470E-01
       -1   -1    0    0    0  501  0.00000000000E+00  0.00000000000E+00  0.59996210226E+03  0.59996210229E+03  0.50400001928E-02 0.  1.
        1   -1    0    0  501    0  0.00000000000E+00  0.00000000000E+00 -0.12039800932E+04  0.12039800932E+04  0.50400001928E-02 0. -1.
    10030    2    1    2    0    0  0.00000000000E+00  0.00000000000E+00 -0.60401799092E+03  0.18039421955E+04  0.16998146109E+04 0.  0.
        3    1    3    3  502    0 -0.50494374498E+03  0.11347144764E+03  0.41345415153E+03  0.66241097563E+03  0.10100000352E+00 0.  1.
       -3    1    3    3    0  502  0.50494374498E+03 -0.11347144764E+03 -0.10174721425E+04  0.11415312198E+04  0.10100000352E+00 0. -1.
</event>
<event>
 5   0  0.1419012E-05  0.1700215E+04  0.7818609E-02  0.8761242E-01
       -2   -1    0    0    0  501  0.00000000000E+00  0.00000000000E+00  0.44457150171E+03  0.44457150172E+03  0.25500000920E-02 0. -1.
        2   -1    0    0  501    0  0.00000000000E+00  0.00000000000E+00 -0.16255719152E+04  0.16255719152E+04  0.25500000920E-02 0.  1.
    10030    2    1    2    0    0  0.00000000000E+00  0.00000000000E+00 -0.11810004134E+04  0.20701434169E+04  0.17002152187E+04 0.  0.
        4    1    3    3  502    0 -0.61745735357E+03 -0.21357589932E+03 -0.12527246790E+04  0.14128655217E+04  0.12699999809E+01 0.  1.
       -4    1    3    3    0  502  0.61745735357E+03  0.21357589932E+03  0.71724265563E+02  0.65727789512E+03  0.12699999809E+01 0. -1.
</event>
<event>
 5   0  0.1441756E-05  0.1699694E+04  0.7818609E-02  0.8761539E-01
       -2   -1    0    0    0  501  0.00000000000E+00  0.00000000000E+00  0.45259857675E+03  0.45259857676E+03  0.25500000920E-02 0.  1.
        2   -1    0    0  501    0  0.00000000000E+00  0.00000000000E+00 -0.15957633647E+04  0.15957633647E+04  0.25500000920E-02 0. -1.
    10030    2    1    2    0    0  0.00000000000E+00  0.00000000000E+00 -0.11431647879E+04  0.20483619414E+04  0.16996943580E+04 0.  0.
        5    1    3    3  502    0  0.64431678693E+03 -0.52373334682E+03 -0.35339829460E+03  0.90241519553E+03  0.46999998093E+01 0.  1.
       -5    1    3    3    0  502 -0.64431678693E+03  0.52373334682E+03 -0.78976649334E+03  0.11459467459E+04  0.46999998093E+01 0. -1.
</event>
<event>
 5   0  0.7476457E-06  0.1699639E+04  0.7818609E-02  0.8761570E-01
        1   -1    0    0  501    0  0.00000000000E+00  0.00000000000E+00  0.10517125816E+04  0.10517125816E+04  0.50400001928E-02 0.  1.
       -1   -1    0    0    0  501  0.00000000000E+00  0.00000000000E+00 -0.68668295345E+03  0.68668295347E+03  0.50400001928E-02 0. -1.
    10030    2    1    2    0    0  0.00000000000E+00  0.00000000000E+00  0.36502962817E+03  0.17383955351E+04  0.16996389049E+04 0.  0.
        2    1    3    3  502    0 -0.83468671686E+03 -0.75775449263E+02  0.32625143575E+03  0.89937969365E+03  0.25500000920E-02 0. -1.
       -2    1    3    3    0  502  0.83468671686E+03  0.75775449263E+02  0.38778192421E+02  0.83901584146E+03  0.25500000920E-02 0.  1.
</event>
<event>
 5   0  0.7455669E-06  0.1695814E+04  0.7818609E-02  0.8763755E-01
       -1   -1    0    0    0  501  0.00000000000E+00  0.00000000000E+00  0.87792850452E+03  0.87792850454E+03  0.50400001928E-02 0.  1.
        1   -1    0    0  501    0  0.00000000000E+00  0.00000000000E+00 -0.81891235089E+03  0.81891235090E+03  0.50400001928E-02 0. -1.
    10030    2    1    2    0    0  0.00000000000E+00  0.00000000000E+00  0.59016153635E+02  0.16968408554E+04  0.16958142535E+04 0.  0.
        4    1    3    3  502    0  0.54475130566E+03  0.26199641756E+03  0.62446770816E+03  0.86911313376E+03  0.12699999809E+01 0.  1.
       -4    1    3    3    0  502 -0.54475130566E+03 -0.26199641756E+03 -0.56545155452E+03  0.82772772169E+03  0.12699999809E+01 0. -1.
</event>
<event>
 5   0  0.7461128E-06  0.1699954E+04  0.7818609E-02  0.8761391E-01
        1   -1    0    0  501    0  0.00000000000E+00  0.00000000000E+00  0.13023084321E+04  0.13023084321E+04  0.50400001928E-02 0.  1.
       -1   -1    0    0    0  501  0.00000000000E+00  0.00000000000E+00 -0.55475400498E+03  0.55475400500E+03  0.50400001928E-02 0. -1.
    10030    2    1    2    0    0  0.00000000000E+00  0.00000000000E+00  0.74755442714E+03  0.18570624371E+04  0.16999539035E+04 0.  0.
        3    1    3    3  502    0 -0.49232375518E+03  0.11914760972E+03  0.11194139805E+04  0.12286848672E+04  0.10100000352E+00 0.  1.
       -3    1    3    3    0  502  0.49232375518E+03 -0.11914760972E+03 -0.37185955337E+03  0.62837756998E+03  0.10100000352E+00 0. -1.
</event>
<event>
 5   0  0.7583716E-06  0.1698187E+04  0.7818609E-02  0.8762399E-01
        1   -1    0    0  501    0  0.00000000000E+00  0.00000000000E+00  0.21441564893E+04  0.21441564894E+04  0.50400001928E-02 0. -1.
       -1   -1    0    0    0  501  0.00000000000E+00  0.00000000000E+00 -0.33624390899E+03  0.33624390902E+03  0.50400001928E-02 0.  1.
    10030    2    1    2    0    0  0.00000000000E+00  0.00000000000E+00  0.18079125804E+04  0.24804003984E+04  0.16981867501E+04 0.  0.
        5    1    3    3  502    0  0.47672363231E+03 -0.51716046531E+03  0.20925347193E+03  0.73384567451E+03  0.46999998093E+01 0.  1.
       -5    1    3    3    0  502 -0.47672363231E+03  0.51716046531E+03  0.15986591084E+04  0.17465547239E+04  0.46999998093E+01 0. -1.
</event>
<event>
 5   0  0.1374441E-05  0.1700348E+04  0.7818609E-02  0.8761166E-01
       -2   -1    0    0    0  501  0.00000000000E+00  0.00000000000E+00  0.73784485882E+03  0.73784485883E+03  0.25500000920E-02 0.  1.
        2   -1    0    0  501    0  0.00000000000E+00  0.00000000000E+00 -0.97960394165E+03  0.97960394165E+03  0.25500000920E-02 0. -1.
    10030    2    1    2    0    0  0.00000000000E+00  0.00000000000E+00 -0.24175908283E+03  0.17174488005E+04  0.17003478844E+04 0.  0.
        1    1    3    3  502    0  0.16301174570E+03  0.33518604169E+03 -0.89268046127E+03  0.96736803635E+03  0.50400001928E-02 0. -1.
       -1    1    3    3    0  502 -0.16301174570E+03 -0.33518604169E+03  0.65092137845E+03  0.75008076413E+03  0.50400001928E-02 0.  1.
</event>
<event>
 5   0  0.7082527E-06  0.1699792E+04  0.7818609E-02  0.8761483E-01
        1   -1    0    0  501    0  0.00000000000E+00  0.00000000000E+00  0.12850664468E+04  0.12850664468E+04  0.50400001928E-02 0.  1.
       -1   -1    0    0    0  501  0.00000000000E+00  0.00000000000E+00 -0.56209017460E+03  0.56209017462E+03  0.50400001928E-02 0. -1.
    10030    2    1    2    0    0  0.00000000000E+00  0.00000000000E+00  0.72297627216E+03  0.18471566214E+04  0.16997920149E+04 0.  0.
        1    1    3    3  502    0 -0.83300696770E+03 -0.14792107611E+03  0.44938274234E+03  0.95798022012E+03  0.50400001928E-02 0.  1.
       -1    1    3    3    0  502  0.83300696770E+03  0.14792107611E+03  0.27359352982E+03  0.88917640127E+03  0.50400001928E-02 0. -1.
</event>
<event>
 5   0  0.1374441E-05  0.1701953E+04  0.7818609E-02  0.8760251E-01
       -2   -1    0    0    0  501  0.00000000000E+00  0.00000000000E+00  0.36159628649E+03  0.36159628650E+03  0.25500000920E-02 0.  1.
        2   -1    0    0  501    0  0.00000000000E+00  0.00000000000E+00 -0.20026792779E+04  0.20026792779E+04  0.25500000920E-02 0. -1.
    10030    2    1    2    0    0  0.00000000000E+00  0.00000000000E+00 -0.16410829914E+04  0.23642755644E+04  0.17019534540E+04 0.  0.
        1    1    3    3  502    0 -0.14324512724E+02 -0.73784450133E+02 -0.19980591957E+04  0.19994724020E+04  0.50400001928E-02 0. -1.
       -1    1    3    3    0  502  0.14324512724E+02  0.73784450133E+02  0.35697620437E+03  0.36480316235E+03  0.50400001928E-02 0.  1.
</event>
<event>
 5   0  0.7461128E-06  0.1700820E+04  0.7818609E-02  0.8760897E-01
        1   -1    0    0  501    0  0.00000000000E+00  0.00000000000E+00  0.11126699381E+04  0.11126699381E+04  0.50400001928E-02 0.  1.
       -1   -1    0    0    0  501  0.00000000000E+00  0.00000000000E+00 -0.64996544026E+03  0.64996544028E+03  0.50400001928E-02 0. -1.
    10030    2    1    2    0    0  0.00000000000E+00  0.00000000000E+00  0.46270449781E+03  0.17626353784E+04  0.17008198096E+04 0.  0.
        3    1    3    3  502    0 -0.49095805407E+03  0.37784304164E+03 -0.37239458080E+03  0.72282979255E+03  0.10100000352E+00 0. -1.
       -3    1    3    3    0  502  0.49095805407E+03 -0.37784304164E+03  0.83509907861E+03  0.10398055858E+04  0.10100000352E+00 0.  1.
</event>
<event>
 5   0  0.7476457E-06  0.1700185E+04  0.7818609E-02  0.8761259E-01
       -1   -1    0    0    0  501  0.00000000000E+00  0.00000000000E+00  0.62291295773E+03  0.62291295775E+03  0.50400001928E-02 0.  1.
        1   -1    0    0  501    0  0.00000000000E+00  0.00000000000E+00 -0.11601256881E+04  0.11601256881E+04  0.50400001928E-02 0. -1.
    10030    2    1    2    0    0  0.00000000000E+00  0.00000000000E+00 -0.53721273037E+03  0.17830386459E+04  0.17001850767E+04 0.  0.
        2    1    3    3  502    0 -0.35698610506E+03 -0.50847981284E+03 -0.87711188793E+03  0.10748562989E+04  0.25500000920E-02 0. -1.
       -2    1    3    3    0  502  0.35698610506E+03  0.50847981284E+03  0.33989915756E+03  0.70818234699E+03  0.25500000920E-02 0.  1.
</event>
<event>
 5   0  0.7583716E-06  0.1698359E+04  0.7818609E-02  0.8762301E-01
       -1   -1    0    0    0  501  0.00000000000E+00  0.00000000000E+00  0.39250405875E+03  0.39250405878E+03  0.50400001928E-02 0. -1.
        1   -1    0    0  501    0  0.00000000000E+00  0.00000000000E+00 -0.18371922922E+04  0.18371922922E+04  0.50400001928E-02 0.  1.
    10030    2    1    2    0    0  0.00000000000E+00  0.00000000000E+00 -0.14446882335E+04  0.22296963510E+04  0.16983585386E+04 0.  0.
        5    1    3    3  502    0 -0.17504681505E+03  0.44627654151E+03 -0.16425405250E+04  0.17110714787E+04  0.46999998093E+01 0.  1.
       -5    1    3    3    0  502  0.17504681505E+03 -0.44627654151E+03  0.19785229150E+03  0.51862487234E+03  0.46999998093E+01 0. -1.
</event>
<event>
 5   0  0.1441756E-05  0.1699453E+04  0.7818609E-02  0.8761677E-01
       -2   -1    0    0    0  501  0.00000000000E+00  0.00000000000E+00  0.14737128884E+04  0.14737128884E+04  0.25500000920E-02 0. -1.
        2   -1    0    0  501    0  0.00000000000E+00  0.00000000000E+00 -0.48994274934E+03  0.48994274935E+03  0.25500000920E-02 0.  1.
    10030    2    1    2    0    0  0.00000000000E+00  0.00000000000E+00  0.98377013907E+03  0.19636556378E+04  0.16994527876E+04 0.  0.
        5    1    3    3  502    0  0.70233713179E+03  0.46388027589E+03  0.35738149048E+03  0.91444298718E+03  0.46999998093E+01 0.  1.
       -5    1    3    3    0  502 -0.70233713179E+03 -0.46388027589E+03  0.62638864859E+03  0.10492126506E+04  0.46999998093E+01 0. -1.
</event>
<event>
 5   0  0.1441756E-05  0.1698657E+04  0.7818609E-02  0.8762130E-01
        2   -1    0    0  501    0  0.00000000000E+00  0.00000000000E+00  0.56608575573E+03  0.56608575574E+03  0.25500000920E-02 0.  1.
       -2   -1    0    0    0  501  0.00000000000E+00  0.00000000000E+00 -0.12742931204E+04  0.12742931204E+04  0.25500000920E-02 0. -1.
    10030    2    1    2    0    0  0.00000000000E+00  0.00000000000E+00 -0.70820736468E+03  0.18403788761E+04  0.16986573334E+04 0.  0.
        5    1    3    3  502    0  0.56240189083E+03  0.49492612747E+03  0.79389890238E+02  0.75337414552E+03  0.46999998093E+01 0.  1.
       -5    1    3    3    0  502 -0.56240189083E+03 -0.49492612747E+03 -0.78759725492E+03  0.10870047306E+04  0.46999998093E+01 0. -1.
</event>
<event>
 5   0  0.1441756E-05  0.1699883E+04  0.7818609E-02  0.8761431E-01
       -2   -1    0    0    0  501  0.00000000000E+00  0.00000000000E+00  0.10338619156E+04  0.10338619156E+04  0.25500000920E-02 0.  1.
        2   -1    0    0  501    0  0.00000000000E+00  0.00000000000E+00 -0.69873972132E+03  0.69873972133E+03  0.25500000920E-02 0. -1.
    10030    2    1    2    0    0  0.00000000000E+00  0.00000000000E+00  0.33512219424E+03  0.17326016369E+04  0.16998828039E+04 0.  0.
        5    1    3    3  502    0  0.31612942584E+03  0.53290784582E+03 -0.42540083593E+03  0.75160930490E+03  0.46999998093E+01 0. -1.
       -5    1    3    3    0  502 -0.31612942584E+03 -0.53290784582E+03  0.76052303017E+03  0.98099233199E+03  0.46999998093E+01 0.  1.
</event>
<event>
 5   0  0.7455669E-06  0.1704038E+04  0.7818609E-02  0.8759065E-01
        1   -1    0    0  501    0  0.00000000000E+00  0.00000000000E+00  0.11121983939E+04  0.11121983940E+04  0.50400001928E-02 0. -1.
       -1   -1    0    0    0  501  0.00000000000E+00  0.00000000000E+00 -0.65270401337E+03  0.65270401339E+03  0.50400001928E-02 0.  1.
    10030    2    1    2    0    0  0.00000000000E+00  0.00000000000E+00  0.45949438057E+03  0.17649024073E+04  0.17040379754E+04 0.  0.
        4    1    3    3  502    0  0.53143781013E+03 -0.64589208552E+03  0.39781457227E+03  0.92620774073E+03  0.12699999809E+01 0.  1.
       -4    1    3    3    0  502 -0.53143781013E+03  0.64589208552E+03  0.61679808303E+02  0.83869466662E+03  0.12699999809E+01 0. -1.
</event>
<event>
 5   0  0.1435301E-05  0.1688570E+04  0.7818609E-02  0.8767910E-01
       -2   -1    0    0    0  501  0.00000000000E+00  0.00000000000E+00  0.87588079633E+03  0.87588079633E+03  0.25500000920E-02 0.  1.
        2   -1    0    0  501    0  0.00000000000E+00  0.00000000000E+00 -0.81382884808E+03  0.81382884809E+03  0.25500000920E-02 0. -1.
    10030    2    1    2    0    0  0.00000000000E+00  0.00000000000E+00  0.62051948248E+02  0.16897096444E+04  0.16885698796E+04 0.  0.
        2    1    3    3  502    0 -0.59270677897E+03  0.25843841426E+03  0.57427851786E+03  0.86480492360E+03  0.25500000920E-02 0.  1.
       -2    1    3    3    0  502  0.59270677897E+03 -0.25843841426E+03 -0.51222656961E+03  0.82490472082E+03  0.25500000920E-02 0. -1.
</event>
<event>
 5   0  0.1423543E-05  0.1700628E+04  0.7818609E-02  0.8761006E-01
        2   -1    0    0  501    0  0.00000000000E+00  0.00000000000E+00  0.21221819178E+04  0.21221819178E+04  0.25500000920E-02 0. -1.
       -2   -1    0    0    0  501  0.00000000000E+00  0.00000000000E+00 -0.34070320950E+03  0.34070320951E+03  0.25500000920E-02 0.  1.
    10030    2    1    2    0    0  0.00000000000E+00  0.00000000000E+00  0.17814787083E+04  0.24628851273E+04  0.17006283433E+04 0.  0.
        3    1    3    3  502    0  0.47852018284E+03  0.62661550214E+03  0.42956433813E+03  0.89786083760E+03  0.10100000352E+00 0.  1.
       -3    1    3    3    0  502 -0.47852018284E+03 -0.62661550214E+03  0.13519143701E+04  0.15650242897E+04  0.10100000352E+00 0. -1.
</event>
<event>
 5   0  0.7082527E-06  0.1704885E+04  0.7818609E-02  0.8758583E-01
       -1   -1    0    0    0  501  0.00000000000E+00  0.00000000000E+00  0.96380180289E+03  0.96380180290E+03  0.50400001928E-02 0.  1.
        1   -1    0    0  501    0  0.00000000000E+00  0.00000000000E+00 -0.75395001520E+03  0.75395001522E+03  0.50400001928E-02 0. -1.
    10030    2    1    2    0    0  0.00000000000E+00  0.00000000000E+00  0.20985178769E+03  0.17177518181E+04  0.17048851973E+04 0.  0.
        1    1    3    3  502    0  0.60863155074E+03  0.44099137423E+03 -0.30029417739E+03  0.80937157703E+03  0.50400001928E-02 0. -1.
       -1    1    3    3    0  502 -0.60863155074E+03 -0.44099137423E+03  0.51014596507E+03  0.90838024109E+03  0.50400001928E-02 0.  1.
</event>
<event>
 5   0  0.1423543E-05  0.1699486E+04  0.7818609E-02  0.8761658E-01
        2   -1    0    0  501    0  0.00000000000E+00  0.00000000000E+00  0.81144339030E+03  0.81144339030E+03  0.25500000920E-02 0.  1.
       -2   -1    0    0    0  501  0.00000000000E+00  0.00000000000E+00 -0.88985037858E+03  0.88985037858E+03  0.25500000920E-02 0. -1.
    10030    2    1    2    0    0  0.00000000000E+00  0.00000000000E+00 -0.78406988275E+02  0.17012937689E+04  0.16994860494E+04 0.  0.
        3    1    3    3  502    0 -0.47131936924E+03 -0.44745996743E+03  0.50882820367E+03  0.82538992078E+03  0.10100000352E+00 0.  1.
       -3    1    3    3    0  502  0.47131936924E+03  0.44745996743E+03 -0.58723519194E+03  0.87590384811E+03  0.10100000352E+00 0. -1.
</event>
<event>
 5   0  0.7455669E-06  0.1698882E+04  0.7818609E-02  0.8762002E-01
       -1   -1    0    0    0  501  0.00000000000E+00  0.00000000000E+00  0.48406569181E+03  0.48406569183E+03  0.50400001928E-02 0. -1.
        1   -1    0    0  501    0  0.00000000000E+00  0.00000000000E+00 -0.14906031893E+04  0.14906031894E+04  0.50400001928E-02 0.  1.
    10030    2    1    2    0    0  0.00000000000E+00  0.00000000000E+00 -0.10065374975E+04  0.19746688812E+04  0.16988818253E+04 0.  0.
        4    1    3    3  502    0  0.53355298699E+03  0.66002740506E+03 -0.54408780730E+03  0.10081409228E+04  0.12699999809E+01 0.  1.
       -4    1    3    3    0  502 -0.53355298699E+03 -0.66002740506E+03 -0.46244969024E+03  0.96652795834E+03  0.12699999809E+01 0. -1.
</event>
<event>
 5   0  0.1441756E-05  0.1703591E+04  0.7818609E-02  0.8759319E-01
        2   -1    0    0  501    0  0.00000000000E+00  0.00000000000E+00  0.18375179586E+04  0.18375179586E+04  0.25500000920E-02 0. -1.
       -2   -1    0    0    0  501  0.00000000000E+00  0.00000000000E+00 -0.39485613718E+03  0.39485613719E+03  0.25500000920E-02 0.  1.
    10030    2    1    2    0    0  0.00000000000E+00  0.00000000000E+00  0.14426618215E+04  0.22323740958E+04  0.17035906118E+04 0.  0.
        5    1    3    3  502    0  0.14462733315E+03 -0.83056140175E+02 -0.37323426541E+03  0.40882917556E+03  0.46999998093E+01 0.  1.
       -5    1    3    3    0  502 -0.14462733315E+03  0.83056140175E+02  0.18158960869E+04  0.18235449203E+04  0.46999998093E+01 0. -1.
</event>
<event>
 5   0  0.7461128E-06  0.1700255E+04  0.7818609E-02  0.8761219E-01
       -1   -1    0    0    0  501  0.00000000000E+00  0.00000000000E+00  0.74157025584E+03  0.74157025586E+03  0.50400001928E-02 0. -1.
        1   -1    0    0  501    0  0.00000000000E+00  0.00000000000E+00 -0.97457655857E+03  0.97457655859E+03  0.50400001928E-02 0.  1.
    10030    2    1    2    0    0  0.00000000000E+00  0.00000000000E+00 -0.23300630273E+03  0.17161468144E+04  0.17002552607E+04 0.  0.
        3    1    3    3  502    0  0.39474955672E+03  0.38068955543E+03 -0.77216308172E+03  0.94709428523E+03  0.10100000352E+00 0.  1.
       -3    1    3    3    0  502 -0.39474955672E+03 -0.38068955543E+03  0.53915677899E+03  0.76905252921E+03  0.10100000352E+00 0. -1.
</event>
<event>
 5   0  0.1435301E-05  0.1700467E+04  0.7818609E-02  0.8761098E-01
        2   -1    0    0  501    0  0.00000000000E+00  0.00000000000E+00  0.11186348687E+04  0.11186348687E+04  0.25500000920E-02 0. -1.
       -2   -1    0    0    0  501  0.00000000000E+00  0.00000000000E+00 -0.64623150608E+03  0.64623150609E+03  0.25500000920E-02 0.  1.
    10030    2    1    2    0    0  0.00000000000E+00  0.00000000000E+00  0.47240336258E+03  0.17648663747E+04  0.17004671075E+04 0.  0.
        2    1    3    3  502    0 -0.33736207483E+03  0.76918040470E+03  0.99118413036E+02  0.84573998623E+03  0.25500000920E-02 0.  1.
       -2    1    3    3    0  502  0.33736207483E+03 -0.76918040470E+03  0.37328494954E+03  0.91912638852E+03  0.25500000920E-02 0. -1.
</event>
<event>
 5   0  0.7583716E-06  0.1700019E+04  0.7818609E-02  0.8761353E-01
       -1   -1    0    0    0  501  0.00000000000E+00  0.00000000000E+00  0.95634256848E+03  0.95634256849E+03  0.50400001928E-02 0. -1.
        1   -1    0    0  501    0  0.00000000000E+00  0.00000000000E+00 -0.75549949044E+03  0.75549949045E+03  0.50400001928E-02 0.  1.
    10030    2    1    2    0    0  0.00000000000E+00  0.00000000000E+00  0.20084307804E+03  0.17118420589E+04  0.17000192037E+04 0.  0.
        5    1    3    3  502    0 -0.19073867628E+03 -0.48739148267E+02  0.93305634361E+03  0.95361049572E+03  0.46999998093E+01 0. -1.
       -5    1    3    3    0  502  0.19073867628E+03  0.48739148267E+02 -0.73221326556E+03  0.75823156323E+03  0.46999998093E+01 0.  1.
</event>
<event>
 5   0  0.7476457E-06  0.1699815E+04  0.7818609E-02  0.8761470E-01
       -1   -1    0    0    0  501  0.00000000000E+00  0.00000000000E+00  0.79465844747E+03  0.79465844749E+03  0.50400001928E-02 0.  1.
        1   -1    0    0  501    0  0.00000000000E+00  0.00000000000E+00 -0.90899731505E+03  0.90899731507E+03  0.50400001928E-02 0. -1.
    10030    2    1    2    0    0  0.00000000000E+00  0.00000000000E+00 -0.11433886758E+03  0.17036557626E+04  0.16998145724E+04 0.  0.
        2    1    3    3  502    0 -0.79889980811E+03 -0.20040210547E+03 -0.26726299169E+03  0.86592806514E+03  0.25500000920E-02 0. -1.
       -2    1    3    3    0  502  0.79889980811E+03  0.20040210547E+03  0.15292412411E+03  0.83772769741E+03  0.25500000920E-02 0.  1.
</event>
<event>
 5   0  0.7583716E-06  0.1699675E+04  0.7818609E-02  0.8761550E-01
        1   -1    0    0  501    0  0.00000000000E+00  0.00000000000E+00  0.16058801663E+04  0.16058801663E+04  0.50400001928E-02 0. -1.
       -1   -1    0    0    0  501  0.00000000000E+00  0.00000000000E+00 -0.44973706064E+03  0.44973706067E+03  0.50400001928E-02 0.  1.
    10030    2    1    2    0    0  0.00000000000E+00  0.00000000000E+00  0.11561431056E+04  0.20556172269E+04  0.16996750581E+04 0.  0.
        5    1    3    3  502    0  0.84774232561E+02  0.84511657300E+03  0.61212999631E+03  0.10469641421E+04  0.46999998093E+01 0. -1.
       -5    1    3    3    0  502 -0.84774232561E+02 -0.84511657300E+03  0.54401310932E+03  0.10086530848E+04  0.46999998093E+01 0.  1.
</event>
<event>
 5   0  0.1441756E-05  0.1700105E+04  0.7818609E-02  0.8761305E-01
        2   -1    0    0  501    0  0.00000000000E+00  0.00000000000E+00  0.20991032443E+04  0.20991032443E+04  0.25500000920E-02 0.  1.
       -2   -1    0    0    0  501  0.00000000000E+00  0.00000000000E+00 -0.34423697594E+03  0.34423697595E+03  0.25500000920E-02 0. -1.
    10030    2    1    2    0    0  0.00000000000E+00  0.00000000000E+00  0.17548662684E+04  0.24433402203E+04  0.17001046474E+04 0.  0.
        5    1    3    3  502    0  0.35903155874E+02  0.18196527515E+03  0.20696493983E+04  0.20779487770E+04  0.46999998093E+01 0.  1.
       -5    1    3    3    0  502 -0.35903155874E+02 -0.18196527515E+03 -0.31478312990E+03  0.36539144329E+03  0.46999998093E+01 0. -1.
</event>
<event>
 5   0  0.7583716E-06  0.1699906E+04  0.7818609E-02  0.8761418E-01
        1   -1    0    0  501    0  0.00000000000E+00  0.00000000000E+00  0.61753002036E+03  0.61753002038E+03  0.50400001928E-02 0.  1.
       -1   -1    0    0    0  501  0.00000000000E+00  0.00000000000E+00 -0.11698543876E+04  0.11698543877E+04  0.50400001928E-02 0. -1.
    10030    2    1    2    0    0  0.00000000000E+00  0.00000000000E+00 -0.55232436729E+03  0.17873844080E+04  0.16999061196E+04 0.  0.
        5    1    3    3  502    0  0.14262186696E+03  0.47125851087E+03  0.45229028639E+03  0.66859118613E+03  0.46999998093E+01 0.  1.
       -5    1    3    3    0  502 -0.14262186696E+03 -0.47125851087E+03 -0.10046146537E+04  0.11187932219E+04  0.46999998093E+01 0. -1.
</event>
<event>
 5   0  0.1374441E-05  0.1700511E+04  0.7818609E-02  0.8761073E-01
        2   -1    0    0  501    0  0.00000000000E+00  0.00000000000E+00  0.16660423217E+04  0.16660423217E+04  0.25500000920E-02 0. -1.
       -2   -1    0    0    0  501  0.00000000000E+00  0.00000000000E+00 -0.43392316272E+03  0.43392316273E+03  0.25500000920E-02 0.  1.
    10030    2    1    2    0    0  0.00000000000E+00  0.00000000000E+00  0.12321191590E+04  0.20999654845E+04  0.17005109273E+04 0.  0.
        1    1    3    3  502    0 -0.44812860988E+03  0.34495649362E+03  0.14001207867E+04  0.15100173677E+04  0.50400001928E-02 0. -1.
       -1    1    3    3    0  502  0.44812860988E+03 -0.34495649362E+03 -0.16800162769E+03  0.58994811672E+03  0.50400001928E-02 0.  1.
</event>
<event>
 5   0  0.1441756E-05  0.1700272E+04  0.7818609E-02  0.8761209E-01
        2   -1    0    0  501    0  0.00000000000E+00  0.00000000000E+00  0.14903266088E+04  0.14903266088E+04  0.25500000920E-02 0. -1.
       -2   -1    0    0    0  501  0.00000000000E+00  0.00000000000E+00 -0.48494842072E+03  0.48494842072E+03  0.25500000920E-02 0.  1.
    10030    2    1    2    0    0  0.00000000000E+00  0.00000000000E+00  0.10053781881E+04  0.19752750295E+04  0.17002723726E+04 0.  0.
        5    1    3    3  502    0  0.26499212964E+03 -0.68185066871E+03  0.10058290135E+04  0.12437263596E+04  0.46999998093E+01 0. -1.
       -5    1    3    3    0  502 -0.26499212964E+03  0.68185066871E+03 -0.45082542074E+00  0.73154866991E+03  0.46999998093E+01 0.  1.
</event>
<event>
 5   0  0.1441756E-05  0.1699290E+04  0.7818609E-02  0.8761769E-01
        2   -1    0    0  501    0  0.00000000000E+00  0.00000000000E+00  0.11108977744E+04  0.11108977744E+04  0.25500000920E-02 0.  1.
       -2   -1    0    0    0  501  0.00000000000E+00  0.00000000000E+00 -0.64983209382E+03  0.64983209382E+03  0.25500000920E-02 0. -1.
    10030    2    1    2    0    0  0.00000000000E+00  0.00000000000E+00  0.46106568059E+03  0.17607298682E+04  0.16992904717E+04 0.  0.
        5    1    3    3  502    0 -0.69228299551E+02  0.29167496643E+03 -0.59320009197E+03  0.66466178062E+03  0.46999998093E+01 0. -1.
       -5    1    3    3    0  502  0.69228299551E+02 -0.29167496643E+03  0.10542657726E+04  0.10960680876E+04  0.46999998093E+01 0.  1.
</event>
<event>
 5   0  0.7583716E-06  0.1700736E+04  0.7818609E-02  0.8760945E-01
        1   -1    0    0  501    0  0.00000000000E+00  0.00000000000E+00  0.15442263302E+04  0.15442263302E+04  0.50400001928E-02 0. -1.
       -1   -1    0    0    0  501  0.00000000000E+00  0.00000000000E+00 -0.46827680103E+03  0.46827680106E+03  0.50400001928E-02 0.  1.
    10030    2    1    2    0    0  0.00000000000E+00  0.00000000000E+00  0.10759495292E+04  0.20125031313E+04  0.17007355656E+04 0.  0.
        5    1    3    3  502    0 -0.52121778225E+03  0.57871527445E+03  0.94190590344E+03  0.12222062700E+04  0.46999998093E+01 0. -1.
       -5    1    3    3    0  502  0.52121778225E+03 -0.57871527445E+03  0.13404362576E+03  0.79029686133E+03  0.46999998093E+01 0.  1.
</event>
<event>
 5   0  0.7583716E-06  0.1699625E+04  0.7818609E-02  0.8761578E-01
       -1   -1    0    0    0  501  0.00000000000E+00  0.00000000000E+00  0.61541266420E+03  0.61541266422E+03  0.50400001928E-02 0.  1.
        1   -1    0    0  501    0  0.00000000000E+00  0.00000000000E+00 -0.11734912762E+04  0.11734912762E+04  0.50400001928E-02 0. -1.
    10030    2    1    2    0    0  0.00000000000E+00  0.00000000000E+00 -0.55807861198E+03  0.17889039404E+04  0.16996251266E+04 0.  0.
        5    1    3    3  502    0 -0.55332113539E+03 -0.11727342662E+03  0.38850111425E+03  0.68620153106E+03  0.46999998093E+01 0.  1.
       -5    1    3    3    0  502  0.55332113539E+03  0.11727342662E+03 -0.94657972624E+03  0.11027024093E+04  0.46999998093E+01 0. -1.
</event>
<event>
 5   0  0.1441756E-05  0.1700106E+04  0.7818609E-02  0.8761304E-01
       -2   -1    0    0    0  501  0.00000000000E+00  0.00000000000E+00  0.66726385914E+03  0.66726385915E+03  0.25500000920E-02 0. -1.
        2   -1    0    0  501    0  0.00000000000E+00  0.00000000000E+00 -0.10829151866E+04  0.10829151866E+04  0.25500000920E-02 0.  1.
    10030    2    1    2    0    0  0.00000000000E+00  0.00000000000E+00 -0.41565132746E+03  0.17501790458E+04  0.17001060750E+04 0.  0.
        5    1    3    3  502    0 -0.17031826446E+03  0.47693618206E+03  0.49499111160E+03  0.70817704250E+03  0.46999998093E+01 0. -1.
       -5    1    3    3    0  502  0.17031826446E+03 -0.47693618206E+03 -0.91064243906E+03  0.10420020033E+04  0.46999998093E+01 0.  1.
</event>
<event>
 5   0  0.7455669E-06  0.1700029E+04  0.7818609E-02  0.8761348E-01
       -1   -1    0    0    0  501  0.00000000000E+00  0.00000000000E+00  0.72952891383E+03  0.72952891384E+03  0.50400001928E-02 0.  1.
        1   -1    0    0  501    0  0.00000000000E+00  0.00000000000E+00 -0.99039945255E+03  0.99039945256E+03  0.50400001928E-02 0. -1.
    10030    2    1    2    0    0  0.00000000000E+00  0.00000000000E+00 -0.26087053872E+03  0.17199283664E+04  0.17000294549E+04 0.  0.
        4    1    3    3  502    0 -0.30193239309E+03 -0.28042007779E+03 -0.88259209703E+03  0.97404774660E+03  0.12699999809E+01 0. -1.
       -4    1    3    3    0  502  0.30193239309E+03  0.28042007779E+03  0.62172155831E+03  0.74588061980E+03  0.12699999809E+01 0.  1.
</event>
<event>
 5   0  0.1374441E-05  0.1700443E+04  0.7818609E-02  0.8761112E-01
        2   -1    0    0  501    0  0.00000000000E+00  0.00000000000E+00  0.87842442269E+03  0.87842442270E+03  0.25500000920E-02 0.  1.
       -2   -1    0    0    0  501  0.00000000000E+00  0.00000000000E+00 -0.82292361527E+03  0.82292361528E+03  0.25500000920E-02 0. -1.
    10030    2    1    2    0    0  0.00000000000E+00  0.00000000000E+00  0.55500807419E+02  0.17013480380E+04  0.17004425326E+04 0.  0.
        1    1    3    3  502    0  0.35640928537E+02  0.38526569780E+03  0.78523761582E+03  0.87538451381E+03  0.50400001928E-02 0.  1.
       -1    1    3    3    0  502 -0.35640928537E+02 -0.38526569780E+03 -0.72973680840E+03  0.82596352417E+03  0.50400001928E-02 0. -1.
</event>
<event>
 5   0  0.7583716E-06  0.1697871E+04  0.7818609E-02  0.8762579E-01
       -1   -1    0    0    0  501  0.00000000000E+00  0.00000000000E+00  0.66914455873E+03  0.66914455875E+03  0.50400001928E-02 0. -1.
        1   -1    0    0  501    0  0.00000000000E+00  0.00000000000E+00 -0.10770344846E+04  0.10770344846E+04  0.50400001928E-02 0.  1.
    10030    2    1    2    0    0  0.00000000000E+00  0.00000000000E+00 -0.40788992587E+03  0.17461790433E+04  0.16978713319E+04 0.  0.
        5    1    3    3  502    0  0.28277250863E+03  0.70746510219E+03  0.18114472983E+03  0.78313642847E+03  0.46999998093E+01 0. -1.
       -5    1    3    3    0  502 -0.28277250863E+03 -0.70746510219E+03 -0.58903465569E+03  0.96304261487E+03  0.46999998093E+01 0.  1.
</event>
<event>
 5   0  0.7082527E-06  0.1700091E+04  0.7818609E-02  0.8761313E-01
        1   -1    0    0  501    0  0.00000000000E+00  0.00000000000E+00  0.11515276470E+04  0.11515276470E+04  0.50400001928E-02 0. -1.
       -1   -1    0    0    0  501  0.00000000000E+00  0.00000000000E+00 -0.62749445579E+03  0.62749445581E+03  0.50400001928E-02 0.  1.
    10030    2    1    2    0    0  0.00000000000E+00  0.00000000000E+00  0.52403319117E+03  0.17790221028E+04  0.17000908378E+04 0.  0.
        1    1    3    3  502    0  0.17667290038E+03 -0.61417414148E+03 -0.32450030477E+03  0.71674516923E+03  0.50400001928E-02 0.  1.
       -1    1    3    3    0  502 -0.17667290038E+03  0.61417414148E+03  0.84853349594E+03  0.10622769335E+04  0.50400001928E-02 0. -1.
</event>
<event>
 5   0  0.7082527E-06  0.1700095E+04  0.7818609E-02  0.8761310E-01
       -1   -1    0    0    0  501  0.00000000000E+00  0.00000000000E+00  0.70382274505E+03  0.70382274507E+03  0.50400001928E-02 0. -1.
        1   -1    0    0  501    0  0.00000000000E+00  0.00000000000E+00 -0.10266516410E+04  0.10266516410E+04  0.50400001928E-02 0.  1.
    10030    2    1    2    0    0  0.00000000000E+00  0.00000000000E+00 -0.32282889596E+03  0.17304743861E+04  0.17000950282E+04 0.  0.
        1    1    3    3  502    0  0.14258414602E+03 -0.81720349416E+03  0.27451689281E+02  0.83000324387E+03  0.50400001928E-02 0. -1.
       -1    1    3    3    0  502 -0.14258414602E+03  0.81720349416E+03 -0.35028058524E+03  0.90047114223E+03  0.50400001928E-02 0.  1.
</event>
<event>
 5   0  0.7455669E-06  0.1699286E+04  0.7818609E-02  0.8761771E-01
       -1   -1    0    0    0  501  0.00000000000E+00  0.00000000000E+00  0.56497841041E+03  0.56497841043E+03  0.50400001928E-02 0.  1.
        1   -1    0    0  501    0  0.00000000000E+00  0.00000000000E+00 -0.12777366157E+04  0.12777366157E+04  0.50400001928E-02 0. -1.
    10030    2    1    2    0    0  0.00000000000E+00  0.00000000000E+00 -0.71275820527E+03  0.18427150261E+04  0.16992864409E+04 0.  0.
        4    1    3    3  502    0  0.51635270187E+03  0.58872282034E+03  0.11085446981E+01  0.78308206064E+03  0.12699999809E+01 0. -1.
       -4    1    3    3    0  502 -0.51635270187E+03 -0.58872282034E+03 -0.71386674997E+03  0.10596329655E+04  0.12699999809E+01 0.  1.
</event>
<event>
 5   0  0.1419012E-05  0.1701205E+04  0.7818609E-02  0.8760677E-01
       -2   -1    0    0    0  501  0.00000000000E+00  0.00000000000E+00  0.11683292355E+04  0.11683292355E+04  0.25500000920E-02 0. -1.
        2   -1    0    0  501    0  0.00000000000E+00  0.00000000000E+00 -0.61928138199E+03  0.61928138199E+03  0.25500000920E-02 0.  1.
    10030    2    1    2    0    0  0.00000000000E+00  0.00000000000E+00  0.54904785353E+03  0.17876106175E+04  0.17012049184E+04 0.  0.
        4    1    3    3  502    0 -0.52635703839E+03 -0.12698309861E+03 -0.41480329482E+03  0.68208491076E+03  0.12699999809E+01 0.  1.
       -4    1    3    3    0  502  0.52635703839E+03  0.12698309861E+03  0.96385114835E+03  0.11055257067E+04  0.12699999809E+01 0. -1.
</event>
<event>
 5   0  0.1374441E-05  0.1699511E+04  0.7818609E-02  0.8761644E-01
        2   -1    0    0  501    0  0.00000000000E+00  0.00000000000E+00  0.13077113927E+04  0.13077113927E+04  0.25500000920E-02 0. -1.
       -2   -1    0    0    0  501  0.00000000000E+00  0.00000000000E+00 -0.55217385222E+03  0.55217385223E+03  0.25500000920E-02 0.  1.
    10030    2    1    2    0    0  0.00000000000E+00  0.00000000000E+00  0.75553754044E+03  0.18598852449E+04  0.16995105616E+04 0.  0.
        1    1    3    3  502    0  0.27926934323E+03 -0.19934704113E+03  0.12285301682E+04  0.12755457589E+04  0.50400001928E-02 0. -1.
       -1    1    3    3    0  502 -0.27926934323E+03  0.19934704113E+03 -0.47299262779E+03  0.58433948595E+03  0.50400001928E-02 0.  1.
</event>
<event>
 5   0  0.7455669E-06  0.1699665E+04  0.7818609E-02  0.8761556E-01
       -1   -1    0    0    0  501  0.00000000000E+00  0.00000000000E+00  0.37069615734E+03  0.37069615738E+03  0.50400001928E-02 0.  1.
        1   -1    0    0  501    0  0.00000000000E+00  0.00000000000E+00 -0.19482667547E+04  0.19482667548E+04  0.50400001928E-02 0. -1.
    10030    2    1    2    0    0  0.00000000000E+00  0.00000000000E+00 -0.15775705974E+04  0.23189629121E+04  0.16996646722E+04 0.  0.
        4    1    3    3  502    0 -0.40091686445E+03  0.69778616073E+03 -0.41620241393E+03  0.90601651230E+03  0.12699999809E+01 0.  1.
       -4    1    3    3    0  502  0.40091686445E+03 -0.69778616073E+03 -0.11613681835E+04  0.14129463998E+04  0.12699999809E+01 0. -1.
</event>
<event>
 5   0  0.1441756E-05  0.1699650E+04  0.7818609E-02  0.8761564E-01
       -2   -1    0    0    0  501  0.00000000000E+00  0.00000000000E+00  0.41910449325E+03  0.41910449326E+03  0.25500000920E-02 0.  1.
        2   -1    0    0  501    0  0.00000000000E+00  0.00000000000E+00 -0.17232049666E+04  0.17232049666E+04  0.25500000920E-02 0. -1.
    10030    2    1    2    0    0  0.00000000000E+00  0.00000000000E+00 -0.13041004734E+04  0.21423094599E+04  0.16996504868E+04 0.  0.
        5    1    3    3  502    0  0.68404534023E+03 -0.42655172223E+03 -0.31309593721E+03  0.86482111163E+03  0.46999998093E+01 0. -1.
       -5    1    3    3    0  502 -0.68404534023E+03  0.42655172223E+03 -0.99100453618E+03  0.12774883483E+04  0.46999998093E+01 0.  1.
</event>
<event>
 5   0  0.1423543E-05  0.1700429E+04  0.7818609E-02  0.8761120E-01
       -2   -1    0    0    0  501  0.00000000000E+00  0.00000000000E+00  0.81049434120E+03  0.81049434120E+03  0.25500000920E-02 0.  1.
        2   -1    0    0  501    0  0.00000000000E+00  0.00000000000E+00 -0.89188094902E+03  0.89188094902E+03  0.25500000920E-02 0. -1.
    10030    2    1    2    0    0  0.00000000000E+00  0.00000000000E+00 -0.81386607822E+02  0.17023752902E+04  0.17004287250E+04 0.  0.
        3    1    3    3  502    0 -0.15606400677E+03  0.56094008875E+03 -0.66096262664E+03  0.88084128048E+03  0.10100000352E+00 0.  1.
       -3    1    3    3    0  502  0.15606400677E+03 -0.56094008875E+03  0.57957601882E+03  0.82153400975E+03  0.10100000352E+00 0. -1.
</event>
<event>
 5   0  0.1419012E-05  0.1698859E+04  0.7818609E-02  0.8762015E-01
       -2   -1    0    0    0  501  0.00000000000E+00  0.00000000000E+00  0.71081746384E+03  0.71081746384E+03  0.25500000920E-02 0.  1.
        2   -1    0    0  501    0  0.00000000000E+00  0.00000000000E+00 -0.10150716028E+04  0.10150716028E+04  0.25500000920E-02 0. -1.
    10030    2    1    2    0    0  0.00000000000E+00  0.00000000000E+00 -0.30425413895E+03  0.17258890666E+04  0.16988591729E+04 0.  0.
        4    1    3    3  502    0  0.69630247076E+03  0.48254512120E+03 -0.21509783343E+03  0.87404554551E+03  0.12699999809E+01 0. -1.
       -4    1    3    3    0  502 -0.69630247076E+03 -0.48254512120E+03 -0.89156305528E+02  0.85184352113E+03  0.12699999809E+01 0.  1.
</event>
<event>
 5   0  0.1435301E-05  0.1699390E+04  0.7818609E-02  0.8761713E-01
       -2   -1    0    0    0  501  0.00000000000E+00  0.00000000000E+00  0.73100189144E+03  0.73100189144E+03  0.25500000920E-02 0. -1.
        2   -1    0    0  501    0  0.00000000000E+00  0.00000000000E+00 -0.98765979682E+03  0.98765979683E+03  0.25500000920E-02 0.  1.
    10030    2    1    2    0    0  0.00000000000E+00  0.00000000000E+00 -0.25665790539E+03  0.17186616883E+04  0.16993895134E+04 0.  0.
        2    1    3    3  502    0 -0.23402893079E+03  0.14798154992E+03 -0.94075287449E+03  0.98065490894E+03  0.25500000920E-02 0.  1.
       -2    1    3    3    0  502  0.23402893079E+03 -0.14798154992E+03  0.68409496910E+03  0.73800677932E+03  0.25500000920E-02 0. -1.
</event>
<event>
 5   0  0.1435301E-05  0.1700040E+04  0.7818609E-02  0.8761341E-01
       -2   -1    0    0    0  501  0.00000000000E+00  0.00000000000E+00  0.36368195272E+03  0.36368195273E+03  0.25500000920E-02 0.  1.
        2   -1    0    0  501    0  0.00000000000E+00  0.00000000000E+00 -0.19867197303E+04  0.19867197303E+04  0.25500000920E-02 0. -1.
    10030    2    1    2    0    0  0.00000000000E+00  0.00000000000E+00 -0.16230377776E+04  0.23504016831E+04  0.17000401302E+04 0.  0.
        2    1    3    3  502    0  0.24261992790E+03 -0.29849215143E+03 -0.18595041857E+04  0.18988727736E+04  0.25500000920E-02 0. -1.
       -2    1    3    3    0  502 -0.24261992790E+03  0.29849215143E+03  0.23646640809E+03  0.45152890942E+03  0.25500000920E-02 0.  1.
</event>
<event>
 5   0  0.1435301E-05  0.1700370E+04  0.7818609E-02  0.8761153E-01
       -2   -1    0    0    0  501  0.00000000000E+00  0.00000000000E+00  0.63089712946E+03  0.63089712947E+03  0.25500000920E-02 0. -1.
        2   -1    0    0  501    0  0.00000000000E+00  0.00000000000E+00 -0.11456935315E+04  0.11456935315E+04  0.25500000920E-02 0.  1.
    10030    2    1    2    0    0  0.00000000000E+00  0.00000000000E+00 -0.51479640203E+03  0.17765906610E+04  0.17003702659E+04 0.  0.
        2    1    3    3  502    0 -0.43776862375E+03 -0.29046369535E+03  0.44099903649E+03  0.68592322927E+03  0.25500000920E-02 0. -1.
       -2    1    3    3    0  502  0.43776862375E+03  0.29046369535E+03 -0.95579543852E+03  0.10906674317E+04  0.25500000920E-02 0.  1.
</event>
<event>
 5   0  0.1423543E-05  0.1698923E+04  0.7818609E-02  0.8761979E-01
       -2   -1    0    0    0  501  0.00000000000E+00  0.00000000000E+00  0.30124181313E+03  0.30124181314E+03  0.25500000920E-02 0. -1.
        2   -1    0    0  501    0  0.00000000000E+00  0.00000000000E+00 -0.23953683204E+04  0.23953683204E+04  0.25500000920E-02 0.  1.
    10030    2    1    2    0    0  0.00000000000E+00  0.00000000000E+00 -0.20941265072E+04  0.26966101335E+04  0.16989233013E+04 0.  0.
        3    1    3    3  502    0  0.16507236638E+03  0.29595337304E+03 -0.22834333565E+04  0.23084421563E+04  0.10100000352E+00 0.  1.
       -3    1    3    3    0  502 -0.16507236638E+03 -0.29595337304E+03  0.18930684927E+03  0.38816797722E+03  0.10100000352E+00 0. -1.
</event>
<event>
 5   0  0.1419012E-05  0.1700145E+04  0.7818609E-02  0.8761282E-01
        2   -1    0    0  501    0  0.00000000000E+00  0.00000000000E+00  0.19331343263E+04  0.19331343263E+04  0.25500000920E-02 0.  1.
       -2   -1    0    0    0  501  0.00000000000E+00  0.00000000000E+00 -0.37380898901E+03  0.37380898902E+03  0.25500000920E-02 0. -1.
    10030    2    1    2    0    0  0.00000000000E+00  0.00000000000E+00  0.15593253373E+04  0.23069433153E+04  0.17001446858E+04 0.  0.
        4    1    3    3  502    0  0.76836253119E+03  0.51946241018E+02  0.12680409174E+04  0.14835797155E+04  0.12699999809E+01 0. -1.
       -4    1    3    3    0  502 -0.76836253119E+03 -0.51946241018E+02  0.29128441992E+03  0.82336359980E+03  0.12699999809E+01 0.  1.
</event>
<event>
 5   0  0.1374441E-05  0.1707437E+04  0.7818609E-02  0.8757134E-01
        2   -1    0    0  501    0  0.00000000000E+00  0.00000000000E+00  0.20016054424E+04  0.20016054424E+04  0.25500000920E-02 0. -1.
       -2   -1    0    0    0  501  0.00000000000E+00  0.00000000000E+00 -0.36412545686E+03  0.36412545687E+03  0.25500000920E-02 0.  1.
    10030    2    1    2    0    0  0.00000000000E+00  0.00000000000E+00  0.16374799855E+04  0.23657308992E+04  0.17074372564E+04 0.  0.
        1    1    3    3  502    0 -0.18437943708E+02  0.32455491409E+03  0.19124954925E+04  0.19399265086E+04  0.50400001928E-02 0. -1.
       -1    1    3    3    0  502  0.18437943708E+02 -0.32455491409E+03 -0.27501550693E+03  0.42580439066E+03  0.50400001928E-02 0.  1.
</event>
<event>
 5   0  0.7082527E-06  0.1700081E+04  0.7818609E-02  0.8761318E-01
       -1   -1    0    0    0  501  0.00000000000E+00  0.00000000000E+00  0.76153918236E+03  0.76153918237E+03  0.50400001928E-02 0.  1.
        1   -1    0    0  501    0  0.00000000000E+00  0.00000000000E+00 -0.94882717035E+03  0.94882717036E+03  0.50400001928E-02 0. -1.
    10030    2    1    2    0    0  0.00000000000E+00  0.00000000000E+00 -0.18728798799E+03  0.17103663527E+04  0.17000812540E+04 0.  0.
        1    1    3    3  502    0 -0.13391927719E+03  0.75328204552E+03 -0.46629120391E+03  0.89598867167E+03  0.50400001928E-02 0.  1.
       -1    1    3    3    0  502  0.13391927719E+03 -0.75328204552E+03  0.27900321592E+03  0.81437768106E+03  0.50400001928E-02 0. -1.
</event>
<event>
 5   0  0.7461128E-06  0.1699922E+04  0.7818609E-02  0.8761409E-01
        1   -1    0    0  501    0  0.00000000000E+00  0.00000000000E+00  0.11564265298E+04  0.11564265298E+04  0.50400001928E-02 0.  1.
       -1   -1    0    0    0  501  0.00000000000E+00  0.00000000000E+00 -0.62471192699E+03  0.62471192701E+03  0.50400001928E-02 0. -1.
    10030    2    1    2    0    0  0.00000000000E+00  0.00000000000E+00  0.53171460277E+03  0.17811384568E+04  0.16999216992E+04 0.  0.
        3    1    3    3  502    0 -0.44115280447E+03  0.67955832040E+02 -0.49202625222E+03  0.66432193632E+03  0.10100000352E+00 0. -1.
       -3    1    3    3    0  502  0.44115280447E+03 -0.67955832040E+02  0.10237408550E+04  0.11168165205E+04  0.10100000352E+00 0.  1.
</event>
<event>
 5   0  0.7082527E-06  0.1700116E+04  0.7818609E-02  0.8761298E-01
        1   -1    0    0  501    0  0.00000000000E+00  0.00000000000E+00  0.26719208690E+04  0.26719208690E+04  0.50400001928E-02 0.  1.
       -1   -1    0    0    0  501  0.00000000000E+00  0.00000000000E+00 -0.27044153404E+03  0.27044153409E+03  0.50400001928E-02 0. -1.
    10030    2    1    2    0    0  0.00000000000E+00  0.00000000000E+00  0.24014793349E+04  0.29423624031E+04  0.17001157357E+04 0.  0.
        1    1    3    3  502    0 -0.76346111648E+03  0.37026440430E+03  0.11119879379E+04  0.13987443582E+04  0.50400001928E-02 0. -1.
       -1    1    3    3    0  502  0.76346111648E+03 -0.37026440430E+03  0.12894913971E+04  0.15436180449E+04  0.50400001928E-02 0.  1.
</event>
<event>
 5   0  0.1419012E-05  0.1700348E+04  0.7818609E-02  0.8761166E-01
       -2   -1    0    0    0  501  0.00000000000E+00  0.00000000000E+00  0.14488986922E+04  0.14488986922E+04  0.25500000920E-02 0. -1.
        2   -1    0    0  501    0  0.00000000000E+00  0.00000000000E+00 -0.49885904132E+03  0.49885904133E+03  0.25500000920E-02 0.  1.
    10030    2    1    2    0    0  0.00000000000E+00  0.00000000000E+00  0.95003965085E+03  0.19477577335E+04  0.17003484496E+04 0.  0.
        4    1    3    3  502    0 -0.14416800155E+03 -0.49153396382E+03  0.12522807069E+04  0.13529961685E+04  0.12699999809E+01 0. -1.
       -4    1    3    3    0  502  0.14416800155E+03  0.49153396382E+03 -0.30224105608E+03  0.59476156495E+03  0.12699999809E+01 0.  1.
</event>
<event>
 5   0  0.1435301E-05  0.1699934E+04  0.7818609E-02  0.8761402E-01
        2   -1    0    0  501    0  0.00000000000E+00  0.00000000000E+00  0.81089399841E+03  0.81089399842E+03  0.25500000920E-02 0. -1.
       -2   -1    0    0    0  501  0.00000000000E+00  0.00000000000E+00 -0.89092256056E+03  0.89092256057E+03  0.25500000920E-02 0.  1.
    10030    2    1    2    0    0  0.00000000000E+00  0.00000000000E+00 -0.80028562150E+02  0.17018165590E+04  0.16999338310E+04 0.  0.
        2    1    3    3  502    0 -0.65077738412E+03 -0.23902676646E+03 -0.53228925919E+03  0.87405769502E+03  0.25500000920E-02 0.  1.
       -2    1    3    3    0  502  0.65077738412E+03  0.23902676646E+03  0.45226069704E+03  0.82775886396E+03  0.25500000920E-02 0. -1.
</event>
<event>
 5   0  0.1435301E-05  0.1696321E+04  0.7818609E-02  0.8763465E-01
       -2   -1    0    0    0  501  0.00000000000E+00  0.00000000000E+00  0.80196902097E+03  0.80196902098E+03  0.25500000920E-02 0. -1.
        2   -1    0    0  501    0  0.00000000000E+00  0.00000000000E+00 -0.89701291813E+03  0.89701291813E+03  0.25500000920E-02 0.  1.
    10030    2    1    2    0    0  0.00000000000E+00  0.00000000000E+00 -0.95043897154E+02  0.16989819391E+04  0.16963213985E+04 0.  0.
        2    1    3    3  502    0  0.83706691106E+03 -0.62372532766E+02 -0.16938951316E+03  0.85630844537E+03  0.25500000920E-02 0.  1.
       -2    1    3    3    0  502 -0.83706691106E+03  0.62372532766E+02  0.74345616004E+02  0.84267349374E+03  0.25500000920E-02 0. -1.
</event>
<event>
 5   0  0.1374441E-05  0.1699961E+04  0.7818609E-02  0.8761386E-01
       -2   -1    0    0    0  501  0.00000000000E+00  0.00000000000E+00  0.73310430076E+03  0.73310430077E+03  0.25500000920E-02 0. -1.
        2   -1    0    0  501    0  0.00000000000E+00  0.00000000000E+00 -0.98549026218E+03  0.98549026218E+03  0.25500000920E-02 0.  1.
    10030    2    1    2    0    0  0.00000000000E+00  0.00000000000E+00 -0.25238596141E+03  0.17185945629E+04  0.16999613520E+04 0.  0.
        1    1    3    3  502    0  0.61358544651E+02  0.72140711979E+03 -0.57635341389E+03  0.92540605208E+03  0.50400001928E-02 0.  1.
       -1    1    3    3    0  502 -0.61358544651E+02 -0.72140711979E+03  0.32396745248E+03  0.79318851087E+03  0.50400001928E-02 0. -1.
</event>
<event>
 5   0  0.1441756E-05  0.1700217E+04  0.7818609E-02  0.8761240E-01
        2   -1    0    0  501    0  0.00000000000E+00  0.00000000000E+00  0.72637249344E+03  0.72637249344E+03  0.25500000920E-02 0.  1.
       -2   -1    0    0    0  501  0.00000000000E+00  0.00000000000E+00 -0.99492295654E+03  0.99492295655E+03  0.25500000920E-02 0. -1.
    10030    2    1    2    0    0  0.00000000000E+00  0.00000000000E+00 -0.26855046311E+03  0.17212954500E+04  0.17002172434E+04 0.  0.
        5    1    3    3  502    0 -0.10059134309E+03  0.82686248270E+03 -0.30621117081E+03  0.88747256562E+03  0.46999998093E+01 0. -1.
       -5    1    3    3    0  502  0.10059134309E+03 -0.82686248270E+03  0.37660707707E+02  0.83382288437E+03  0.46999998093E+01 0.  1.
</event>
<event>
 5   0  0.7476457E-06  0.1700101E+04  0.7818609E-02  0.8761307E-01
        1   -1    0    0  501    0  0.00000000000E+00  0.00000000000E+00  0.13917845678E+04  0.13917845678E+04  0.50400001928E-02 0. -1.
       -1   -1    0    0    0  501  0.00000000000E+00  0.00000000000E+00 -0.51917956761E+03  0.51917956764E+03  0.50400001928E-02 0.  1.
    10030    2    1    2    0    0  0.00000000000E+00  0.00000000000E+00  0.87260500022E+03  0.19109641355E+04  0.17001013031E+04 0.  0.
        2    1    3    3  502    0  0.58703166477E+03 -0.20483180343E+03  0.10878750789E+04  0.12530101478E+04  0.25500000920E-02 0. -1.
       -2    1    3    3    0  502 -0.58703166477E+03  0.20483180343E+03 -0.21527007869E+03  0.65795398769E+03  0.25500000920E-02 0.  1.
</event>
<event>
 5   0  0.7461128E-06  0.1700930E+04  0.7818609E-02  0.8760834E-01
        1   -1    0    0  501    0  0.00000000000E+00  0.00000000000E+00  0.60271373448E+03  0.60271373450E+03  0.50400001928E-02 0. -1.
       -1   -1    0    0    0  501  0.00000000000E+00  0.00000000000E+00 -0.12000562849E+04  0.12000562849E+04  0.50400001928E-02 0.  1.
    10030    2    1    2    0    0  0.00000000000E+00  0.00000000000E+00 -0.59734255040E+03  0.18027700194E+04  0.17009296341E+04 0.  0.
        3    1    3    3  502    0 -0.57840177477E+03 -0.99632585017E+02  0.35365915408E+03  0.68523723813E+03  0.10100000352E+00 0. -1.
       -3    1    3    3    0  502  0.57840177477E+03  0.99632585017E+02 -0.95100170448E+03  0.11175327813E+04  0.10100000352E+00 0.  1.
</event>
<event>
 5   0  0.7082527E-06  0.1701684E+04  0.7818609E-02  0.8760404E-01
        1   -1    0    0  501    0  0.00000000000E+00  0.00000000000E+00  0.62710384936E+03  0.62710384938E+03  0.50400001928E-02 0. -1.
       -1   -1    0    0    0  501  0.00000000000E+00  0.00000000000E+00 -0.11544059658E+04  0.11544059658E+04  0.50400001928E-02 0.  1.
    10030    2    1    2    0    0  0.00000000000E+00  0.00000000000E+00 -0.52730211640E+03  0.17815098151E+04  0.17016843713E+04 0.  0.
        1    1    3    3  502    0  0.96422698862E+02 -0.59424724708E+03  0.36580662948E+03  0.70444419063E+03  0.50400001928E-02 0. -1.
       -1    1    3    3    0  502 -0.96422698862E+02  0.59424724708E+03 -0.89310874588E+03  0.10770656245E+04  0.50400001928E-02 0.  1.
</event>
<event>
 5   0  0.7476457E-06  0.1699969E+04  0.7818609E-02  0.8761382E-01
       -1   -1    0    0    0  501  0.00000000000E+00  0.00000000000E+00  0.85577279403E+03  0.85577279404E+03  0.50400001928E-02 0. -1.
        1   -1    0    0  501    0  0.00000000000E+00  0.00000000000E+00 -0.84423542979E+03  0.84423542980E+03  0.50400001928E-02 0.  1.
    10030    2    1    2    0    0  0.00000000000E+00  0.00000000000E+00  0.11537364240E+02  0.17000082238E+04  0.16999690734E+04 0.  0.
        2    1    3    3  502    0  0.17035187770E+03 -0.30904909122E+02  0.83795299702E+03  0.85565185728E+03  0.25500000920E-02 0. -1.
       -2    1    3    3    0  502 -0.17035187770E+03  0.30904909122E+02 -0.82641563278E+03  0.84435636657E+03  0.25500000920E-02 0.  1.
</event>
<event>
 5   0  0.1423543E-05  0.1697687E+04  0.7818609E-02  0.8762685E-01
       -2   -1    0    0    0  501  0.00000000000E+00  0.00000000000E+00  0.35163029503E+03  0.35163029504E+03  0.25500000920E-02 0. -1.
        2   -1    0    0  501    0  0.00000000000E+00  0.00000000000E+00 -0.20491279190E+04  0.20491279190E+04  0.25500000920E-02 0.  1.
    10030    2    1    2    0    0  0.00000000000E+00  0.00000000000E+00 -0.16974976240E+04  0.24007582140E+04  0.16976871970E+04 0.  0.
        3    1    3    3  502    0  0.15000735896E+03 -0.42162410209E+03 -0.18687569107E+04  0.19215934775E+04  0.10100000352E+00 0.  1.
       -3    1    3    3    0  502 -0.15000735896E+03  0.42162410209E+03  0.17125928678E+03  0.47916473651E+03  0.10100000352E+00 0. -1.
</event>
<event>
 5   0  0.7476457E-06  0.1700470E+04  0.7818609E-02  0.8761096E-01
        1   -1    0    0  501    0  0.00000000000E+00  0.00000000000E+00  0.99335169004E+03  0.99335169005E+03  0.50400001928E-02 0.  1.
       -1   -1    0    0    0  501  0.00000000000E+00  0.00000000000E+00 -0.72773813354E+03  0.72773813355E+03  0.50400001928E-02 0. -1.
    10030    2    1    2    0    0  0.00000000000E+00  0.00000000000E+00  0.26561355650E+03  0.17210898236E+04  0.17004704112E+04 0.  0.
        2    1    3    3  502    0  0.50053361228E+03 -0.64549637552E+02  0.82535474964E+03  0.96742494050E+03  0.25500000920E-02 0.  1.
       -2    1    3    3    0  502 -0.50053361228E+03  0.64549637552E+02 -0.55974119314E+03  0.75366488311E+03  0.25500000920E-02 0. -1.
</event>
<event>
 5   0  0.1441756E-05  0.1699483E+04  0.7818609E-02  0.8761659E-01
        2   -1    0    0  501    0  0.00000000000E+00  0.00000000000E+00  0.13995360969E+04  0.13995360969E+04  0.25500000920E-02 0. -1.
       -2   -1    0    0    0  501  0.00000000000E+00  0.00000000000E+00 -0.51592847419E+03  0.51592847420E+03  0.25500000920E-02 0.  1.
    10030    2    1    2    0    0  0.00000000000E+00  0.00000000000E+00  0.88360762270E+03  0.19154645711E+04  0.16994828897E+04 0.  0.
        5    1    3    3  502    0  0.75752789603E+03 -0.38462667812E+03  0.45970421463E+03  0.96598977724E+03  0.46999998093E+01 0.  1.
       -5    1    3    3    0  502 -0.75752789603E+03  0.38462667812E+03  0.42390340807E+03  0.94947479385E+03  0.46999998093E+01 0. -1.
</event>
<event>
 5   0  0.1374441E-05  0.1707141E+04  0.7818609E-02  0.8757302E-01
        2   -1    0    0  501    0  0.00000000000E+00  0.00000000000E+00  0.77215844364E+03  0.77215844364E+03  0.25500000920E-02 0. -1.
       -2   -1    0    0    0  501  0.00000000000E+00  0.00000000000E+00 -0.94356659247E+03  0.94356659248E+03  0.25500000920E-02 0.  1.
    10030    2    1    2    0    0  0.00000000000E+00  0.00000000000E+00 -0.17140814884E+03  0.17157250361E+04  0.17071413668E+04 0.  0.
        1    1    3    3  502    0  0.33897366184E+03 -0.78086055549E+03 -0.22646582586E+02  0.85156280935E+03  0.50400001928E-02 0.  1.
       -1    1    3    3    0  502 -0.33897366184E+03  0.78086055549E+03 -0.14876156625E+03  0.86416222676E+03  0.50400001928E-02 0. -1.
</event>
<event>
 5   0  0.7583716E-06  0.1707132E+04  0.7818609E-02  0.8757307E-01
        1   -1    0    0  501    0  0.00000000000E+00  0.00000000000E+00  0.48286695938E+03  0.48286695941E+03  0.50400001928E-02 0. -1.
       -1   -1    0    0    0  501  0.00000000000E+00  0.00000000000E+00 -0.15088530156E+04  0.15088530156E+04  0.50400001928E-02 0.  1.
    10030    2    1    2    0    0  0.00000000000E+00  0.00000000000E+00 -0.10259860563E+04  0.19917199751E+04  0.17071324118E+04 0.  0.
        5    1    3    3  502    0 -0.59874226144E+03 -0.48509471089E+03 -0.94126119518E+03  0.12164719075E+04  0.46999998093E+01 0.  1.
       -5    1    3    3    0  502  0.59874226144E+03  0.48509471089E+03 -0.84724861080E+02  0.77524806756E+03  0.46999998093E+01 0. -1.
</event>
<event>
 5   0  0.7461128E-06  0.1700860E+04  0.7818609E-02  0.8760874E-01
        1   -1    0    0  501    0  0.00000000000E+00  0.00000000000E+00  0.13648478032E+04  0.13648478032E+04  0.50400001928E-02 0.  1.
       -1   -1    0    0    0  501  0.00000000000E+00  0.00000000000E+00 -0.52989874195E+03  0.52989874197E+03  0.50400001928E-02 0. -1.
    10030    2    1    2    0    0  0.00000000000E+00  0.00000000000E+00  0.83494906126E+03  0.18947465452E+04  0.17008599400E+04 0.  0.
        3    1    3    3  502    0  0.69870243656E+03 -0.40704624650E+03  0.71085768863E+03  0.10766570509E+04  0.10100000352E+00 0.  1.
       -3    1    3    3    0  502 -0.69870243656E+03  0.40704624650E+03  0.12409137263E+03  0.81808949425E+03  0.10100000352E+00 0. -1.
</event>
<event>
 5   0  0.7455669E-06  0.1704915E+04  0.7818609E-02  0.8758566E-01
        1   -1    0    0  501    0  0.00000000000E+00  0.00000000000E+00  0.11391730872E+04  0.11391730872E+04  0.50400001928E-02 0.  1.
       -1   -1    0    0    0  501  0.00000000000E+00  0.00000000000E+00 -0.63790451554E+03  0.63790451556E+03  0.50400001928E-02 0. -1.
    10030    2    1    2    0    0  0.00000000000E+00  0.00000000000E+00  0.50126857168E+03  0.17770776028E+04  0.17049148440E+04 0.  0.
        4    1    3    3  502    0 -0.28544476181E+03  0.44616829084E+03 -0.44557195810E+03  0.69215665751E+03  0.12699999809E+01 0. -1.
       -4    1    3    3    0  502  0.28544476181E+03 -0.44616829084E+03  0.94684052978E+03  0.10849209453E+04  0.12699999809E+01 0.  1.
</event>
<event>
 5   0  0.7583716E-06  0.1699574E+04  0.7818609E-02  0.8761607E-01
       -1   -1    0    0    0  501  0.00000000000E+00  0.00000000000E+00  0.34351152091E+03  0.34351152095E+03  0.50400001928E-02 0. -1.
        1   -1    0    0  501    0  0.00000000000E+00  0.00000000000E+00 -0.21022228358E+04  0.21022228358E+04  0.50400001928E-02 0.  1.
    10030    2    1    2    0    0  0.00000000000E+00  0.00000000000E+00 -0.17587113149E+04  0.24457343568E+04  0.16995737862E+04 0.  0.
        5    1    3    3  502    0  0.53317882296E+03 -0.23803353018E+03 -0.17678037634E+04  0.18617443043E+04  0.46999998093E+01 0.  1.
       -5    1    3    3    0  502 -0.53317882296E+03  0.23803353018E+03  0.90924485073E+01  0.58399005245E+03  0.46999998093E+01 0. -1.
</event>
<event>
 5   0  0.1435301E-05  0.1699405E+04  0.7818609E-02  0.8761704E-01
        2   -1    0    0  501    0  0.00000000000E+00  0.00000000000E+00  0.85176024288E+03  0.85176024288E+03  0.25500000920E-02 0.  1.
       -2   -1    0    0    0  501  0.00000000000E+00  0.00000000000E+00 -0.84765016464E+03  0.84765016464E+03  0.25500000920E-02 0. -1.
    10030    2    1    2    0    0  0.00000000000E+00  0.00000000000E+00  0.41100782404E+01  0.16994104075E+04  0.16994054373E+04 0.  0.
        2    1    3    3  502    0 -0.69193226680E+03 -0.30757861272E+03 -0.38345853339E+03  0.84877282690E+03  0.25500000920E-02 0. -1.
       -2    1    3    3    0  502  0.69193226680E+03  0.30757861272E+03  0.38756861163E+03  0.85063758062E+03  0.25500000920E-02 0.  1.
</event>
<event>
 5   0  0.7476457E-06  0.1701131E+04  0.7818609E-02  0.8760719E-01
       -1   -1    0    0    0  501  0.00000000000E+00  0.00000000000E+00  0.80773486658E+03  0.80773486660E+03  0.50400001928E-02 0. -1.
        1   -1    0    0  501    0  0.00000000000E+00  0.00000000000E+00 -0.89566745413E+03  0.89566745414E+03  0.50400001928E-02 0.  1.
    10030    2    1    2    0    0  0.00000000000E+00  0.00000000000E+00 -0.87932587543E+02  0.17034023207E+04  0.17011311902E+04 0.  0.
        2    1    3    3  502    0 -0.39364712461E+03 -0.41718841040E+03 -0.67286339490E+03  0.88416592147E+03  0.25500000920E-02 0.  1.
       -2    1    3    3    0  502  0.39364712461E+03  0.41718841040E+03  0.58493080736E+03  0.81923639927E+03  0.25500000920E-02 0. -1.
</event>
<event>
 5   0  0.1441756E-05  0.1700058E+04  0.7818609E-02  0.8761331E-01
        2   -1    0    0  501    0  0.00000000000E+00  0.00000000000E+00  0.16383554033E+04  0.16383554033E+04  0.25500000920E-02 0. -1.
       -2   -1    0    0    0  501  0.00000000000E+00  0.00000000000E+00 -0.44102107346E+03  0.44102107347E+03  0.25500000920E-02 0.  1.
    10030    2    1    2    0    0  0.00000000000E+00  0.00000000000E+00  0.11973343299E+04  0.20793764768E+04  0.17000579504E+04 0.  0.
        5    1    3    3  502    0  0.57798102476E+03  0.22317619092E+03 -0.11311933165E+03  0.62983152539E+03  0.46999998093E+01 0.  1.
       -5    1    3    3    0  502 -0.57798102476E+03 -0.22317619092E+03  0.13104536615E+04  0.14495449514E+04  0.46999998093E+01 0. -1.
</event>
<event>
 5   0  0.7082527E-06  0.1700246E+04  0.7818609E-02  0.8761224E-01
        1   -1    0    0  501    0  0.00000000000E+00  0.00000000000E+00  0.55740523707E+03  0.55740523710E+03  0.50400001928E-02 0. -1.
       -1   -1    0    0    0  501  0.00000000000E+00  0.00000000000E+00 -0.12965589681E+04  0.12965589681E+04  0.50400001928E-02 0.  1.
    10030    2    1    2    0    0  0.00000000000E+00  0.00000000000E+00 -0.73915373105E+03  0.18539642052E+04  0.17002455811E+04 0.  0.
        1    1    3    3  502    0 -0.29773492103E+03 -0.55525987459E+03 -0.99192205076E+03  0.11751038109E+04  0.50400001928E-02 0.  1.
       -1    1    3    3    0  502  0.29773492103E+03  0.55525987459E+03  0.25276831971E+03  0.67886039435E+03  0.50400001928E-02 0. -1.
</event>
<event>
 5   0  0.1423543E-05  0.1700590E+04  0.7818609E-02  0.8761028E-01
        2   -1    0    0  501    0  0.00000000000E+00  0.00000000000E+00  0.16329717823E+04  0.16329717823E+04  0.25500000920E-02 0.  1.
       -2   -1    0    0    0  501  0.00000000000E+00  0.00000000000E+00 -0.44275207385E+03  0.44275207385E+03  0.25500000920E-02 0. -1.
    10030    2    1    2    0    0  0.00000000000E+00  0.00000000000E+00  0.11902197085E+04  0.20757238562E+04  0.17005900660E+04 0.  0.
        3    1    3    3  502    0  0.57863896247E+02 -0.84589042849E+03  0.51673706431E+03  0.99292298358E+03  0.10100000352E+00 0.  1.
       -3    1    3    3    0  502 -0.57863896247E+02  0.84589042849E+03  0.67348264416E+03  0.10828008726E+04  0.10100000352E+00 0. -1.
</event>
<event>
 5   0  0.1441756E-05  0.1699982E+04  0.7818609E-02  0.8761375E-01
        2   -1    0    0  501    0  0.00000000000E+00  0.00000000000E+00  0.67028506811E+03  0.67028506811E+03  0.25500000920E-02 0.  1.
       -2   -1    0    0    0  501  0.00000000000E+00  0.00000000000E+00 -0.10778765752E+04  0.10778765752E+04  0.25500000920E-02 0. -1.
    10030    2    1    2    0    0  0.00000000000E+00  0.00000000000E+00 -0.40759150712E+03  0.17481616433E+04  0.16999818512E+04 0.  0.
        5    1    3    3  502    0 -0.12779965215E+03  0.39533381989E+03 -0.96632380411E+03  0.10518675604E+04  0.46999998093E+01 0. -1.
       -5    1    3    3    0  502  0.12779965215E+03 -0.39533381989E+03  0.55873229699E+03  0.69629408294E+03  0.46999998093E+01 0.  1.
</event>
<event>
 5   0  0.1441756E-05  0.1698715E+04  0.7818609E-02  0.8762098E-01
        2   -1    0    0  501    0  0.00000000000E+00  0.00000000000E+00  0.22172554399E+04  0.22172554399E+04  0.25500000920E-02 0. -1.
       -2   -1    0    0    0  501  0.00000000000E+00  0.00000000000E+00 -0.32536084728E+03  0.32536084729E+03  0.25500000920E-02 0.  1.
    10030    2    1    2    0    0  0.00000000000E+00  0.00000000000E+00  0.18918945926E+04  0.25426162872E+04  0.16987149361E+04 0.  0.
        5    1    3    3  502    0 -0.29589350713E+03  0.37715992474E+03  0.19953905073E+04  0.20521715189E+04  0.46999998093E+01 0. -1.
       -5    1    3    3    0  502  0.29589350713E+03 -0.37715992474E+03 -0.10349591468E+03  0.49044476829E+03  0.46999998093E+01 0.  1.
</event>
<event>
 5   0  0.1423543E-05  0.1699501E+04  0.7818609E-02  0.8761649E-01
       -2   -1    0    0    0  501  0.00000000000E+00  0.00000000000E+00  0.55006340451E+03  0.55006340451E+03  0.25500000920E-02 0.  1.
        2   -1    0    0  501    0  0.00000000000E+00  0.00000000000E+00 -0.13127143287E+04  0.13127143287E+04  0.25500000920E-02 0. -1.
    10030    2    1    2    0    0  0.00000000000E+00  0.00000000000E+00 -0.76265092421E+03  0.18627777332E+04  0.16995012360E+04 0.  0.
        3    1    3    3  502    0  0.18574850671E+03 -0.62562966658E+03  0.21516509316E+03  0.68717611641E+03  0.10100000352E+00 0.  1.
       -3    1    3    3    0  502 -0.18574850671E+03  0.62562966658E+03 -0.97781601737E+03  0.11756016168E+04  0.10100000352E+00 0. -1.
</event>
<event>
 5   0  0.7082527E-06  0.1699181E+04  0.7818609E-02  0.8761832E-01
        1   -1    0    0  501    0  0.00000000000E+00  0.00000000000E+00  0.21677510181E+04  0.21677510181E+04  0.50400001928E-02 0.  1.
       -1   -1    0    0    0  501  0.00000000000E+00  0.00000000000E+00 -0.33297368878E+03  0.33297368881E+03  0.50400001928E-02 0. -1.
    10030    2    1    2    0    0  0.00000000000E+00  0.00000000000E+00  0.18347773293E+04  0.25007247069E+04  0.16991810415E+04 0.  0.
        1    1    3    3  502    0  0.61091874436E+03  0.94633157087E+02  0.17750725999E+04  0.18796435517E+04  0.50400001928E-02 0.  1.
       -1    1    3    3    0  502 -0.61091874436E+03 -0.94633157087E+02  0.59704729463E+02  0.62108115523E+03  0.50400001928E-02 0. -1.
</event>
<event>
 5   0  0.7476457E-06  0.1699732E+04  0.7818609E-02  0.8761517E-01
       -1   -1    0    0    0  501  0.00000000000E+00  0.00000000000E+00  0.63982358311E+03  0.63982358313E+03  0.50400001928E-02 0.  1.
        1   -1    0    0  501    0  0.00000000000E+00  0.00000000000E+00 -0.11288613582E+04  0.11288613582E+04  0.50400001928E-02 0. -1.
    10030    2    1    2    0    0  0.00000000000E+00  0.00000000000E+00 -0.48903777509E+03  0.17686849413E+04  0.16997318836E+04 0.  0.
        2    1    3    3  502    0 -0.11626470644E+03 -0.31870716357E+03 -0.10553472326E+04  0.11085348526E+04  0.25500000920E-02 0. -1.
       -2    1    3    3    0  502  0.11626470644E+03  0.31870716357E+03  0.56630945747E+03  0.66015008877E+03  0.25500000920E-02 0.  1.
</event>
<event>
 5   0  0.7583716E-06  0.1700549E+04  0.7818609E-02  0.8761052E-01
       -1   -1    0    0    0  501  0.00000000000E+00  0.00000000000E+00  0.11348247331E+04  0.11348247331E+04  0.50400001928E-02 0.  1.
        1   -1    0    0  501    0  0.00000000000E+00  0.00000000000E+00 -0.63707313718E+03  0.63707313720E+03  0.50400001928E-02 0. -1.
    10030    2    1    2    0    0  0.00000000000E+00  0.00000000000E+00  0.49775159594E+03  0.17718978703E+04  0.17005485620E+04 0.  0.
        5    1    3    3  502    0 -0.56644841540E+03 -0.84009646918E+02  0.90375432184E+03  0.10699137313E+04  0.46999998093E+01 0.  1.
       -5    1    3    3    0  502  0.56644841540E+03  0.84009646918E+02 -0.40600272590E+03  0.70198413908E+03  0.46999998093E+01 0. -1.
</event>
<event>
 5   0  0.1435301E-05  0.1700640E+04  0.7818609E-02  0.8761000E-01
       -2   -1    0    0    0  501  0.00000000000E+00  0.00000000000E+00  0.23642219515E+03  0.23642219516E+03  0.25500000920E-02 0.  1.
        2   -1    0    0  501    0  0.00000000000E+00  0.00000000000E+00 -0.30582735317E+04  0.30582735317E+04  0.25500000920E-02 0. -1.
    10030    2    1    2    0    0  0.00000000000E+00  0.00000000000E+00 -0.28218513365E+04  0.32946957268E+04  0.17006395759E+04 0.  0.
        2    1    3    3  502    0 -0.20260759387E+03 -0.64207135218E+03 -0.40474880674E+03  0.78557434718E+03  0.25500000920E-02 0.  1.
       -2    1    3    3    0  502  0.20260759387E+03  0.64207135218E+03 -0.24171025298E+04  0.25091213797E+04  0.25500000920E-02 0. -1.
</event>
<event>
 5   0  0.7461128E-06  0.1700340E+04  0.7818609E-02  0.8761170E-01
        1   -1    0    0  501    0  0.00000000000E+00  0.00000000000E+00  0.11852755794E+04  0.11852755794E+04  0.50400001928E-02 0. -1.
       -1   -1    0    0    0  501  0.00000000000E+00  0.00000000000E+00 -0.60980695772E+03  0.60980695774E+03  0.50400001928E-02 0.  1.
    10030    2    1    2    0    0  0.00000000000E+00  0.00000000000E+00  0.57546862171E+03  0.17950825372E+04  0.17003403132E+04 0.  0.
        3    1    3    3  502    0 -0.15156421676E+03  0.69838755742E+02  0.11678145372E+04  0.11796779082E+04  0.10100000352E+00 0. -1.
       -3    1    3    3    0  502  0.15156421676E+03 -0.69838755742E+02 -0.59234591547E+03  0.61540462899E+03  0.10100000352E+00 0.  1.
</event>
<event>
 5   0  0.7455669E-06  0.1692985E+04  0.7818609E-02  0.8765375E-01
        1   -1    0    0  501    0  0.00000000000E+00  0.00000000000E+00  0.14986354258E+04  0.14986354258E+04  0.50400001928E-02 0.  1.
       -1   -1    0    0    0  501  0.00000000000E+00  0.00000000000E+00 -0.47813467748E+03  0.47813467751E+03  0.50400001928E-02 0. -1.
    10030    2    1    2    0    0  0.00000000000E+00  0.00000000000E+00  0.10205007483E+04  0.19767701033E+04  0.16929850159E+04 0.  0.
        4    1    3    3  502    0  0.38675507469E+03 -0.74864675279E+03  0.41613882268E+03  0.93980028778E+03  0.12699999809E+01 0.  1.
       -4    1    3    3    0  502 -0.38675507469E+03  0.74864675279E+03  0.60436192561E+03  0.10369698155E+04  0.12699999809E+01 0. -1.
</event>
<event>
 5   0  0.1419012E-05  0.1701083E+04  0.7818609E-02  0.8760747E-01
       -2   -1    0    0    0  501  0.00000000000E+00  0.00000000000E+00  0.55699984067E+03  0.55699984067E+03  0.25500000920E-02 0. -1.
        2   -1    0    0  501    0  0.00000000000E+00  0.00000000000E+00 -0.12987816196E+04  0.12987816196E+04  0.25500000920E-02 0.  1.
    10030    2    1    2    0    0  0.00000000000E+00  0.00000000000E+00 -0.74178177897E+03  0.18557814603E+04  0.17010833668E+04 0.  0.
        4    1    3    3  502    0  0.65307357255E+03 -0.23260597584E+03  0.16667727878E+03  0.71301722231E+03  0.12699999809E+01 0. -1.
       -4    1    3    3    0  502 -0.65307357255E+03  0.23260597584E+03 -0.90845905775E+03  0.11427642380E+04  0.12699999809E+01 0.  1.
</event>
<event>
 5   0  0.7455669E-06  0.1699635E+04  0.7818609E-02  0.8761572E-01
        1   -1    0    0  501    0  0.00000000000E+00  0.00000000000E+00  0.28607781266E+04  0.28607781266E+04  0.50400001928E-02 0.  1.
       -1   -1    0    0    0  501  0.00000000000E+00  0.00000000000E+00 -0.25244534701E+03  0.25244534706E+03  0.50400001928E-02 0. -1.
    10030    2    1    2    0    0  0.00000000000E+00  0.00000000000E+00  0.26083327796E+04  0.31132234736E+04  0.16996354044E+04 0.  0.
        4    1    3    3  502    0 -0.61976246110E+03 -0.17454262540E+03  0.28824451158E+03  0.70544818918E+03  0.12699999809E+01 0. -1.
       -4    1    3    3    0  502  0.61976246110E+03  0.17454262540E+03  0.23200882680E+04  0.24077752844E+04  0.12699999809E+01 0.  1.
</event>
<event>
 5   0  0.7455669E-06  0.1687647E+04  0.7818609E-02  0.8768441E-01
       -1   -1    0    0    0  501  0.00000000000E+00  0.00000000000E+00  0.46008180167E+03  0.46008180170E+03  0.50400001928E-02 0.  1.
        1   -1    0    0  501    0  0.00000000000E+00  0.00000000000E+00 -0.15476337728E+04  0.15476337729E+04  0.50400001928E-02 0. -1.
    10030    2    1    2    0    0  0.00000000000E+00  0.00000000000E+00 -0.10875519712E+04  0.20077155745E+04  0.16876470420E+04 0.  0.
        4    1    3    3  502    0 -0.50650173661E+03  0.34856006257E+03 -0.12313077308E+04  0.13762842974E+04  0.12699999809E+01 0. -1.
       -4    1    3    3    0  502  0.50650173661E+03 -0.34856006257E+03  0.14375575967E+03  0.63143127713E+03  0.12699999809E+01 0.  1.
</event>
<event>
 5   0  0.7082527E-06  0.1699570E+04  0.7818609E-02  0.8761609E-01
       -1   -1    0    0    0  501  0.00000000000E+00  0.00000000000E+00  0.47222238447E+03  0.47222238450E+03  0.50400001928E-02 0.  1.
        1   -1    0    0  501    0  0.00000000000E+00  0.00000000000E+00 -0.15292261245E+04  0.15292261245E+04  0.50400001928E-02 0. -1.
    10030    2    1    2    0    0  0.00000000000E+00  0.00000000000E+00 -0.10570037401E+04  0.20014485090E+04  0.16995703068E+04 0.  0.
        1    1    3    3  502    0  0.29454394634E+03  0.41011497541E+03 -0.13334157983E+04  0.14258148970E+04  0.50400001928E-02 0. -1.
       -1    1    3    3    0  502 -0.29454394634E+03 -0.41011497541E+03  0.27641205820E+03  0.57563361205E+03  0.50400001928E-02 0.  1.
</event>
<event>
 5   0  0.1374441E-05  0.1703482E+04  0.7818609E-02  0.8759381E-01
       -2   -1    0    0    0  501  0.00000000000E+00  0.00000000000E+00  0.92532891265E+03  0.92532891265E+03  0.25500000920E-02 0.  1.
        2   -1    0    0  501    0  0.00000000000E+00  0.00000000000E+00 -0.78400508824E+03  0.78400508824E+03  0.25500000920E-02 0. -1.
    10030    2    1    2    0    0  0.00000000000E+00  0.00000000000E+00  0.14132382442E+03  0.17093340009E+04  0.17034818177E+04 0.  0.
        1    1    3    3  502    0  0.20144415741E+03  0.58203987874E+03  0.66099620543E+03  0.90347448919E+03  0.50400001928E-02 0.  1.
       -1    1    3    3    0  502 -0.20144415741E+03 -0.58203987874E+03 -0.51967238101E+03  0.80585951171E+03  0.50400001928E-02 0. -1.
</event>
<event>
 5   0  0.7461128E-06  0.1698788E+04  0.7818609E-02  0.8762056E-01
        1   -1    0    0  501    0  0.00000000000E+00  0.00000000000E+00  0.25239289852E+04  0.25239289852E+04  0.50400001928E-02 0.  1.
       -1   -1    0    0    0  501  0.00000000000E+00  0.00000000000E+00 -0.28585200032E+03  0.28585200036E+03  0.50400001928E-02 0. -1.
    10030    2    1    2    0    0  0.00000000000E+00  0.00000000000E+00  0.22380769849E+04  0.28097809855E+04  0.16987879787E+04 0.  0.
        3    1    3    3  502    0 -0.47297404664E+03 -0.57326673271E+03  0.17992513325E+04  0.19467009435E+04  0.10100000352E+00 0.  1.
       -3    1    3    3    0  502  0.47297404664E+03  0.57326673271E+03  0.43882565234E+03  0.86308004205E+03  0.10100000352E+00 0. -1.
</event>
<event>
 5   0  0.1435301E-05  0.1700743E+04  0.7818609E-02  0.8760941E-01
        2   -1    0    0  501    0  0.00000000000E+00  0.00000000000E+00  0.17534510648E+04  0.17534510648E+04  0.25500000920E-02 0.  1.
       -2   -1    0    0    0  501  0.00000000000E+00  0.00000000000E+00 -0.41240500152E+03  0.41240500153E+03  0.25500000920E-02 0. -1.
    10030    2    1    2    0    0  0.00000000000E+00  0.00000000000E+00  0.13410460633E+04  0.21658560664E+04  0.17007433540E+04 0.  0.
        2    1    3    3  502    0  0.21640320681E+03  0.42472115258E+03 -0.22627327600E+03  0.52765329602E+03  0.25500000920E-02 0. -1.
       -2    1    3    3    0  502 -0.21640320681E+03 -0.42472115258E+03  0.15673193393E+04  0.16382027703E+04  0.25500000920E-02 0.  1.
</event>
<event>
 5   0  0.1423543E-05  0.1700271E+04  0.7818609E-02  0.8761210E-01
       -2   -1    0    0    0  501  0.00000000000E+00  0.00000000000E+00  0.62167558624E+03  0.62167558624E+03  0.25500000920E-02 0.  1.
        2   -1    0    0  501    0  0.00000000000E+00  0.00000000000E+00 -0.11625523423E+04  0.11625523424E+04  0.25500000920E-02 0. -1.
    10030    2    1    2    0    0  0.00000000000E+00  0.00000000000E+00 -0.54087675611E+03  0.17842279286E+04  0.17002710478E+04 0.  0.
        3    1    3    3  502    0  0.63352152526E+03  0.56201143326E+03 -0.19244459640E+03  0.86847067134E+03  0.10100000352E+00 0. -1.
       -3    1    3    3    0  502 -0.63352152526E+03 -0.56201143326E+03 -0.34843215971E+03  0.91575725725E+03  0.10100000352E+00 0.  1.
</event>
<event>
 5   0  0.5229750E-06  0.1700990E+04  0.7818609E-02  0.8760800E-01
        3   -1    0    0  501    0  0.00000000000E+00  0.00000000000E+00  0.10322992972E+04  0.10322993022E+04  0.10100000352E+00 0. -1.
       -3   -1    0    0    0  501  0.00000000000E+00  0.00000000000E+00 -0.70070919590E+03  0.70070920318E+03  0.10100000352E+00 0.  1.
    10030    2    1    2    0    0  0.00000000000E+00  0.00000000000E+00  0.33159010132E+03  0.17330085053E+04  0.17009898543E+04 0.  0.
        5    1    3    3  502    0  0.47141528638E+03  0.28289452673E+03 -0.49530905297E+03  0.74001002253E+03  0.46999998093E+01 0.  1.
       -5    1    3    3    0  502 -0.47141528638E+03 -0.28289452673E+03  0.82689915430E+03  0.99299848281E+03  0.46999998093E+01 0. -1.
</event>
<event>
 5   0  0.7583716E-06  0.1700273E+04  0.7818609E-02  0.8761208E-01
       -1   -1    0    0    0  501  0.00000000000E+00  0.00000000000E+00  0.42502248647E+03  0.42502248650E+03  0.50400001928E-02 0.  1.
        1   -1    0    0  501    0  0.00000000000E+00  0.00000000000E+00 -0.17004569950E+04  0.17004569950E+04  0.50400001928E-02 0. -1.
    10030    2    1    2    0    0  0.00000000000E+00  0.00000000000E+00 -0.12754345085E+04  0.21254794815E+04  0.17002734606E+04 0.  0.
        5    1    3    3  502    0  0.27354106408E+03 -0.42728728582E+03 -0.14904440469E+04  0.15744347193E+04  0.46999998093E+01 0. -1.
       -5    1    3    3    0  502 -0.27354106408E+03  0.42728728582E+03  0.21500953838E+03  0.55104476220E+03  0.46999998093E+01 0.  1.
</event>
<event>
 5   0  0.1419012E-05  0.1699874E+04  0.7818609E-02  0.8761436E-01
        2   -1    0    0  501    0  0.00000000000E+00  0.00000000000E+00  0.63672407240E+03  0.63672407240E+03  0.25500000920E-02 0. -1.
       -2   -1    0    0    0  501  0.00000000000E+00  0.00000000000E+00 -0.11345458088E+04  0.11345458088E+04  0.25500000920E-02 0.  1.
    10030    2    1    2    0    0  0.00000000000E+00  0.00000000000E+00 -0.49782173643E+03  0.17712698812E+04  0.16998736750E+04 0.  0.
        4    1    3    3  502    0 -0.62566945947E+03 -0.19964950026E+03  0.31325688708E+03  0.72763568197E+03  0.12699999809E+01 0. -1.
       -4    1    3    3    0  502  0.62566945947E+03  0.19964950026E+03 -0.81107862351E+03  0.10436341993E+04  0.12699999809E+01 0.  1.
</event>
<event>
 5   0  0.1419012E-05  0.1699603E+04  0.7818609E-02  0.8761591E-01
        2   -1    0    0  501    0  0.00000000000E+00  0.00000000000E+00  0.96926851137E+03  0.96926851137E+03  0.25500000920E-02 0.  1.
       -2   -1    0    0    0  501  0.00000000000E+00  0.00000000000E+00 -0.74505974558E+03  0.74505974559E+03  0.25500000920E-02 0. -1.
    10030    2    1    2    0    0  0.00000000000E+00  0.00000000000E+00  0.22420876578E+03  0.17143282570E+04  0.16996034249E+04 0.  0.
        4    1    3    3  502    0 -0.11428661640E+03 -0.42073345012E+03 -0.62365564221E+03  0.76093760566E+03  0.12699999809E+01 0. -1.
       -4    1    3    3    0  502  0.11428661640E+03  0.42073345012E+03  0.84786440800E+03  0.95339065130E+03  0.12699999809E+01 0.  1.
</event>
<event>
 5   0  0.1435301E-05  0.1700017E+04  0.7818609E-02  0.8761355E-01
        2   -1    0    0  501    0  0.00000000000E+00  0.00000000000E+00  0.13565804058E+04  0.13565804058E+04  0.25500000920E-02 0.  1.
       -2   -1    0    0    0  501  0.00000000000E+00  0.00000000000E+00 -0.53259983531E+03  0.53259983532E+03  0.25500000920E-02 0. -1.
    10030    2    1    2    0    0  0.00000000000E+00  0.00000000000E+00  0.82398057050E+03  0.18891802411E+04  0.17000170596E+04 0.  0.
        2    1    3    3  502    0  0.62069081263E+02  0.76539511829E+03  0.69745765127E+01  0.76793938737E+03  0.25500000920E-02 0.  1.
       -2    1    3    3    0  502 -0.62069081263E+02 -0.76539511829E+03  0.81700599399E+03  0.11212408538E+04  0.25500000920E-02 0. -1.
</event>
<event>
 5   0  0.7583716E-06  0.1699922E+04  0.7818609E-02  0.8761409E-01
       -1   -1    0    0    0  501  0.00000000000E+00  0.00000000000E+00  0.32550993828E+03  0.32550993832E+03  0.50400001928E-02 0. -1.
        1   -1    0    0  501    0  0.00000000000E+00  0.00000000000E+00 -0.22193918697E+04  0.22193918697E+04  0.50400001928E-02 0.  1.
    10030    2    1    2    0    0  0.00000000000E+00  0.00000000000E+00 -0.18938819315E+04  0.25449018081E+04  0.16999224813E+04 0.  0.
        5    1    3    3  502    0  0.19735629046E+03 -0.63687287791E+03 -0.17360760909E+04  0.18597147232E+04  0.46999998093E+01 0.  1.
       -5    1    3    3    0  502 -0.19735629046E+03  0.63687287791E+03 -0.15780584051E+03  0.68518708489E+03  0.46999998093E+01 0. -1.
</event>
<event>
 5   0  0.1423543E-05  0.1696991E+04  0.7818609E-02  0.8763083E-01
        2   -1    0    0  501    0  0.00000000000E+00  0.00000000000E+00  0.12380432971E+04  0.12380432971E+04  0.25500000920E-02 0.  1.
       -2   -1    0    0    0  501  0.00000000000E+00  0.00000000000E+00 -0.58151785639E+03  0.58151785640E+03  0.25500000920E-02 0. -1.
    10030    2    1    2    0    0  0.00000000000E+00  0.00000000000E+00  0.65652544074E+03  0.18195611535E+04  0.16969906120E+04 0.  0.
        3    1    3    3  502    0 -0.15407325680E+03 -0.45845179597E+03 -0.41924848618E+03  0.64006712230E+03  0.10100000352E+00 0. -1.
       -3    1    3    3    0  502  0.15407325680E+03  0.45845179597E+03  0.10757739269E+04  0.11794940312E+04  0.10100000352E+00 0.  1.
</event>
<event>
 5   0  0.5229750E-06  0.1699615E+04  0.7818609E-02  0.8761584E-01
       -3   -1    0    0    0  501  0.00000000000E+00  0.00000000000E+00  0.15941182021E+04  0.15941182053E+04  0.10100000352E+00 0. -1.
        3   -1    0    0  501    0  0.00000000000E+00  0.00000000000E+00 -0.45302328118E+03  0.45302329244E+03  0.10100000352E+00 0.  1.
    10030    2    1    2    0    0  0.00000000000E+00  0.00000000000E+00  0.11410949209E+04  0.20471414978E+04  0.16996148662E+04 0.  0.
        4    1    3    3  502    0 -0.27970363123E+03  0.79596353839E+03  0.69325599676E+03  0.10919695809E+04  0.12699999809E+01 0. -1.
       -4    1    3    3    0  502  0.27970363123E+03 -0.79596353839E+03  0.44783892418E+03  0.95517191681E+03  0.12699999809E+01 0.  1.
</event>
<event>
 5   0  0.7461128E-06  0.1696975E+04  0.7818609E-02  0.8763091E-01
        1   -1    0    0  501    0  0.00000000000E+00  0.00000000000E+00  0.12467255764E+04  0.12467255764E+04  0.50400001928E-02 0.  1.
       -1   -1    0    0    0  501  0.00000000000E+00  0.00000000000E+00 -0.57745777922E+03  0.57745777924E+03  0.50400001928E-02 0. -1.
    10030    2    1    2    0    0  0.00000000000E+00  0.00000000000E+00  0.66926779719E+03  0.18241833556E+04  0.16969754066E+04 0.  0.
        3    1    3    3  502    0 -0.73904916463E+03  0.38014003345E+03  0.51842170996E+03  0.97952089939E+03  0.10100000352E+00 0. -1.
       -3    1    3    3    0  502  0.73904916463E+03 -0.38014003345E+03  0.15084608723E+03  0.84466245626E+03  0.10100000352E+00 0.  1.
</event>
<event>
 5   0  0.5229750E-06  0.1699982E+04  0.7818609E-02  0.8761375E-01
        3   -1    0    0  501    0  0.00000000000E+00  0.00000000000E+00  0.60228307924E+03  0.60228308771E+03  0.10100000352E+00 0.  1.
       -3   -1    0    0    0  501  0.00000000000E+00  0.00000000000E+00 -0.11995768880E+04  0.11995768923E+04  0.10100000352E+00 0. -1.
    10030    2    1    2    0    0  0.00000000000E+00  0.00000000000E+00 -0.59729380879E+03  0.18018599800E+04  0.16999822039E+04 0.  0.
        1    1    3    3  502    0  0.32351543743E+03  0.61513638206E+03  0.21999287784E+03  0.72900745752E+03  0.50400001928E-02 0.  1.
       -1    1    3    3    0  502 -0.32351543743E+03 -0.61513638206E+03 -0.81728668663E+03  0.10728525225E+04  0.50400001928E-02 0. -1.
</event>
<event>
 5   0  0.1419012E-05  0.1701166E+04  0.7818609E-02  0.8760699E-01
        2   -1    0    0  501    0  0.00000000000E+00  0.00000000000E+00  0.17344350914E+04  0.17344350914E+04  0.25500000920E-02 0.  1.
       -2   -1    0    0    0  501  0.00000000000E+00  0.00000000000E+00 -0.41713395477E+03  0.41713395477E+03  0.25500000920E-02 0. -1.
    10030    2    1    2    0    0  0.00000000000E+00  0.00000000000E+00  0.13173011366E+04  0.21515690462E+04  0.17011663869E+04 0.  0.
        4    1    3    3  502    0  0.45080375078E+03  0.27165588307E+03  0.15037430816E+04  0.15931935880E+04  0.12699999809E+01 0.  1.
       -4    1    3    3    0  502 -0.45080375078E+03 -0.27165588307E+03 -0.18644194498E+03  0.55837545815E+03  0.12699999809E+01 0. -1.
</event>
<event>
 5   0  0.7455669E-06  0.1699888E+04  0.7818609E-02  0.8761428E-01
        1   -1    0    0  501    0  0.00000000000E+00  0.00000000000E+00  0.56594329799E+03  0.56594329801E+03  0.50400001928E-02 0.  1.
       -1   -1    0    0    0  501  0.00000000000E+00  0.00000000000E+00 -0.12764618629E+04  0.12764618630E+04  0.50400001928E-02 0. -1.
    10030    2    1    2    0    0  0.00000000000E+00  0.00000000000E+00 -0.71051856495E+03  0.18424051610E+04  0.16998882746E+04 0.  0.
        4    1    3    3  502    0 -0.80057847929E+03 -0.13394385531E+03 -0.62845672635E+03  0.10265604355E+04  0.12699999809E+01 0. -1.
       -4    1    3    3    0  502  0.80057847929E+03  0.13394385531E+03 -0.82061838603E+02  0.81584472550E+03  0.12699999809E+01 0.  1.
</event>
<event>
 5   0  0.7461128E-06  0.1698962E+04  0.7818609E-02  0.8761957E-01
        1   -1    0    0  501    0  0.00000000000E+00  0.00000000000E+00  0.12703052378E+04  0.12703052378E+04  0.50400001928E-02 0. -1.
       -1   -1    0    0    0  501  0.00000000000E+00  0.00000000000E+00 -0.56806628916E+03  0.56806628919E+03  0.50400001928E-02 0.  1.
    10030    2    1    2    0    0  0.00000000000E+00  0.00000000000E+00  0.70223894864E+03  0.18383715270E+04  0.16989615447E+04 0.  0.
        3    1    3    3  502    0 -0.23297638650E+03 -0.49417584329E+03  0.10549799009E+04  0.11880531816E+04  0.10100000352E+00 0. -1.
       -3    1    3    3    0  502  0.23297638650E+03  0.49417584329E+03 -0.35274095228E+03  0.65031834541E+03  0.10100000352E+00 0.  1.
</event>
<event>
 5   0  0.1435301E-05  0.1699373E+04  0.7818609E-02  0.8761722E-01
        2   -1    0    0  501    0  0.00000000000E+00  0.00000000000E+00  0.18928066768E+04  0.18928066768E+04  0.25500000920E-02 0. -1.
       -2   -1    0    0    0  501  0.00000000000E+00  0.00000000000E+00 -0.38142668542E+03  0.38142668543E+03  0.25500000920E-02 0.  1.
    10030    2    1    2    0    0  0.00000000000E+00  0.00000000000E+00  0.15113799913E+04  0.22742333622E+04  0.16993727983E+04 0.  0.
        2    1    3    3  502    0 -0.28505550714E+03 -0.80021630687E+03  0.78122961980E+03  0.11540894674E+04  0.25500000920E-02 0.  1.
       -2    1    3    3    0  502  0.28505550714E+03  0.80021630687E+03  0.73015037154E+03  0.11201438948E+04  0.25500000920E-02 0. -1.
</event>
<event>
 5   0  0.7461128E-06  0.1700127E+04  0.7818609E-02  0.8761292E-01
       -1   -1    0    0    0  501  0.00000000000E+00  0.00000000000E+00  0.68615666780E+03  0.68615666782E+03  0.50400001928E-02 0.  1.
        1   -1    0    0  501    0  0.00000000000E+00  0.00000000000E+00 -0.10531232755E+04  0.10531232756E+04  0.50400001928E-02 0. -1.
    10030    2    1    2    0    0  0.00000000000E+00  0.00000000000E+00 -0.36696660775E+03  0.17392799434E+04  0.17001265336E+04 0.  0.
        3    1    3    3  502    0  0.84510324042E+03  0.16053434671E+02 -0.91124923236E+02  0.85015349295E+03  0.10100000352E+00 0. -1.
       -3    1    3    3    0  502 -0.84510324042E+03 -0.16053434671E+02 -0.27584168451E+03  0.88912645043E+03  0.10100000352E+00 0.  1.
</event>
<event>
 5   0  0.1419012E-05  0.1700005E+04  0.7818609E-02  0.8761362E-01
       -2   -1    0    0    0  501  0.00000000000E+00  0.00000000000E+00  0.97454122102E+03  0.97454122103E+03  0.25500000920E-02 0. -1.
        2   -1    0    0  501    0  0.00000000000E+00  0.00000000000E+00 -0.74137868405E+03  0.74137868405E+03  0.25500000920E-02 0.  1.
    10030    2    1    2    0    0  0.00000000000E+00  0.00000000000E+00  0.23316253697E+03  0.17159199051E+04  0.17000048094E+04 0.  0.
        4    1    3    3  502    0  0.52685032279E+03 -0.22116826084E+03  0.75177049878E+03  0.94427070164E+03  0.12699999809E+01 0. -1.
       -4    1    3    3    0  502 -0.52685032279E+03  0.22116826084E+03 -0.51860796181E+03  0.77164920345E+03  0.12699999809E+01 0.  1.
</event>
<event>
 5   0  0.1374441E-05  0.1701121E+04  0.7818609E-02  0.8760725E-01
       -2   -1    0    0    0  501  0.00000000000E+00  0.00000000000E+00  0.30799192486E+03  0.30799192487E+03  0.25500000920E-02 0. -1.
        2   -1    0    0  501    0  0.00000000000E+00  0.00000000000E+00 -0.23489346172E+04  0.23489346172E+04  0.25500000920E-02 0.  1.
    10030    2    1    2    0    0  0.00000000000E+00  0.00000000000E+00 -0.20409426923E+04  0.26569265420E+04  0.17011206825E+04 0.  0.
        1    1    3    3  502    0  0.72828057160E+02 -0.31858146906E+03 -0.22469655106E+04  0.22706061050E+04  0.50400001928E-02 0.  1.
       -1    1    3    3    0  502 -0.72828057160E+02  0.31858146906E+03  0.20602281831E+03  0.38632043698E+03  0.50400001928E-02 0. -1.
</event>
<event>
 5   0  0.1374441E-05  0.1698221E+04  0.7818609E-02  0.8762380E-01
       -2   -1    0    0    0  501  0.00000000000E+00  0.00000000000E+00  0.60989789089E+03  0.60989789090E+03  0.25500000920E-02 0.  1.
        2   -1    0    0  501    0  0.00000000000E+00  0.00000000000E+00 -0.11821460973E+04  0.11821460974E+04  0.25500000920E-02 0. -1.
    10030    2    1    2    0    0  0.00000000000E+00  0.00000000000E+00 -0.57224820646E+03  0.17920439882E+04  0.16982207295E+04 0.  0.
        1    1    3    3  502    0 -0.37370414421E+03 -0.76835127412E+02  0.51435642703E+03  0.64040686930E+03  0.50400001928E-02 0.  1.
       -1    1    3    3    0  502  0.37370414421E+03  0.76835127412E+02 -0.10866046335E+04  0.11516371189E+04  0.50400001928E-02 0. -1.
</event>
<event>
 5   0  0.1423543E-05  0.1698842E+04  0.7818609E-02  0.8762025E-01
        2   -1    0    0  501    0  0.00000000000E+00  0.00000000000E+00  0.11343977687E+04  0.11343977687E+04  0.25500000920E-02 0. -1.
       -2   -1    0    0    0  501  0.00000000000E+00  0.00000000000E+00 -0.63603415196E+03  0.63603415196E+03  0.25500000920E-02 0.  1.
    10030    2    1    2    0    0  0.00000000000E+00  0.00000000000E+00  0.49836361677E+03  0.17704319207E+04  0.16988416322E+04 0.  0.
        3    1    3    3  502    0 -0.84021091410E+03 -0.10635132885E+03  0.31712687957E+03  0.90434200017E+03  0.10100000352E+00 0.  1.
       -3    1    3    3    0  502  0.84021091410E+03  0.10635132885E+03  0.18123673719E+03  0.86608992052E+03  0.10100000352E+00 0. -1.
</event>
<event>
 5   0  0.1441756E-05  0.1701892E+04  0.7818609E-02  0.8760286E-01
        2   -1    0    0  501    0  0.00000000000E+00  0.00000000000E+00  0.19559107500E+04  0.19559107500E+04  0.25500000920E-02 0.  1.
       -2   -1    0    0    0  501  0.00000000000E+00  0.00000000000E+00 -0.37021586376E+03  0.37021586376E+03  0.25500000920E-02 0. -1.
    10030    2    1    2    0    0  0.00000000000E+00  0.00000000000E+00  0.15856948862E+04  0.23261266138E+04  0.17018921091E+04 0.  0.
        5    1    3    3  502    0 -0.54123758969E+03 -0.26936087341E+02  0.16895517810E+04  0.17743367753E+04  0.46999998093E+01 0.  1.
       -5    1    3    3    0  502  0.54123758969E+03  0.26936087341E+02 -0.10385689477E+03  0.55178983851E+03  0.46999998093E+01 0. -1.
</event>
<event>
 5   0  0.7461128E-06  0.1699939E+04  0.7818609E-02  0.8761399E-01
        1   -1    0    0  501    0  0.00000000000E+00  0.00000000000E+00  0.12045461322E+04  0.12045461323E+04  0.50400001928E-02 0. -1.
       -1   -1    0    0    0  501  0.00000000000E+00  0.00000000000E+00 -0.59976769119E+03  0.59976769122E+03  0.50400001928E-02 0.  1.
    10030    2    1    2    0    0  0.00000000000E+00  0.00000000000E+00  0.60477844105E+03  0.18043138235E+04  0.16999386491E+04 0.  0.
        3    1    3    3  502    0 -0.30441940031E+02  0.54294446851E+02  0.12021236705E+04  0.12037341601E+04  0.10100000352E+00 0. -1.
       -3    1    3    3    0  502  0.30441940031E+02 -0.54294446851E+02 -0.59734522949E+03  0.60057966339E+03  0.10100000352E+00 0.  1.
</event>
<event>
 5   0  0.7455669E-06  0.1700648E+04  0.7818609E-02  0.8760995E-01
       -1   -1    0    0    0  501  0.00000000000E+00  0.00000000000E+00  0.44666615030E+03  0.44666615033E+03  0.50400001928E-02 0. -1.
        1   -1    0    0  501    0  0.00000000000E+00  0.00000000000E+00 -0.16187720511E+04  0.16187720512E+04  0.50400001928E-02 0.  1.
    10030    2    1    2    0    0  0.00000000000E+00  0.00000000000E+00 -0.11721059008E+04  0.20654382015E+04  0.17006477358E+04 0.  0.
        4    1    3    3  502    0 -0.41739756144E+03  0.31438369137E+03  0.22865108730E+03  0.57038650257E+03  0.12699999809E+01 0. -1.
       -4    1    3    3    0  502  0.41739756144E+03 -0.31438369137E+03 -0.14007569881E+04  0.14950516989E+04  0.12699999809E+01 0.  1.
</event>
<event>
 5   0  0.1419012E-05  0.1700531E+04  0.7818609E-02  0.8761062E-01
       -2   -1    0    0    0  501  0.00000000000E+00  0.00000000000E+00  0.56882456895E+03  0.56882456896E+03  0.25500000920E-02 0. -1.
        2   -1    0    0  501    0  0.00000000000E+00  0.00000000000E+00 -0.12709565379E+04  0.12709565379E+04  0.25500000920E-02 0.  1.
    10030    2    1    2    0    0  0.00000000000E+00  0.00000000000E+00 -0.70213196897E+03  0.18397811069E+04  0.17005308640E+04 0.  0.
        4    1    3    3  502    0  0.81862557833E+03 -0.22292603402E+03 -0.29077241122E+03  0.89688018272E+03  0.12699999809E+01 0. -1.
       -4    1    3    3    0  502 -0.81862557833E+03  0.22292603402E+03 -0.41135955776E+03  0.94290092416E+03  0.12699999809E+01 0.  1.
</event>
<event>
 5   0  0.7461128E-06  0.1699379E+04  0.7818609E-02  0.8761719E-01
       -1   -1    0    0    0  501  0.00000000000E+00  0.00000000000E+00  0.35629624040E+03  0.35629624044E+03  0.50400001928E-02 0.  1.
        1   -1    0    0  501    0  0.00000000000E+00  0.00000000000E+00 -0.20263250488E+04  0.20263250488E+04  0.50400001928E-02 0. -1.
    10030    2    1    2    0    0  0.00000000000E+00  0.00000000000E+00 -0.16700288084E+04  0.23826212892E+04  0.16993787062E+04 0.  0.
        3    1    3    3  502    0  0.45222637551E+03 -0.69956670770E+03 -0.60011396184E+03  0.10266640398E+04  0.10100000352E+00 0. -1.
       -3    1    3    3    0  502 -0.45222637551E+03  0.69956670770E+03 -0.10699148466E+04  0.13559572494E+04  0.10100000352E+00 0.  1.
</event>
<event>
 5   0  0.7476457E-06  0.1699525E+04  0.7818609E-02  0.8761636E-01
        1   -1    0    0  501    0  0.00000000000E+00  0.00000000000E+00  0.84051362971E+03  0.84051362973E+03  0.50400001928E-02 0.  1.
       -1   -1    0    0    0  501  0.00000000000E+00  0.00000000000E+00 -0.85911277491E+03  0.85911277493E+03  0.50400001928E-02 0. -1.
    10030    2    1    2    0    0  0.00000000000E+00  0.00000000000E+00 -0.18599145202E+02  0.16996264047E+04  0.16995246357E+04 0.  0.
        2    1    3    3  502    0 -0.29185123634E+03  0.54830249030E+03 -0.58923362646E+03  0.85615946621E+03  0.25500000920E-02 0. -1.
       -2    1    3    3    0  502  0.29185123634E+03 -0.54830249030E+03  0.57063448126E+03  0.84346693844E+03  0.25500000920E-02 0.  1.
</event>
<event>
 5   0  0.7461128E-06  0.1700579E+04  0.7818609E-02  0.8761034E-01
        1   -1    0    0  501    0  0.00000000000E+00  0.00000000000E+00  0.99067586178E+03  0.99067586179E+03  0.50400001928E-02 0. -1.
       -1   -1    0    0    0  501  0.00000000000E+00  0.00000000000E+00 -0.72979700764E+03  0.72979700766E+03  0.50400001928E-02 0.  1.
    10030    2    1    2    0    0  0.00000000000E+00  0.00000000000E+00  0.26087885413E+03  0.17204728694E+04  0.17005790537E+04 0.  0.
        3    1    3    3  502    0  0.37369690604E+03  0.49967208478E+03 -0.45396034630E+03  0.77162269025E+03  0.10100000352E+00 0.  1.
       -3    1    3    3    0  502 -0.37369690604E+03 -0.49967208478E+03  0.71483920043E+03  0.94885017920E+03  0.10100000352E+00 0. -1.
</event>
<event>
 5   0  0.7461128E-06  0.1700683E+04  0.7818609E-02  0.8760975E-01
        1   -1    0    0  501    0  0.00000000000E+00  0.00000000000E+00  0.10932895870E+04  0.10932895870E+04  0.50400001928E-02 0. -1.
       -1   -1    0    0    0  501  0.00000000000E+00  0.00000000000E+00 -0.66138074265E+03  0.66138074267E+03  0.50400001928E-02 0.  1.
    10030    2    1    2    0    0  0.00000000000E+00  0.00000000000E+00  0.43190884431E+03  0.17546703296E+04  0.17006830145E+04 0.  0.
        3    1    3    3  502    0  0.81500332689E+02  0.22470775655E+03  0.10579140561E+04  0.10845819657E+04  0.10100000352E+00 0. -1.
       -3    1    3    3    0  502 -0.81500332689E+02 -0.22470775655E+03 -0.62600521178E+03  0.67008836392E+03  0.10100000352E+00 0.  1.
</event>
<event>
 5   0  0.7583716E-06  0.1698332E+04  0.7818609E-02  0.8762316E-01
       -1   -1    0    0    0  501  0.00000000000E+00  0.00000000000E+00  0.46100727785E+03  0.46100727788E+03  0.50400001928E-02 0.  1.
        1   -1    0    0  501    0  0.00000000000E+00  0.00000000000E+00 -0.15641467548E+04  0.15641467548E+04  0.50400001928E-02 0. -1.
    10030    2    1    2    0    0  0.00000000000E+00  0.00000000000E+00 -0.11031394770E+04  0.20251540327E+04  0.16983321673E+04 0.  0.
        5    1    3    3  502    0  0.23511345192E+03  0.28753921927E+03 -0.14621293126E+04  0.15085759360E+04  0.46999998093E+01 0. -1.
       -5    1    3    3    0  502 -0.23511345192E+03 -0.28753921927E+03  0.35898983565E+03  0.51657809670E+03  0.46999998093E+01 0.  1.
</event>
<event>
 5   0  0.7476457E-06  0.1700351E+04  0.7818609E-02  0.8761164E-01
       -1   -1    0    0    0  501  0.00000000000E+00  0.00000000000E+00  0.48677235488E+03  0.48677235491E+03  0.50400001928E-02 0. -1.
        1   -1    0    0  501    0  0.00000000000E+00  0.00000000000E+00 -0.14848803159E+04  0.14848803159E+04  0.50400001928E-02 0.  1.
    10030    2    1    2    0    0  0.00000000000E+00  0.00000000000E+00 -0.99810796100E+03  0.19716526708E+04  0.17003513615E+04 0.  0.
        2    1    3    3  502    0  0.75785333904E+03 -0.29027260060E+03 -0.79285633197E+03  0.11345576359E+04  0.25500000920E-02 0. -1.
       -2    1    3    3    0  502 -0.75785333904E+03  0.29027260060E+03 -0.20525162904E+03  0.83709503485E+03  0.25500000920E-02 0.  1.
</event>
<event>
 5   0  0.7476457E-06  0.1698362E+04  0.7818609E-02  0.8762299E-01
       -1   -1    0    0    0  501  0.00000000000E+00  0.00000000000E+00  0.12113935883E+04  0.12113935883E+04  0.50400001928E-02 0.  1.
        1   -1    0    0  501    0  0.00000000000E+00  0.00000000000E+00 -0.59527185468E+03  0.59527185470E+03  0.50400001928E-02 0. -1.
    10030    2    1    2    0    0  0.00000000000E+00  0.00000000000E+00  0.61612173363E+03  0.18066654430E+04  0.16983621617E+04 0.  0.
        2    1    3    3  502    0 -0.52102982239E+03 -0.39524470342E+03  0.88428421336E+03  0.10998404527E+04  0.25500000920E-02 0.  1.
       -2    1    3    3    0  502  0.52102982239E+03  0.39524470342E+03 -0.26816247973E+03  0.70682499032E+03  0.25500000920E-02 0. -1.
</event>
<event>
 5   0  0.1441756E-05  0.1699630E+04  0.7818609E-02  0.8761576E-01
       -2   -1    0    0    0  501  0.00000000000E+00  0.00000000000E+00  0.67193678695E+03  0.67193678696E+03  0.25500000920E-02 0.  1.
        2   -1    0    0  501    0  0.00000000000E+00  0.00000000000E+00 -0.10747817400E+04  0.10747817400E+04  0.25500000920E-02 0. -1.
    10030    2    1    2    0    0  0.00000000000E+00  0.00000000000E+00 -0.40284495307E+03  0.17467185270E+04  0.16996298292E+04 0.  0.
        5    1    3    3  502    0 -0.65745386571E+03  0.53165799149E+03 -0.28897363835E+03  0.89355115081E+03  0.46999998093E+01 0. -1.
       -5    1    3    3    0  502  0.65745386571E+03 -0.53165799149E+03 -0.11387131471E+03  0.85316737617E+03  0.46999998093E+01 0.  1.
</event>
<event>
 5   0  0.7461128E-06  0.1700074E+04  0.7818609E-02  0.8761322E-01
       -1   -1    0    0    0  501  0.00000000000E+00  0.00000000000E+00  0.45891948091E+03  0.45891948093E+03  0.50400001928E-02 0.  1.
        1   -1    0    0  501    0  0.00000000000E+00  0.00000000000E+00 -0.15744876804E+04  0.15744876805E+04  0.50400001928E-02 0. -1.
    10030    2    1    2    0    0  0.00000000000E+00  0.00000000000E+00 -0.11155681995E+04  0.20334071614E+04  0.17000741973E+04 0.  0.
        3    1    3    3  502    0 -0.54207387821E+03 -0.59858370950E+03 -0.87517445666E+03  0.11908303349E+04  0.10100000352E+00 0. -1.
       -3    1    3    3    0  502  0.54207387821E+03  0.59858370950E+03 -0.24039374288E+03  0.84257682649E+03  0.10100000352E+00 0.  1.
</event>
<event>
 5   0  0.1441756E-05  0.1700037E+04  0.7818609E-02  0.8761343E-01
       -2   -1    0    0    0  501  0.00000000000E+00  0.00000000000E+00  0.67366060567E+03  0.67366060567E+03  0.25500000920E-02 0. -1.
        2   -1    0    0  501    0  0.00000000000E+00  0.00000000000E+00 -0.10725457621E+04  0.10725457621E+04  0.25500000920E-02 0.  1.
    10030    2    1    2    0    0  0.00000000000E+00  0.00000000000E+00 -0.39888515640E+03  0.17462063677E+04  0.17000374439E+04 0.  0.
        5    1    3    3  502    0  0.82223311823E+03 -0.19351699957E+03 -0.29685269279E+03  0.89535453372E+03  0.46999998093E+01 0.  1.
       -5    1    3    3    0  502 -0.82223311823E+03  0.19351699957E+03 -0.10203246361E+03  0.85085183402E+03  0.46999998093E+01 0. -1.
</event>
<event>
 5   0  0.7461128E-06  0.1699675E+04  0.7818609E-02  0.8761550E-01
        1   -1    0    0  501    0  0.00000000000E+00  0.00000000000E+00  0.54869981176E+03  0.54869981178E+03  0.50400001928E-02 0. -1.
       -1   -1    0    0    0  501  0.00000000000E+00  0.00000000000E+00 -0.13162459581E+04  0.13162459581E+04  0.50400001928E-02 0.  1.
    10030    2    1    2    0    0  0.00000000000E+00  0.00000000000E+00 -0.76754614631E+03  0.18649457699E+04  0.16996751566E+04 0.  0.
        3    1    3    3  502    0  0.39699891777E+03  0.50390777957E+03 -0.99537072798E+03  0.11841849887E+04  0.10100000352E+00 0.  1.
       -3    1    3    3    0  502 -0.39699891777E+03 -0.50390777957E+03  0.22782458167E+03  0.68076078121E+03  0.10100000352E+00 0. -1.
</event>
<event>
 5   0  0.1419012E-05  0.1699700E+04  0.7818609E-02  0.8761536E-01
       -2   -1    0    0    0  501  0.00000000000E+00  0.00000000000E+00  0.32200705635E+03  0.32200705636E+03  0.25500000920E-02 0. -1.
        2   -1    0    0  501    0  0.00000000000E+00  0.00000000000E+00 -0.22429475095E+04  0.22429475095E+04  0.25500000920E-02 0.  1.
    10030    2    1    2    0    0  0.00000000000E+00  0.00000000000E+00 -0.19209404532E+04  0.25649545659E+04  0.16996998854E+04 0.  0.
        4    1    3    3  502    0 -0.29399955678E+03  0.27016745440E+03  0.17164617179E+03  0.43461501814E+03  0.12699999809E+01 0. -1.
       -4    1    3    3    0  502  0.29399955678E+03 -0.27016745440E+03 -0.20925866250E+04  0.21303395477E+04  0.12699999809E+01 0.  1.
</event>
<event>
 5   0  0.7455669E-06  0.1701910E+04  0.7818609E-02  0.8760276E-01
        1   -1    0    0  501    0  0.00000000000E+00  0.00000000000E+00  0.16906664173E+04  0.16906664173E+04  0.50400001928E-02 0.  1.
       -1   -1    0    0    0  501  0.00000000000E+00  0.00000000000E+00 -0.42830705402E+03  0.42830705405E+03  0.50400001928E-02 0. -1.
    10030    2    1    2    0    0  0.00000000000E+00  0.00000000000E+00  0.12623593633E+04  0.21189734713E+04  0.17019099301E+04 0.  0.
        4    1    3    3  502    0 -0.82300911767E+03  0.20777182245E+03  0.70598260783E+03  0.11040499053E+04  0.12699999809E+01 0.  1.
       -4    1    3    3    0  502  0.82300911767E+03 -0.20777182245E+03  0.55637675543E+03  0.10149235660E+04  0.12699999809E+01 0. -1.
</event>
<event>
 5   0  0.1419012E-05  0.1700671E+04  0.7818609E-02  0.8760982E-01
        2   -1    0    0  501    0  0.00000000000E+00  0.00000000000E+00  0.24281167845E+04  0.24281167845E+04  0.25500000920E-02 0. -1.
       -2   -1    0    0    0  501  0.00000000000E+00  0.00000000000E+00 -0.29779079981E+03  0.29779079982E+03  0.25500000920E-02 0.  1.
    10030    2    1    2    0    0  0.00000000000E+00  0.00000000000E+00  0.21303259847E+04  0.27259075843E+04  0.17006714431E+04 0.  0.
        4    1    3    3  502    0  0.79155748572E+03 -0.30689896386E+03  0.11423494316E+04  0.14232758215E+04  0.12699999809E+01 0.  1.
       -4    1    3    3    0  502 -0.79155748572E+03  0.30689896386E+03  0.98797655314E+03  0.13026317629E+04  0.12699999809E+01 0. -1.
</event>
<event>
 5   0  0.1435301E-05  0.1700841E+04  0.7818609E-02  0.8760885E-01
       -2   -1    0    0    0  501  0.00000000000E+00  0.00000000000E+00  0.97024642507E+03  0.97024642507E+03  0.25500000920E-02 0.  1.
        2   -1    0    0  501    0  0.00000000000E+00  0.00000000000E+00 -0.74539349053E+03  0.74539349054E+03  0.25500000920E-02 0. -1.
    10030    2    1    2    0    0  0.00000000000E+00  0.00000000000E+00  0.22485293454E+03  0.17156399156E+04  0.17008414029E+04 0.  0.
        2    1    3    3  502    0  0.49190156073E+03  0.69308874665E+03  0.14228491579E+03  0.86173322638E+03  0.25500000920E-02 0. -1.
       -2    1    3    3    0  502 -0.49190156073E+03 -0.69308874665E+03  0.82568018749E+02  0.85390668923E+03  0.25500000920E-02 0.  1.
</event>
<event>
 5   0  0.7082527E-06  0.1700246E+04  0.7818609E-02  0.8761224E-01
        1   -1    0    0  501    0  0.00000000000E+00  0.00000000000E+00  0.62959130905E+03  0.62959130907E+03  0.50400001928E-02 0. -1.
       -1   -1    0    0    0  501  0.00000000000E+00  0.00000000000E+00 -0.11479023262E+04  0.11479023262E+04  0.50400001928E-02 0.  1.
    10030    2    1    2    0    0  0.00000000000E+00  0.00000000000E+00 -0.51831101716E+03  0.17774936353E+04  0.17002462507E+04 0.  0.
        1    1    3    3  502    0 -0.61274348507E+02 -0.71896456147E+00 -0.11455904380E+04  0.11472281876E+04  0.50400001928E-02 0.  1.
       -1    1    3    3    0  502  0.61274348507E+02  0.71896456147E+00  0.62727942086E+03  0.63026544770E+03  0.50400001928E-02 0. -1.
</event>
<event>
 5   0  0.5229750E-06  0.1699342E+04  0.7818609E-02  0.8761740E-01
       -3   -1    0    0    0  501  0.00000000000E+00  0.00000000000E+00  0.91830391393E+03  0.91830391948E+03  0.10100000352E+00 0. -1.
        3   -1    0    0  501    0  0.00000000000E+00  0.00000000000E+00 -0.78616758097E+03  0.78616758745E+03  0.10100000352E+00 0.  1.
    10030    2    1    2    0    0  0.00000000000E+00  0.00000000000E+00  0.13213633296E+03  0.17044715069E+04  0.16993419631E+04 0.  0.
        1    1    3    3  502    0  0.48460421262E+03 -0.23010296996E+03  0.72695933038E+03  0.90347024729E+03  0.50400001928E-02 0. -1.
       -1    1    3    3    0  502 -0.48460421262E+03  0.23010296996E+03 -0.59482299742E+03  0.80100125965E+03  0.50400001928E-02 0.  1.
</event>
<event>
 5   0  0.7082527E-06  0.1699731E+04  0.7818609E-02  0.8761518E-01
       -1   -1    0    0    0  501  0.00000000000E+00  0.00000000000E+00  0.11181169459E+04  0.11181169459E+04  0.50400001928E-02 0.  1.
        1   -1    0    0  501    0  0.00000000000E+00  0.00000000000E+00 -0.64597110499E+03  0.64597110501E+03  0.50400001928E-02 0. -1.
    10030    2    1    2    0    0  0.00000000000E+00  0.00000000000E+00  0.47214584089E+03  0.17640880509E+04  0.16997308482E+04 0.  0.
        1    1    3    3  502    0 -0.58989272972E+02 -0.29791901969E+03  0.10598746563E+04  0.11025288040E+04  0.50400001928E-02 0.  1.
       -1    1    3    3    0  502  0.58989272972E+02  0.29791901969E+03 -0.58772881542E+03  0.66155924687E+03  0.50400001928E-02 0. -1.
</event>
<event>
 5   0  0.1441756E-05  0.1701332E+04  0.7818609E-02  0.8760605E-01
       -2   -1    0    0    0  501  0.00000000000E+00  0.00000000000E+00  0.52562363891E+03  0.52562363892E+03  0.25500000920E-02 0.  1.
        2   -1    0    0  501    0  0.00000000000E+00  0.00000000000E+00 -0.13767121302E+04  0.13767121302E+04  0.25500000920E-02 0. -1.
    10030    2    1    2    0    0  0.00000000000E+00  0.00000000000E+00 -0.85108849126E+03  0.19023357691E+04  0.17013317602E+04 0.  0.
        5    1    3    3  502    0 -0.71521849146E+02  0.81986571423E+03 -0.66617983987E+03  0.10588261582E+04  0.46999998093E+01 0. -1.
       -5    1    3    3    0  502  0.71521849146E+02 -0.81986571423E+03 -0.18490865138E+03  0.84350961087E+03  0.46999998093E+01 0.  1.
</event>
<event>
 5   0  0.1423543E-05  0.1699981E+04  0.7818609E-02  0.8761375E-01
       -2   -1    0    0    0  501  0.00000000000E+00  0.00000000000E+00  0.28471442664E+03  0.28471442665E+03  0.25500000920E-02 0.  1.
        2   -1    0    0  501    0  0.00000000000E+00  0.00000000000E+00 -0.25375722882E+04  0.25375722882E+04  0.25500000920E-02 0. -1.
    10030    2    1    2    0    0  0.00000000000E+00  0.00000000000E+00 -0.22528578616E+04  0.28222867149E+04  0.16999805165E+04 0.  0.
        3    1    3    3  502    0 -0.42911231087E+03 -0.14223917624E+03  0.68576504871E+02  0.45724403311E+03  0.10100000352E+00 0.  1.
       -3    1    3    3    0  502  0.42911231087E+03  0.14223917624E+03 -0.23214343665E+04  0.23650426818E+04  0.10100000352E+00 0. -1.
</event>
<event>
 5   0  0.1441756E-05  0.1699507E+04  0.7818609E-02  0.8761645E-01
       -2   -1    0    0    0  501  0.00000000000E+00  0.00000000000E+00  0.94575626901E+03  0.94575626902E+03  0.25500000920E-02 0. -1.
        2   -1    0    0  501    0  0.00000000000E+00  0.00000000000E+00 -0.76349618057E+03  0.76349618058E+03  0.25500000920E-02 0.  1.
    10030    2    1    2    0    0  0.00000000000E+00  0.00000000000E+00  0.18226008844E+03  0.17092524496E+04  0.16995073394E+04 0.  0.
        5    1    3    3  502    0 -0.14636134613E+03 -0.67205016793E+03  0.59297637179E+03  0.90813883264E+03  0.46999998093E+01 0. -1.
       -5    1    3    3    0  502  0.14636134613E+03  0.67205016793E+03 -0.41071628335E+03  0.80111361695E+03  0.46999998093E+01 0.  1.
</event>
<event>
 5   0  0.7476457E-06  0.1703500E+04  0.7818609E-02  0.8759371E-01
       -1   -1    0    0    0  501  0.00000000000E+00  0.00000000000E+00  0.86200616460E+03  0.86200616462E+03  0.50400001928E-02 0. -1.
        1   -1    0    0  501    0  0.00000000000E+00  0.00000000000E+00 -0.84161539577E+03  0.84161539578E+03  0.50400001928E-02 0.  1.
    10030    2    1    2    0    0  0.00000000000E+00  0.00000000000E+00  0.20390768836E+02  0.17036215604E+04  0.17034995267E+04 0.  0.
        2    1    3    3  502    0  0.25676104967E+03 -0.30219632073E+03 -0.74366814559E+03  0.84278773345E+03  0.25500000920E-02 0.  1.
       -2    1    3    3    0  502 -0.25676104967E+03  0.30219632073E+03  0.76405891443E+03  0.86083382694E+03  0.25500000920E-02 0. -1.
</event>
<event>
 5   0  0.1419012E-05  0.1700029E+04  0.7818609E-02  0.8761348E-01
       -2   -1    0    0    0  501  0.00000000000E+00  0.00000000000E+00  0.44164100888E+03  0.44164100889E+03  0.25500000920E-02 0.  1.
        2   -1    0    0  501    0  0.00000000000E+00  0.00000000000E+00 -0.16359995268E+04  0.16359995268E+04  0.25500000920E-02 0. -1.
    10030    2    1    2    0    0  0.00000000000E+00  0.00000000000E+00 -0.11943585179E+04  0.20776405357E+04  0.17000288016E+04 0.  0.
        4    1    3    3  502    0 -0.79095285242E+03 -0.25956879887E+02 -0.97631787200E+03  0.12567730004E+04  0.12699999809E+01 0. -1.
       -4    1    3    3    0  502  0.79095285242E+03  0.25956879887E+02 -0.21804064592E+03  0.82086753532E+03  0.12699999809E+01 0.  1.
</event>
<event>
 5   0  0.7082527E-06  0.1697841E+04  0.7818609E-02  0.8762597E-01
        1   -1    0    0  501    0  0.00000000000E+00  0.00000000000E+00  0.12612058771E+04  0.12612058771E+04  0.50400001928E-02 0. -1.
       -1   -1    0    0    0  501  0.00000000000E+00  0.00000000000E+00 -0.57141009178E+03  0.57141009180E+03  0.50400001928E-02 0.  1.
    10030    2    1    2    0    0  0.00000000000E+00  0.00000000000E+00  0.68979578531E+03  0.18326159689E+04  0.16978407063E+04 0.  0.
        1    1    3    3  502    0 -0.56459024283E+03  0.83491274550E+02 -0.33342448399E+03  0.66098776219E+03  0.50400001928E-02 0.  1.
       -1    1    3    3    0  502  0.56459024283E+03 -0.83491274550E+02  0.10232202693E+04  0.11716282067E+04  0.50400001928E-02 0. -1.
</event>
<event>
 5   0  0.1423543E-05  0.1699744E+04  0.7818609E-02  0.8761510E-01
        2   -1    0    0  501    0  0.00000000000E+00  0.00000000000E+00  0.13181661139E+04  0.13181661139E+04  0.25500000920E-02 0.  1.
       -2   -1    0    0    0  501  0.00000000000E+00  0.00000000000E+00 -0.54794484966E+03  0.54794484967E+03  0.25500000920E-02 0. -1.
    10030    2    1    2    0    0  0.00000000000E+00  0.00000000000E+00  0.77022126421E+03  0.18661109635E+04  0.16997439020E+04 0.  0.
        3    1    3    3  502    0  0.15346440374E+03 -0.57467922941E+03  0.10515457259E+04  0.12081208399E+04  0.10100000352E+00 0.  1.
       -3    1    3    3    0  502 -0.15346440374E+03  0.57467922941E+03 -0.28132446166E+03  0.65799012367E+03  0.10100000352E+00 0. -1.
</event>
<event>
 5   0  0.7082527E-06  0.1699509E+04  0.7818609E-02  0.8761644E-01
       -1   -1    0    0    0  501  0.00000000000E+00  0.00000000000E+00  0.40646614141E+03  0.40646614145E+03  0.50400001928E-02 0.  1.
        1   -1    0    0  501    0  0.00000000000E+00  0.00000000000E+00 -0.17764893407E+04  0.17764893407E+04  0.50400001928E-02 0. -1.
    10030    2    1    2    0    0  0.00000000000E+00  0.00000000000E+00 -0.13700231993E+04  0.21829554821E+04  0.16995090675E+04 0.  0.
        1    1    3    3  502    0  0.49504691075E+03 -0.12803585277E+03 -0.15567615145E+04  0.16385881229E+04  0.50400001928E-02 0. -1.
       -1    1    3    3    0  502 -0.49504691075E+03  0.12803585277E+03  0.18673831521E+03  0.54436735926E+03  0.50400001928E-02 0.  1.
</event>
<event>
 5   0  0.1441756E-05  0.1700517E+04  0.7818609E-02  0.8761070E-01
        2   -1    0    0  501    0  0.00000000000E+00  0.00000000000E+00  0.84845995420E+03  0.84845995421E+03  0.25500000920E-02 0. -1.
       -2   -1    0    0    0  501  0.00000000000E+00  0.00000000000E+00 -0.85206081489E+03  0.85206081489E+03  0.25500000920E-02 0.  1.
    10030    2    1    2    0    0  0.00000000000E+00  0.00000000000E+00 -0.36008606857E+01  0.17005207691E+04  0.17005169567E+04 0.  0.
        5    1    3    3  502    0  0.98441281459E+02  0.16187884193E+03  0.82706929713E+03  0.84850524902E+03  0.46999998093E+01 0. -1.
       -5    1    3    3    0  502 -0.98441281459E+02 -0.16187884193E+03 -0.83067015782E+03  0.85201552007E+03  0.46999998093E+01 0.  1.
</event>
<event>
 5   0  0.5229750E-06  0.1700003E+04  0.7818609E-02  0.8761363E-01
       -3   -1    0    0    0  501  0.00000000000E+00  0.00000000000E+00  0.11327874419E+04  0.11327874464E+04  0.10100000352E+00 0. -1.
        3   -1    0    0  501    0  0.00000000000E+00  0.00000000000E+00 -0.63780922382E+03  0.63780923181E+03  0.10100000352E+00 0.  1.
    10030    2    1    2    0    0  0.00000000000E+00  0.00000000000E+00  0.49497821809E+03  0.17705966782E+04  0.17000026943E+04 0.  0.
        3    1    3    3  502    0  0.55533645341E+03 -0.57987133362E+03  0.53809709460E+03  0.96653910084E+03  0.10100000352E+00 0. -1.
       -3    1    3    3    0  502 -0.55533645341E+03  0.57987133362E+03 -0.43118876509E+02  0.80405757738E+03  0.10100000352E+00 0.  1.
</event>
<event>
 5   0  0.7455669E-06  0.1700065E+04  0.7818609E-02  0.8761327E-01
       -1   -1    0    0    0  501  0.00000000000E+00  0.00000000000E+00  0.50820894712E+03  0.50820894714E+03  0.50400001928E-02 0.  1.
        1   -1    0    0  501    0  0.00000000000E+00  0.00000000000E+00 -0.14217683474E+04  0.14217683474E+04  0.50400001928E-02 0. -1.
    10030    2    1    2    0    0  0.00000000000E+00  0.00000000000E+00 -0.91355940027E+03  0.19299772945E+04  0.17000651692E+04 0.  0.
        4    1    3    3  502    0 -0.13093913296E+03 -0.32869037154E+03  0.42064292832E+03  0.54965853302E+03  0.12699999809E+01 0.  1.
       -4    1    3    3    0  502  0.13093913296E+03  0.32869037154E+03 -0.13342023286E+04  0.13803187615E+04  0.12699999809E+01 0. -1.
</event>
<event>
 5   0  0.1435301E-05  0.1699890E+04  0.7818609E-02  0.8761427E-01
       -2   -1    0    0    0  501  0.00000000000E+00  0.00000000000E+00  0.10781574355E+04  0.10781574355E+04  0.25500000920E-02 0. -1.
        2   -1    0    0  501    0  0.00000000000E+00  0.00000000000E+00 -0.67003815303E+03  0.67003815303E+03  0.25500000920E-02 0.  1.
    10030    2    1    2    0    0  0.00000000000E+00  0.00000000000E+00  0.40811928246E+03  0.17481955885E+04  0.16998901338E+04 0.  0.
        2    1    3    3  502    0 -0.20058014098E+03  0.41552239417E+03 -0.53002782461E+03  0.70272380626E+03  0.25500000920E-02 0.  1.
       -2    1    3    3    0  502  0.20058014098E+03 -0.41552239417E+03  0.93814710707E+03  0.10454717823E+04  0.25500000920E-02 0. -1.
</event>
<event>
 5   0  0.1423543E-05  0.1698231E+04  0.7818609E-02  0.8762374E-01
        2   -1    0    0  501    0  0.00000000000E+00  0.00000000000E+00  0.73685442945E+03  0.73685442945E+03  0.25500000920E-02 0. -1.
       -2   -1    0    0    0  501  0.00000000000E+00  0.00000000000E+00 -0.97847944428E+03  0.97847944428E+03  0.25500000920E-02 0.  1.
    10030    2    1    2    0    0  0.00000000000E+00  0.00000000000E+00 -0.24162501483E+03  0.17153338737E+04  0.16982307413E+04 0.  0.
        3    1    3    3  502    0 -0.40191442360E+03  0.60860176234E+03 -0.56000834638E+03  0.91953285273E+03  0.10100000352E+00 0.  1.
       -3    1    3    3    0  502  0.40191442360E+03 -0.60860176234E+03  0.31838333155E+03  0.79580102100E+03  0.10100000352E+00 0. -1.
</event>
<event>
 5   0  0.7583716E-06  0.1700061E+04  0.7818609E-02  0.8761330E-01
        1   -1    0    0  501    0  0.00000000000E+00  0.00000000000E+00  0.18552290471E+04  0.18552290472E+04  0.50400001928E-02 0.  1.
       -1   -1    0    0    0  501  0.00000000000E+00  0.00000000000E+00 -0.38946777843E+03  0.38946777846E+03  0.50400001928E-02 0. -1.
    10030    2    1    2    0    0  0.00000000000E+00  0.00000000000E+00  0.14657612687E+04  0.22446968256E+04  0.17000610995E+04 0.  0.
        5    1    3    3  502    0 -0.37865678863E+03  0.13516840023E+03 -0.25596275464E+03  0.47664502699E+03  0.46999998093E+01 0. -1.
       -5    1    3    3    0  502  0.37865678863E+03 -0.13516840023E+03  0.17217240234E+04  0.17680517986E+04  0.46999998093E+01 0.  1.
</event>
<event>
 5   0  0.5229750E-06  0.1700029E+04  0.7818609E-02  0.8761348E-01
        4   -1    0    0  501    0  0.00000000000E+00  0.00000000000E+00  0.12528525691E+04  0.12528532128E+04  0.12699999809E+01 0. -1.
       -4   -1    0    0    0  501  0.00000000000E+00  0.00000000000E+00 -0.57670203346E+03  0.57670343184E+03  0.12699999809E+01 0.  1.
    10030    2    1    2    0    0  0.00000000000E+00  0.00000000000E+00  0.67615053561E+03  0.18295566446E+04  0.17000288142E+04 0.  0.
        4    1    3    3  502    0  0.17071734481E+03  0.79584730244E+03  0.74451084487E+02  0.81735054750E+03  0.12699999809E+01 0.  1.
       -4    1    3    3    0  502 -0.17071734481E+03 -0.79584730244E+03  0.60169945112E+03  0.10122060971E+04  0.12699999809E+01 0. -1.
</event>
<event>
 5   0  0.1419012E-05  0.1700001E+04  0.7818609E-02  0.8761364E-01
        2   -1    0    0  501    0  0.00000000000E+00  0.00000000000E+00  0.67801050272E+03  0.67801050273E+03  0.25500000920E-02 0.  1.
       -2   -1    0    0    0  501  0.00000000000E+00  0.00000000000E+00 -0.10656192648E+04  0.10656192648E+04  0.25500000920E-02 0. -1.
    10030    2    1    2    0    0  0.00000000000E+00  0.00000000000E+00 -0.38760876207E+03  0.17436297675E+04  0.17000012393E+04 0.  0.
        4    1    3    3  502    0  0.58062291028E+03 -0.22316516649E+03 -0.78795841491E+03  0.10038952794E+04  0.12699999809E+01 0. -1.
       -4    1    3    3    0  502 -0.58062291028E+03  0.22316516649E+03  0.40034965284E+03  0.73973448812E+03  0.12699999809E+01 0.  1.
</event>
<event>
 5   0  0.1435301E-05  0.1699509E+04  0.7818609E-02  0.8761644E-01
        2   -1    0    0  501    0  0.00000000000E+00  0.00000000000E+00  0.97388225770E+03  0.97388225770E+03  0.25500000920E-02 0. -1.
       -2   -1    0    0    0  501  0.00000000000E+00  0.00000000000E+00 -0.74144787927E+03  0.74144787927E+03  0.25500000920E-02 0.  1.
    10030    2    1    2    0    0  0.00000000000E+00  0.00000000000E+00  0.23243437843E+03  0.17153301370E+04  0.16995092640E+04 0.  0.
        2    1    3    3  502    0  0.49308163305E+03  0.15745402784E+03 -0.56397152098E+03  0.76549666506E+03  0.25500000920E-02 0.  1.
       -2    1    3    3    0  502 -0.49308163305E+03 -0.15745402784E+03  0.79640589941E+03  0.94983347191E+03  0.25500000920E-02 0. -1.
</event>
<event>
 5   0  0.7476457E-06  0.1699931E+04  0.7818609E-02  0.8761404E-01
        1   -1    0    0  501    0  0.00000000000E+00  0.00000000000E+00  0.12870791170E+04  0.12870791170E+04  0.50400001928E-02 0. -1.
       -1   -1    0    0    0  501  0.00000000000E+00  0.00000000000E+00 -0.56130286346E+03  0.56130286349E+03  0.50400001928E-02 0.  1.
    10030    2    1    2    0    0  0.00000000000E+00  0.00000000000E+00  0.72577625355E+03  0.18483819805E+04  0.16999308150E+04 0.  0.
        2    1    3    3  502    0  0.55406826016E+03  0.62232688334E+03  0.18042815340E+03  0.85254718649E+03  0.25500000920E-02 0.  1.
       -2    1    3    3    0  502 -0.55406826016E+03 -0.62232688334E+03  0.54534810015E+03  0.99583479402E+03  0.25500000920E-02 0. -1.
</event>
<event>
 5   0  0.1435301E-05  0.1700577E+04  0.7818609E-02  0.8761035E-01
        2   -1    0    0  501    0  0.00000000000E+00  0.00000000000E+00  0.21451558670E+04  0.21451558670E+04  0.25500000920E-02 0. -1.
       -2   -1    0    0    0  501  0.00000000000E+00  0.00000000000E+00 -0.33703396495E+03  0.33703396496E+03  0.25500000920E-02 0.  1.
    10030    2    1    2    0    0  0.00000000000E+00  0.00000000000E+00  0.18081219021E+04  0.24821898320E+04  0.17005768284E+04 0.  0.
        2    1    3    3  502    0 -0.75702541311E+03 -0.26276861778E+03  0.48901737873E+03  0.93876132180E+03  0.25500000920E-02 0. -1.
       -2    1    3    3    0  502  0.75702541311E+03  0.26276861778E+03  0.13191045233E+04  0.15434285102E+04  0.25500000920E-02 0.  1.
</event>
<event>
 5   0  0.1441756E-05  0.1702855E+04  0.7818609E-02  0.8759738E-01
       -2   -1    0    0    0  501  0.00000000000E+00  0.00000000000E+00  0.67511136996E+03  0.67511136996E+03  0.25500000920E-02 0. -1.
        2   -1    0    0  501    0  0.00000000000E+00  0.00000000000E+00 -0.10737918651E+04  0.10737918651E+04  0.25500000920E-02 0.  1.
    10030    2    1    2    0    0  0.00000000000E+00  0.00000000000E+00 -0.39868049511E+03  0.17489032350E+04  0.17028553633E+04 0.  0.
        5    1    3    3  502    0  0.10804477907E+02 -0.59438420043E+03  0.42664785609E+03  0.73175118556E+03  0.46999998093E+01 0. -1.
       -5    1    3    3    0  502 -0.10804477907E+02  0.59438420043E+03 -0.82532835120E+03  0.10171520495E+04  0.46999998093E+01 0.  1.
</event>
<event>
 5   0  0.1419012E-05  0.1699979E+04  0.7818609E-02  0.8761376E-01
        2   -1    0    0  501    0  0.00000000000E+00  0.00000000000E+00  0.14768269249E+04  0.14768269249E+04  0.25500000920E-02 0.  1.
       -2   -1    0    0    0  501  0.00000000000E+00  0.00000000000E+00 -0.48921230467E+03  0.48921230467E+03  0.25500000920E-02 0. -1.
    10030    2    1    2    0    0  0.00000000000E+00  0.00000000000E+00  0.98761462021E+03  0.19660392295E+04  0.16999787099E+04 0.  0.
        4    1    3    3  502    0  0.72106669933E+03  0.12575899748E+03  0.99355772598E+03  0.12340628339E+04  0.12699999809E+01 0.  1.
       -4    1    3    3    0  502 -0.72106669933E+03 -0.12575899748E+03 -0.59431057733E+01  0.73197639562E+03  0.12699999809E+01 0. -1.
</event>
<event>
 5   0  0.1435301E-05  0.1700824E+04  0.7818609E-02  0.8760894E-01
        2   -1    0    0  501    0  0.00000000000E+00  0.00000000000E+00  0.16085607912E+04  0.16085607912E+04  0.25500000920E-02 0.  1.
       -2   -1    0    0    0  501  0.00000000000E+00  0.00000000000E+00 -0.44959485621E+03  0.44959485622E+03  0.25500000920E-02 0. -1.
    10030    2    1    2    0    0  0.00000000000E+00  0.00000000000E+00  0.11589659350E+04  0.20581556474E+04  0.17008241033E+04 0.  0.
        2    1    3    3  502    0 -0.25787514966E+03  0.22499040313E+03 -0.36258866596E+03  0.49858882358E+03  0.25500000920E-02 0. -1.
       -2    1    3    3    0  502  0.25787514966E+03 -0.22499040313E+03  0.15215546009E+04  0.15595668238E+04  0.25500000920E-02 0.  1.
</event>
<event>
 5   0  0.1441756E-05  0.1698071E+04  0.7818609E-02  0.8762466E-01
       -2   -1    0    0    0  501  0.00000000000E+00  0.00000000000E+00  0.40634214048E+03  0.40634214049E+03  0.25500000920E-02 0.  1.
        2   -1    0    0  501    0  0.00000000000E+00  0.00000000000E+00 -0.17740243995E+04  0.17740243995E+04  0.25500000920E-02 0. -1.
    10030    2    1    2    0    0  0.00000000000E+00  0.00000000000E+00 -0.13676822590E+04  0.21803665400E+04  0.16980705189E+04 0.  0.
        5    1    3    3  502    0  0.83342903241E+03 -0.10241084586E+03 -0.84496897838E+03  0.11912542121E+04  0.46999998093E+01 0.  1.
       -5    1    3    3    0  502 -0.83342903241E+03  0.10241084586E+03 -0.52271328064E+03  0.98911232788E+03  0.46999998093E+01 0. -1.
</event>
<event>
 5   0  0.7082527E-06  0.1700153E+04  0.7818609E-02  0.8761277E-01
        1   -1    0    0  501    0  0.00000000000E+00  0.00000000000E+00  0.30208998019E+03  0.30208998023E+03  0.50400001928E-02 0. -1.
       -1   -1    0    0    0  501  0.00000000000E+00  0.00000000000E+00 -0.23921022972E+04  0.23921022972E+04  0.50400001928E-02 0.  1.
    10030    2    1    2    0    0  0.00000000000E+00  0.00000000000E+00 -0.20900123170E+04  0.26941922774E+04  0.17001530939E+04 0.  0.
        1    1    3    3  502    0 -0.33577463113E+03  0.77536104387E+03 -0.11928215845E+04  0.14617635526E+04  0.50400001928E-02 0.  1.
       -1    1    3    3    0  502  0.33577463113E+03 -0.77536104387E+03 -0.89719073252E+03  0.12324287248E+04  0.50400001928E-02 0. -1.
</event>
<event>
 5   0  0.1423543E-05  0.1699765E+04  0.7818609E-02  0.8761499E-01
        2   -1    0    0  501    0  0.00000000000E+00  0.00000000000E+00  0.14703116768E+04  0.14703116768E+04  0.25500000920E-02 0. -1.
       -2   -1    0    0    0  501  0.00000000000E+00  0.00000000000E+00 -0.49125639075E+03  0.49125639076E+03  0.25500000920E-02 0.  1.
    10030    2    1    2    0    0  0.00000000000E+00  0.00000000000E+00  0.97905528605E+03  0.19615680676E+04  0.16997646986E+04 0.  0.
        3    1    3    3  502    0 -0.39413251193E+02  0.20339311783E+03  0.14407241871E+04  0.14555440077E+04  0.10100000352E+00 0. -1.
       -3    1    3    3    0  502  0.39413251193E+02 -0.20339311783E+03 -0.46166890108E+03  0.50602405987E+03  0.10100000352E+00 0.  1.
</event>
<event>
 5   0  0.7082527E-06  0.1700001E+04  0.7818609E-02  0.8761364E-01
       -1   -1    0    0    0  501  0.00000000000E+00  0.00000000000E+00  0.12119214449E+04  0.12119214449E+04  0.50400001928E-02 0. -1.
        1   -1    0    0  501    0  0.00000000000E+00  0.00000000000E+00 -0.59616112911E+03  0.59616112913E+03  0.50400001928E-02 0.  1.
    10030    2    1    2    0    0  0.00000000000E+00  0.00000000000E+00  0.61576031577E+03  0.18080825740E+04  0.17000005377E+04 0.  0.
        1    1    3    3  502    0  0.24120948121E+03  0.43252755208E+03 -0.42686523921E+03  0.65381651065E+03  0.50400001928E-02 0.  1.
       -1    1    3    3    0  502 -0.24120948121E+03 -0.43252755208E+03  0.10426255550E+04  0.11542660634E+04  0.50400001928E-02 0. -1.
</event>
<event>
 5   0  0.1435301E-05  0.1699897E+04  0.7818609E-02  0.8761423E-01
        2   -1    0    0  501    0  0.00000000000E+00  0.00000000000E+00  0.85611641194E+03  0.85611641194E+03  0.25500000920E-02 0. -1.
       -2   -1    0    0    0  501  0.00000000000E+00  0.00000000000E+00 -0.84382472618E+03  0.84382472619E+03  0.25500000920E-02 0.  1.
    10030    2    1    2    0    0  0.00000000000E+00  0.00000000000E+00  0.12291685757E+02  0.16999411381E+04  0.16998966991E+04 0.  0.
        2    1    3    3  502    0  0.52855940102E+03  0.66406014846E+03 -0.39256618319E+02  0.84964227959E+03  0.25500000920E-02 0. -1.
       -2    1    3    3    0  502 -0.52855940102E+03 -0.66406014846E+03  0.51548304077E+02  0.85029885854E+03  0.25500000920E-02 0.  1.
</event>
<event>
 5   0  0.1441756E-05  0.1700029E+04  0.7818609E-02  0.8761348E-01
       -2   -1    0    0    0  501  0.00000000000E+00  0.00000000000E+00  0.82975381691E+03  0.82975381692E+03  0.25500000920E-02 0. -1.
        2   -1    0    0  501    0  0.00000000000E+00  0.00000000000E+00 -0.87076984423E+03  0.87076984424E+03  0.25500000920E-02 0.  1.
    10030    2    1    2    0    0  0.00000000000E+00  0.00000000000E+00 -0.41016027319E+02  0.17005236612E+04  0.17000289432E+04 0.  0.
        5    1    3    3  502    0  0.19720507556E+03  0.69188690966E+03 -0.47330426895E+03  0.86118311559E+03  0.46999998093E+01 0.  1.
       -5    1    3    3    0  502 -0.19720507556E+03 -0.69188690966E+03  0.43228824163E+03  0.83934054556E+03  0.46999998093E+01 0. -1.
</event>
<event>
 5   0  0.7082527E-06  0.1700356E+04  0.7818609E-02  0.8761161E-01
        1   -1    0    0  501    0  0.00000000000E+00  0.00000000000E+00  0.16205381869E+04  0.16205381869E+04  0.50400001928E-02 0.  1.
       -1   -1    0    0    0  501  0.00000000000E+00  0.00000000000E+00 -0.44602643028E+03  0.44602643031E+03  0.50400001928E-02 0. -1.
    10030    2    1    2    0    0  0.00000000000E+00  0.00000000000E+00  0.11745117566E+04  0.20665646172E+04  0.17003562717E+04 0.  0.
        1    1    3    3  502    0 -0.29371273342E+03 -0.64500442986E+03  0.11579695300E+04  0.13576418220E+04  0.50400001928E-02 0.  1.
       -1    1    3    3    0  502  0.29371273342E+03  0.64500442986E+03  0.16542226593E+02  0.70892279523E+03  0.50400001928E-02 0. -1.
</event>
<event>
 5   0  0.7455669E-06  0.1699761E+04  0.7818609E-02  0.8761501E-01
       -1   -1    0    0    0  501  0.00000000000E+00  0.00000000000E+00  0.54056494664E+03  0.54056494667E+03  0.50400001928E-02 0.  1.
        1   -1    0    0  501    0  0.00000000000E+00  0.00000000000E+00 -0.13361888401E+04  0.13361888401E+04  0.50400001928E-02 0. -1.
    10030    2    1    2    0    0  0.00000000000E+00  0.00000000000E+00 -0.79562389341E+03  0.18767537867E+04  0.16997609821E+04 0.  0.
        4    1    3    3  502    0 -0.43714808382E+03  0.50547149001E+03 -0.97755315969E+03  0.11841501878E+04  0.12699999809E+01 0. -1.
       -4    1    3    3    0  502  0.43714808382E+03 -0.50547149001E+03  0.18192926628E+03  0.69260359891E+03  0.12699999809E+01 0.  1.
</event>
<event>
 5   0  0.7583716E-06  0.1703422E+04  0.7818609E-02  0.8759415E-01
       -1   -1    0    0    0  501  0.00000000000E+00  0.00000000000E+00  0.79618606485E+03  0.79618606486E+03  0.50400001928E-02 0. -1.
        1   -1    0    0  501    0  0.00000000000E+00  0.00000000000E+00 -0.91110764594E+03  0.91110764595E+03  0.50400001928E-02 0.  1.
    10030    2    1    2    0    0  0.00000000000E+00  0.00000000000E+00 -0.11492158109E+03  0.17072937108E+04  0.17034215113E+04 0.  0.
        5    1    3    3  502    0 -0.21805151889E+03 -0.54370969933E+03 -0.67710756264E+03  0.89535660126E+03  0.46999998093E+01 0.  1.
       -5    1    3    3    0  502  0.21805151889E+03  0.54370969933E+03  0.56218598155E+03  0.81193710956E+03  0.46999998093E+01 0. -1.
</event>
<event>
 5   0  0.5229750E-06  0.1700507E+04  0.7818609E-02  0.8761076E-01
       -3   -1    0    0    0  501  0.00000000000E+00  0.00000000000E+00  0.15178463147E+04  0.15178463181E+04  0.10100000352E+00 0. -1.
        3   -1    0    0  501    0  0.00000000000E+00  0.00000000000E+00 -0.47628707725E+03  0.47628708796E+03  0.10100000352E+00 0.  1.
    10030    2    1    2    0    0  0.00000000000E+00  0.00000000000E+00  0.10415592375E+04  0.19941334061E+04  0.17005065116E+04 0.  0.
        3    1    3    3  502    0  0.75083735027E+03 -0.27003237200E+03  0.17637297204E+03  0.81717907704E+03  0.10100000352E+00 0.  1.
       -3    1    3    3    0  502 -0.75083735027E+03  0.27003237200E+03  0.86518626544E+03  0.11769543290E+04  0.10100000352E+00 0. -1.
</event>
<event>
 5   0  0.5229750E-06  0.1699863E+04  0.7818609E-02  0.8761442E-01
        3   -1    0    0  501    0  0.00000000000E+00  0.00000000000E+00  0.58938956566E+03  0.58938957431E+03  0.10100000352E+00 0.  1.
       -3   -1    0    0    0  501  0.00000000000E+00  0.00000000000E+00 -0.12256472744E+04  0.12256472786E+04  0.10100000352E+00 0. -1.
    10030    2    1    2    0    0  0.00000000000E+00  0.00000000000E+00 -0.63625770879E+03  0.18150368529E+04  0.16998632020E+04 0.  0.
        4    1    3    3  502    0 -0.83274667106E+02 -0.33489818261E+03  0.51121527040E+03  0.61679342449E+03  0.12699999809E+01 0.  1.
       -4    1    3    3    0  502  0.83274667106E+02  0.33489818261E+03 -0.11474729792E+04  0.11982434284E+04  0.12699999809E+01 0. -1.
</event>
<event>
 5   0  0.7461128E-06  0.1699061E+04  0.7818609E-02  0.8761900E-01
        1   -1    0    0  501    0  0.00000000000E+00  0.00000000000E+00  0.16746091890E+04  0.16746091890E+04  0.50400001928E-02 0.  1.
       -1   -1    0    0    0  501  0.00000000000E+00  0.00000000000E+00 -0.43096743934E+03  0.43096743937E+03  0.50400001928E-02 0. -1.
    10030    2    1    2    0    0  0.00000000000E+00  0.00000000000E+00  0.12436417497E+04  0.21055766284E+04  0.16990609573E+04 0.  0.
        3    1    3    3  502    0  0.44551164817E+03 -0.39358004201E+03 -0.13027372379E+03  0.60856974246E+03  0.10100000352E+00 0. -1.
       -3    1    3    3    0  502 -0.44551164817E+03  0.39358004201E+03  0.13739154734E+04  0.14970068859E+04  0.10100000352E+00 0.  1.
</event>
<event>
 5   0  0.1441756E-05  0.1700872E+04  0.7818609E-02  0.8760867E-01
       -2   -1    0    0    0  501  0.00000000000E+00  0.00000000000E+00  0.24341545520E+03  0.24341545522E+03  0.25500000920E-02 0. -1.
        2   -1    0    0  501    0  0.00000000000E+00  0.00000000000E+00 -0.29712226213E+04  0.29712226213E+04  0.25500000920E-02 0.  1.
    10030    2    1    2    0    0  0.00000000000E+00  0.00000000000E+00 -0.27278071661E+04  0.32146380765E+04  0.17008721373E+04 0.  0.
        5    1    3    3  502    0 -0.20840706447E+02  0.69552413715E+03 -0.43986998008E+03  0.82322284332E+03  0.46999998093E+01 0. -1.
       -5    1    3    3    0  502  0.20840706447E+02 -0.69552413715E+03 -0.22879371860E+04  0.23914152332E+04  0.46999998093E+01 0.  1.
</event>
<event>
 5   0  0.5229750E-06  0.1696509E+04  0.7818609E-02  0.8763358E-01
       -3   -1    0    0    0  501  0.00000000000E+00  0.00000000000E+00  0.64043601996E+03  0.64043602793E+03  0.10100000352E+00 0.  1.
        3   -1    0    0  501    0  0.00000000000E+00  0.00000000000E+00 -0.11235087433E+04  0.11235087479E+04  0.10100000352E+00 0. -1.
    10030    2    1    2    0    0  0.00000000000E+00  0.00000000000E+00 -0.48307272337E+03  0.17639447758E+04  0.16965087433E+04 0.  0.
        4    1    3    3  502    0  0.32623542262E+03  0.14494670180E+03  0.55852720561E+03  0.66286752043E+03  0.12699999809E+01 0.  1.
       -4    1    3    3    0  502 -0.32623542262E+03 -0.14494670180E+03 -0.10415999290E+04  0.11010772554E+04  0.12699999809E+01 0. -1.
</event>
<event>
 5   0  0.1441756E-05  0.1698524E+04  0.7818609E-02  0.8762207E-01
        2   -1    0    0  501    0  0.00000000000E+00  0.00000000000E+00  0.13920312250E+04  0.13920312250E+04  0.25500000920E-02 0. -1.
       -2   -1    0    0    0  501  0.00000000000E+00  0.00000000000E+00 -0.51812466806E+03  0.51812466807E+03  0.25500000920E-02 0.  1.
    10030    2    1    2    0    0  0.00000000000E+00  0.00000000000E+00  0.87390655695E+03  0.19101558931E+04  0.16985237312E+04 0.  0.
        5    1    3    3  502    0 -0.11460171681E+03  0.24679569776E+03 -0.46775881128E+03  0.54116731743E+03  0.46999998093E+01 0.  1.
       -5    1    3    3    0  502  0.11460171681E+03 -0.24679569776E+03  0.13416653682E+04  0.13689885756E+04  0.46999998093E+01 0. -1.
</event>
<event>
 5   0  0.7455669E-06  0.1699690E+04  0.7818609E-02  0.8761541E-01
        1   -1    0    0  501    0  0.00000000000E+00  0.00000000000E+00  0.83812550509E+03  0.83812550510E+03  0.50400001928E-02 0. -1.
       -1   -1    0    0    0  501  0.00000000000E+00  0.00000000000E+00 -0.86172814713E+03  0.86172814715E+03  0.50400001928E-02 0.  1.
    10030    2    1    2    0    0  0.00000000000E+00  0.00000000000E+00 -0.23602642043E+02  0.16998536522E+04  0.16996897818E+04 0.  0.
        4    1    3    3  502    0 -0.29415823136E+03 -0.68345919760E+03 -0.42243704210E+03  0.85562854516E+03  0.12699999809E+01 0.  1.
       -4    1    3    3    0  502  0.29415823136E+03  0.68345919760E+03  0.39883440006E+03  0.84422510708E+03  0.12699999809E+01 0. -1.
</event>
<event>
 5   0  0.7583716E-06  0.1699468E+04  0.7818609E-02  0.8761668E-01
        1   -1    0    0  501    0  0.00000000000E+00  0.00000000000E+00  0.79107001965E+03  0.79107001967E+03  0.50400001928E-02 0. -1.
       -1   -1    0    0    0  501  0.00000000000E+00  0.00000000000E+00 -0.91274878586E+03  0.91274878587E+03  0.50400001928E-02 0.  1.
    10030    2    1    2    0    0  0.00000000000E+00  0.00000000000E+00 -0.12167876620E+03  0.17038188055E+04  0.16994683875E+04 0.  0.
        5    1    3    3  502    0 -0.12528827142E+03 -0.48937558283E+03 -0.74584570357E+03  0.90082934875E+03  0.46999998093E+01 0.  1.
       -5    1    3    3    0  502  0.12528827142E+03  0.48937558283E+03  0.62416693737E+03  0.80298945680E+03  0.46999998093E+01 0. -1.
</event>
<event>
 5   0  0.1423543E-05  0.1700289E+04  0.7818609E-02  0.8761199E-01
       -2   -1    0    0    0  501  0.00000000000E+00  0.00000000000E+00  0.49954085076E+03  0.49954085077E+03  0.25500000920E-02 0. -1.
        2   -1    0    0  501    0  0.00000000000E+00  0.00000000000E+00 -0.14468202331E+04  0.14468202331E+04  0.25500000920E-02 0.  1.
    10030    2    1    2    0    0  0.00000000000E+00  0.00000000000E+00 -0.94727938230E+03  0.19463610838E+04  0.17002891638E+04 0.  0.
        3    1    3    3  502    0  0.32990162599E+03  0.16202829951E+03  0.40389194977E+03  0.54609245551E+03  0.10100000352E+00 0. -1.
       -3    1    3    3    0  502 -0.32990162599E+03 -0.16202829951E+03 -0.13511713321E+04  0.14002686283E+04  0.10100000352E+00 0.  1.
</event>
<event>
 5   0  0.1441756E-05  0.1700376E+04  0.7818609E-02  0.8761150E-01
       -2   -1    0    0    0  501  0.00000000000E+00  0.00000000000E+00  0.50313044661E+03  0.50313044662E+03  0.25500000920E-02 0.  1.
        2   -1    0    0  501    0  0.00000000000E+00  0.00000000000E+00 -0.14366446353E+04  0.14366446353E+04  0.25500000920E-02 0. -1.
    10030    2    1    2    0    0  0.00000000000E+00  0.00000000000E+00 -0.93351418865E+03  0.19397750819E+04  0.17003760254E+04 0.  0.
        5    1    3    3  502    0 -0.12893000096E+03  0.67587966302E+03 -0.10364239242E+04  0.12440389482E+04  0.46999998093E+01 0. -1.
       -5    1    3    3    0  502  0.12893000096E+03 -0.67587966302E+03  0.10290973554E+03  0.69573613367E+03  0.46999998093E+01 0.  1.
</event>
<event>
 5   0  0.5229750E-06  0.1699467E+04  0.7818609E-02  0.8761668E-01
        3   -1    0    0  501    0  0.00000000000E+00  0.00000000000E+00  0.79184933980E+03  0.79184934625E+03  0.10100000352E+00 0. -1.
       -3   -1    0    0    0  501  0.00000000000E+00  0.00000000000E+00 -0.91184918777E+03  0.91184919336E+03  0.10100000352E+00 0.  1.
    10030    2    1    2    0    0  0.00000000000E+00  0.00000000000E+00 -0.11999984797E+03  0.17036985396E+04  0.16994671960E+04 0.  0.
        1    1    3    3  502    0  0.32896599086E+03 -0.44619243368E+03  0.58560730662E+03  0.80637598464E+03  0.50400001928E-02 0. -1.
       -1    1    3    3    0  502 -0.32896599086E+03  0.44619243368E+03 -0.70560715459E+03  0.89732255497E+03  0.50400001928E-02 0.  1.
</event>
<event>
 5   0  0.1419012E-05  0.1697641E+04  0.7818609E-02  0.8762711E-01
       -2   -1    0    0    0  501  0.00000000000E+00  0.00000000000E+00  0.73609905866E+03  0.73609905867E+03  0.25500000920E-02 0.  1.
        2   -1    0    0  501    0  0.00000000000E+00  0.00000000000E+00 -0.97880368019E+03  0.97880368019E+03  0.25500000920E-02 0. -1.
    10030    2    1    2    0    0  0.00000000000E+00  0.00000000000E+00 -0.24270462153E+03  0.17149027389E+04  0.16976412667E+04 0.  0.
        4    1    3    3  502    0  0.84871833641E+03  0.94692535108E+01 -0.11218404828E+03  0.85615381498E+03  0.12699999809E+01 0. -1.
       -4    1    3    3    0  502 -0.84871833641E+03 -0.94692535108E+01 -0.13052057325E+03  0.85874892388E+03  0.12699999809E+01 0.  1.
</event>
<event>
 5   0  0.7082527E-06  0.1699516E+04  0.7818609E-02  0.8761641E-01
       -1   -1    0    0    0  501  0.00000000000E+00  0.00000000000E+00  0.43674750672E+03  0.43674750675E+03  0.50400001928E-02 0. -1.
        1   -1    0    0  501    0  0.00000000000E+00  0.00000000000E+00 -0.16533316515E+04  0.16533316515E+04  0.50400001928E-02 0.  1.
    10030    2    1    2    0    0  0.00000000000E+00  0.00000000000E+00 -0.12165841447E+04  0.20900791582E+04  0.16995157859E+04 0.  0.
        1    1    3    3  502    0 -0.27428600534E+03 -0.67813627150E+03 -0.11400856369E+04  0.13545836537E+04  0.50400001928E-02 0.  1.
       -1    1    3    3    0  502  0.27428600534E+03  0.67813627150E+03 -0.76498507880E+02  0.73549550453E+03  0.50400001928E-02 0. -1.
</event>
<event>
 5   0  0.7476457E-06  0.1700312E+04  0.7818609E-02  0.8761186E-01
       -1   -1    0    0    0  501  0.00000000000E+00  0.00000000000E+00  0.53493972393E+03  0.53493972396E+03  0.50400001928E-02 0. -1.
        1   -1    0    0  501    0  0.00000000000E+00  0.00000000000E+00 -0.13511158204E+04  0.13511158205E+04  0.50400001928E-02 0.  1.
    10030    2    1    2    0    0  0.00000000000E+00  0.00000000000E+00 -0.81617609652E+03  0.18860555444E+04  0.17003123525E+04 0.  0.
        2    1    3    3  502    0  0.23525227444E+03  0.40841975608E+03 -0.11929219996E+04  0.12826586557E+04  0.25500000920E-02 0.  1.
       -2    1    3    3    0  502 -0.23525227444E+03 -0.40841975608E+03  0.37674590313E+03  0.60339688872E+03  0.25500000920E-02 0. -1.
</event>
<event>
 5   0  0.7455669E-06  0.1699810E+04  0.7818609E-02  0.8761473E-01
        1   -1    0    0  501    0  0.00000000000E+00  0.00000000000E+00  0.55104285349E+03  0.55104285351E+03  0.50400001928E-02 0.  1.
       -1   -1    0    0    0  501  0.00000000000E+00  0.00000000000E+00 -0.13108577757E+04  0.13108577757E+04  0.50400001928E-02 0. -1.
    10030    2    1    2    0    0  0.00000000000E+00  0.00000000000E+00 -0.75981492223E+03  0.18619006292E+04  0.16998103533E+04 0.  0.
        4    1    3    3  502    0  0.41560777063E+03 -0.42148786850E+03  0.28813095217E+03  0.65833342677E+03  0.12699999809E+01 0.  1.
       -4    1    3    3    0  502 -0.41560777063E+03  0.42148786850E+03 -0.10479458744E+04  0.12035672025E+04  0.12699999809E+01 0. -1.
</event>
<event>
 5   0  0.7455669E-06  0.1699991E+04  0.7818609E-02  0.8761370E-01
        1   -1    0    0  501    0  0.00000000000E+00  0.00000000000E+00  0.56979839002E+03  0.56979839004E+03  0.50400001928E-02 0.  1.
       -1   -1    0    0    0  501  0.00000000000E+00  0.00000000000E+00 -0.12679782477E+04  0.12679782477E+04  0.50400001928E-02 0. -1.
    10030    2    1    2    0    0  0.00000000000E+00  0.00000000000E+00 -0.69817985771E+03  0.18377766378E+04  0.16999905461E+04 0.  0.
        4    1    3    3  502    0 -0.22221602823E+03 -0.17534992122E+03 -0.12155257701E+04  0.12480513085E+04  0.12699999809E+01 0. -1.
       -4    1    3    3    0  502  0.22221602823E+03  0.17534992122E+03  0.51734591235E+03  0.58972532928E+03  0.12699999809E+01 0.  1.
</event>
<event>
 5   0  0.7082527E-06  0.1700315E+04  0.7818609E-02  0.8761185E-01
        1   -1    0    0  501    0  0.00000000000E+00  0.00000000000E+00  0.80962973014E+03  0.80962973016E+03  0.50400001928E-02 0.  1.
       -1   -1    0    0    0  501  0.00000000000E+00  0.00000000000E+00 -0.89271350756E+03  0.89271350757E+03  0.50400001928E-02 0. -1.
    10030    2    1    2    0    0  0.00000000000E+00  0.00000000000E+00 -0.83083777417E+02  0.17023432377E+04  0.17003145547E+04 0.  0.
        1    1    3    3  502    0 -0.47468543159E+03  0.69651068213E+03  0.69559005503E+02  0.84574927996E+03  0.50400001928E-02 0. -1.
       -1    1    3    3    0  502  0.47468543159E+03 -0.69651068213E+03 -0.15264278292E+03  0.85659395777E+03  0.50400001928E-02 0.  1.
</event>
<event>
 5   0  0.7583716E-06  0.1703598E+04  0.7818609E-02  0.8759315E-01
       -1   -1    0    0    0  501  0.00000000000E+00  0.00000000000E+00  0.74955468052E+03  0.74955468054E+03  0.50400001928E-02 0.  1.
        1   -1    0    0  501    0  0.00000000000E+00  0.00000000000E+00 -0.96798959385E+03  0.96798959386E+03  0.50400001928E-02 0. -1.
    10030    2    1    2    0    0  0.00000000000E+00  0.00000000000E+00 -0.21843491333E+03  0.17175442744E+04  0.17035975238E+04 0.  0.
        5    1    3    3  502    0  0.18910901109E+03 -0.71369699583E+03  0.31901084010E+03  0.80431065269E+03  0.46999998093E+01 0.  1.
       -5    1    3    3    0  502 -0.18910901109E+03  0.71369699583E+03 -0.53744575343E+03  0.91323362170E+03  0.46999998093E+01 0. -1.
</event>
<event>
 5   0  0.1419012E-05  0.1700256E+04  0.7818609E-02  0.8761218E-01
        2   -1    0    0  501    0  0.00000000000E+00  0.00000000000E+00  0.15010470182E+04  0.15010470182E+04  0.25500000920E-02 0.  1.
       -2   -1    0    0    0  501  0.00000000000E+00  0.00000000000E+00 -0.48147558114E+03  0.48147558115E+03  0.25500000920E-02 0. -1.
    10030    2    1    2    0    0  0.00000000000E+00  0.00000000000E+00  0.10195714371E+04  0.19825225993E+04  0.17002558459E+04 0.  0.
        4    1    3    3  502    0  0.67825303995E+03  0.63765926204E+02 -0.83190260423E+02  0.68630569856E+03  0.12699999809E+01 0. -1.
       -4    1    3    3    0  502 -0.67825303995E+03 -0.63765926204E+02  0.11027616975E+04  0.12962169008E+04  0.12699999809E+01 0.  1.
</event>
<event>
 5   0  0.7583716E-06  0.1700675E+04  0.7818609E-02  0.8760979E-01
       -1   -1    0    0    0  501  0.00000000000E+00  0.00000000000E+00  0.40789174336E+03  0.40789174339E+03  0.50400001928E-02 0. -1.
        1   -1    0    0  501    0  0.00000000000E+00  0.00000000000E+00 -0.17727109745E+04  0.17727109745E+04  0.50400001928E-02 0.  1.
    10030    2    1    2    0    0  0.00000000000E+00  0.00000000000E+00 -0.13648192312E+04  0.21806027179E+04  0.17006753599E+04 0.  0.
        5    1    3    3  502    0 -0.78346067316E+03 -0.12889964577E+03 -0.10726411570E+04  0.13345436998E+04  0.46999998093E+01 0.  1.
       -5    1    3    3    0  502  0.78346067316E+03  0.12889964577E+03 -0.29217807416E+03  0.84605901809E+03  0.46999998093E+01 0. -1.
</event>
<event>
 5   0  0.1419012E-05  0.1699994E+04  0.7818609E-02  0.8761368E-01
       -2   -1    0    0    0  501  0.00000000000E+00  0.00000000000E+00  0.11900927506E+04  0.11900927506E+04  0.25500000920E-02 0. -1.
        2   -1    0    0  501    0  0.00000000000E+00  0.00000000000E+00 -0.60709130333E+03  0.60709130333E+03  0.25500000920E-02 0.  1.
    10030    2    1    2    0    0  0.00000000000E+00  0.00000000000E+00  0.58300144724E+03  0.17971840539E+04  0.16999940694E+04 0.  0.
        4    1    3    3  502    0  0.76506743498E+03 -0.34013051996E+03  0.44642727233E+03  0.94884976317E+03  0.12699999809E+01 0.  1.
       -4    1    3    3    0  502 -0.76506743498E+03  0.34013051996E+03  0.13657417491E+03  0.84833429074E+03  0.12699999809E+01 0. -1.
</event>
<event>
 5   0  0.7082527E-06  0.1698282E+04  0.7818609E-02  0.8762345E-01
        1   -1    0    0  501    0  0.00000000000E+00  0.00000000000E+00  0.12877226027E+04  0.12877226027E+04  0.50400001928E-02 0. -1.
       -1   -1    0    0    0  501  0.00000000000E+00  0.00000000000E+00 -0.55993478361E+03  0.55993478363E+03  0.50400001928E-02 0.  1.
    10030    2    1    2    0    0  0.00000000000E+00  0.00000000000E+00  0.72778781909E+03  0.18476573863E+04  0.16982822815E+04 0.  0.
        1    1    3    3  502    0 -0.36926706747E+03 -0.51434933156E+03 -0.25166965070E+03  0.68135968115E+03  0.50400001928E-02 0.  1.
       -1    1    3    3    0  502  0.36926706747E+03  0.51434933156E+03  0.97945746979E+03  0.11662977052E+04  0.50400001928E-02 0. -1.
</event>
<event>
 5   0  0.1374441E-05  0.1700090E+04  0.7818609E-02  0.8761313E-01
        2   -1    0    0  501    0  0.00000000000E+00  0.00000000000E+00  0.23388596289E+04  0.23388596289E+04  0.25500000920E-02 0.  1.
       -2   -1    0    0    0  501  0.00000000000E+00  0.00000000000E+00 -0.30894407403E+03  0.30894407404E+03  0.25500000920E-02 0. -1.
    10030    2    1    2    0    0  0.00000000000E+00  0.00000000000E+00  0.20299155548E+04  0.26478037029E+04  0.17000903768E+04 0.  0.
        1    1    3    3  502    0  0.95206592773E+02  0.48257358848E+03  0.20947037418E+04  0.21516796531E+04  0.50400001928E-02 0.  1.
       -1    1    3    3    0  502 -0.95206592773E+02 -0.48257358848E+03 -0.64788186971E+02  0.49612404981E+03  0.50400001928E-02 0. -1.
</event>
<event>
 5   0  0.7461128E-06  0.1700223E+04  0.7818609E-02  0.8761237E-01
       -1   -1    0    0    0  501  0.00000000000E+00  0.00000000000E+00  0.80700747742E+03  0.80700747744E+03  0.50400001928E-02 0. -1.
        1   -1    0    0  501    0  0.00000000000E+00  0.00000000000E+00 -0.89551823029E+03  0.89551823030E+03  0.50400001928E-02 0.  1.
    10030    2    1    2    0    0  0.00000000000E+00  0.00000000000E+00 -0.88510752864E+02  0.17025257077E+04  0.17002234065E+04 0.  0.
        3    1    3    3  502    0  0.73375754095E+03 -0.40408358798E+03  0.10087611960E+03  0.84371777075E+03  0.10100000352E+00 0.  1.
       -3    1    3    3    0  502 -0.73375754095E+03  0.40408358798E+03 -0.18938687247E+03  0.85880793699E+03  0.10100000352E+00 0. -1.
</event>
<event>
 5   0  0.1435301E-05  0.1699651E+04  0.7818609E-02  0.8761563E-01
        2   -1    0    0  501    0  0.00000000000E+00  0.00000000000E+00  0.12939392978E+04  0.12939392978E+04  0.25500000920E-02 0.  1.
       -2   -1    0    0    0  501  0.00000000000E+00  0.00000000000E+00 -0.55814331698E+03  0.55814331698E+03  0.25500000920E-02 0. -1.
    10030    2    1    2    0    0  0.00000000000E+00  0.00000000000E+00  0.73579598085E+03  0.18520826148E+04  0.16996512250E+04 0.  0.
        2    1    3    3  502    0 -0.26269216656E+03  0.67592896380E+03  0.85071089675E+03  0.11178533752E+04  0.25500000920E-02 0.  1.
       -2    1    3    3    0  502  0.26269216656E+03 -0.67592896380E+03 -0.11491491590E+03  0.73422923966E+03  0.25500000920E-02 0. -1.
</event>
<event>
 5   0  0.7082527E-06  0.1699814E+04  0.7818609E-02  0.8761471E-01
        1   -1    0    0  501    0  0.00000000000E+00  0.00000000000E+00  0.97363535838E+03  0.97363535840E+03  0.50400001928E-02 0.  1.
       -1   -1    0    0    0  501  0.00000000000E+00  0.00000000000E+00 -0.74190148999E+03  0.74190149001E+03  0.50400001928E-02 0. -1.
    10030    2    1    2    0    0  0.00000000000E+00  0.00000000000E+00  0.23173386839E+03  0.17155368484E+04  0.16998135464E+04 0.  0.
        1    1    3    3  502    0 -0.83731072606E+03 -0.14452157929E+02 -0.30538360963E+02  0.83799206939E+03  0.50400001928E-02 0. -1.
       -1    1    3    3    0  502  0.83731072606E+03  0.14452157929E+02  0.26227222936E+03  0.87754477901E+03  0.50400001928E-02 0.  1.
</event>
<event>
 5   0  0.7461128E-06  0.1698998E+04  0.7818609E-02  0.8761936E-01
       -1   -1    0    0    0  501  0.00000000000E+00  0.00000000000E+00  0.37937177224E+03  0.37937177227E+03  0.50400001928E-02 0. -1.
        1   -1    0    0  501    0  0.00000000000E+00  0.00000000000E+00 -0.19022195078E+04  0.19022195078E+04  0.50400001928E-02 0.  1.
    10030    2    1    2    0    0  0.00000000000E+00  0.00000000000E+00 -0.15228477355E+04  0.22815912800E+04  0.16989978056E+04 0.  0.
        3    1    3    3  502    0  0.53200447700E+03 -0.14194352225E+03  0.10729259225E+03  0.56097097751E+03  0.10100000352E+00 0. -1.
       -3    1    3    3    0  502 -0.53200447700E+03  0.14194352225E+03 -0.16301403278E+04  0.17206203025E+04  0.10100000352E+00 0.  1.
</event>
<event>
 5   0  0.7082527E-06  0.1701424E+04  0.7818609E-02  0.8760553E-01
       -1   -1    0    0    0  501  0.00000000000E+00  0.00000000000E+00  0.39331744466E+03  0.39331744469E+03  0.50400001928E-02 0. -1.
        1   -1    0    0  501    0  0.00000000000E+00  0.00000000000E+00 -0.18400163373E+04  0.18400163373E+04  0.50400001928E-02 0.  1.
    10030    2    1    2    0    0  0.00000000000E+00  0.00000000000E+00 -0.14466988926E+04  0.22333337820E+04  0.17014235498E+04 0.  0.
        1    1    3    3  502    0 -0.81627705880E+03  0.16390036539E+03 -0.95273618082E+03  0.12652579961E+04  0.50400001928E-02 0.  1.
       -1    1    3    3    0  502  0.81627705880E+03 -0.16390036539E+03 -0.49396271183E+03  0.96807578587E+03  0.50400001928E-02 0. -1.
</event>
<event>
 5   0  0.1441756E-05  0.1701542E+04  0.7818609E-02  0.8760485E-01
        2   -1    0    0  501    0  0.00000000000E+00  0.00000000000E+00  0.81994407587E+03  0.81994407588E+03  0.25500000920E-02 0. -1.
       -2   -1    0    0    0  501  0.00000000000E+00  0.00000000000E+00 -0.88275696792E+03  0.88275696793E+03  0.25500000920E-02 0.  1.
    10030    2    1    2    0    0  0.00000000000E+00  0.00000000000E+00 -0.62812892050E+02  0.17027010438E+04  0.17015420609E+04 0.  0.
        5    1    3    3  502    0  0.70797382530E+03 -0.16799479696E+03  0.40973400969E+03  0.83507678558E+03  0.46999998093E+01 0. -1.
       -5    1    3    3    0  502 -0.70797382530E+03  0.16799479696E+03 -0.47254690174E+03  0.86762425822E+03  0.46999998093E+01 0.  1.
</event>
<event>
 5   0  0.1423543E-05  0.1700244E+04  0.7818609E-02  0.8761225E-01
       -2   -1    0    0    0  501  0.00000000000E+00  0.00000000000E+00  0.76117106166E+03  0.76117106166E+03  0.25500000920E-02 0.  1.
        2   -1    0    0  501    0  0.00000000000E+00  0.00000000000E+00 -0.94946756527E+03  0.94946756528E+03  0.25500000920E-02 0. -1.
    10030    2    1    2    0    0  0.00000000000E+00  0.00000000000E+00 -0.18829650362E+03  0.17106386269E+04  0.17002437880E+04 0.  0.
        3    1    3    3  502    0 -0.19216128287E+03 -0.78969064340E+02  0.73523686364E+03  0.76402573753E+03  0.10100000352E+00 0.  1.
       -3    1    3    3    0  502  0.19216128287E+03  0.78969064340E+02 -0.92353336726E+03  0.94661288941E+03  0.10100000352E+00 0. -1.
</event>
<event>
 5   0  0.1374441E-05  0.1700738E+04  0.7818609E-02  0.8760943E-01
       -2   -1    0    0    0  501  0.00000000000E+00  0.00000000000E+00  0.44322687661E+03  0.44322687662E+03  0.25500000920E-02 0. -1.
        2   -1    0    0  501    0  0.00000000000E+00  0.00000000000E+00 -0.16315065674E+04  0.16315065675E+04  0.25500000920E-02 0.  1.
    10030    2    1    2    0    0  0.00000000000E+00  0.00000000000E+00 -0.11882796908E+04  0.20747334441E+04  0.17007381457E+04 0.  0.
        1    1    3    3  502    0  0.79997191777E+03 -0.21586682760E+03 -0.82743789422E+03  0.11709854932E+04  0.50400001928E-02 0.  1.
       -1    1    3    3    0  502 -0.79997191777E+03  0.21586682760E+03 -0.36084179661E+03  0.90374795086E+03  0.50400001928E-02 0. -1.
</event>
<event>
 5   0  0.7476457E-06  0.1699221E+04  0.7818609E-02  0.8761809E-01
        1   -1    0    0  501    0  0.00000000000E+00  0.00000000000E+00  0.14446273794E+04  0.14446273794E+04  0.50400001928E-02 0.  1.
       -1   -1    0    0    0  501  0.00000000000E+00  0.00000000000E+00 -0.49967071609E+03  0.49967071612E+03  0.50400001928E-02 0. -1.
    10030    2    1    2    0    0  0.00000000000E+00  0.00000000000E+00  0.94495666330E+03  0.19442980955E+04  0.16992209947E+04 0.  0.
        2    1    3    3  502    0  0.32966647998E+03  0.72874908163E+03  0.14465562817E+03  0.81282252846E+03  0.25500000920E-02 0. -1.
       -2    1    3    3    0  502 -0.32966647998E+03 -0.72874908163E+03  0.80030103512E+03  0.11314755671E+04  0.25500000920E-02 0.  1.
</event>
<event>
 5   0  0.7082527E-06  0.1700350E+04  0.7818609E-02  0.8761165E-01
       -1   -1    0    0    0  501  0.00000000000E+00  0.00000000000E+00  0.15119594665E+04  0.15119594665E+04  0.50400001928E-02 0.  1.
        1   -1    0    0  501    0  0.00000000000E+00  0.00000000000E+00 -0.47805332668E+03  0.47805332670E+03  0.50400001928E-02 0. -1.
    10030    2    1    2    0    0  0.00000000000E+00  0.00000000000E+00  0.10339061398E+04  0.19900127932E+04  0.17003496732E+04 0.  0.
        1    1    3    3  502    0  0.43836355314E+03  0.31556127073E+02 -0.33478791723E+03  0.55248650972E+03  0.50400001928E-02 0. -1.
       -1    1    3    3    0  502 -0.43836355314E+03 -0.31556127073E+02  0.13686940570E+04  0.14375262835E+04  0.50400001928E-02 0.  1.
</event>
<event>
 5   0  0.1441756E-05  0.1702461E+04  0.7818609E-02  0.8759962E-01
       -2   -1    0    0    0  501  0.00000000000E+00  0.00000000000E+00  0.46620387139E+03  0.46620387140E+03  0.25500000920E-02 0. -1.
        2   -1    0    0  501    0  0.00000000000E+00  0.00000000000E+00 -0.15542408413E+04  0.15542408413E+04  0.25500000920E-02 0.  1.
    10030    2    1    2    0    0  0.00000000000E+00  0.00000000000E+00 -0.10880369699E+04  0.20204447127E+04  0.17024606865E+04 0.  0.
        5    1    3    3  502    0  0.77758373865E+01  0.56738411108E+03 -0.12970256573E+04  0.14157269648E+04  0.46999998093E+01 0.  1.
       -5    1    3    3    0  502 -0.77758373865E+01 -0.56738411108E+03  0.20898868740E+03  0.60471774789E+03  0.46999998093E+01 0. -1.
</event>
<event>
 5   0  0.7461128E-06  0.1701404E+04  0.7818609E-02  0.8760564E-01
       -1   -1    0    0    0  501  0.00000000000E+00  0.00000000000E+00  0.40353750045E+03  0.40353750049E+03  0.50400001928E-02 0. -1.
        1   -1    0    0  501    0  0.00000000000E+00  0.00000000000E+00 -0.17933739126E+04  0.17933739126E+04  0.50400001928E-02 0.  1.
    10030    2    1    2    0    0  0.00000000000E+00  0.00000000000E+00 -0.13898364122E+04  0.21969114131E+04  0.17014036865E+04 0.  0.
        3    1    3    3  502    0  0.24871638581E+03 -0.72436687580E+03 -0.11730699237E+04  0.14009497733E+04  0.10100000352E+00 0.  1.
       -3    1    3    3    0  502 -0.24871638581E+03  0.72436687580E+03 -0.21676648852E+03  0.79596163982E+03  0.10100000352E+00 0. -1.
</event>
<event>
 5   0  0.7455669E-06  0.1701303E+04  0.7818609E-02  0.8760622E-01
       -1   -1    0    0    0  501  0.00000000000E+00  0.00000000000E+00  0.11813060650E+04  0.11813060650E+04  0.50400001928E-02 0.  1.
        1   -1    0    0  501    0  0.00000000000E+00  0.00000000000E+00 -0.61254886006E+03  0.61254886008E+03  0.50400001928E-02 0. -1.
    10030    2    1    2    0    0  0.00000000000E+00  0.00000000000E+00  0.56875720492E+03  0.17938549251E+04  0.17013026580E+04 0.  0.
        4    1    3    3  502    0  0.66259122484E+03 -0.44506550091E+03 -0.25722166532E+02  0.79860733410E+03  0.12699999809E+01 0.  1.
       -4    1    3    3    0  502 -0.66259122484E+03  0.44506550091E+03  0.59447937145E+03  0.99524759096E+03  0.12699999809E+01 0. -1.
</event>
<event>
 5   0  0.1441756E-05  0.1704069E+04  0.7818609E-02  0.8759047E-01
        2   -1    0    0  501    0  0.00000000000E+00  0.00000000000E+00  0.17873345561E+04  0.17873345561E+04  0.25500000920E-02 0. -1.
       -2   -1    0    0    0  501  0.00000000000E+00  0.00000000000E+00 -0.40617064336E+03  0.40617064337E+03  0.25500000920E-02 0.  1.
    10030    2    1    2    0    0  0.00000000000E+00  0.00000000000E+00  0.13811639128E+04  0.21935051995E+04  0.17040690439E+04 0.  0.
        5    1    3    3  502    0 -0.27578267298E+03 -0.74389264874E+03  0.10904659274E+04  0.13485438014E+04  0.46999998093E+01 0. -1.
       -5    1    3    3    0  502  0.27578267298E+03  0.74389264874E+03  0.29069798541E+03  0.84496139811E+03  0.46999998093E+01 0.  1.
</event>
<event>
 5   0  0.5229750E-06  0.1700493E+04  0.7818609E-02  0.8761083E-01
       -3   -1    0    0    0  501  0.00000000000E+00  0.00000000000E+00  0.15294688455E+04  0.15294688488E+04  0.10100000352E+00 0. -1.
        3   -1    0    0  501    0  0.00000000000E+00  0.00000000000E+00 -0.47266046079E+03  0.47266047158E+03  0.10100000352E+00 0.  1.
    10030    2    1    2    0    0  0.00000000000E+00  0.00000000000E+00  0.10568083847E+04  0.20021293204E+04  0.17004934148E+04 0.  0.
        2    1    3    3  502    0  0.64677320726E+03  0.27915489322E+03  0.10889619289E+04  0.12969507002E+04  0.25500000920E-02 0. -1.
       -2    1    3    3    0  502 -0.64677320726E+03 -0.27915489322E+03 -0.32153544199E+02  0.70517862025E+03  0.25500000920E-02 0.  1.
</event>
<event>
 5   0  0.1441756E-05  0.1700373E+04  0.7818609E-02  0.8761152E-01
        2   -1    0    0  501    0  0.00000000000E+00  0.00000000000E+00  0.17927033300E+04  0.17927033300E+04  0.25500000920E-02 0. -1.
       -2   -1    0    0    0  501  0.00000000000E+00  0.00000000000E+00 -0.40319955146E+03  0.40319955147E+03  0.25500000920E-02 0.  1.
    10030    2    1    2    0    0  0.00000000000E+00  0.00000000000E+00  0.13895037786E+04  0.21959028815E+04  0.17003731103E+04 0.  0.
        5    1    3    3  502    0  0.23121959250E+03 -0.67981070138E+03  0.10691979449E+03  0.72598830715E+03  0.46999998093E+01 0.  1.
       -5    1    3    3    0  502 -0.23121959250E+03  0.67981070138E+03  0.12825839841E+04  0.14699145744E+04  0.46999998093E+01 0. -1.
</event>
<event>
 5   0  0.1419012E-05  0.1699857E+04  0.7818609E-02  0.8761446E-01
        2   -1    0    0  501    0  0.00000000000E+00  0.00000000000E+00  0.11453722332E+04  0.11453722332E+04  0.25500000920E-02 0.  1.
       -2   -1    0    0    0  501  0.00000000000E+00  0.00000000000E+00 -0.63069288110E+03  0.63069288111E+03  0.25500000920E-02 0. -1.
    10030    2    1    2    0    0  0.00000000000E+00  0.00000000000E+00  0.51467935207E+03  0.17760651143E+04  0.16998565983E+04 0.  0.
        4    1    3    3  502    0  0.65721120290E+03  0.28588251151E+03 -0.22000249295E+03  0.74970533238E+03  0.12699999809E+01 0. -1.
       -4    1    3    3    0  502 -0.65721120290E+03 -0.28588251151E+03  0.73468184501E+03  0.10263597819E+04  0.12699999809E+01 0.  1.
</event>
<event>
 5   0  0.1374441E-05  0.1699922E+04  0.7818609E-02  0.8761409E-01
        2   -1    0    0  501    0  0.00000000000E+00  0.00000000000E+00  0.11499178680E+04  0.11499178680E+04  0.25500000920E-02 0.  1.
       -2   -1    0    0    0  501  0.00000000000E+00  0.00000000000E+00 -0.62824832120E+03  0.62824832120E+03  0.25500000920E-02 0. -1.
    10030    2    1    2    0    0  0.00000000000E+00  0.00000000000E+00  0.52166954683E+03  0.17781661892E+04  0.16999223160E+04 0.  0.
        1    1    3    3  502    0  0.57135267196E+03  0.30259439767E+03  0.83797940535E+03  0.10584029143E+04  0.50400001928E-02 0.  1.
       -1    1    3    3    0  502 -0.57135267196E+03 -0.30259439767E+03 -0.31630985853E+03  0.71976327489E+03  0.50400001928E-02 0. -1.
</event>
<event>
 5   0  0.1374441E-05  0.1699781E+04  0.7818609E-02  0.8761489E-01
        2   -1    0    0  501    0  0.00000000000E+00  0.00000000000E+00  0.11165066518E+04  0.11165066518E+04  0.25500000920E-02 0. -1.
       -2   -1    0    0    0  501  0.00000000000E+00  0.00000000000E+00 -0.64694093748E+03  0.64694093749E+03  0.25500000920E-02 0.  1.
    10030    2    1    2    0    0  0.00000000000E+00  0.00000000000E+00  0.46956571431E+03  0.17634475893E+04  0.16997809977E+04 0.  0.
        1    1    3    3  502    0  0.93090246152E+02  0.39386606364E+03 -0.54054968865E+03  0.67527049094E+03  0.50400001928E-02 0.  1.
       -1    1    3    3    0  502 -0.93090246152E+02 -0.39386606364E+03  0.10101154030E+04  0.10881770983E+04  0.50400001928E-02 0. -1.
</event>
<event>
 5   0  0.7476457E-06  0.1699435E+04  0.7818609E-02  0.8761687E-01
       -1   -1    0    0    0  501  0.00000000000E+00  0.00000000000E+00  0.93739446803E+03  0.93739446804E+03  0.50400001928E-02 0. -1.
        1   -1    0    0  501    0  0.00000000000E+00  0.00000000000E+00 -0.77024076282E+03  0.77024076284E+03  0.50400001928E-02 0.  1.
    10030    2    1    2    0    0  0.00000000000E+00  0.00000000000E+00  0.16715370520E+03  0.17076352309E+04  0.16994345297E+04 0.  0.
        2    1    3    3  502    0 -0.43372260428E+03  0.36070763120E+03  0.72209121843E+03  0.91631927864E+03  0.25500000920E-02 0. -1.
       -2    1    3    3    0  502  0.43372260428E+03 -0.36070763120E+03 -0.55493751323E+03  0.79131595224E+03  0.25500000920E-02 0.  1.
</event>
<event>
 5   0  0.1374441E-05  0.1701246E+04  0.7818609E-02  0.8760654E-01
        2   -1    0    0  501    0  0.00000000000E+00  0.00000000000E+00  0.18897320335E+04  0.18897320335E+04  0.25500000920E-02 0. -1.
       -2   -1    0    0    0  501  0.00000000000E+00  0.00000000000E+00 -0.38289016201E+03  0.38289016202E+03  0.25500000920E-02 0.  1.
    10030    2    1    2    0    0  0.00000000000E+00  0.00000000000E+00  0.15068418715E+04  0.22726221955E+04  0.17012463719E+04 0.  0.
        1    1    3    3  502    0  0.64110305535E+03 -0.38029253184E+03  0.20600584870E+03  0.77335240807E+03  0.50400001928E-02 0.  1.
       -1    1    3    3    0  502 -0.64110305535E+03  0.38029253184E+03  0.13008360228E+04  0.14992697874E+04  0.50400001928E-02 0. -1.
</event>
<event>
 5   0  0.7583716E-06  0.1699581E+04  0.7818609E-02  0.8761603E-01
        1   -1    0    0  501    0  0.00000000000E+00  0.00000000000E+00  0.13213813018E+04  0.13213813018E+04  0.50400001928E-02 0. -1.
       -1   -1    0    0    0  501  0.00000000000E+00  0.00000000000E+00 -0.54650696731E+03  0.54650696733E+03  0.50400001928E-02 0.  1.
    10030    2    1    2    0    0  0.00000000000E+00  0.00000000000E+00  0.77487433445E+03  0.18678882691E+04  0.16995812283E+04 0.  0.
        5    1    3    3  502    0  0.30515989171E+03  0.12050070150E+03 -0.47407714833E+03  0.57655373656E+03  0.46999998093E+01 0.  1.
       -5    1    3    3    0  502 -0.30515989171E+03 -0.12050070150E+03  0.12489514828E+04  0.12913345325E+04  0.46999998093E+01 0. -1.
</event>
<event>
 5   0  0.7461128E-06  0.1700537E+04  0.7818609E-02  0.8761058E-01
       -1   -1    0    0    0  501  0.00000000000E+00  0.00000000000E+00  0.60942974521E+03  0.60942974523E+03  0.50400001928E-02 0.  1.
        1   -1    0    0  501    0  0.00000000000E+00  0.00000000000E+00 -0.11862843004E+04  0.11862843004E+04  0.50400001928E-02 0. -1.
    10030    2    1    2    0    0  0.00000000000E+00  0.00000000000E+00 -0.57685455516E+03  0.17957140456E+04  0.17005374903E+04 0.  0.
        3    1    3    3  502    0 -0.21504641351E+03 -0.74191857735E+03 -0.66365851358E+03  0.10183961745E+04  0.10100000352E+00 0. -1.
       -3    1    3    3    0  502  0.21504641351E+03  0.74191857735E+03  0.86803958421E+02  0.77731787113E+03  0.10100000352E+00 0.  1.
</event>
<event>
 5   0  0.1419012E-05  0.1700067E+04  0.7818609E-02  0.8761326E-01
       -2   -1    0    0    0  501  0.00000000000E+00  0.00000000000E+00  0.53767548016E+03  0.53767548017E+03  0.25500000920E-02 0.  1.
        2   -1    0    0  501    0  0.00000000000E+00  0.00000000000E+00 -0.13438537098E+04  0.13438537098E+04  0.25500000920E-02 0. -1.
    10030    2    1    2    0    0  0.00000000000E+00  0.00000000000E+00 -0.80617822968E+03  0.18815291900E+04  0.17000672795E+04 0.  0.
        4    1    3    3  502    0 -0.29776423250E+02 -0.64820738948E+03  0.20460595897E+03  0.68038567482E+03  0.12699999809E+01 0.  1.
       -4    1    3    3    0  502  0.29776423250E+02  0.64820738948E+03 -0.10107841886E+04  0.12011435152E+04  0.12699999809E+01 0. -1.
</event>
<event>
 5   0  0.7455669E-06  0.1703336E+04  0.7818609E-02  0.8759464E-01
       -1   -1    0    0    0  501  0.00000000000E+00  0.00000000000E+00  0.11451304182E+04  0.11451304182E+04  0.50400001928E-02 0. -1.
        1   -1    0    0  501    0  0.00000000000E+00  0.00000000000E+00 -0.63341096821E+03  0.63341096823E+03  0.50400001928E-02 0.  1.
    10030    2    1    2    0    0  0.00000000000E+00  0.00000000000E+00  0.51171944994E+03  0.17785413864E+04  0.17033357472E+04 0.  0.
        4    1    3    3  502    0  0.50280559577E+02 -0.84963117763E+03  0.22392708299E+03  0.88008307794E+03  0.12699999809E+01 0. -1.
       -4    1    3    3    0  502 -0.50280559577E+02  0.84963117763E+03  0.28779236696E+03  0.89845830847E+03  0.12699999809E+01 0.  1.
</event>
<event>
 5   0  0.1423543E-05  0.1700116E+04  0.7818609E-02  0.8761298E-01
        2   -1    0    0  501    0  0.00000000000E+00  0.00000000000E+00  0.19735272023E+04  0.19735272023E+04  0.25500000920E-02 0.  1.
       -2   -1    0    0    0  501  0.00000000000E+00  0.00000000000E+00 -0.36614582551E+03  0.36614582552E+03  0.25500000920E-02 0. -1.
    10030    2    1    2    0    0  0.00000000000E+00  0.00000000000E+00  0.16073813768E+04  0.23396730278E+04  0.17001161686E+04 0.  0.
        3    1    3    3  502    0 -0.16590586863E+02  0.18702118803E+03 -0.33725364008E+03  0.38599507806E+03  0.10100000352E+00 0. -1.
       -3    1    3    3    0  502  0.16590586863E+02 -0.18702118803E+03  0.19446350168E+04  0.19536779497E+04  0.10100000352E+00 0.  1.
</event>
<event>
 5   0  0.1423543E-05  0.1701081E+04  0.7818609E-02  0.8760748E-01
        2   -1    0    0  501    0  0.00000000000E+00  0.00000000000E+00  0.72071476952E+03  0.72071476953E+03  0.25500000920E-02 0.  1.
       -2   -1    0    0    0  501  0.00000000000E+00  0.00000000000E+00 -0.10037525217E+04  0.10037525217E+04  0.25500000920E-02 0. -1.
    10030    2    1    2    0    0  0.00000000000E+00  0.00000000000E+00 -0.28303775213E+03  0.17244672912E+04  0.17010811472E+04 0.  0.
        3    1    3    3  502    0 -0.19144313352E+02 -0.89201264369E+02 -0.99877790892E+03  0.10029360358E+04  0.10100000352E+00 0. -1.
       -3    1    3    3    0  502  0.19144313352E+02  0.89201264369E+02  0.71574015679E+03  0.72153125541E+03  0.10100000352E+00 0.  1.
</event>
<event>
 5   0  0.1423543E-05  0.1700063E+04  0.7818609E-02  0.8761328E-01
        2   -1    0    0  501    0  0.00000000000E+00  0.00000000000E+00  0.23238298040E+04  0.23238298040E+04  0.25500000920E-02 0. -1.
       -2   -1    0    0    0  501  0.00000000000E+00  0.00000000000E+00 -0.31093238759E+03  0.31093238760E+03  0.25500000920E-02 0.  1.
    10030    2    1    2    0    0  0.00000000000E+00  0.00000000000E+00  0.20128974164E+04  0.26347621916E+04  0.17000634686E+04 0.  0.
        3    1    3    3  502    0  0.52293299009E+03  0.45285781770E+03  0.17720178025E+04  0.19022581891E+04  0.10100000352E+00 0. -1.
       -3    1    3    3    0  502 -0.52293299009E+03 -0.45285781770E+03  0.24087961390E+03  0.73250400256E+03  0.10100000352E+00 0.  1.
</event>
<event>
 5   0  0.7476457E-06  0.1700631E+04  0.7818609E-02  0.8761005E-01
        1   -1    0    0  501    0  0.00000000000E+00  0.00000000000E+00  0.16156196166E+04  0.16156196166E+04  0.50400001928E-02 0.  1.
       -1   -1    0    0    0  501  0.00000000000E+00  0.00000000000E+00 -0.44752876002E+03  0.44752876005E+03  0.50400001928E-02 0. -1.
    10030    2    1    2    0    0  0.00000000000E+00  0.00000000000E+00  0.11680908566E+04  0.20631483767E+04  0.17006307580E+04 0.  0.
        2    1    3    3  502    0 -0.38095039453E+03  0.58367102598E+02 -0.33548867121E+03  0.51096239614E+03  0.25500000920E-02 0. -1.
       -2    1    3    3    0  502  0.38095039453E+03 -0.58367102598E+02  0.15035795278E+04  0.15521859805E+04  0.25500000920E-02 0.  1.
</event>
<event>
 5   0  0.1441756E-05  0.1700729E+04  0.7818609E-02  0.8760949E-01
        2   -1    0    0  501    0  0.00000000000E+00  0.00000000000E+00  0.11453644727E+04  0.11453644727E+04  0.25500000920E-02 0.  1.
       -2   -1    0    0    0  501  0.00000000000E+00  0.00000000000E+00 -0.63134469140E+03  0.63134469140E+03  0.25500000920E-02 0. -1.
    10030    2    1    2    0    0  0.00000000000E+00  0.00000000000E+00  0.51401978135E+03  0.17767091642E+04  0.17007289962E+04 0.  0.
        5    1    3    3  502    0 -0.60584930389E+03 -0.43984258543E+03 -0.16421937772E+03  0.76648872986E+03  0.46999998093E+01 0. -1.
       -5    1    3    3    0  502  0.60584930389E+03  0.43984258543E+03  0.67823915907E+03  0.10102204343E+04  0.46999998093E+01 0.  1.
</event>
<event>
 5   0  0.1441756E-05  0.1699409E+04  0.7818609E-02  0.8761702E-01
       -2   -1    0    0    0  501  0.00000000000E+00  0.00000000000E+00  0.10333200838E+04  0.10333200839E+04  0.25500000920E-02 0. -1.
        2   -1    0    0  501    0  0.00000000000E+00  0.00000000000E+00 -0.69871624554E+03  0.69871624554E+03  0.25500000920E-02 0.  1.
    10030    2    1    2    0    0  0.00000000000E+00  0.00000000000E+00  0.33460383831E+03  0.17320363294E+04  0.16994087553E+04 0.  0.
        5    1    3    3  502    0  0.54292473035E+03 -0.10888958179E+03  0.82415297002E+03  0.99291208666E+03  0.46999998093E+01 0. -1.
       -5    1    3    3    0  502 -0.54292473035E+03  0.10888958179E+03 -0.48954913171E+03  0.73912424274E+03  0.46999998093E+01 0.  1.
</event>
<event>
 5   0  0.1419012E-05  0.1699617E+04  0.7818609E-02  0.8761583E-01
       -2   -1    0    0    0  501  0.00000000000E+00  0.00000000000E+00  0.12277105096E+04  0.12277105096E+04  0.25500000920E-02 0.  1.
        2   -1    0    0  501    0  0.00000000000E+00  0.00000000000E+00 -0.58822874110E+03  0.58822874110E+03  0.25500000920E-02 0. -1.
    10030    2    1    2    0    0  0.00000000000E+00  0.00000000000E+00  0.63948176848E+03  0.18159392507E+04  0.16996171422E+04 0.  0.
        4    1    3    3  502    0 -0.21643488560E+03 -0.81610213939E+03  0.42281204648E+03  0.94426606482E+03  0.12699999809E+01 0.  1.
       -4    1    3    3    0  502  0.21643488560E+03  0.81610213939E+03  0.21666972200E+03  0.87167318586E+03  0.12699999809E+01 0. -1.
</event>
<event>
 5   0  0.1419012E-05  0.1693383E+04  0.7818609E-02  0.8765147E-01
        2   -1    0    0  501    0  0.00000000000E+00  0.00000000000E+00  0.17911650914E+04  0.17911650914E+04  0.25500000920E-02 0. -1.
       -2   -1    0    0    0  501  0.00000000000E+00  0.00000000000E+00 -0.40023464947E+03  0.40023464948E+03  0.25500000920E-02 0.  1.
    10030    2    1    2    0    0  0.00000000000E+00  0.00000000000E+00  0.13909304419E+04  0.21913997409E+04  0.16933828067E+04 0.  0.
        4    1    3    3  502    0  0.76747055148E+03 -0.23455124534E+03  0.10447737679E+04  0.13174138200E+04  0.12699999809E+01 0. -1.
       -4    1    3    3    0  502 -0.76747055148E+03  0.23455124534E+03  0.34615667403E+03  0.87398592091E+03  0.12699999809E+01 0.  1.
</event>
<event>
 5   0  0.7476457E-06  0.1700350E+04  0.7818609E-02  0.8761165E-01
       -1   -1    0    0    0  501  0.00000000000E+00  0.00000000000E+00  0.27461882226E+03  0.27461882230E+03  0.50400001928E-02 0.  1.
        1   -1    0    0  501    0  0.00000000000E+00  0.00000000000E+00 -0.26320022127E+04  0.26320022127E+04  0.50400001928E-02 0. -1.
    10030    2    1    2    0    0  0.00000000000E+00  0.00000000000E+00 -0.23573833905E+04  0.29066210350E+04  0.17003497851E+04 0.  0.
        2    1    3    3  502    0  0.61979922633E+03  0.52110331761E+03 -0.73589575312E+03  0.10941856826E+04  0.25500000920E-02 0.  1.
       -2    1    3    3    0  502 -0.61979922633E+03 -0.52110331761E+03 -0.16214876373E+04  0.18124353524E+04  0.25500000920E-02 0. -1.
</event>
<event>
 5   0  0.1423543E-05  0.1700640E+04  0.7818609E-02  0.8761000E-01
       -2   -1    0    0    0  501  0.00000000000E+00  0.00000000000E+00  0.49181020090E+03  0.49181020091E+03  0.25500000920E-02 0. -1.
        2   -1    0    0  501    0  0.00000000000E+00  0.00000000000E+00 -0.14701685590E+04  0.14701685590E+04  0.25500000920E-02 0.  1.
    10030    2    1    2    0    0  0.00000000000E+00  0.00000000000E+00 -0.97835835812E+03  0.19619787599E+04  0.17006397554E+04 0.  0.
        3    1    3    3  502    0 -0.10209437863E+03  0.37513659668E+03 -0.13616269227E+04  0.14160432957E+04  0.10100000352E+00 0.  1.
       -3    1    3    3    0  502  0.10209437863E+03 -0.37513659668E+03  0.38326856461E+03  0.54593546426E+03  0.10100000352E+00 0. -1.
</event>
<event>
 5   0  0.7455669E-06  0.1700214E+04  0.7818609E-02  0.8761243E-01
        1   -1    0    0  501    0  0.00000000000E+00  0.00000000000E+00  0.62269369697E+03  0.62269369699E+03  0.50400001928E-02 0.  1.
       -1   -1    0    0    0  501  0.00000000000E+00  0.00000000000E+00 -0.11605731129E+04  0.11605731129E+04  0.50400001928E-02 0. -1.
    10030    2    1    2    0    0  0.00000000000E+00  0.00000000000E+00 -0.53787941592E+03  0.17832668099E+04  0.17002135893E+04 0.  0.
        4    1    3    3  502    0 -0.66300570947E+03 -0.24633933021E+03  0.22571263139E+03  0.74243345915E+03  0.12699999809E+01 0.  1.
       -4    1    3    3    0  502  0.66300570947E+03  0.24633933021E+03 -0.76359204732E+03  0.10408333507E+04  0.12699999809E+01 0. -1.
</event>
<event>
 5   0  0.1374441E-05  0.1710332E+04  0.7818609E-02  0.8755494E-01
        2   -1    0    0  501    0  0.00000000000E+00  0.00000000000E+00  0.16763558795E+04  0.16763558795E+04  0.25500000920E-02 0. -1.
       -2   -1    0    0    0  501  0.00000000000E+00  0.00000000000E+00 -0.43624898373E+03  0.43624898373E+03  0.25500000920E-02 0.  1.
    10030    2    1    2    0    0  0.00000000000E+00  0.00000000000E+00  0.12401068957E+04  0.21126048632E+04  0.17103316039E+04 0.  0.
        1    1    3    3  502    0 -0.11173356975E+03 -0.77200682073E+03  0.10529553766E+04  0.13104174705E+04  0.50400001928E-02 0. -1.
       -1    1    3    3    0  502  0.11173356975E+03  0.77200682073E+03  0.18715151914E+03  0.80218739270E+03  0.50400001928E-02 0.  1.
</event>
<event>
 5   0  0.1435301E-05  0.1699553E+04  0.7818609E-02  0.8761619E-01
       -2   -1    0    0    0  501  0.00000000000E+00  0.00000000000E+00  0.50429386340E+03  0.50429386340E+03  0.25500000920E-02 0. -1.
        2   -1    0    0  501    0  0.00000000000E+00  0.00000000000E+00 -0.14319433493E+04  0.14319433493E+04  0.25500000920E-02 0.  1.
    10030    2    1    2    0    0  0.00000000000E+00  0.00000000000E+00 -0.92764948587E+03  0.19362372127E+04  0.16995531692E+04 0.  0.
        2    1    3    3  502    0 -0.43983028345E+03 -0.66878478740E+03 -0.13879238227E+03  0.81239589824E+03  0.25500000920E-02 0. -1.
       -2    1    3    3    0  502  0.43983028345E+03  0.66878478740E+03 -0.78885710360E+03  0.11238413144E+04  0.25500000920E-02 0.  1.
</event>
<event>
 5   0  0.7455669E-06  0.1701585E+04  0.7818609E-02  0.8760461E-01
        1   -1    0    0  501    0  0.00000000000E+00  0.00000000000E+00  0.15914544064E+04  0.15914544064E+04  0.50400001928E-02 0.  1.
       -1   -1    0    0    0  501  0.00000000000E+00  0.00000000000E+00 -0.45483399336E+03  0.45483399338E+03  0.50400001928E-02 0. -1.
    10030    2    1    2    0    0  0.00000000000E+00  0.00000000000E+00  0.11366204131E+04  0.20462883998E+04  0.17015846296E+04 0.  0.
        4    1    3    3  502    0  0.24289869707E+03 -0.81181978339E+03  0.65985485803E+03  0.10739931025E+04  0.12699999809E+01 0. -1.
       -4    1    3    3    0  502 -0.24289869707E+03  0.81181978339E+03  0.47676555506E+03  0.97229529729E+03  0.12699999809E+01 0.  1.
</event>
<event>
 5   0  0.7476457E-06  0.1701152E+04  0.7818609E-02  0.8760707E-01
       -1   -1    0    0    0  501  0.00000000000E+00  0.00000000000E+00  0.47909004749E+03  0.47909004752E+03  0.50400001928E-02 0. -1.
        1   -1    0    0  501    0  0.00000000000E+00  0.00000000000E+00 -0.15101125068E+04  0.15101125068E+04  0.50400001928E-02 0.  1.
    10030    2    1    2    0    0  0.00000000000E+00  0.00000000000E+00 -0.10310224593E+04  0.19892025543E+04  0.17011524007E+04 0.  0.
        2    1    3    3  502    0 -0.90356251405E+02 -0.47133199137E+03  0.30565388125E+03  0.56898364949E+03  0.25500000920E-02 0. -1.
       -2    1    3    3    0  502  0.90356251405E+02  0.47133199137E+03 -0.13366763405E+04  0.14202189048E+04  0.25500000920E-02 0.  1.
</event>
<event>
 5   0  0.1419012E-05  0.1701089E+04  0.7818609E-02  0.8760743E-01
        2   -1    0    0  501    0  0.00000000000E+00  0.00000000000E+00  0.72975877787E+03  0.72975877787E+03  0.25500000920E-02 0.  1.
       -2   -1    0    0    0  501  0.00000000000E+00  0.00000000000E+00 -0.99132232845E+03  0.99132232845E+03  0.25500000920E-02 0. -1.
    10030    2    1    2    0    0  0.00000000000E+00  0.00000000000E+00 -0.26156355058E+03  0.17210811063E+04  0.17010892638E+04 0.  0.
        4    1    3    3  502    0  0.25839678084E+03 -0.79455313588E+03 -0.29184111023E+03  0.88501775610E+03  0.12699999809E+01 0. -1.
       -4    1    3    3    0  502 -0.25839678084E+03  0.79455313588E+03  0.30277559652E+02  0.83606335023E+03  0.12699999809E+01 0.  1.
</event>
<event>
 5   0  0.1419012E-05  0.1700070E+04  0.7818609E-02  0.8761325E-01
       -2   -1    0    0    0  501  0.00000000000E+00  0.00000000000E+00  0.48126094548E+03  0.48126094549E+03  0.25500000920E-02 0. -1.
        2   -1    0    0  501    0  0.00000000000E+00  0.00000000000E+00 -0.15013878389E+04  0.15013878389E+04  0.25500000920E-02 0.  1.
    10030    2    1    2    0    0  0.00000000000E+00  0.00000000000E+00 -0.10201268934E+04  0.19826487844E+04  0.17000697996E+04 0.  0.
        4    1    3    3  502    0 -0.21379668368E+03  0.75981789257E+03 -0.87797730418E+03  0.11806261099E+04  0.12699999809E+01 0.  1.
       -4    1    3    3    0  502  0.21379668368E+03 -0.75981789257E+03 -0.14214958927E+03  0.80202267452E+03  0.12699999809E+01 0. -1.
</event>
<event>
 5   0  0.7455669E-06  0.1698144E+04  0.7818609E-02  0.8762424E-01
        1   -1    0    0  501    0  0.00000000000E+00  0.00000000000E+00  0.86515175544E+03  0.86515175546E+03  0.50400001928E-02 0.  1.
       -1   -1    0    0    0  501  0.00000000000E+00  0.00000000000E+00 -0.83329119233E+03  0.83329119234E+03  0.50400001928E-02 0. -1.
    10030    2    1    2    0    0  0.00000000000E+00  0.00000000000E+00  0.31860563115E+02  0.16984429478E+04  0.16981440903E+04 0.  0.
        4    1    3    3  502    0  0.55258081633E+03 -0.23699287205E+03 -0.58368381261E+03  0.83797349956E+03  0.12699999809E+01 0. -1.
       -4    1    3    3    0  502 -0.55258081633E+03  0.23699287205E+03  0.61554437572E+03  0.86046944824E+03  0.12699999809E+01 0.  1.
</event>
<event>
 5   0  0.7476457E-06  0.1700201E+04  0.7818609E-02  0.8761250E-01
        1   -1    0    0  501    0  0.00000000000E+00  0.00000000000E+00  0.85945054592E+03  0.85945054594E+03  0.50400001928E-02 0.  1.
       -1   -1    0    0    0  501  0.00000000000E+00  0.00000000000E+00 -0.84085201694E+03  0.84085201695E+03  0.50400001928E-02 0. -1.
    10030    2    1    2    0    0  0.00000000000E+00  0.00000000000E+00  0.18598528985E+02  0.17003025629E+04  0.17002008411E+04 0.  0.
        2    1    3    3  502    0  0.36440588391E+03 -0.41404432185E+03  0.65621227913E+03  0.85722745172E+03  0.25500000920E-02 0.  1.
       -2    1    3    3    0  502 -0.36440588391E+03  0.41404432185E+03 -0.63761375015E+03  0.84307511117E+03  0.25500000920E-02 0. -1.
</event>
<event>
 5   0  0.1441756E-05  0.1699611E+04  0.7818609E-02  0.8761586E-01
        2   -1    0    0  501    0  0.00000000000E+00  0.00000000000E+00  0.70562884057E+03  0.70562884058E+03  0.25500000920E-02 0. -1.
       -2   -1    0    0    0  501  0.00000000000E+00  0.00000000000E+00 -0.10234412318E+04  0.10234412318E+04  0.25500000920E-02 0.  1.
    10030    2    1    2    0    0  0.00000000000E+00  0.00000000000E+00 -0.31781239122E+03  0.17290700724E+04  0.16996113083E+04 0.  0.
        5    1    3    3  502    0  0.25902047866E+02 -0.79159415472E+03 -0.47223034523E+03  0.92212570229E+03  0.46999998093E+01 0. -1.
       -5    1    3    3    0  502 -0.25902047866E+02  0.79159415472E+03  0.15441795401E+03  0.80694437007E+03  0.46999998093E+01 0.  1.
</event>
<event>
 5   0  0.1441756E-05  0.1701264E+04  0.7818609E-02  0.8760644E-01
        2   -1    0    0  501    0  0.00000000000E+00  0.00000000000E+00  0.26129053185E+04  0.26129053185E+04  0.25500000920E-02 0. -1.
       -2   -1    0    0    0  501  0.00000000000E+00  0.00000000000E+00 -0.27692347225E+03  0.27692347226E+03  0.25500000920E-02 0.  1.
    10030    2    1    2    0    0  0.00000000000E+00  0.00000000000E+00  0.23359818463E+04  0.28898287908E+04  0.17012640165E+04 0.  0.
        5    1    3    3  502    0 -0.35285735121E+03  0.28338044492E+03 -0.55428129318E+02  0.45596836993E+03  0.46999998093E+01 0.  1.
       -5    1    3    3    0  502  0.35285735121E+03 -0.28338044492E+03  0.23914099756E+04  0.24338604209E+04  0.46999998093E+01 0. -1.
</event>
<event>
 5   0  0.7583716E-06  0.1699385E+04  0.7818609E-02  0.8761715E-01
        1   -1    0    0  501    0  0.00000000000E+00  0.00000000000E+00  0.12581493253E+04  0.12581493253E+04  0.50400001928E-02 0.  1.
       -1   -1    0    0    0  501  0.00000000000E+00  0.00000000000E+00 -0.57384098841E+03  0.57384098843E+03  0.50400001928E-02 0. -1.
    10030    2    1    2    0    0  0.00000000000E+00  0.00000000000E+00  0.68430833688E+03  0.18319903137E+04  0.16993853623E+04 0.  0.
        5    1    3    3  502    0 -0.70405197682E+03 -0.47471625683E+03  0.37468949535E+03  0.92814816624E+03  0.46999998093E+01 0.  1.
       -5    1    3    3    0  502  0.70405197682E+03  0.47471625683E+03  0.30961884153E+03  0.90384214750E+03  0.46999998093E+01 0. -1.
</event>
<event>
 5   0  0.1435301E-05  0.1700911E+04  0.7818609E-02  0.8760845E-01
       -2   -1    0    0    0  501  0.00000000000E+00  0.00000000000E+00  0.63859463697E+03  0.63859463698E+03  0.25500000920E-02 0. -1.
        2   -1    0    0  501    0  0.00000000000E+00  0.00000000000E+00 -0.11326036178E+04  0.11326036178E+04  0.25500000920E-02 0.  1.
    10030    2    1    2    0    0  0.00000000000E+00  0.00000000000E+00 -0.49400898084E+03  0.17711982548E+04  0.17009110455E+04 0.  0.
        2    1    3    3  502    0 -0.15049031106E+03  0.14917626626E+03 -0.11046742086E+04  0.11248137620E+04  0.25500000920E-02 0.  1.
       -2    1    3    3    0  502  0.15049031106E+03 -0.14917626626E+03  0.61066522773E+03  0.64638449277E+03  0.25500000920E-02 0. -1.
</event>
<event>
 5   0  0.7455669E-06  0.1700097E+04  0.7818609E-02  0.8761309E-01
        1   -1    0    0  501    0  0.00000000000E+00  0.00000000000E+00  0.10119720829E+04  0.10119720829E+04  0.50400001928E-02 0.  1.
       -1   -1    0    0    0  501  0.00000000000E+00  0.00000000000E+00 -0.71403381779E+03  0.71403381781E+03  0.50400001928E-02 0. -1.
    10030    2    1    2    0    0  0.00000000000E+00  0.00000000000E+00  0.29793826510E+03  0.17260059007E+04  0.17000968089E+04 0.  0.
        4    1    3    3  502    0  0.46407733187E+02  0.24281906697E+02  0.10103313617E+04  0.10116888662E+04  0.12699999809E+01 0.  1.
       -4    1    3    3    0  502 -0.46407733187E+02 -0.24281906697E+02 -0.71239309663E+03  0.71431703446E+03  0.12699999809E+01 0. -1.
</event>
<event>
 5   0  0.1423543E-05  0.1700484E+04  0.7818609E-02  0.8761088E-01
        2   -1    0    0  501    0  0.00000000000E+00  0.00000000000E+00  0.11621837039E+04  0.11621837039E+04  0.25500000920E-02 0.  1.
       -2   -1    0    0    0  501  0.00000000000E+00  0.00000000000E+00 -0.62202870408E+03  0.62202870408E+03  0.25500000920E-02 0. -1.
    10030    2    1    2    0    0  0.00000000000E+00  0.00000000000E+00  0.54015499981E+03  0.17842124080E+04  0.17004841937E+04 0.  0.
        3    1    3    3  502    0 -0.64191964722E+03 -0.13331095998E+03 -0.29794597230E+03  0.72014197083E+03  0.10100000352E+00 0. -1.
       -3    1    3    3    0  502  0.64191964722E+03  0.13331095998E+03  0.83810097211E+03  0.10640704371E+04  0.10100000352E+00 0.  1.
</event>
<event>
 5   0  0.5229750E-06  0.1697694E+04  0.7818609E-02  0.8762681E-01
       -4   -1    0    0    0  501  0.00000000000E+00  0.00000000000E+00  0.83696871319E+03  0.83696967673E+03  0.12699999809E+01 0. -1.
        4   -1    0    0  501    0  0.00000000000E+00  0.00000000000E+00 -0.86089161926E+03  0.86089255602E+03  0.12699999809E+01 0.  1.
    10030    2    1    2    0    0  0.00000000000E+00  0.00000000000E+00 -0.23922906068E+02  0.16978622327E+04  0.16976936873E+04 0.  0.
        2    1    3    3  502    0 -0.65196808760E+03 -0.34495938377E+03 -0.43210029184E+03  0.85485087934E+03  0.25500000920E-02 0. -1.
       -2    1    3    3    0  502  0.65196808760E+03  0.34495938377E+03  0.40817738577E+03  0.84301135340E+03  0.25500000920E-02 0.  1.
</event>
<event>
 5   0  0.1435301E-05  0.1701363E+04  0.7818609E-02  0.8760587E-01
       -2   -1    0    0    0  501  0.00000000000E+00  0.00000000000E+00  0.39369483278E+03  0.39369483279E+03  0.25500000920E-02 0. -1.
        2   -1    0    0  501    0  0.00000000000E+00  0.00000000000E+00 -0.18381216305E+04  0.18381216305E+04  0.25500000920E-02 0.  1.
    10030    2    1    2    0    0  0.00000000000E+00  0.00000000000E+00 -0.14444267978E+04  0.22318164633E+04  0.17013629689E+04 0.  0.
        2    1    3    3  502    0 -0.23164239151E+03  0.13765676711E+03 -0.17806604595E+04  0.18009328847E+04  0.25500000920E-02 0.  1.
       -2    1    3    3    0  502  0.23164239151E+03 -0.13765676711E+03  0.33623366173E+03  0.43088357866E+03  0.25500000920E-02 0. -1.
</event>
<event>
 5   0  0.7461128E-06  0.1700939E+04  0.7818609E-02  0.8760829E-01
        1   -1    0    0  501    0  0.00000000000E+00  0.00000000000E+00  0.14169182636E+04  0.14169182636E+04  0.50400001928E-02 0. -1.
       -1   -1    0    0    0  501  0.00000000000E+00  0.00000000000E+00 -0.51047276439E+03  0.51047276441E+03  0.50400001928E-02 0.  1.
    10030    2    1    2    0    0  0.00000000000E+00  0.00000000000E+00  0.90644549921E+03  0.19273910280E+04  0.17009387796E+04 0.  0.
        3    1    3    3  502    0  0.45308277520E+03 -0.13896298366E+03  0.12534297407E+04  0.13400301627E+04  0.10100000352E+00 0. -1.
       -3    1    3    3    0  502 -0.45308277520E+03  0.13896298366E+03 -0.34698424149E+03  0.58736086527E+03  0.10100000352E+00 0.  1.
</event>
<event>
 5   0  0.1435301E-05  0.1700677E+04  0.7818609E-02  0.8760978E-01
       -2   -1    0    0    0  501  0.00000000000E+00  0.00000000000E+00  0.63013632867E+03  0.63013632868E+03  0.25500000920E-02 0. -1.
        2   -1    0    0  501    0  0.00000000000E+00  0.00000000000E+00 -0.11474905951E+04  0.11474905951E+04  0.25500000920E-02 0.  1.
    10030    2    1    2    0    0  0.00000000000E+00  0.00000000000E+00 -0.51735426639E+03  0.17776269237E+04  0.17006769367E+04 0.  0.
        2    1    3    3  502    0 -0.71483971495E+03 -0.20928960596E+03  0.17010027222E+03  0.76402359902E+03  0.25500000920E-02 0. -1.
       -2    1    3    3    0  502  0.71483971495E+03  0.20928960596E+03 -0.68745453861E+03  0.10136033247E+04  0.25500000920E-02 0.  1.
</event>
<event>
 5   0  0.7583716E-06  0.1700174E+04  0.7818609E-02  0.8761265E-01
       -1   -1    0    0    0  501  0.00000000000E+00  0.00000000000E+00  0.51594477172E+03  0.51594477175E+03  0.50400001928E-02 0.  1.
        1   -1    0    0  501    0  0.00000000000E+00  0.00000000000E+00 -0.14006297624E+04  0.14006297624E+04  0.50400001928E-02 0. -1.
    10030    2    1    2    0    0  0.00000000000E+00  0.00000000000E+00 -0.88468499070E+03  0.19165745342E+04  0.17001736418E+04 0.  0.
        5    1    3    3  502    0 -0.44643639919E+02  0.19311781003E+03  0.48951651951E+03  0.52814397280E+03  0.46999998093E+01 0.  1.
       -5    1    3    3    0  502  0.44643639919E+02 -0.19311781003E+03 -0.13742015102E+04  0.13884305614E+04  0.46999998093E+01 0. -1.
</event>
<event>
 5   0  0.7455669E-06  0.1699790E+04  0.7818609E-02  0.8761484E-01
       -1   -1    0    0    0  501  0.00000000000E+00  0.00000000000E+00  0.57288725151E+03  0.57288725153E+03  0.50400001928E-02 0.  1.
        1   -1    0    0  501    0  0.00000000000E+00  0.00000000000E+00 -0.12608441240E+04  0.12608441241E+04  0.50400001928E-02 0. -1.
    10030    2    1    2    0    0  0.00000000000E+00  0.00000000000E+00 -0.68795687254E+03  0.18337313756E+04  0.16997900162E+04 0.  0.
        4    1    3    3  502    0  0.38776852965E+03 -0.58527354557E+03 -0.86068853723E+03  0.11107186533E+04  0.12699999809E+01 0. -1.
       -4    1    3    3    0  502 -0.38776852965E+03  0.58527354557E+03  0.17273166469E+03  0.72301272230E+03  0.12699999809E+01 0.  1.
</event>
<event>
 5   0  0.1423543E-05  0.1702244E+04  0.7818609E-02  0.8760086E-01
       -2   -1    0    0    0  501  0.00000000000E+00  0.00000000000E+00  0.41372281140E+03  0.41372281140E+03  0.25500000920E-02 0. -1.
        2   -1    0    0  501    0  0.00000000000E+00  0.00000000000E+00 -0.17509517808E+04  0.17509517808E+04  0.25500000920E-02 0.  1.
    10030    2    1    2    0    0  0.00000000000E+00  0.00000000000E+00 -0.13372289694E+04  0.21646745922E+04  0.17022440405E+04 0.  0.
        3    1    3    3  502    0  0.11246647046E+02 -0.84925351481E+03 -0.73885180993E+03  0.11257264440E+04  0.10100000352E+00 0.  1.
       -3    1    3    3    0  502 -0.11246647046E+02  0.84925351481E+03 -0.59837715947E+03  0.10389481482E+04  0.10100000352E+00 0. -1.
</event>
<event>
 5   0  0.7461128E-06  0.1700442E+04  0.7818609E-02  0.8761112E-01
        1   -1    0    0  501    0  0.00000000000E+00  0.00000000000E+00  0.24192805434E+04  0.24192805434E+04  0.50400001928E-02 0.  1.
       -1   -1    0    0    0  501  0.00000000000E+00  0.00000000000E+00 -0.29879787390E+03  0.29879787394E+03  0.50400001928E-02 0. -1.
    10030    2    1    2    0    0  0.00000000000E+00  0.00000000000E+00  0.21204826695E+04  0.27180784173E+04  0.17004421576E+04 0.  0.
        3    1    3    3  502    0 -0.37784895298E+03 -0.34056602841E+02  0.22764811552E+04  0.23078769775E+04  0.10100000352E+00 0.  1.
       -3    1    3    3    0  502  0.37784895298E+03  0.34056602841E+02 -0.15599848569E+03  0.41020143979E+03  0.10100000352E+00 0. -1.
</event>
<event>
 5   0  0.7476457E-06  0.1699619E+04  0.7818609E-02  0.8761582E-01
        1   -1    0    0  501    0  0.00000000000E+00  0.00000000000E+00  0.11710304439E+04  0.11710304439E+04  0.50400001928E-02 0.  1.
       -1   -1    0    0    0  501  0.00000000000E+00  0.00000000000E+00 -0.61670141075E+03  0.61670141077E+03  0.50400001928E-02 0. -1.
    10030    2    1    2    0    0  0.00000000000E+00  0.00000000000E+00  0.55432903313E+03  0.17877318547E+04  0.16996189300E+04 0.  0.
        2    1    3    3  502    0 -0.39949059059E+03 -0.13366132079E+03  0.10534772342E+04  0.11345802588E+04  0.25500000920E-02 0.  1.
       -2    1    3    3    0  502  0.39949059059E+03  0.13366132079E+03 -0.49914820103E+03  0.65315159591E+03  0.25500000920E-02 0. -1.
</event>
<event>
 5   0  0.7476457E-06  0.1700958E+04  0.7818609E-02  0.8760818E-01
        1   -1    0    0  501    0  0.00000000000E+00  0.00000000000E+00  0.15221053135E+04  0.15221053136E+04  0.50400001928E-02 0. -1.
       -1   -1    0    0    0  501  0.00000000000E+00  0.00000000000E+00 -0.47520674631E+03  0.47520674634E+03  0.50400001928E-02 0.  1.
    10030    2    1    2    0    0  0.00000000000E+00  0.00000000000E+00  0.10468985672E+04  0.19973120599E+04  0.17009582166E+04 0.  0.
        2    1    3    3  502    0  0.52134783866E+03 -0.54627495776E+03  0.64005351271E+02  0.75783677883E+03  0.25500000920E-02 0.  1.
       -2    1    3    3    0  502 -0.52134783866E+03  0.54627495776E+03  0.98289321597E+03  0.12394752811E+04  0.25500000920E-02 0. -1.
</event>
<event>
 5   0  0.1419012E-05  0.1699837E+04  0.7818609E-02  0.8761457E-01
        2   -1    0    0  501    0  0.00000000000E+00  0.00000000000E+00  0.16307323737E+04  0.16307323737E+04  0.25500000920E-02 0. -1.
       -2   -1    0    0    0  501  0.00000000000E+00  0.00000000000E+00 -0.44296751205E+03  0.44296751205E+03  0.25500000920E-02 0.  1.
    10030    2    1    2    0    0  0.00000000000E+00  0.00000000000E+00  0.11877648616E+04  0.20736998857E+04  0.16998370068E+04 0.  0.
        4    1    3    3  502    0  0.47400258673E+03  0.63681847479E+03  0.22356745432E+03  0.82474253049E+03  0.12699999809E+01 0. -1.
       -4    1    3    3    0  502 -0.47400258673E+03 -0.63681847479E+03  0.96419740730E+03  0.12489573552E+04  0.12699999809E+01 0.  1.
</event>
<event>
 5   0  0.7082527E-06  0.1700584E+04  0.7818609E-02  0.8761032E-01
       -1   -1    0    0    0  501  0.00000000000E+00  0.00000000000E+00  0.52908614433E+03  0.52908614435E+03  0.50400001928E-02 0. -1.
        1   -1    0    0  501    0  0.00000000000E+00  0.00000000000E+00 -0.13664998032E+04  0.13664998032E+04  0.50400001928E-02 0.  1.
    10030    2    1    2    0    0  0.00000000000E+00  0.00000000000E+00 -0.83741365885E+03  0.18955859475E+04  0.17005835612E+04 0.  0.
        1    1    3    3  502    0 -0.59796659440E+03  0.28985316098E+03  0.17261080356E+03  0.68656637878E+03  0.50400001928E-02 0. -1.
       -1    1    3    3    0  502  0.59796659440E+03 -0.28985316098E+03 -0.10100244624E+04  0.12090195688E+04  0.50400001928E-02 0.  1.
</event>
<event>
 5   0  0.7082527E-06  0.1697697E+04  0.7818609E-02  0.8762679E-01
        1   -1    0    0  501    0  0.00000000000E+00  0.00000000000E+00  0.20006063507E+04  0.20006063508E+04  0.50400001928E-02 0. -1.
       -1   -1    0    0    0  501  0.00000000000E+00  0.00000000000E+00 -0.36016275597E+03  0.36016275601E+03  0.50400001928E-02 0.  1.
    10030    2    1    2    0    0  0.00000000000E+00  0.00000000000E+00  0.16404435948E+04  0.23607691068E+04  0.16976971425E+04 0.  0.
        1    1    3    3  502    0 -0.13439547025E+03  0.83666365455E+03  0.75103218930E+03  0.11323063025E+04  0.50400001928E-02 0. -1.
       -1    1    3    3    0  502  0.13439547025E+03 -0.83666365455E+03  0.88941140548E+03  0.12284628043E+04  0.50400001928E-02 0.  1.
</event>
<event>
 5   0  0.1441756E-05  0.1700962E+04  0.7818609E-02  0.8760816E-01
        2   -1    0    0  501    0  0.00000000000E+00  0.00000000000E+00  0.12422458701E+04  0.12422458702E+04  0.25500000920E-02 0. -1.
       -2   -1    0    0    0  501  0.00000000000E+00  0.00000000000E+00 -0.58226645099E+03  0.58226645100E+03  0.25500000920E-02 0.  1.
    10030    2    1    2    0    0  0.00000000000E+00  0.00000000000E+00  0.65997941916E+03  0.18245123211E+04  0.17009621913E+04 0.  0.
        5    1    3    3  502    0  0.70759868486E+03  0.38039315176E+03  0.30608809585E+02  0.80396134108E+03  0.46999998093E+01 0.  1.
       -5    1    3    3    0  502 -0.70759868486E+03 -0.38039315176E+03  0.62937060958E+03  0.10205509801E+04  0.46999998093E+01 0. -1.
</event>
<event>
 5   0  0.1374441E-05  0.1702464E+04  0.7818609E-02  0.8759960E-01
        2   -1    0    0  501    0  0.00000000000E+00  0.00000000000E+00  0.16526214486E+04  0.16526214486E+04  0.25500000920E-02 0. -1.
       -2   -1    0    0    0  501  0.00000000000E+00  0.00000000000E+00 -0.43845230504E+03  0.43845230505E+03  0.25500000920E-02 0.  1.
    10030    2    1    2    0    0  0.00000000000E+00  0.00000000000E+00  0.12141691436E+04  0.20910737537E+04  0.17024637247E+04 0.  0.
        1    1    3    3  502    0 -0.84992181356E+03 -0.22258237884E+02  0.65821877125E+03  0.10752276360E+04  0.50400001928E-02 0. -1.
       -1    1    3    3    0  502  0.84992181356E+03  0.22258237884E+02  0.55595037233E+03  0.10158461177E+04  0.50400001928E-02 0.  1.
</event>
<event>
 5   0  0.1374441E-05  0.1699935E+04  0.7818609E-02  0.8761401E-01
       -2   -1    0    0    0  501  0.00000000000E+00  0.00000000000E+00  0.60572186663E+03  0.60572186663E+03  0.25500000920E-02 0.  1.
        2   -1    0    0  501    0  0.00000000000E+00  0.00000000000E+00 -0.11927007652E+04  0.11927007652E+04  0.25500000920E-02 0. -1.
    10030    2    1    2    0    0  0.00000000000E+00  0.00000000000E+00 -0.58697889861E+03  0.17984226319E+04  0.16999352151E+04 0.  0.
        1    1    3    3  502    0 -0.20285136473E+03  0.81181406024E+03 -0.45131062595E+03  0.95072184455E+03  0.50400001928E-02 0.  1.
       -1    1    3    3    0  502  0.20285136473E+03 -0.81181406024E+03 -0.13566827265E+03  0.84770078732E+03  0.50400001928E-02 0. -1.
</event>
<event>
 5   0  0.7461128E-06  0.1699984E+04  0.7818609E-02  0.8761373E-01
        1   -1    0    0  501    0  0.00000000000E+00  0.00000000000E+00  0.79254094058E+03  0.79254094060E+03  0.50400001928E-02 0.  1.
       -1   -1    0    0    0  501  0.00000000000E+00  0.00000000000E+00 -0.91160778106E+03  0.91160778107E+03  0.50400001928E-02 0. -1.
    10030    2    1    2    0    0  0.00000000000E+00  0.00000000000E+00 -0.11906684047E+03  0.17041487217E+04  0.16999841038E+04 0.  0.
        3    1    3    3  502    0 -0.44244168673E+02  0.43206422592E+03  0.67290653424E+03  0.80089965401E+03  0.10100000352E+00 0.  1.
       -3    1    3    3    0  502  0.44244168673E+02 -0.43206422592E+03 -0.79197337471E+03  0.90324906766E+03  0.10100000352E+00 0. -1.
</event>
<event>
 5   0  0.1441756E-05  0.1698692E+04  0.7818609E-02  0.8762111E-01
        2   -1    0    0  501    0  0.00000000000E+00  0.00000000000E+00  0.20514462902E+04  0.20514462902E+04  0.25500000920E-02 0.  1.
       -2   -1    0    0    0  501  0.00000000000E+00  0.00000000000E+00 -0.35164878514E+03  0.35164878515E+03  0.25500000920E-02 0. -1.
    10030    2    1    2    0    0  0.00000000000E+00  0.00000000000E+00  0.16997975051E+04  0.24030950754E+04  0.16986919624E+04 0.  0.
        5    1    3    3  502    0 -0.41659154757E+03  0.18429474949E+03  0.18639874750E+04  0.19188497776E+04  0.46999998093E+01 0.  1.
       -5    1    3    3    0  502  0.41659154757E+03 -0.18429474949E+03 -0.16418996989E+03  0.48424529776E+03  0.46999998093E+01 0. -1.
</event>
<event>
 5   0  0.1435301E-05  0.1700222E+04  0.7818609E-02  0.8761238E-01
       -2   -1    0    0    0  501  0.00000000000E+00  0.00000000000E+00  0.37899917374E+03  0.37899917374E+03  0.25500000920E-02 0.  1.
        2   -1    0    0  501    0  0.00000000000E+00  0.00000000000E+00 -0.19068343088E+04  0.19068343088E+04  0.25500000920E-02 0. -1.
    10030    2    1    2    0    0  0.00000000000E+00  0.00000000000E+00 -0.15278351350E+04  0.22858334825E+04  0.17002219002E+04 0.  0.
        2    1    3    3  502    0  0.40013191568E+03  0.26297201938E+03  0.18047210416E+03  0.51169328050E+03  0.25500000920E-02 0.  1.
       -2    1    3    3    0  502 -0.40013191568E+03 -0.26297201938E+03 -0.17083072392E+04  0.17741402020E+04  0.25500000920E-02 0. -1.
</event>
<event>
 5   0  0.7583716E-06  0.1699905E+04  0.7818609E-02  0.8761419E-01
       -1   -1    0    0    0  501  0.00000000000E+00  0.00000000000E+00  0.11558510257E+04  0.11558510257E+04  0.50400001928E-02 0. -1.
        1   -1    0    0  501    0  0.00000000000E+00  0.00000000000E+00 -0.62501067686E+03  0.62501067688E+03  0.50400001928E-02 0.  1.
    10030    2    1    2    0    0  0.00000000000E+00  0.00000000000E+00  0.53084034884E+03  0.17808617026E+04  0.16999049761E+04 0.  0.
        5    1    3    3  502    0 -0.26241751491E+03  0.42020868464E+03  0.98893261924E+03  0.11060958847E+04  0.46999998093E+01 0. -1.
       -5    1    3    3    0  502  0.26241751491E+03 -0.42020868464E+03 -0.45809227040E+03  0.67476581788E+03  0.46999998093E+01 0.  1.
</event>
<event>
 5   0  0.1374441E-05  0.1699926E+04  0.7818609E-02  0.8761407E-01
       -2   -1    0    0    0  501  0.00000000000E+00  0.00000000000E+00  0.41024911925E+03  0.41024911926E+03  0.25500000920E-02 0. -1.
        2   -1    0    0  501    0  0.00000000000E+00  0.00000000000E+00 -0.17609707403E+04  0.17609707403E+04  0.25500000920E-02 0.  1.
    10030    2    1    2    0    0  0.00000000000E+00  0.00000000000E+00 -0.13507216211E+04  0.21712198596E+04  0.16999255222E+04 0.  0.
        1    1    3    3  502    0 -0.72258132631E+02  0.66272557255E+03 -0.13488092184E+04  0.15045639667E+04  0.50400001928E-02 0.  1.
       -1    1    3    3    0  502  0.72258132631E+02 -0.66272557255E+03 -0.19124027111E+01  0.66665589291E+03  0.50400001928E-02 0. -1.
</event>
<event>
 5   0  0.1419012E-05  0.1699928E+04  0.7818609E-02  0.8761405E-01
        2   -1    0    0  501    0  0.00000000000E+00  0.00000000000E+00  0.18148736938E+04  0.18148736938E+04  0.25500000920E-02 0. -1.
       -2   -1    0    0    0  501  0.00000000000E+00  0.00000000000E+00 -0.39806574795E+03  0.39806574796E+03  0.25500000920E-02 0.  1.
    10030    2    1    2    0    0  0.00000000000E+00  0.00000000000E+00  0.14168079459E+04  0.22129394418E+04  0.16999282978E+04 0.  0.
        4    1    3    3  502    0 -0.57655827174E+02 -0.75993120272E+03  0.11982931778E+04  0.14201154108E+04  0.12699999809E+01 0.  1.
       -4    1    3    3    0  502  0.57655827174E+02  0.75993120272E+03  0.21851476809E+03  0.79282403095E+03  0.12699999809E+01 0. -1.
</event>
<event>
 5   0  0.1374441E-05  0.1698965E+04  0.7818609E-02  0.8761955E-01
       -2   -1    0    0    0  501  0.00000000000E+00  0.00000000000E+00  0.46361928194E+03  0.46361928195E+03  0.25500000920E-02 0. -1.
        2   -1    0    0  501    0  0.00000000000E+00  0.00000000000E+00 -0.15564933368E+04  0.15564933368E+04  0.25500000920E-02 0.  1.
    10030    2    1    2    0    0  0.00000000000E+00  0.00000000000E+00 -0.10928740548E+04  0.20201126187E+04  0.16989647709E+04 0.  0.
        1    1    3    3  502    0 -0.47973250597E+03  0.62740178113E+03 -0.17450941660E+03  0.80884473711E+03  0.50400001928E-02 0. -1.
       -1    1    3    3    0  502  0.47973250597E+03 -0.62740178113E+03 -0.91836463825E+03  0.12112678816E+04  0.50400001928E-02 0.  1.
</event>
<event>
 5   0  0.1435301E-05  0.1699649E+04  0.7818609E-02  0.8761565E-01
       -2   -1    0    0    0  501  0.00000000000E+00  0.00000000000E+00  0.55183169569E+03  0.55183169569E+03  0.25500000920E-02 0.  1.
        2   -1    0    0  501    0  0.00000000000E+00  0.00000000000E+00 -0.13087352174E+04  0.13087352174E+04  0.25500000920E-02 0. -1.
    10030    2    1    2    0    0  0.00000000000E+00  0.00000000000E+00 -0.75690352167E+03  0.18605669131E+04  0.16996488746E+04 0.  0.
        2    1    3    3  502    0 -0.10729356742E+03 -0.27270276581E+03 -0.12516741199E+04  0.12855219992E+04  0.25500000920E-02 0. -1.
       -2    1    3    3    0  502  0.10729356742E+03  0.27270276581E+03  0.49477059820E+03  0.57504491384E+03  0.25500000920E-02 0.  1.
</event>
<event>
 5   0  0.7476457E-06  0.1701639E+04  0.7818609E-02  0.8760430E-01
        1   -1    0    0  501    0  0.00000000000E+00  0.00000000000E+00  0.93099540104E+03  0.93099540106E+03  0.50400001928E-02 0.  1.
       -1   -1    0    0    0  501  0.00000000000E+00  0.00000000000E+00 -0.77754859869E+03  0.77754859871E+03  0.50400001928E-02 0. -1.
    10030    2    1    2    0    0  0.00000000000E+00  0.00000000000E+00  0.15344680235E+03  0.17085439998E+04  0.17016394089E+04 0.  0.
        2    1    3    3  502    0 -0.29675459954E+03 -0.75484564369E+02 -0.72030671194E+03  0.78268957517E+03  0.25500000920E-02 0. -1.
       -2    1    3    3    0  502  0.29675459954E+03  0.75484564369E+02  0.87375351429E+03  0.92585442460E+03  0.25500000920E-02 0.  1.
</event>
<event>
 5   0  0.7476457E-06  0.1696313E+04  0.7818609E-02  0.8763470E-01
        1   -1    0    0  501    0  0.00000000000E+00  0.00000000000E+00  0.95906779841E+03  0.95906779842E+03  0.50400001928E-02 0.  1.
       -1   -1    0    0    0  501  0.00000000000E+00  0.00000000000E+00 -0.75007135716E+03  0.75007135718E+03  0.50400001928E-02 0. -1.
    10030    2    1    2    0    0  0.00000000000E+00  0.00000000000E+00  0.20899644125E+03  0.17091391556E+04  0.16963128075E+04 0.  0.
        2    1    3    3  502    0 -0.59733255000E+02  0.22180912387E+03  0.92712864589E+03  0.95516222456E+03  0.25500000920E-02 0.  1.
       -2    1    3    3    0  502  0.59733255000E+02 -0.22180912387E+03 -0.71813220465E+03  0.75397693104E+03  0.25500000920E-02 0. -1.
</event>
<event>
 5   0  0.1374441E-05  0.1701798E+04  0.7818609E-02  0.8760340E-01
       -2   -1    0    0    0  501  0.00000000000E+00  0.00000000000E+00  0.47104979759E+03  0.47104979759E+03  0.25500000920E-02 0. -1.
        2   -1    0    0  501    0  0.00000000000E+00  0.00000000000E+00 -0.15370539403E+04  0.15370539403E+04  0.25500000920E-02 0.  1.
    10030    2    1    2    0    0  0.00000000000E+00  0.00000000000E+00 -0.10660041428E+04  0.20081037379E+04  0.17017978111E+04 0.  0.
        1    1    3    3  502    0  0.42514933920E+03  0.39413044255E+03 -0.12679548674E+04  0.13942023928E+04  0.50400001928E-02 0.  1.
       -1    1    3    3    0  502 -0.42514933920E+03 -0.39413044255E+03  0.20195072461E+03  0.61390134514E+03  0.50400001928E-02 0. -1.
</event>
<event>
 5   0  0.7082527E-06  0.1700283E+04  0.7818609E-02  0.8761203E-01
       -1   -1    0    0    0  501  0.00000000000E+00  0.00000000000E+00  0.36680678787E+03  0.36680678791E+03  0.50400001928E-02 0. -1.
        1   -1    0    0  501    0  0.00000000000E+00  0.00000000000E+00 -0.19703571769E+04  0.19703571769E+04  0.50400001928E-02 0.  1.
    10030    2    1    2    0    0  0.00000000000E+00  0.00000000000E+00 -0.16035503890E+04  0.23371639648E+04  0.17002827848E+04 0.  0.
        1    1    3    3  502    0  0.31610816236E+03  0.49350732192E+03  0.44750780677E+02  0.58777247256E+03  0.50400001928E-02 0. -1.
       -1    1    3    3    0  502 -0.31610816236E+03 -0.49350732192E+03 -0.16483011697E+04  0.17493914922E+04  0.50400001928E-02 0.  1.
</event>
<event>
 5   0  0.7583716E-06  0.1699256E+04  0.7818609E-02  0.8761789E-01
       -1   -1    0    0    0  501  0.00000000000E+00  0.00000000000E+00  0.13904149396E+04  0.13904149396E+04  0.50400001928E-02 0. -1.
        1   -1    0    0  501    0  0.00000000000E+00  0.00000000000E+00 -0.51917452473E+03  0.51917452476E+03  0.50400001928E-02 0.  1.
    10030    2    1    2    0    0  0.00000000000E+00  0.00000000000E+00  0.87124041486E+03  0.19095894644E+04  0.16992563261E+04 0.  0.
        5    1    3    3  502    0 -0.13040839552E+03  0.72714210624E+03 -0.35970938184E+02  0.73963368683E+03  0.46999998093E+01 0.  1.
       -5    1    3    3    0  502  0.13040839552E+03 -0.72714210624E+03  0.90721135305E+03  0.11699557775E+04  0.46999998093E+01 0. -1.
</event>
<event>
 5   0  0.1374441E-05  0.1698436E+04  0.7818609E-02  0.8762257E-01
        2   -1    0    0  501    0  0.00000000000E+00  0.00000000000E+00  0.22416971684E+04  0.22416971684E+04  0.25500000920E-02 0. -1.
       -2   -1    0    0    0  501  0.00000000000E+00  0.00000000000E+00 -0.32170762254E+03  0.32170762255E+03  0.25500000920E-02 0.  1.
    10030    2    1    2    0    0  0.00000000000E+00  0.00000000000E+00  0.19199895459E+04  0.25634047910E+04  0.16984358293E+04 0.  0.
        1    1    3    3  502    0  0.28960795757E+03  0.18866581131E+03  0.21307317106E+04  0.21585840683E+04  0.50400001928E-02 0. -1.
       -1    1    3    3    0  502 -0.28960795757E+03 -0.18866581131E+03 -0.21074216474E+03  0.40482072263E+03  0.50400001928E-02 0.  1.
</event>
<event>
 5   0  0.7455669E-06  0.1695496E+04  0.7818609E-02  0.8763938E-01
        1   -1    0    0  501    0  0.00000000000E+00  0.00000000000E+00  0.15368642175E+04  0.15368642175E+04  0.50400001928E-02 0.  1.
       -1   -1    0    0    0  501  0.00000000000E+00  0.00000000000E+00 -0.46762518106E+03  0.46762518109E+03  0.50400001928E-02 0. -1.
    10030    2    1    2    0    0  0.00000000000E+00  0.00000000000E+00  0.10692390364E+04  0.20044893986E+04  0.16954956892E+04 0.  0.
        4    1    3    3  502    0 -0.29801799857E+03  0.78010516319E+03  0.70714613783E+03  0.10942742189E+04  0.12699999809E+01 0. -1.
       -4    1    3    3    0  502  0.29801799857E+03 -0.78010516319E+03  0.36209289857E+03  0.91021517961E+03  0.12699999809E+01 0.  1.
</event>
<event>
 5   0  0.1435301E-05  0.1700516E+04  0.7818609E-02  0.8761070E-01
        2   -1    0    0  501    0  0.00000000000E+00  0.00000000000E+00  0.92634466531E+03  0.92634466532E+03  0.25500000920E-02 0.  1.
       -2   -1    0    0    0  501  0.00000000000E+00  0.00000000000E+00 -0.78042100654E+03  0.78042100655E+03  0.25500000920E-02 0. -1.
    10030    2    1    2    0    0  0.00000000000E+00  0.00000000000E+00  0.14592365877E+03  0.17067656719E+04  0.17005161994E+04 0.  0.
        2    1    3    3  502    0 -0.80134545481E+03 -0.46513551009E+02  0.35438627634E+03  0.87744383367E+03  0.25500000920E-02 0.  1.
       -2    1    3    3    0  502  0.80134545481E+03  0.46513551009E+02 -0.20846261758E+03  0.82932183820E+03  0.25500000920E-02 0. -1.
</event>
<event>
 5   0  0.7455669E-06  0.1700533E+04  0.7818609E-02  0.8761061E-01
       -1   -1    0    0    0  501  0.00000000000E+00  0.00000000000E+00  0.87832334707E+03  0.87832334709E+03  0.50400001928E-02 0. -1.
        1   -1    0    0  501    0  0.00000000000E+00  0.00000000000E+00 -0.82310555928E+03  0.82310555930E+03  0.50400001928E-02 0.  1.
    10030    2    1    2    0    0  0.00000000000E+00  0.00000000000E+00  0.55217787786E+02  0.17014289064E+04  0.17005326576E+04 0.  0.
        4    1    3    3  502    0 -0.17014997054E+03 -0.82372762641E+03 -0.96847186906E+02  0.84667538378E+03  0.12699999809E+01 0.  1.
       -4    1    3    3    0  502  0.17014997054E+03  0.82372762641E+03  0.15206497469E+03  0.85475352261E+03  0.12699999809E+01 0. -1.
</event>
<event>
 5   0  0.7082527E-06  0.1700904E+04  0.7818609E-02  0.8760849E-01
        1   -1    0    0  501    0  0.00000000000E+00  0.00000000000E+00  0.10018491841E+04  0.10018491841E+04  0.50400001928E-02 0.  1.
       -1   -1    0    0    0  501  0.00000000000E+00  0.00000000000E+00 -0.72193332820E+03  0.72193332821E+03  0.50400001928E-02 0. -1.
    10030    2    1    2    0    0  0.00000000000E+00  0.00000000000E+00  0.27991585591E+03  0.17237825123E+04  0.17009036608E+04 0.  0.
        1    1    3    3  502    0 -0.66930347934E+03 -0.49173166231E+03  0.32545307491E+03  0.89201282455E+03  0.50400001928E-02 0.  1.
       -1    1    3    3    0  502  0.66930347934E+03  0.49173166231E+03 -0.45537219001E+02  0.83176968778E+03  0.50400001928E-02 0. -1.
</event>
<event>
 5   0  0.1441756E-05  0.1699852E+04  0.7818609E-02  0.8761449E-01
        2   -1    0    0  501    0  0.00000000000E+00  0.00000000000E+00  0.14379873357E+04  0.14379873357E+04  0.25500000920E-02 0. -1.
       -2   -1    0    0    0  501  0.00000000000E+00  0.00000000000E+00 -0.50235085621E+03  0.50235085622E+03  0.25500000920E-02 0.  1.
    10030    2    1    2    0    0  0.00000000000E+00  0.00000000000E+00  0.93563647949E+03  0.19403381919E+04  0.16998519575E+04 0.  0.
        5    1    3    3  502    0  0.51503125703E+03 -0.67467804906E+03  0.51763173117E+03  0.99418930024E+03  0.46999998093E+01 0. -1.
       -5    1    3    3    0  502 -0.51503125703E+03  0.67467804906E+03  0.41800474832E+03  0.94614889168E+03  0.46999998093E+01 0.  1.
</event>
<event>
 5   0  0.7461128E-06  0.1699674E+04  0.7818609E-02  0.8761550E-01
        1   -1    0    0  501    0  0.00000000000E+00  0.00000000000E+00  0.12809986551E+04  0.12809986551E+04  0.50400001928E-02 0. -1.
       -1   -1    0    0    0  501  0.00000000000E+00  0.00000000000E+00 -0.56379685214E+03  0.56379685216E+03  0.50400001928E-02 0.  1.
    10030    2    1    2    0    0  0.00000000000E+00  0.00000000000E+00  0.71720180299E+03  0.18447955073E+04  0.16996740974E+04 0.  0.
        3    1    3    3  502    0 -0.72277862851E+03 -0.26391046751E+03  0.75018966286E+03  0.10746358551E+04  0.10100000352E+00 0. -1.
       -3    1    3    3    0  502  0.72277862851E+03  0.26391046751E+03 -0.32987859877E+02  0.77015965215E+03  0.10100000352E+00 0.  1.
</event>
<event>
 5   0  0.7461128E-06  0.1699870E+04  0.7818609E-02  0.8761439E-01
        1   -1    0    0  501    0  0.00000000000E+00  0.00000000000E+00  0.10136236488E+04  0.10136236489E+04  0.50400001928E-02 0. -1.
       -1   -1    0    0    0  501  0.00000000000E+00  0.00000000000E+00 -0.71267994771E+03  0.71267994772E+03  0.50400001928E-02 0.  1.
    10030    2    1    2    0    0  0.00000000000E+00  0.00000000000E+00  0.30094370114E+03  0.17263035966E+04  0.16998696998E+04 0.  0.
        3    1    3    3  502    0 -0.55303689126E+03 -0.67529464603E+02  0.80230912510E+03  0.97678553127E+03  0.10100000352E+00 0. -1.
       -3    1    3    3    0  502  0.55303689126E+03  0.67529464603E+02 -0.50136542396E+03  0.74951806531E+03  0.10100000352E+00 0.  1.
</event>
<event>
 5   0  0.1435301E-05  0.1699599E+04  0.7818609E-02  0.8761593E-01
       -2   -1    0    0    0  501  0.00000000000E+00  0.00000000000E+00  0.85720364693E+03  0.85720364693E+03  0.25500000920E-02 0.  1.
        2   -1    0    0  501    0  0.00000000000E+00  0.00000000000E+00 -0.84245959327E+03  0.84245959327E+03  0.25500000920E-02 0. -1.
    10030    2    1    2    0    0  0.00000000000E+00  0.00000000000E+00  0.14744053659E+02  0.16996632402E+04  0.16995992889E+04 0.  0.
        2    1    3    3  502    0 -0.52451562677E+03 -0.25759521236E+03  0.62439402690E+03  0.85518409538E+03  0.25500000920E-02 0.  1.
       -2    1    3    3    0  502  0.52451562677E+03  0.25759521236E+03 -0.60964997324E+03  0.84447914482E+03  0.25500000920E-02 0. -1.
</event>
<event>
 5   0  0.1419012E-05  0.1701525E+04  0.7818609E-02  0.8760495E-01
        2   -1    0    0  501    0  0.00000000000E+00  0.00000000000E+00  0.55299783286E+03  0.55299783287E+03  0.25500000920E-02 0. -1.
       -2   -1    0    0    0  501  0.00000000000E+00  0.00000000000E+00 -0.13088595772E+04  0.13088595772E+04  0.25500000920E-02 0.  1.
    10030    2    1    2    0    0  0.00000000000E+00  0.00000000000E+00 -0.75586174434E+03  0.18618574101E+04  0.17015246219E+04 0.  0.
        4    1    3    3  502    0 -0.22122100531E+03 -0.21125250909E+03 -0.12466056527E+04  0.12835862347E+04  0.12699999809E+01 0.  1.
       -4    1    3    3    0  502  0.22122100531E+03  0.21125250909E+03  0.49074390833E+03  0.57827117536E+03  0.12699999809E+01 0. -1.
</event>
<event>
 5   0  0.7461128E-06  0.1698959E+04  0.7818609E-02  0.8761958E-01
        1   -1    0    0  501    0  0.00000000000E+00  0.00000000000E+00  0.76758713547E+03  0.76758713548E+03  0.50400001928E-02 0. -1.
       -1   -1    0    0    0  501  0.00000000000E+00  0.00000000000E+00 -0.94010928622E+03  0.94010928623E+03  0.50400001928E-02 0.  1.
    10030    2    1    2    0    0  0.00000000000E+00  0.00000000000E+00 -0.17252215075E+03  0.17076964217E+04  0.16989594393E+04 0.  0.
        3    1    3    3  502    0 -0.84176298936E+03 -0.10040060424E+03 -0.14104431596E+03  0.85938275574E+03  0.10100000352E+00 0.  1.
       -3    1    3    3    0  502  0.84176298936E+03  0.10040060424E+03 -0.31477834789E+02  0.84831366597E+03  0.10100000352E+00 0. -1.
</event>
<event>
 5   0  0.1435301E-05  0.1696896E+04  0.7818609E-02  0.8763137E-01
        2   -1    0    0  501    0  0.00000000000E+00  0.00000000000E+00  0.84536036199E+03  0.84536036200E+03  0.25500000920E-02 0. -1.
       -2   -1    0    0    0  501  0.00000000000E+00  0.00000000000E+00 -0.85154657201E+03  0.85154657202E+03  0.25500000920E-02 0.  1.
    10030    2    1    2    0    0  0.00000000000E+00  0.00000000000E+00 -0.61862100184E+01  0.16969069340E+04  0.16968956578E+04 0.  0.
        2    1    3    3  502    0 -0.67439449199E+03 -0.29010354369E+02  0.51092800196E+03  0.84657956193E+03  0.25500000920E-02 0. -1.
       -2    1    3    3    0  502  0.67439449199E+03  0.29010354369E+02 -0.51711421198E+03  0.85032737208E+03  0.25500000920E-02 0.  1.
</event>
<event>
 5   0  0.1419012E-05  0.1700193E+04  0.7818609E-02  0.8761254E-01
       -2   -1    0    0    0  501  0.00000000000E+00  0.00000000000E+00  0.42767261741E+03  0.42767261741E+03  0.25500000920E-02 0.  1.
        2   -1    0    0  501    0  0.00000000000E+00  0.00000000000E+00 -0.16897597997E+04  0.16897597997E+04  0.25500000920E-02 0. -1.
    10030    2    1    2    0    0  0.00000000000E+00  0.00000000000E+00 -0.12620871823E+04  0.21174324171E+04  0.17001929259E+04 0.  0.
        4    1    3    3  502    0  0.34168422652E+03 -0.60757874225E+03 -0.12370366769E+04  0.14199159804E+04  0.12699999809E+01 0. -1.
       -4    1    3    3    0  502 -0.34168422652E+03  0.60757874225E+03 -0.25050505399E+02  0.69751643665E+03  0.12699999809E+01 0.  1.
</event>
<event>
 5   0  0.1423543E-05  0.1699982E+04  0.7818609E-02  0.8761375E-01
       -2   -1    0    0    0  501  0.00000000000E+00  0.00000000000E+00  0.44832578829E+03  0.44832578830E+03  0.25500000920E-02 0.  1.
        2   -1    0    0  501    0  0.00000000000E+00  0.00000000000E+00 -0.16115165896E+04  0.16115165896E+04  0.25500000920E-02 0. -1.
    10030    2    1    2    0    0  0.00000000000E+00  0.00000000000E+00 -0.11631908013E+04  0.20598423779E+04  0.16999817004E+04 0.  0.
        3    1    3    3  502    0  0.41523723109E+03  0.44456375997E+03  0.13772674259E+03  0.62372073926E+03  0.10100000352E+00 0.  1.
       -3    1    3    3    0  502 -0.41523723109E+03 -0.44456375997E+03 -0.13009175439E+04  0.14361216387E+04  0.10100000352E+00 0. -1.
</event>
<event>
 5   0  0.7461128E-06  0.1699222E+04  0.7818609E-02  0.8761808E-01
       -1   -1    0    0    0  501  0.00000000000E+00  0.00000000000E+00  0.91026859752E+03  0.91026859753E+03  0.50400001928E-02 0. -1.
        1   -1    0    0  501    0  0.00000000000E+00  0.00000000000E+00 -0.79299524617E+03  0.79299524619E+03  0.50400001928E-02 0.  1.
    10030    2    1    2    0    0  0.00000000000E+00  0.00000000000E+00  0.11727335135E+03  0.17032638437E+04  0.16992217873E+04 0.  0.
        3    1    3    3  502    0  0.76824291725E+03 -0.51663819274E+02  0.41861813476E+03  0.87641741372E+03  0.10100000352E+00 0.  1.
       -3    1    3    3    0  502 -0.76824291725E+03  0.51663819274E+02 -0.30134478341E+03  0.82684643000E+03  0.10100000352E+00 0. -1.
</event>
<event>
 5   0  0.1435301E-05  0.1699343E+04  0.7818609E-02  0.8761739E-01
       -2   -1    0    0    0  501  0.00000000000E+00  0.00000000000E+00  0.89037772887E+03  0.89037772887E+03  0.25500000920E-02 0. -1.
        2   -1    0    0  501    0  0.00000000000E+00  0.00000000000E+00 -0.81082639812E+03  0.81082639812E+03  0.25500000920E-02 0.  1.
    10030    2    1    2    0    0  0.00000000000E+00  0.00000000000E+00  0.79551330749E+02  0.17012041270E+04  0.16993431282E+04 0.  0.
        2    1    3    3  502    0  0.81307373109E+03  0.20334594531E+03  0.17958282478E+03  0.85713969493E+03  0.25500000920E-02 0. -1.
       -2    1    3    3    0  502 -0.81307373109E+03 -0.20334594531E+03 -0.10003149403E+03  0.84406443206E+03  0.25500000920E-02 0.  1.
</event>
<event>
 5   0  0.5229750E-06  0.1700234E+04  0.7818609E-02  0.8761231E-01
        3   -1    0    0  501    0  0.00000000000E+00  0.00000000000E+00  0.47178033331E+03  0.47178034413E+03  0.10100000352E+00 0.  1.
       -3   -1    0    0    0  501  0.00000000000E+00  0.00000000000E+00 -0.15318548920E+04  0.15318548953E+04  0.10100000352E+00 0. -1.
    10030    2    1    2    0    0  0.00000000000E+00  0.00000000000E+00 -0.10600745586E+04  0.20036352394E+04  0.17002341317E+04 0.  0.
        2    1    3    3  502    0  0.38412186963E+03 -0.31488325406E+03  0.28300376950E+03  0.57165742186E+03  0.25500000920E-02 0.  1.
       -2    1    3    3    0  502 -0.38412186963E+03  0.31488325406E+03 -0.13430783281E+04  0.14319778175E+04  0.25500000920E-02 0. -1.
</event>
<event>
 5   0  0.7455669E-06  0.1699819E+04  0.7818609E-02  0.8761468E-01
        1   -1    0    0  501    0  0.00000000000E+00  0.00000000000E+00  0.63347797616E+03  0.63347797618E+03  0.50400001928E-02 0.  1.
       -1   -1    0    0    0  501  0.00000000000E+00  0.00000000000E+00 -0.11402854766E+04  0.11402854767E+04  0.50400001928E-02 0. -1.
    10030    2    1    2    0    0  0.00000000000E+00  0.00000000000E+00 -0.50680750048E+03  0.17737634528E+04  0.16998185033E+04 0.  0.
        4    1    3    3  502    0  0.41492780284E+03  0.37479696151E+03  0.41452395777E+03  0.69603848198E+03  0.12699999809E+01 0.  1.
       -4    1    3    3    0  502 -0.41492780284E+03 -0.37479696151E+03 -0.92133145826E+03  0.10777249709E+04  0.12699999809E+01 0. -1.
</event>
<event>
 5   0  0.1435301E-05  0.1701060E+04  0.7818609E-02  0.8760760E-01
       -2   -1    0    0    0  501  0.00000000000E+00  0.00000000000E+00  0.44061025875E+03  0.44061025876E+03  0.25500000920E-02 0.  1.
        2   -1    0    0  501    0  0.00000000000E+00  0.00000000000E+00 -0.16418163894E+04  0.16418163894E+04  0.25500000920E-02 0. -1.
    10030    2    1    2    0    0  0.00000000000E+00  0.00000000000E+00 -0.12012061306E+04  0.20824266481E+04  0.17010598392E+04 0.  0.
        2    1    3    3  502    0  0.32411135605E+03  0.92870322699E+02  0.35530960499E+03  0.48981423352E+03  0.25500000920E-02 0.  1.
       -2    1    3    3    0  502 -0.32411135605E+03 -0.92870322699E+02 -0.15565157356E+04  0.15926124146E+04  0.25500000920E-02 0. -1.
</event>
<event>
 5   0  0.7583716E-06  0.1699698E+04  0.7818609E-02  0.8761536E-01
        1   -1    0    0  501    0  0.00000000000E+00  0.00000000000E+00  0.82671215232E+03  0.82671215234E+03  0.50400001928E-02 0. -1.
       -1   -1    0    0    0  501  0.00000000000E+00  0.00000000000E+00 -0.87363370069E+03  0.87363370071E+03  0.50400001928E-02 0.  1.
    10030    2    1    2    0    0  0.00000000000E+00  0.00000000000E+00 -0.46921548367E+02  0.17003458530E+04  0.16996983227E+04 0.  0.
        5    1    3    3  502    0 -0.60038696189E+03 -0.15079755904E+03  0.55901279402E+03  0.83409939557E+03  0.46999998093E+01 0. -1.
       -5    1    3    3    0  502  0.60038696189E+03  0.15079755904E+03 -0.60593434238E+03  0.86624645748E+03  0.46999998093E+01 0.  1.
</event>
<event>
 5   0  0.7461128E-06  0.1700004E+04  0.7818609E-02  0.8761362E-01
       -1   -1    0    0    0  501  0.00000000000E+00  0.00000000000E+00  0.50899791950E+03  0.50899791953E+03  0.50400001928E-02 0.  1.
        1   -1    0    0  501    0  0.00000000000E+00  0.00000000000E+00 -0.14194630571E+04  0.14194630571E+04  0.50400001928E-02 0. -1.
    10030    2    1    2    0    0  0.00000000000E+00  0.00000000000E+00 -0.91046513758E+03  0.19284609766E+04  0.17000044034E+04 0.  0.
        3    1    3    3  502    0  0.54304303843E+03  0.61671359038E+03 -0.70187304624E+03  0.10806744086E+04  0.10100000352E+00 0. -1.
       -3    1    3    3    0  502 -0.54304303843E+03 -0.61671359038E+03 -0.20859209134E+03  0.84778656802E+03  0.10100000352E+00 0.  1.
</event>
<event>
 5   0  0.7461128E-06  0.1700936E+04  0.7818609E-02  0.8760831E-01
        1   -1    0    0  501    0  0.00000000000E+00  0.00000000000E+00  0.67373837090E+03  0.67373837092E+03  0.50400001928E-02 0.  1.
       -1   -1    0    0    0  501  0.00000000000E+00  0.00000000000E+00 -0.10735555122E+04  0.10735555122E+04  0.50400001928E-02 0. -1.
    10030    2    1    2    0    0  0.00000000000E+00  0.00000000000E+00 -0.39981714132E+03  0.17472938832E+04  0.17009356742E+04 0.  0.
        3    1    3    3  502    0  0.21927228782E+03 -0.82051892620E+03 -0.24543214380E+03  0.88406368089E+03  0.10100000352E+00 0. -1.
       -3    1    3    3    0  502 -0.21927228782E+03  0.82051892620E+03 -0.15438499752E+03  0.86323020227E+03  0.10100000352E+00 0.  1.
</event>
<event>
 5   0  0.7476457E-06  0.1698932E+04  0.7818609E-02  0.8761974E-01
       -1   -1    0    0    0  501  0.00000000000E+00  0.00000000000E+00  0.11933910461E+04  0.11933910461E+04  0.50400001928E-02 0.  1.
        1   -1    0    0  501    0  0.00000000000E+00  0.00000000000E+00 -0.60465717474E+03  0.60465717476E+03  0.50400001928E-02 0. -1.
    10030    2    1    2    0    0  0.00000000000E+00  0.00000000000E+00  0.58873387136E+03  0.17980482209E+04  0.16989319684E+04 0.  0.
        2    1    3    3  502    0 -0.43045817297E+03 -0.29674456227E+03  0.10029341923E+04  0.11310298705E+04  0.25500000920E-02 0.  1.
       -2    1    3    3    0  502  0.43045817297E+03  0.29674456227E+03 -0.41420032091E+03  0.66701835039E+03  0.25500000920E-02 0. -1.
</event>
<event>
 5   0  0.1441756E-05  0.1699738E+04  0.7818609E-02  0.8761514E-01
        2   -1    0    0  501    0  0.00000000000E+00  0.00000000000E+00  0.70642892097E+03  0.70642892098E+03  0.25500000920E-02 0.  1.
       -2   -1    0    0    0  501  0.00000000000E+00  0.00000000000E+00 -0.10224341836E+04  0.10224341836E+04  0.25500000920E-02 0. -1.
    10030    2    1    2    0    0  0.00000000000E+00  0.00000000000E+00 -0.31600526263E+03  0.17288631046E+04  0.16997377175E+04 0.  0.
        5    1    3    3  502    0  0.47207207542E+03 -0.65377581579E+03  0.11488571780E+03  0.81455244144E+03  0.46999998093E+01 0. -1.
       -5    1    3    3    0  502 -0.47207207542E+03  0.65377581579E+03 -0.43089098044E+03  0.91431066314E+03  0.46999998093E+01 0.  1.
</event>
<event>
 5   0  0.7455669E-06  0.1687796E+04  0.7818609E-02  0.8768356E-01
       -1   -1    0    0    0  501  0.00000000000E+00  0.00000000000E+00  0.95209253251E+03  0.95209253252E+03  0.50400001928E-02 0.  1.
        1   -1    0    0  501    0  0.00000000000E+00  0.00000000000E+00 -0.74799835397E+03  0.74799835398E+03  0.50400001928E-02 0. -1.
    10030    2    1    2    0    0  0.00000000000E+00  0.00000000000E+00  0.20409417854E+03  0.17000908865E+04  0.16877957781E+04 0.  0.
        4    1    3    3  502    0 -0.38533486464E+03 -0.35510113167E+03  0.76836593676E+03  0.93003634192E+03  0.12699999809E+01 0.  1.
       -4    1    3    3    0  502  0.38533486464E+03  0.35510113167E+03 -0.56427175821E+03  0.77005454459E+03  0.12699999809E+01 0. -1.
</event>
<event>
 5   0  0.7583716E-06  0.1699855E+04  0.7818609E-02  0.8761447E-01
       -1   -1    0    0    0  501  0.00000000000E+00  0.00000000000E+00  0.11061769939E+04  0.11061769939E+04  0.50400001928E-02 0.  1.
        1   -1    0    0  501    0  0.00000000000E+00  0.00000000000E+00 -0.65303867936E+03  0.65303867937E+03  0.50400001928E-02 0. -1.
    10030    2    1    2    0    0  0.00000000000E+00  0.00000000000E+00  0.45313831458E+03  0.17592156733E+04  0.16998545388E+04 0.  0.
        5    1    3    3  502    0  0.24967624951E+03 -0.22587832891E+03 -0.58106410785E+03  0.67157787074E+03  0.46999998093E+01 0. -1.
       -5    1    3    3    0  502 -0.24967624951E+03  0.22587832891E+03  0.10342024224E+04  0.10876378026E+04  0.46999998093E+01 0.  1.
</event>
<event>
 5   0  0.1435301E-05  0.1690100E+04  0.7818609E-02  0.8767031E-01
        2   -1    0    0  501    0  0.00000000000E+00  0.00000000000E+00  0.15452434080E+04  0.15452434080E+04  0.25500000920E-02 0.  1.
       -2   -1    0    0    0  501  0.00000000000E+00  0.00000000000E+00 -0.46213424601E+03  0.46213424602E+03  0.25500000920E-02 0. -1.
    10030    2    1    2    0    0  0.00000000000E+00  0.00000000000E+00  0.10831091620E+04  0.20073776541E+04  0.16901004672E+04 0.  0.
        2    1    3    3  502    0 -0.32891247746E+03  0.65559108350E+03  0.10400134170E+04  0.12726393810E+04  0.25500000920E-02 0.  1.
       -2    1    3    3    0  502  0.32891247746E+03 -0.65559108350E+03  0.43095744999E+02  0.73473827301E+03  0.25500000920E-02 0. -1.
</event>
<event>
 5   0  0.7476457E-06  0.1701154E+04  0.7818609E-02  0.8760707E-01
       -1   -1    0    0    0  501  0.00000000000E+00  0.00000000000E+00  0.51565887900E+03  0.51565887902E+03  0.50400001928E-02 0. -1.
        1   -1    0    0  501    0  0.00000000000E+00  0.00000000000E+00 -0.14030226189E+04  0.14030226189E+04  0.50400001928E-02 0.  1.
    10030    2    1    2    0    0  0.00000000000E+00  0.00000000000E+00 -0.88736373994E+03  0.19186814980E+04  0.17011538095E+04 0.  0.
        2    1    3    3  502    0 -0.47215862689E+03 -0.69972386252E+03 -0.56161755377E+03  0.10138843768E+04  0.25500000920E-02 0. -1.
       -2    1    3    3    0  502  0.47215862689E+03  0.69972386252E+03 -0.32574618617E+03  0.90479712121E+03  0.25500000920E-02 0.  1.
</event>
<event>
 5   0  0.1441756E-05  0.1699634E+04  0.7818609E-02  0.8761573E-01
        2   -1    0    0  501    0  0.00000000000E+00  0.00000000000E+00  0.15665458225E+04  0.15665458225E+04  0.25500000920E-02 0.  1.
       -2   -1    0    0    0  501  0.00000000000E+00  0.00000000000E+00 -0.46100728949E+03  0.46100728950E+03  0.25500000920E-02 0. -1.
    10030    2    1    2    0    0  0.00000000000E+00  0.00000000000E+00  0.11055385330E+04  0.20275531120E+04  0.16996341295E+04 0.  0.
        5    1    3    3  502    0 -0.45836370087E+03 -0.10269165304E+03  0.13975863703E+04  0.14744194147E+04  0.46999998093E+01 0.  1.
       -5    1    3    3    0  502  0.45836370087E+03  0.10269165304E+03 -0.29204783728E+03  0.55313369735E+03  0.46999998093E+01 0. -1.
</event>
<event>
 5   0  0.7082527E-06  0.1699112E+04  0.7818609E-02  0.8761871E-01
       -1   -1    0    0    0  501  0.00000000000E+00  0.00000000000E+00  0.10338794809E+04  0.10338794809E+04  0.50400001928E-02 0. -1.
        1   -1    0    0  501    0  0.00000000000E+00  0.00000000000E+00 -0.69809393747E+03  0.69809393749E+03  0.50400001928E-02 0.  1.
    10030    2    1    2    0    0  0.00000000000E+00  0.00000000000E+00  0.33578554342E+03  0.17319734184E+04  0.16991115298E+04 0.  0.
        1    1    3    3  502    0 -0.29281977715E+03 -0.58565801275E+02 -0.64283339087E+03  0.70880755034E+03  0.50400001928E-02 0.  1.
       -1    1    3    3    0  502  0.29281977715E+03  0.58565801275E+02  0.97861893429E+03  0.10231658681E+04  0.50400001928E-02 0. -1.
</event>
<event>
 5   0  0.1423543E-05  0.1701186E+04  0.7818609E-02  0.8760688E-01
        2   -1    0    0  501    0  0.00000000000E+00  0.00000000000E+00  0.14481550160E+04  0.14481550160E+04  0.25500000920E-02 0.  1.
       -2   -1    0    0    0  501  0.00000000000E+00  0.00000000000E+00 -0.49960721771E+03  0.49960721772E+03  0.25500000920E-02 0. -1.
    10030    2    1    2    0    0  0.00000000000E+00  0.00000000000E+00  0.94854779825E+03  0.19477622337E+04  0.17011862900E+04 0.  0.
        3    1    3    3  502    0 -0.81092462466E+03 -0.21238493570E+03  0.63941024524E+03  0.10543014653E+04  0.10100000352E+00 0.  1.
       -3    1    3    3    0  502  0.81092462466E+03  0.21238493570E+03  0.30913755301E+03  0.89346076840E+03  0.10100000352E+00 0. -1.
</event>
<event>
 5   0  0.1441756E-05  0.1699990E+04  0.7818609E-02  0.8761370E-01
        2   -1    0    0  501    0  0.00000000000E+00  0.00000000000E+00  0.13382180809E+04  0.13382180809E+04  0.25500000920E-02 0.  1.
       -2   -1    0    0    0  501  0.00000000000E+00  0.00000000000E+00 -0.53989067567E+03  0.53989067567E+03  0.25500000920E-02 0. -1.
    10030    2    1    2    0    0  0.00000000000E+00  0.00000000000E+00  0.79832740519E+03  0.18781087565E+04  0.16999899575E+04 0.  0.
        5    1    3    3  502    0 -0.32418139149E+03  0.62775769939E+03  0.92121709429E+03  0.11609635345E+04  0.46999998093E+01 0. -1.
       -5    1    3    3    0  502  0.32418139149E+03 -0.62775769939E+03 -0.12288968910E+03  0.71714522199E+03  0.46999998093E+01 0.  1.
</event>
<event>
 5   0  0.7082527E-06  0.1700047E+04  0.7818609E-02  0.8761337E-01
       -1   -1    0    0    0  501  0.00000000000E+00  0.00000000000E+00  0.57563787991E+03  0.57563787994E+03  0.50400001928E-02 0. -1.
        1   -1    0    0  501    0  0.00000000000E+00  0.00000000000E+00 -0.12551989406E+04  0.12551989406E+04  0.50400001928E-02 0.  1.
    10030    2    1    2    0    0  0.00000000000E+00  0.00000000000E+00 -0.67956106068E+03  0.18308368205E+04  0.17000471253E+04 0.  0.
        1    1    3    3  502    0 -0.35168520240E+02  0.57776087103E+03  0.33060104573E+03  0.66658945414E+03  0.50400001928E-02 0. -1.
       -1    1    3    3    0  502  0.35168520240E+02 -0.57776087103E+03 -0.10101621064E+04  0.11642473664E+04  0.50400001928E-02 0.  1.
</event>
<event>
 5   0  0.1435301E-05  0.1702121E+04  0.7818609E-02  0.8760156E-01
       -2   -1    0    0    0  501  0.00000000000E+00  0.00000000000E+00  0.89742478767E+03  0.89742478767E+03  0.25500000920E-02 0. -1.
        2   -1    0    0  501    0  0.00000000000E+00  0.00000000000E+00 -0.80709139229E+03  0.80709139230E+03  0.25500000920E-02 0.  1.
    10030    2    1    2    0    0  0.00000000000E+00  0.00000000000E+00  0.90333395378E+02  0.17045161800E+04  0.17021208199E+04 0.  0.
        2    1    3    3  502    0  0.42364218419E+03 -0.73748164856E+03  0.14269766742E+02  0.85062066072E+03  0.25500000920E-02 0. -1.
       -2    1    3    3    0  502 -0.42364218419E+03  0.73748164856E+03  0.76063628636E+02  0.85389551925E+03  0.25500000920E-02 0.  1.
</event>
<event>
 5   0  0.1441756E-05  0.1697423E+04  0.7818609E-02  0.8762835E-01
        2   -1    0    0  501    0  0.00000000000E+00  0.00000000000E+00  0.10567754366E+04  0.10567754366E+04  0.25500000920E-02 0.  1.
       -2   -1    0    0    0  501  0.00000000000E+00  0.00000000000E+00 -0.68161242824E+03  0.68161242824E+03  0.25500000920E-02 0. -1.
    10030    2    1    2    0    0  0.00000000000E+00  0.00000000000E+00  0.37516300834E+03  0.17383878648E+04  0.16974230721E+04 0.  0.
        5    1    3    3  502    0 -0.15645020877E+03 -0.57077346004E+03  0.81056300232E+03  0.10036401154E+04  0.46999998093E+01 0.  1.
       -5    1    3    3    0  502  0.15645020877E+03  0.57077346004E+03 -0.43539999399E+03  0.73474774942E+03  0.46999998093E+01 0. -1.
</event>
<event>
 5   0  0.7476457E-06  0.1699785E+04  0.7818609E-02  0.8761487E-01
       -1   -1    0    0    0  501  0.00000000000E+00  0.00000000000E+00  0.66847509872E+03  0.66847509874E+03  0.50400001928E-02 0.  1.
        1   -1    0    0  501    0  0.00000000000E+00  0.00000000000E+00 -0.10805449668E+04  0.10805449668E+04  0.50400001928E-02 0. -1.
    10030    2    1    2    0    0  0.00000000000E+00  0.00000000000E+00 -0.41206986811E+03  0.17490200656E+04  0.16997851669E+04 0.  0.
        2    1    3    3  502    0  0.74267821352E+02 -0.10036282196E+03 -0.10710570528E+04  0.10783096103E+04  0.25500000920E-02 0. -1.
       -2    1    3    3    0  502 -0.74267821352E+02  0.10036282196E+03  0.65898718465E+03  0.67071045531E+03  0.25500000920E-02 0.  1.
</event>
<event>
 5   0  0.1441756E-05  0.1699895E+04  0.7818609E-02  0.8761424E-01
        2   -1    0    0  501    0  0.00000000000E+00  0.00000000000E+00  0.86696985386E+03  0.86696985386E+03  0.25500000920E-02 0. -1.
       -2   -1    0    0    0  501  0.00000000000E+00  0.00000000000E+00 -0.83325936533E+03  0.83325936533E+03  0.25500000920E-02 0.  1.
    10030    2    1    2    0    0  0.00000000000E+00  0.00000000000E+00  0.33710488528E+02  0.17002292192E+04  0.16998949970E+04 0.  0.
        5    1    3    3  502    0 -0.20309029263E+03  0.44488173850E+03 -0.67842402842E+03  0.83632928955E+03  0.46999998093E+01 0.  1.
       -5    1    3    3    0  502  0.20309029263E+03 -0.44488173850E+03  0.71213451695E+03  0.86389992965E+03  0.46999998093E+01 0. -1.
</event>
<event>
 5   0  0.7455669E-06  0.1702080E+04  0.7818609E-02  0.8760179E-01
        1   -1    0    0  501    0  0.00000000000E+00  0.00000000000E+00  0.10246696784E+04  0.10246696784E+04  0.50400001928E-02 0.  1.
       -1   -1    0    0    0  501  0.00000000000E+00  0.00000000000E+00 -0.70683180763E+03  0.70683180765E+03  0.50400001928E-02 0. -1.
    10030    2    1    2    0    0  0.00000000000E+00  0.00000000000E+00  0.31783787079E+03  0.17315014861E+04  0.17020800464E+04 0.  0.
        4    1    3    3  502    0  0.60962726934E+03  0.58735259669E+03  0.24783125344E+03  0.88207166571E+03  0.12699999809E+01 0.  1.
       -4    1    3    3    0  502 -0.60962726934E+03 -0.58735259669E+03  0.70006617348E+02  0.84942982037E+03  0.12699999809E+01 0. -1.
</event>
<event>
 5   0  0.7583716E-06  0.1700283E+04  0.7818609E-02  0.8761203E-01
       -1   -1    0    0    0  501  0.00000000000E+00  0.00000000000E+00  0.31560361117E+03  0.31560361121E+03  0.50400001928E-02 0. -1.
        1   -1    0    0  501    0  0.00000000000E+00  0.00000000000E+00 -0.22900250995E+04  0.22900250995E+04  0.50400001928E-02 0.  1.
    10030    2    1    2    0    0  0.00000000000E+00  0.00000000000E+00 -0.19744214883E+04  0.26056287107E+04  0.17002825543E+04 0.  0.
        5    1    3    3  502    0  0.62009909904E+03 -0.43399102429E+03 -0.15804302974E+04  0.17523279136E+04  0.46999998093E+01 0.  1.
       -5    1    3    3    0  502 -0.62009909904E+03  0.43399102429E+03 -0.39399119087E+03  0.85330079707E+03  0.46999998093E+01 0. -1.
</event>
<event>
 5   0  0.7583716E-06  0.1698809E+04  0.7818609E-02  0.8762044E-01
       -1   -1    0    0    0  501  0.00000000000E+00  0.00000000000E+00  0.43033851533E+03  0.43033851536E+03  0.50400001928E-02 0.  1.
        1   -1    0    0  501    0  0.00000000000E+00  0.00000000000E+00 -0.16765596695E+04  0.16765596695E+04  0.50400001928E-02 0. -1.
    10030    2    1    2    0    0  0.00000000000E+00  0.00000000000E+00 -0.12462211541E+04  0.21068981848E+04  0.16988092289E+04 0.  0.
        5    1    3    3  502    0 -0.58116978920E+02 -0.84734835516E+03 -0.61139125805E+03  0.10465171660E+04  0.46999998093E+01 0. -1.
       -5    1    3    3    0  502  0.58116978920E+02  0.84734835516E+03 -0.63482989607E+03  0.10603810189E+04  0.46999998093E+01 0.  1.
</event>
<event>
 5   0  0.5229750E-06  0.1700889E+04  0.7818609E-02  0.8760857E-01
        3   -1    0    0  501    0  0.00000000000E+00  0.00000000000E+00  0.79963731413E+03  0.79963732051E+03  0.10100000352E+00 0. -1.
       -3   -1    0    0    0  501  0.00000000000E+00  0.00000000000E+00 -0.90447986369E+03  0.90447986932E+03  0.10100000352E+00 0.  1.
    10030    2    1    2    0    0  0.00000000000E+00  0.00000000000E+00 -0.10484254956E+03  0.17041171898E+04  0.17008890136E+04 0.  0.
        4    1    3    3  502    0  0.43948896569E+03  0.72788787276E+03 -0.69274018349E+02  0.85309542772E+03  0.12699999809E+01 0. -1.
       -4    1    3    3    0  502 -0.43948896569E+03 -0.72788787276E+03 -0.35568531209E+02  0.85102176211E+03  0.12699999809E+01 0.  1.
</event>
<event>
 5   0  0.1423543E-05  0.1702458E+04  0.7818609E-02  0.8759964E-01
        2   -1    0    0  501    0  0.00000000000E+00  0.00000000000E+00  0.64151112820E+03  0.64151112820E+03  0.25500000920E-02 0.  1.
       -2   -1    0    0    0  501  0.00000000000E+00  0.00000000000E+00 -0.11295059190E+04  0.11295059190E+04  0.25500000920E-02 0. -1.
    10030    2    1    2    0    0  0.00000000000E+00  0.00000000000E+00 -0.48799479083E+03  0.17710170472E+04  0.17024577721E+04 0.  0.
        3    1    3    3  502    0 -0.44745850774E+03  0.37366981022E+00 -0.99729375895E+03  0.10930755270E+04  0.10100000352E+00 0. -1.
       -3    1    3    3    0  502  0.44745850774E+03 -0.37366981022E+00  0.50929896812E+03  0.67794152028E+03  0.10100000352E+00 0.  1.
</event>
<event>
 5   0  0.7583716E-06  0.1699949E+04  0.7818609E-02  0.8761394E-01
       -1   -1    0    0    0  501  0.00000000000E+00  0.00000000000E+00  0.38275739196E+03  0.38275739199E+03  0.50400001928E-02 0. -1.
        1   -1    0    0  501    0  0.00000000000E+00  0.00000000000E+00 -0.18875047031E+04  0.18875047031E+04  0.50400001928E-02 0.  1.
    10030    2    1    2    0    0  0.00000000000E+00  0.00000000000E+00 -0.15047473111E+04  0.22702620951E+04  0.16999486786E+04 0.  0.
        5    1    3    3  502    0  0.96664703710E+02  0.83242511070E+03 -0.56275939691E+03  0.10094532474E+04  0.46999998093E+01 0. -1.
       -5    1    3    3    0  502 -0.96664703710E+02 -0.83242511070E+03 -0.94198791422E+03  0.12608088477E+04  0.46999998093E+01 0.  1.
</event>
<event>
 5   0  0.7583716E-06  0.1699269E+04  0.7818609E-02  0.8761782E-01
        1   -1    0    0  501    0  0.00000000000E+00  0.00000000000E+00  0.13523809517E+04  0.13523809517E+04  0.50400001928E-02 0.  1.
       -1   -1    0    0    0  501  0.00000000000E+00  0.00000000000E+00 -0.53378343436E+03  0.53378343438E+03  0.50400001928E-02 0. -1.
    10030    2    1    2    0    0  0.00000000000E+00  0.00000000000E+00  0.81859751733E+03  0.18861643861E+04  0.16992687239E+04 0.  0.
        5    1    3    3  502    0 -0.75334490167E+03  0.98321009118E+02  0.83147428514E+03  0.11263068581E+04  0.46999998093E+01 0.  1.
       -5    1    3    3    0  502  0.75334490167E+03 -0.98321009118E+02 -0.12876767814E+02  0.75985752800E+03  0.46999998093E+01 0. -1.
</event>
<event>
 5   0  0.1423543E-05  0.1699653E+04  0.7818609E-02  0.8761563E-01
        2   -1    0    0  501    0  0.00000000000E+00  0.00000000000E+00  0.14868462685E+04  0.14868462685E+04  0.25500000920E-02 0. -1.
       -2   -1    0    0    0  501  0.00000000000E+00  0.00000000000E+00 -0.48572922132E+03  0.48572922133E+03  0.25500000920E-02 0.  1.
    10030    2    1    2    0    0  0.00000000000E+00  0.00000000000E+00  0.10011170472E+04  0.19725754898E+04  0.16996525295E+04 0.  0.
        3    1    3    3  502    0  0.10297021383E+03 -0.60337293197E+03  0.11847500704E+04  0.13335270899E+04  0.10100000352E+00 0. -1.
       -3    1    3    3    0  502 -0.10297021383E+03  0.60337293197E+03 -0.18363302326E+03  0.63904839989E+03  0.10100000352E+00 0.  1.
</event>
<event>
 5   0  0.1374441E-05  0.1700450E+04  0.7818609E-02  0.8761108E-01
       -2   -1    0    0    0  501  0.00000000000E+00  0.00000000000E+00  0.16169663421E+04  0.16169663421E+04  0.25500000920E-02 0. -1.
        2   -1    0    0  501    0  0.00000000000E+00  0.00000000000E+00 -0.44706079124E+03  0.44706079124E+03  0.25500000920E-02 0.  1.
    10030    2    1    2    0    0  0.00000000000E+00  0.00000000000E+00  0.11699055508E+04  0.20640271333E+04  0.17004496491E+04 0.  0.
        1    1    3    3  502    0  0.29397490750E+03  0.76855780753E+03  0.84466300554E+03  0.11792192089E+04  0.50400001928E-02 0.  1.
       -1    1    3    3    0  502 -0.29397490750E+03 -0.76855780753E+03  0.32524254530E+03  0.88480792439E+03  0.50400001928E-02 0. -1.
</event>
<event>
 5   0  0.1419012E-05  0.1698543E+04  0.7818609E-02  0.8762196E-01
        2   -1    0    0  501    0  0.00000000000E+00  0.00000000000E+00  0.11051175697E+04  0.11051175697E+04  0.25500000920E-02 0. -1.
       -2   -1    0    0    0  501  0.00000000000E+00  0.00000000000E+00 -0.65265628031E+03  0.65265628031E+03  0.25500000920E-02 0.  1.
    10030    2    1    2    0    0  0.00000000000E+00  0.00000000000E+00  0.45246128937E+03  0.17577738500E+04  0.16985428135E+04 0.  0.
        4    1    3    3  502    0  0.45129134126E+03 -0.67123082118E+03  0.49419171566E+03  0.94786167489E+03  0.12699999809E+01 0.  1.
       -4    1    3    3    0  502 -0.45129134126E+03  0.67123082118E+03 -0.41730426296E+02  0.80991217510E+03  0.12699999809E+01 0. -1.
</event>
<event>
 5   0  0.7476457E-06  0.1699160E+04  0.7818609E-02  0.8761844E-01
        1   -1    0    0  501    0  0.00000000000E+00  0.00000000000E+00  0.11556102781E+04  0.11556102781E+04  0.50400001928E-02 0. -1.
       -1   -1    0    0    0  501  0.00000000000E+00  0.00000000000E+00 -0.62459275656E+03  0.62459275658E+03  0.50400001928E-02 0.  1.
    10030    2    1    2    0    0  0.00000000000E+00  0.00000000000E+00  0.53101752152E+03  0.17802030347E+04  0.16991595677E+04 0.  0.
        2    1    3    3  502    0  0.10406347154E+03 -0.18523739281E+03 -0.59630891405E+03  0.63302955601E+03  0.25500000920E-02 0.  1.
       -2    1    3    3    0  502 -0.10406347154E+03  0.18523739281E+03  0.11273264356E+04  0.11471734787E+04  0.25500000920E-02 0. -1.
</event>
<event>
 5   0  0.1441756E-05  0.1700333E+04  0.7818609E-02  0.8761174E-01
        2   -1    0    0  501    0  0.00000000000E+00  0.00000000000E+00  0.12268415482E+04  0.12268415482E+04  0.25500000920E-02 0.  1.
       -2   -1    0    0    0  501  0.00000000000E+00  0.00000000000E+00 -0.58914163687E+03  0.58914163688E+03  0.25500000920E-02 0. -1.
    10030    2    1    2    0    0  0.00000000000E+00  0.00000000000E+00  0.63769991128E+03  0.18159831850E+04  0.17003334236E+04 0.  0.
        5    1    3    3  502    0  0.25531923248E+03 -0.15622701734E+03 -0.53098915661E+03  0.60956243803E+03  0.46999998093E+01 0. -1.
       -5    1    3    3    0  502 -0.25531923248E+03  0.15622701734E+03  0.11686890679E+04  0.12064207470E+04  0.46999998093E+01 0.  1.
</event>
<event>
 5   0  0.7455669E-06  0.1700112E+04  0.7818609E-02  0.8761301E-01
        1   -1    0    0  501    0  0.00000000000E+00  0.00000000000E+00  0.25509487004E+04  0.25509487004E+04  0.50400001928E-02 0.  1.
       -1   -1    0    0    0  501  0.00000000000E+00  0.00000000000E+00 -0.28326518092E+03  0.28326518097E+03  0.50400001928E-02 0. -1.
    10030    2    1    2    0    0  0.00000000000E+00  0.00000000000E+00  0.22676835195E+04  0.28342138814E+04  0.17001116966E+04 0.  0.
        4    1    3    3  502    0  0.22877498755E+03 -0.80302235490E+03  0.86809913834E+03  0.12044835509E+04  0.12699999809E+01 0. -1.
       -4    1    3    3    0  502 -0.22877498755E+03  0.80302235490E+03  0.13995843811E+04  0.16297303305E+04  0.12699999809E+01 0.  1.
</event>
<event>
 5   0  0.1374441E-05  0.1699407E+04  0.7818609E-02  0.8761703E-01
        2   -1    0    0  501    0  0.00000000000E+00  0.00000000000E+00  0.11885687320E+04  0.11885687320E+04  0.25500000920E-02 0. -1.
       -2   -1    0    0    0  501  0.00000000000E+00  0.00000000000E+00 -0.60744972494E+03  0.60744972495E+03  0.25500000920E-02 0.  1.
    10030    2    1    2    0    0  0.00000000000E+00  0.00000000000E+00  0.58111900705E+03  0.17960184569E+04  0.16994066604E+04 0.  0.
        1    1    3    3  502    0  0.16858351852E+03 -0.65438522355E+03 -0.25385211319E+03  0.72185962549E+03  0.50400001928E-02 0. -1.
       -1    1    3    3    0  502 -0.16858351852E+03  0.65438522355E+03  0.83497112024E+03  0.10741588314E+04  0.50400001928E-02 0.  1.
</event>
<event>
 5   0  0.1441756E-05  0.1700151E+04  0.7818609E-02  0.8761278E-01
       -2   -1    0    0    0  501  0.00000000000E+00  0.00000000000E+00  0.57657836003E+03  0.57657836003E+03  0.25500000920E-02 0. -1.
        2   -1    0    0  501    0  0.00000000000E+00  0.00000000000E+00 -0.12533040608E+04  0.12533040608E+04  0.25500000920E-02 0.  1.
    10030    2    1    2    0    0  0.00000000000E+00  0.00000000000E+00 -0.67672570081E+03  0.18298824209E+04  0.17001505816E+04 0.  0.
        5    1    3    3  502    0 -0.53400620518E+03 -0.57121198753E+03 -0.69721070586E+03  0.10476500466E+04  0.46999998093E+01 0.  1.
       -5    1    3    3    0  502  0.53400620518E+03  0.57121198753E+03  0.20485005046E+02  0.78223237423E+03  0.46999998093E+01 0. -1.
</event>
<event>
 5   0  0.1435301E-05  0.1700041E+04  0.7818609E-02  0.8761341E-01
       -2   -1    0    0    0  501  0.00000000000E+00  0.00000000000E+00  0.91698384652E+03  0.91698384653E+03  0.25500000920E-02 0. -1.
        2   -1    0    0  501    0  0.00000000000E+00  0.00000000000E+00 -0.78794757323E+03  0.78794757324E+03  0.25500000920E-02 0.  1.
    10030    2    1    2    0    0  0.00000000000E+00  0.00000000000E+00  0.12903627329E+03  0.17049314198E+04  0.17000414072E+04 0.  0.
        2    1    3    3  502    0  0.82984743294E+02  0.51760893205E+03 -0.60653263149E+03  0.80167780762E+03  0.25500000920E-02 0.  1.
       -2    1    3    3    0  502 -0.82984743294E+02 -0.51760893205E+03  0.73556890478E+03  0.90325361214E+03  0.25500000920E-02 0. -1.
</event>
<event>
 5   0  0.7082527E-06  0.1699838E+04  0.7818609E-02  0.8761457E-01
        1   -1    0    0  501    0  0.00000000000E+00  0.00000000000E+00  0.16310697407E+04  0.16310697407E+04  0.50400001928E-02 0.  1.
       -1   -1    0    0    0  501  0.00000000000E+00  0.00000000000E+00 -0.44287634608E+03  0.44287634611E+03  0.50400001928E-02 0. -1.
    10030    2    1    2    0    0  0.00000000000E+00  0.00000000000E+00  0.11881933946E+04  0.20739460868E+04  0.16998378829E+04 0.  0.
        1    1    3    3  502    0 -0.45882474962E+03 -0.61955958488E+03  0.10305869460E+04  0.12870445538E+04  0.50400001928E-02 0.  1.
       -1    1    3    3    0  502  0.45882474962E+03  0.61955958488E+03  0.15760644865E+03  0.78690153308E+03  0.50400001928E-02 0. -1.
</event>
<event>
 5   0  0.7455669E-06  0.1699838E+04  0.7818609E-02  0.8761457E-01
        1   -1    0    0  501    0  0.00000000000E+00  0.00000000000E+00  0.60634845332E+03  0.60634845334E+03  0.50400001928E-02 0.  1.
       -1   -1    0    0    0  501  0.00000000000E+00  0.00000000000E+00 -0.11913324547E+04  0.11913324547E+04  0.50400001928E-02 0. -1.
    10030    2    1    2    0    0  0.00000000000E+00  0.00000000000E+00 -0.58498400140E+03  0.17976809081E+04  0.16998383351E+04 0.  0.
        4    1    3    3  502    0  0.78220966958E+03 -0.17878369872E+02 -0.64354674525E+03  0.10130773068E+04  0.12699999809E+01 0. -1.
       -4    1    3    3    0  502 -0.78220966958E+03  0.17878369872E+02  0.58562743851E+02  0.78460360129E+03  0.12699999809E+01 0.  1.
</event>
<event>
 5   0  0.1435301E-05  0.1700150E+04  0.7818609E-02  0.8761279E-01
        2   -1    0    0  501    0  0.00000000000E+00  0.00000000000E+00  0.50725125128E+03  0.50725125128E+03  0.25500000920E-02 0.  1.
       -2   -1    0    0    0  501  0.00000000000E+00  0.00000000000E+00 -0.14245948841E+04  0.14245948841E+04  0.25500000920E-02 0. -1.
    10030    2    1    2    0    0  0.00000000000E+00  0.00000000000E+00 -0.91734363277E+03  0.19318461353E+04  0.17001500375E+04 0.  0.
        2    1    3    3  502    0  0.78834760598E+03  0.21844619272E+03 -0.72128977628E+03  0.10906280889E+04  0.25500000920E-02 0. -1.
       -2    1    3    3    0  502 -0.78834760598E+03 -0.21844619272E+03 -0.19605385649E+03  0.84121804642E+03  0.25500000920E-02 0.  1.
</event>
<event>
 5   0  0.1441756E-05  0.1698747E+04  0.7818609E-02  0.8762079E-01
        2   -1    0    0  501    0  0.00000000000E+00  0.00000000000E+00  0.67127465961E+03  0.67127465961E+03  0.25500000920E-02 0.  1.
       -2   -1    0    0    0  501  0.00000000000E+00  0.00000000000E+00 -0.10747245510E+04  0.10747245510E+04  0.25500000920E-02 0. -1.
    10030    2    1    2    0    0  0.00000000000E+00  0.00000000000E+00 -0.40344989136E+03  0.17459992106E+04  0.16987470172E+04 0.  0.
        5    1    3    3  502    0 -0.42507508053E+03 -0.11660357265E+03 -0.94795613924E+03  0.10454320395E+04  0.46999998093E+01 0. -1.
       -5    1    3    3    0  502  0.42507508053E+03  0.11660357265E+03  0.54450624788E+03  0.70056717110E+03  0.46999998093E+01 0.  1.
</event>
<event>
 5   0  0.7455669E-06  0.1700047E+04  0.7818609E-02  0.8761337E-01
        1   -1    0    0  501    0  0.00000000000E+00  0.00000000000E+00  0.18322596598E+04  0.18322596599E+04  0.50400001928E-02 0. -1.
       -1   -1    0    0    0  501  0.00000000000E+00  0.00000000000E+00 -0.39434377251E+03  0.39434377254E+03  0.50400001928E-02 0.  1.
    10030    2    1    2    0    0  0.00000000000E+00  0.00000000000E+00  0.14379158873E+04  0.22266034324E+04  0.17000472776E+04 0.  0.
        4    1    3    3  502    0  0.90236116977E+02 -0.68914560953E+03  0.78026803333E+02  0.69939546959E+03  0.12699999809E+01 0.  1.
       -4    1    3    3    0  502 -0.90236116977E+02  0.68914560953E+03  0.13598890840E+04  0.15272079628E+04  0.12699999809E+01 0. -1.
</event>
<event>
 5   0  0.7476457E-06  0.1699648E+04  0.7818609E-02  0.8761565E-01
        1   -1    0    0  501    0  0.00000000000E+00  0.00000000000E+00  0.10051254736E+04  0.10051254736E+04  0.50400001928E-02 0.  1.
       -1   -1    0    0    0  501  0.00000000000E+00  0.00000000000E+00 -0.71851821784E+03  0.71851821785E+03  0.50400001928E-02 0. -1.
    10030    2    1    2    0    0  0.00000000000E+00  0.00000000000E+00  0.28660725579E+03  0.17236436915E+04  0.16996481566E+04 0.  0.
        2    1    3    3  502    0 -0.39102997210E+03 -0.63114795816E+03 -0.27599309618E+03  0.79210123931E+03  0.25500000920E-02 0. -1.
       -2    1    3    3    0  502  0.39102997210E+03  0.63114795816E+03  0.56260035197E+03  0.93154245218E+03  0.25500000920E-02 0.  1.
</event>
<event>
 5   0  0.1419012E-05  0.1699617E+04  0.7818609E-02  0.8761583E-01
       -2   -1    0    0    0  501  0.00000000000E+00  0.00000000000E+00  0.12904828105E+04  0.12904828105E+04  0.25500000920E-02 0. -1.
        2   -1    0    0  501    0  0.00000000000E+00  0.00000000000E+00 -0.55961583510E+03  0.55961583511E+03  0.25500000920E-02 0.  1.
    10030    2    1    2    0    0  0.00000000000E+00  0.00000000000E+00  0.73086697540E+03  0.18500986456E+04  0.16996171518E+04 0.  0.
        4    1    3    3  502    0 -0.45952496395E+03  0.40824774215E+03  0.10041965325E+04  0.11773876593E+04  0.12699999809E+01 0. -1.
       -4    1    3    3    0  502  0.45952496395E+03 -0.40824774215E+03 -0.27332955708E+03  0.67271098634E+03  0.12699999809E+01 0.  1.
</event>
<event>
 5   0  0.7583716E-06  0.1700404E+04  0.7818609E-02  0.8761134E-01
       -1   -1    0    0    0  501  0.00000000000E+00  0.00000000000E+00  0.31712953405E+03  0.31712953409E+03  0.50400001928E-02 0. -1.
        1   -1    0    0  501    0  0.00000000000E+00  0.00000000000E+00 -0.22793323372E+04  0.22793323372E+04  0.50400001928E-02 0.  1.
    10030    2    1    2    0    0  0.00000000000E+00  0.00000000000E+00 -0.19622028031E+04  0.25964618713E+04  0.17004041897E+04 0.  0.
        5    1    3    3  502    0 -0.39634872750E+03 -0.16318611703E+03  0.14004994619E+03  0.45095243652E+03  0.46999998093E+01 0. -1.
       -5    1    3    3    0  502  0.39634872750E+03  0.16318611703E+03 -0.21022527493E+04  0.21455094347E+04  0.46999998093E+01 0.  1.
</event>
<event>
 5   0  0.1419012E-05  0.1702271E+04  0.7818609E-02  0.8760070E-01
       -2   -1    0    0    0  501  0.00000000000E+00  0.00000000000E+00  0.94167690908E+03  0.94167690909E+03  0.25500000920E-02 0. -1.
        2   -1    0    0  501    0  0.00000000000E+00  0.00000000000E+00 -0.76929975741E+03  0.76929975742E+03  0.25500000920E-02 0.  1.
    10030    2    1    2    0    0  0.00000000000E+00  0.00000000000E+00  0.17237715167E+03  0.17109766665E+04  0.17022712096E+04 0.  0.
        4    1    3    3  502    0  0.50936893275E+03 -0.31482924916E+03  0.69414219330E+03  0.91673832864E+03  0.12699999809E+01 0. -1.
       -4    1    3    3    0  502 -0.50936893275E+03  0.31482924916E+03 -0.52176504163E+03  0.79423833787E+03  0.12699999809E+01 0.  1.
</event>
<event>
 5   0  0.1419012E-05  0.1700831E+04  0.7818609E-02  0.8760890E-01
       -2   -1    0    0    0  501  0.00000000000E+00  0.00000000000E+00  0.38082307245E+03  0.38082307246E+03  0.25500000920E-02 0.  1.
        2   -1    0    0  501    0  0.00000000000E+00  0.00000000000E+00 -0.18990628060E+04  0.18990628060E+04  0.25500000920E-02 0. -1.
    10030    2    1    2    0    0  0.00000000000E+00  0.00000000000E+00 -0.15182397335E+04  0.22798858784E+04  0.17008314820E+04 0.  0.
        4    1    3    3  502    0 -0.59815570269E+02 -0.60901728656E+03  0.32457903414E+02  0.61280917598E+03  0.12699999809E+01 0.  1.
       -4    1    3    3    0  502  0.59815570269E+02  0.60901728656E+03 -0.15506976369E+04  0.16670767024E+04  0.12699999809E+01 0. -1.
</event>
<event>
 5   0  0.1423543E-05  0.1700511E+04  0.7818609E-02  0.8761073E-01
       -2   -1    0    0    0  501  0.00000000000E+00  0.00000000000E+00  0.41190045507E+03  0.41190045508E+03  0.25500000920E-02 0.  1.
        2   -1    0    0  501    0  0.00000000000E+00  0.00000000000E+00 -0.17551201951E+04  0.17551201951E+04  0.25500000920E-02 0. -1.
    10030    2    1    2    0    0  0.00000000000E+00  0.00000000000E+00 -0.13432197400E+04  0.21670206502E+04  0.17005114608E+04 0.  0.
        3    1    3    3  502    0 -0.77614874483E+03  0.31586665590E+03 -0.85520332076E+03  0.11973100469E+04  0.10100000352E+00 0.  1.
       -3    1    3    3    0  502  0.77614874483E+03 -0.31586665590E+03 -0.48801641927E+03  0.96971060327E+03  0.10100000352E+00 0. -1.
</event>
<event>
 5   0  0.7476457E-06  0.1704184E+04  0.7818609E-02  0.8758982E-01
       -1   -1    0    0    0  501  0.00000000000E+00  0.00000000000E+00  0.73038680998E+03  0.73038681000E+03  0.50400001928E-02 0. -1.
        1   -1    0    0  501    0  0.00000000000E+00  0.00000000000E+00 -0.99407649215E+03  0.99407649216E+03  0.50400001928E-02 0.  1.
    10030    2    1    2    0    0  0.00000000000E+00  0.00000000000E+00 -0.26368968217E+03  0.17244633022E+04  0.17041835089E+04 0.  0.
        2    1    3    3  502    0  0.55267756087E+03 -0.41281641928E+03  0.37429786734E+03  0.78483678292E+03  0.25500000920E-02 0. -1.
       -2    1    3    3    0  502 -0.55267756087E+03  0.41281641928E+03 -0.63798754951E+03  0.93962651924E+03  0.25500000920E-02 0.  1.
</event>
<event>
 5   0  0.7082527E-06  0.1701404E+04  0.7818609E-02  0.8760564E-01
        1   -1    0    0  501    0  0.00000000000E+00  0.00000000000E+00  0.13145618724E+04  0.13145618724E+04  0.50400001928E-02 0.  1.
       -1   -1    0    0    0  501  0.00000000000E+00  0.00000000000E+00 -0.55052105561E+03  0.55052105564E+03  0.50400001928E-02 0. -1.
    10030    2    1    2    0    0  0.00000000000E+00  0.00000000000E+00  0.76404081683E+03  0.18650829281E+04  0.17014041139E+04 0.  0.
        1    1    3    3  502    0  0.58918680840E+03 -0.35665245418E+03 -0.16536980404E+03  0.70830024734E+03  0.50400001928E-02 0. -1.
       -1    1    3    3    0  502 -0.58918680840E+03  0.35665245418E+03  0.92941062087E+03  0.11567826807E+04  0.50400001928E-02 0.  1.
</event>
<event>
 5   0  0.7583716E-06  0.1696213E+04  0.7818609E-02  0.8763527E-01
        1   -1    0    0  501    0  0.00000000000E+00  0.00000000000E+00  0.14431552844E+04  0.14431552844E+04  0.50400001928E-02 0. -1.
       -1   -1    0    0    0  501  0.00000000000E+00  0.00000000000E+00 -0.49841115857E+03  0.49841115860E+03  0.50400001928E-02 0.  1.
    10030    2    1    2    0    0  0.00000000000E+00  0.00000000000E+00  0.94474412586E+03  0.19415664430E+04  0.16962130731E+04 0.  0.
        5    1    3    3  502    0 -0.37300249256E+02 -0.78929720662E+03  0.11978856859E+03  0.79922010744E+03  0.46999998093E+01 0.  1.
       -5    1    3    3    0  502  0.37300249256E+02  0.78929720662E+03  0.82495555727E+03  0.11423463356E+04  0.46999998093E+01 0. -1.
</event>
<event>
 5   0  0.1374441E-05  0.1699920E+04  0.7818609E-02  0.8761410E-01
       -2   -1    0    0    0  501  0.00000000000E+00  0.00000000000E+00  0.44580214555E+03  0.44580214556E+03  0.25500000920E-02 0.  1.
        2   -1    0    0  501    0  0.00000000000E+00  0.00000000000E+00 -0.16205221363E+04  0.16205221363E+04  0.25500000920E-02 0. -1.
    10030    2    1    2    0    0  0.00000000000E+00  0.00000000000E+00 -0.11747199908E+04  0.20663242819E+04  0.16999202867E+04 0.  0.
        1    1    3    3  502    0  0.57689140275E+03 -0.37055730265E+03  0.23219450541E+02  0.68604340098E+03  0.50400001928E-02 0.  1.
       -1    1    3    3    0  502 -0.57689140275E+03  0.37055730265E+03 -0.11979394413E+04  0.13802808809E+04  0.50400001928E-02 0. -1.
</event>
<event>
 5   0  0.1441756E-05  0.1700000E+04  0.7818609E-02  0.8761365E-01
       -2   -1    0    0    0  501  0.00000000000E+00  0.00000000000E+00  0.33276228287E+03  0.33276228288E+03  0.25500000920E-02 0.  1.
        2   -1    0    0  501    0  0.00000000000E+00  0.00000000000E+00 -0.21712185742E+04  0.21712185742E+04  0.25500000920E-02 0. -1.
    10030    2    1    2    0    0  0.00000000000E+00  0.00000000000E+00 -0.18384562913E+04  0.25039808570E+04  0.16999995875E+04 0.  0.
        5    1    3    3  502    0  0.15342969930E+03  0.62667279151E+03 -0.10415306337E+03  0.65355138348E+03  0.46999998093E+01 0.  1.
       -5    1    3    3    0  502 -0.15342969930E+03 -0.62667279151E+03 -0.17343032279E+04  0.18504294736E+04  0.46999998093E+01 0. -1.
</event>
<event>
 5   0  0.1419012E-05  0.1698432E+04  0.7818609E-02  0.8762259E-01
       -2   -1    0    0    0  501  0.00000000000E+00  0.00000000000E+00  0.96666435469E+03  0.96666435470E+03  0.25500000920E-02 0.  1.
        2   -1    0    0  501    0  0.00000000000E+00  0.00000000000E+00 -0.74603733344E+03  0.74603733344E+03  0.25500000920E-02 0. -1.
    10030    2    1    2    0    0  0.00000000000E+00  0.00000000000E+00  0.22062702126E+03  0.17127016881E+04  0.16984318621E+04 0.  0.
        4    1    3    3  502    0 -0.20899204922E+03  0.21123029285E+03  0.91252875536E+03  0.95969070826E+03  0.12699999809E+01 0.  1.
       -4    1    3    3    0  502  0.20899204922E+03 -0.21123029285E+03 -0.69190173411E+03  0.75301097988E+03  0.12699999809E+01 0. -1.
</event>
<event>
 5   0  0.7583716E-06  0.1699306E+04  0.7818609E-02  0.8761760E-01
        1   -1    0    0  501    0  0.00000000000E+00  0.00000000000E+00  0.18277792466E+04  0.18277792466E+04  0.50400001928E-02 0. -1.
       -1   -1    0    0    0  501  0.00000000000E+00  0.00000000000E+00 -0.39496560706E+03  0.39496560709E+03  0.50400001928E-02 0.  1.
    10030    2    1    2    0    0  0.00000000000E+00  0.00000000000E+00  0.14328136395E+04  0.22227448537E+04  0.16993056697E+04 0.  0.
        5    1    3    3  502    0 -0.55938375531E+03  0.28971552883E+03  0.14621481839E+04  0.15920881493E+04  0.46999998093E+01 0. -1.
       -5    1    3    3    0  502  0.55938375531E+03 -0.28971552883E+03 -0.29334544364E+02  0.63065670443E+03  0.46999998093E+01 0.  1.
</event>
<event>
 5   0  0.7082527E-06  0.1699981E+04  0.7818609E-02  0.8761375E-01
        1   -1    0    0  501    0  0.00000000000E+00  0.00000000000E+00  0.10171419721E+04  0.10171419721E+04  0.50400001928E-02 0.  1.
       -1   -1    0    0    0  501  0.00000000000E+00  0.00000000000E+00 -0.71030793939E+03  0.71030793941E+03  0.50400001928E-02 0. -1.
    10030    2    1    2    0    0  0.00000000000E+00  0.00000000000E+00  0.30683403273E+03  0.17274499115E+04  0.16999811979E+04 0.  0.
        1    1    3    3  502    0  0.52562467026E+03  0.62091821489E+03  0.40369597686E+03  0.90818013924E+03  0.50400001928E-02 0.  1.
       -1    1    3    3    0  502 -0.52562467026E+03 -0.62091821489E+03 -0.96861944126E+02  0.81926977230E+03  0.50400001928E-02 0. -1.
</event>
<event>
 5   0  0.7476457E-06  0.1699662E+04  0.7818609E-02  0.8761557E-01
       -1   -1    0    0    0  501  0.00000000000E+00  0.00000000000E+00  0.87051871884E+03  0.87051871886E+03  0.50400001928E-02 0.  1.
        1   -1    0    0  501    0  0.00000000000E+00  0.00000000000E+00 -0.82963511564E+03  0.82963511565E+03  0.50400001928E-02 0. -1.
    10030    2    1    2    0    0  0.00000000000E+00  0.00000000000E+00  0.40883603204E+02  0.17001538345E+04  0.16996621994E+04 0.  0.
        2    1    3    3  502    0  0.27518115913E+03 -0.35994181921E+03 -0.69874468779E+03  0.83278263808E+03  0.25500000920E-02 0. -1.
       -2    1    3    3    0  502 -0.27518115913E+03  0.35994181921E+03  0.73962829100E+03  0.86737119643E+03  0.25500000920E-02 0.  1.
</event>
<event>
 5   0  0.7476457E-06  0.1699859E+04  0.7818609E-02  0.8761445E-01
       -1   -1    0    0    0  501  0.00000000000E+00  0.00000000000E+00  0.49103191339E+03  0.49103191341E+03  0.50400001928E-02 0. -1.
        1   -1    0    0  501    0  0.00000000000E+00  0.00000000000E+00 -0.14711478595E+04  0.14711478595E+04  0.50400001928E-02 0.  1.
    10030    2    1    2    0    0  0.00000000000E+00  0.00000000000E+00 -0.98011594610E+03  0.19621797729E+04  0.16998594628E+04 0.  0.
        2    1    3    3  502    0 -0.80290660069E+03 -0.27773693204E+03 -0.51794703017E+03  0.99502057211E+03  0.25500000920E-02 0. -1.
       -2    1    3    3    0  502  0.80290660069E+03  0.27773693204E+03 -0.46216891593E+03  0.96715920081E+03  0.25500000920E-02 0.  1.
</event>
<event>
 5   0  0.7583716E-06  0.1699605E+04  0.7818609E-02  0.8761589E-01
        1   -1    0    0  501    0  0.00000000000E+00  0.00000000000E+00  0.11262433727E+04  0.11262433727E+04  0.50400001928E-02 0. -1.
       -1   -1    0    0    0  501  0.00000000000E+00  0.00000000000E+00 -0.64121542749E+03  0.64121542751E+03  0.50400001928E-02 0.  1.
    10030    2    1    2    0    0  0.00000000000E+00  0.00000000000E+00  0.48502794523E+03  0.17674588002E+04  0.16996053962E+04 0.  0.
        5    1    3    3  502    0  0.83368209011E+03 -0.11501430939E+03  0.11995994975E+03  0.85009799333E+03  0.46999998093E+01 0. -1.
       -5    1    3    3    0  502 -0.83368209011E+03  0.11501430939E+03  0.36506799548E+03  0.91736080691E+03  0.46999998093E+01 0.  1.
</event>
<event>
 5   0  0.1374441E-05  0.1699960E+04  0.7818609E-02  0.8761387E-01
       -2   -1    0    0    0  501  0.00000000000E+00  0.00000000000E+00  0.13213202755E+04  0.13213202755E+04  0.25500000920E-02 0. -1.
        2   -1    0    0  501    0  0.00000000000E+00  0.00000000000E+00 -0.54677565047E+03  0.54677565047E+03  0.25500000920E-02 0.  1.
    10030    2    1    2    0    0  0.00000000000E+00  0.00000000000E+00  0.77454462499E+03  0.18680959259E+04  0.16999597090E+04 0.  0.
        1    1    3    3  502    0 -0.50715159049E+03 -0.41013560604E+03 -0.21165847849E+03  0.68572098015E+03  0.50400001928E-02 0.  1.
       -1    1    3    3    0  502  0.50715159049E+03  0.41013560604E+03  0.98620310348E+03  0.11823749458E+04  0.50400001928E-02 0. -1.
</event>
<event>
 5   0  0.7476457E-06  0.1699823E+04  0.7818609E-02  0.8761466E-01
        1   -1    0    0  501    0  0.00000000000E+00  0.00000000000E+00  0.11292182207E+04  0.11292182207E+04  0.50400001928E-02 0. -1.
       -1   -1    0    0    0  501  0.00000000000E+00  0.00000000000E+00 -0.63968964614E+03  0.63968964616E+03  0.50400001928E-02 0.  1.
    10030    2    1    2    0    0  0.00000000000E+00  0.00000000000E+00  0.48952857452E+03  0.17689078668E+04  0.16998225837E+04 0.  0.
        2    1    3    3  502    0  0.35355373561E+02  0.13299600837E+02  0.11283442424E+04  0.11289763554E+04  0.25500000920E-02 0. -1.
       -2    1    3    3    0  502 -0.35355373561E+02 -0.13299600837E+02 -0.63881566784E+03  0.63993151142E+03  0.25500000920E-02 0.  1.
</event>
<event>
 5   0  0.7082527E-06  0.1700265E+04  0.7818609E-02  0.8761213E-01
       -1   -1    0    0    0  501  0.00000000000E+00  0.00000000000E+00  0.13030004527E+04  0.13030004527E+04  0.50400001928E-02 0. -1.
        1   -1    0    0  501    0  0.00000000000E+00  0.00000000000E+00 -0.55466232951E+03  0.55466232953E+03  0.50400001928E-02 0.  1.
    10030    2    1    2    0    0  0.00000000000E+00  0.00000000000E+00  0.74833812316E+03  0.18576627822E+04  0.17002649987E+04 0.  0.
        1    1    3    3  502    0 -0.33776421629E+03  0.87777760083E+02 -0.47279358205E+03  0.58764221447E+03  0.50400001928E-02 0.  1.
       -1    1    3    3    0  502  0.33776421629E+03 -0.87777760083E+02  0.12211317052E+04  0.12700205677E+04  0.50400001928E-02 0. -1.
</event>
<event>
 5   0  0.1419012E-05  0.1700973E+04  0.7818609E-02  0.8760809E-01
        2   -1    0    0  501    0  0.00000000000E+00  0.00000000000E+00  0.14334103192E+04  0.14334103192E+04  0.25500000920E-02 0.  1.
       -2   -1    0    0    0  501  0.00000000000E+00  0.00000000000E+00 -0.50462005854E+03  0.50462005854E+03  0.25500000920E-02 0. -1.
    10030    2    1    2    0    0  0.00000000000E+00  0.00000000000E+00  0.92879026066E+03  0.19380303777E+04  0.17009733674E+04 0.  0.
        4    1    3    3  502    0  0.52879210939E+03 -0.30264360039E+03  0.11404832750E+04  0.12930266653E+04  0.12699999809E+01 0.  1.
       -4    1    3    3    0  502 -0.52879210939E+03  0.30264360039E+03 -0.21169301433E+03  0.64500371242E+03  0.12699999809E+01 0. -1.
</event>
<event>
 5   0  0.7583716E-06  0.1700987E+04  0.7818609E-02  0.8760801E-01
       -1   -1    0    0    0  501  0.00000000000E+00  0.00000000000E+00  0.91112290087E+03  0.91112290088E+03  0.50400001928E-02 0. -1.
        1   -1    0    0  501    0  0.00000000000E+00  0.00000000000E+00 -0.79389899445E+03  0.79389899447E+03  0.50400001928E-02 0.  1.
    10030    2    1    2    0    0  0.00000000000E+00  0.00000000000E+00  0.11722390641E+03  0.17050218953E+04  0.17009874248E+04 0.  0.
        5    1    3    3  502    0 -0.63146391138E+03  0.29258442776E+03 -0.43138811288E+03  0.81882239385E+03  0.46999998093E+01 0.  1.
       -5    1    3    3    0  502  0.63146391138E+03 -0.29258442776E+03  0.54861201930E+03  0.88619950150E+03  0.46999998093E+01 0. -1.
</event>
<event>
 5   0  0.7583716E-06  0.1701577E+04  0.7818609E-02  0.8760466E-01
       -1   -1    0    0    0  501  0.00000000000E+00  0.00000000000E+00  0.62182410201E+03  0.62182410203E+03  0.50400001928E-02 0. -1.
        1   -1    0    0  501    0  0.00000000000E+00  0.00000000000E+00 -0.11640606610E+04  0.11640606610E+04  0.50400001928E-02 0.  1.
    10030    2    1    2    0    0  0.00000000000E+00  0.00000000000E+00 -0.54223655902E+03  0.17858847631E+04  0.17015768866E+04 0.  0.
        5    1    3    3  502    0  0.24966372158E+03 -0.45963687791E+03  0.43311193938E+03  0.67912154688E+03  0.46999998093E+01 0. -1.
       -5    1    3    3    0  502 -0.24966372158E+03  0.45963687791E+03 -0.97534849840E+03  0.11067632162E+04  0.46999998093E+01 0.  1.
</event>
<event>
 5   0  0.7476457E-06  0.1699284E+04  0.7818609E-02  0.8761773E-01
       -1   -1    0    0    0  501  0.00000000000E+00  0.00000000000E+00  0.82913248803E+03  0.82913248805E+03  0.50400001928E-02 0. -1.
        1   -1    0    0  501    0  0.00000000000E+00  0.00000000000E+00 -0.87065858943E+03  0.87065858945E+03  0.50400001928E-02 0.  1.
    10030    2    1    2    0    0  0.00000000000E+00  0.00000000000E+00 -0.41526101400E+02  0.16997910775E+04  0.16992837580E+04 0.  0.
        2    1    3    3  502    0  0.10643759367E+03  0.80787351784E+03 -0.26146477298E+03  0.85577591091E+03  0.25500000920E-02 0.  1.
       -2    1    3    3    0  502 -0.10643759367E+03 -0.80787351784E+03  0.21993867158E+03  0.84401516659E+03  0.25500000920E-02 0. -1.
</event>
<event>
 5   0  0.1374441E-05  0.1700840E+04  0.7818609E-02  0.8760886E-01
        2   -1    0    0  501    0  0.00000000000E+00  0.00000000000E+00  0.81536091426E+03  0.81536091427E+03  0.25500000920E-02 0.  1.
       -2   -1    0    0    0  501  0.00000000000E+00  0.00000000000E+00 -0.88698625628E+03  0.88698625628E+03  0.25500000920E-02 0. -1.
    10030    2    1    2    0    0  0.00000000000E+00  0.00000000000E+00 -0.71625342013E+02  0.17023471705E+04  0.17008397042E+04 0.  0.
        1    1    3    3  502    0  0.75940700824E+03  0.34918136204E+03  0.12112967565E+03  0.84457032041E+03  0.50400001928E-02 0. -1.
       -1    1    3    3    0  502 -0.75940700824E+03 -0.34918136204E+03 -0.19275501767E+03  0.85777685014E+03  0.50400001928E-02 0.  1.
</event>
<event>
 5   0  0.7476457E-06  0.1699964E+04  0.7818609E-02  0.8761385E-01
        1   -1    0    0  501    0  0.00000000000E+00  0.00000000000E+00  0.83700464302E+03  0.83700464303E+03  0.50400001928E-02 0.  1.
       -1   -1    0    0    0  501  0.00000000000E+00  0.00000000000E+00 -0.86316054748E+03  0.86316054749E+03  0.50400001928E-02 0. -1.
    10030    2    1    2    0    0  0.00000000000E+00  0.00000000000E+00 -0.26155904461E+02  0.17001651905E+04  0.16999639831E+04 0.  0.
        2    1    3    3  502    0 -0.84725407138E+03  0.67992671018E+02 -0.15709070511E+02  0.85012307326E+03  0.25500000920E-02 0. -1.
       -2    1    3    3    0  502  0.84725407138E+03 -0.67992671018E+02 -0.10446833951E+02  0.85004211727E+03  0.25500000920E-02 0.  1.
</event>
<event>
 5   0  0.1374441E-05  0.1699282E+04  0.7818609E-02  0.8761774E-01
       -2   -1    0    0    0  501  0.00000000000E+00  0.00000000000E+00  0.59295365020E+03  0.59295365021E+03  0.25500000920E-02 0.  1.
        2   -1    0    0  501    0  0.00000000000E+00  0.00000000000E+00 -0.12174471080E+04  0.12174471080E+04  0.25500000920E-02 0. -1.
    10030    2    1    2    0    0  0.00000000000E+00  0.00000000000E+00 -0.62449345778E+03  0.18104007582E+04  0.16992818561E+04 0.  0.
        1    1    3    3  502    0 -0.40516043091E+03 -0.49779007359E+03 -0.90537409033E+03  0.11097982590E+04  0.50400001928E-02 0. -1.
       -1    1    3    3    0  502  0.40516043091E+03  0.49779007359E+03  0.28088063255E+03  0.70060249922E+03  0.50400001928E-02 0.  1.
</event>
<event>
 5   0  0.1423543E-05  0.1701949E+04  0.7818609E-02  0.8760254E-01
        2   -1    0    0  501    0  0.00000000000E+00  0.00000000000E+00  0.12343355085E+04  0.12343355085E+04  0.25500000920E-02 0.  1.
       -2   -1    0    0    0  501  0.00000000000E+00  0.00000000000E+00 -0.58667782990E+03  0.58667782991E+03  0.25500000920E-02 0. -1.
    10030    2    1    2    0    0  0.00000000000E+00  0.00000000000E+00  0.64765767865E+03  0.18210133385E+04  0.17019486215E+04 0.  0.
        3    1    3    3  502    0  0.77194504517E+03  0.52714982153E+02  0.70284055117E+03  0.10453051577E+04  0.10100000352E+00 0.  1.
       -3    1    3    3    0  502 -0.77194504517E+03 -0.52714982153E+02 -0.55182872523E+02  0.77570818078E+03  0.10100000352E+00 0. -1.
</event>
<event>
 5   0  0.1423543E-05  0.1697989E+04  0.7818609E-02  0.8762512E-01
       -2   -1    0    0    0  501  0.00000000000E+00  0.00000000000E+00  0.44323048608E+03  0.44323048609E+03  0.25500000920E-02 0. -1.
        2   -1    0    0  501    0  0.00000000000E+00  0.00000000000E+00 -0.16262236535E+04  0.16262236535E+04  0.25500000920E-02 0.  1.
    10030    2    1    2    0    0  0.00000000000E+00  0.00000000000E+00 -0.11829931674E+04  0.20694541396E+04  0.16979892820E+04 0.  0.
        3    1    3    3  502    0 -0.29692135807E+03  0.78080282468E+03 -0.77623756088E+03  0.11403333307E+04  0.10100000352E+00 0. -1.
       -3    1    3    3    0  502  0.29692135807E+03 -0.78080282468E+03 -0.40675560651E+03  0.92912080890E+03  0.10100000352E+00 0.  1.
</event>
<event>
 5   0  0.7082527E-06  0.1700032E+04  0.7818609E-02  0.8761346E-01
       -1   -1    0    0    0  501  0.00000000000E+00  0.00000000000E+00  0.70991703874E+03  0.70991703876E+03  0.50400001928E-02 0. -1.
        1   -1    0    0  501    0  0.00000000000E+00  0.00000000000E+00 -0.10177632686E+04  0.10177632686E+04  0.50400001928E-02 0.  1.
    10030    2    1    2    0    0  0.00000000000E+00  0.00000000000E+00 -0.30784622982E+03  0.17276803073E+04  0.17000323359E+04 0.  0.
        1    1    3    3  502    0  0.64078515786E+03  0.55461362696E+03 -0.22076196640E+03  0.87574981563E+03  0.50400001928E-02 0.  1.
       -1    1    3    3    0  502 -0.64078515786E+03 -0.55461362696E+03 -0.87084263419E+02  0.85193049170E+03  0.50400001928E-02 0. -1.
</event>
<event>
 5   0  0.7583716E-06  0.1700230E+04  0.7818609E-02  0.8761233E-01
        1   -1    0    0  501    0  0.00000000000E+00  0.00000000000E+00  0.18950385239E+04  0.18950385239E+04  0.50400001928E-02 0.  1.
       -1   -1    0    0    0  501  0.00000000000E+00  0.00000000000E+00 -0.38136203721E+03  0.38136203724E+03  0.50400001928E-02 0. -1.
    10030    2    1    2    0    0  0.00000000000E+00  0.00000000000E+00  0.15136764867E+04  0.22764005612E+04  0.17002302810E+04 0.  0.
        5    1    3    3  502    0  0.70836188585E+03 -0.46120611537E+03  0.63570109760E+03  0.10576509905E+04  0.46999998093E+01 0. -1.
       -5    1    3    3    0  502 -0.70836188585E+03  0.46120611537E+03  0.87797538913E+03  0.12187495707E+04  0.46999998093E+01 0.  1.
</event>
<event>
 5   0  0.1423543E-05  0.1700000E+04  0.7818609E-02  0.8761365E-01
       -2   -1    0    0    0  501  0.00000000000E+00  0.00000000000E+00  0.81274727921E+03  0.81274727922E+03  0.25500000920E-02 0.  1.
        2   -1    0    0  501    0  0.00000000000E+00  0.00000000000E+00 -0.88895980876E+03  0.88895980876E+03  0.25500000920E-02 0. -1.
    10030    2    1    2    0    0  0.00000000000E+00  0.00000000000E+00 -0.76212529548E+02  0.17017070880E+04  0.16999996069E+04 0.  0.
        3    1    3    3  502    0  0.38942242464E+03 -0.52179147543E+02 -0.79260543336E+03  0.88464448873E+03  0.10100000352E+00 0. -1.
       -3    1    3    3    0  502 -0.38942242464E+03  0.52179147543E+02  0.71639290381E+03  0.81706259925E+03  0.10100000352E+00 0.  1.
</event>
<event>
 5   0  0.7583716E-06  0.1700503E+04  0.7818609E-02  0.8761078E-01
        1   -1    0    0  501    0  0.00000000000E+00  0.00000000000E+00  0.63195618772E+03  0.63195618774E+03  0.50400001928E-02 0. -1.
       -1   -1    0    0    0  501  0.00000000000E+00  0.00000000000E+00 -0.11439521076E+04  0.11439521076E+04  0.50400001928E-02 0.  1.
    10030    2    1    2    0    0  0.00000000000E+00  0.00000000000E+00 -0.51199591988E+03  0.17759082954E+04  0.17005029996E+04 0.  0.
        5    1    3    3  502    0 -0.46768557765E+03 -0.65371307127E+03 -0.54548059851E+03  0.97141224639E+03  0.46999998093E+01 0.  1.
       -5    1    3    3    0  502  0.46768557765E+03  0.65371307127E+03  0.33484678626E+02  0.80449604896E+03  0.46999998093E+01 0. -1.
</event>
<event>
 5   0  0.1435301E-05  0.1699946E+04  0.7818609E-02  0.8761395E-01
       -2   -1    0    0    0  501  0.00000000000E+00  0.00000000000E+00  0.16843525557E+04  0.16843525557E+04  0.25500000920E-02 0. -1.
        2   -1    0    0  501    0  0.00000000000E+00  0.00000000000E+00 -0.42892109013E+03  0.42892109014E+03  0.25500000920E-02 0.  1.
    10030    2    1    2    0    0  0.00000000000E+00  0.00000000000E+00  0.12554314656E+04  0.21132736459E+04  0.16999462749E+04 0.  0.
        2    1    3    3  502    0 -0.65453938738E+02  0.55891326435E+03 -0.16418202450E+03  0.58619450043E+03  0.25500000920E-02 0.  1.
       -2    1    3    3    0  502  0.65453938738E+02 -0.55891326435E+03  0.14196134901E+04  0.15270791454E+04  0.25500000920E-02 0. -1.
</event>
<event>
 5   0  0.7082527E-06  0.1699003E+04  0.7818609E-02  0.8761933E-01
        1   -1    0    0  501    0  0.00000000000E+00  0.00000000000E+00  0.20405168342E+04  0.20405168343E+04  0.50400001928E-02 0.  1.
       -1   -1    0    0    0  501  0.00000000000E+00  0.00000000000E+00 -0.35366193464E+03  0.35366193468E+03  0.50400001928E-02 0. -1.
    10030    2    1    2    0    0  0.00000000000E+00  0.00000000000E+00  0.16868548996E+04  0.23941787689E+04  0.16990033918E+04 0.  0.
        1    1    3    3  502    0  0.39917962756E+03 -0.73112542521E+03  0.10782318504E+04  0.13625243799E+04  0.50400001928E-02 0.  1.
       -1    1    3    3    0  502 -0.39917962756E+03  0.73112542521E+03  0.60862304918E+03  0.10316543891E+04  0.50400001928E-02 0. -1.
</event>
<event>
 5   0  0.7082527E-06  0.1700886E+04  0.7818609E-02  0.8760859E-01
       -1   -1    0    0    0  501  0.00000000000E+00  0.00000000000E+00  0.46920608325E+03  0.46920608327E+03  0.50400001928E-02 0.  1.
        1   -1    0    0  501    0  0.00000000000E+00  0.00000000000E+00 -0.15414400460E+04  0.15414400460E+04  0.50400001928E-02 0. -1.
    10030    2    1    2    0    0  0.00000000000E+00  0.00000000000E+00 -0.10722339627E+04  0.20106461293E+04  0.17008857064E+04 0.  0.
        1    1    3    3  502    0 -0.30983325126E+03 -0.38859882535E+03 -0.13519040171E+04  0.14403645935E+04  0.50400001928E-02 0. -1.
       -1    1    3    3    0  502  0.30983325126E+03  0.38859882535E+03  0.27967005441E+03  0.57028153574E+03  0.50400001928E-02 0.  1.
</event>
<event>
 5   0  0.7455669E-06  0.1700521E+04  0.7818609E-02  0.8761067E-01
        1   -1    0    0  501    0  0.00000000000E+00  0.00000000000E+00  0.67894442942E+03  0.67894442944E+03  0.50400001928E-02 0. -1.
       -1   -1    0    0    0  501  0.00000000000E+00  0.00000000000E+00 -0.10648046550E+04  0.10648046550E+04  0.50400001928E-02 0.  1.
    10030    2    1    2    0    0  0.00000000000E+00  0.00000000000E+00 -0.38586022556E+03  0.17437490844E+04  0.17005213188E+04 0.  0.
        4    1    3    3  502    0 -0.79263116193E+03 -0.29747019433E+03 -0.11226074234E+03  0.85402386533E+03  0.12699999809E+01 0. -1.
       -4    1    3    3    0  502  0.79263116193E+03  0.29747019433E+03 -0.27359948322E+03  0.88972521910E+03  0.12699999809E+01 0.  1.
</event>
<event>
 5   0  0.1419012E-05  0.1700065E+04  0.7818609E-02  0.8761327E-01
        2   -1    0    0  501    0  0.00000000000E+00  0.00000000000E+00  0.82627973371E+03  0.82627973371E+03  0.25500000920E-02 0. -1.
       -2   -1    0    0    0  501  0.00000000000E+00  0.00000000000E+00 -0.87446793640E+03  0.87446793641E+03  0.25500000920E-02 0.  1.
    10030    2    1    2    0    0  0.00000000000E+00  0.00000000000E+00 -0.48188202695E+02  0.17007476701E+04  0.17000648619E+04 0.  0.
        4    1    3    3  502    0  0.71554388350E+03  0.38553018687E+03  0.22483699906E+03  0.84332073569E+03  0.12699999809E+01 0. -1.
       -4    1    3    3    0  502 -0.71554388350E+03 -0.38553018687E+03 -0.27302520175E+03  0.85742693443E+03  0.12699999809E+01 0.  1.
</event>
<event>
 5   0  0.7461128E-06  0.1700770E+04  0.7818609E-02  0.8760925E-01
        1   -1    0    0  501    0  0.00000000000E+00  0.00000000000E+00  0.10408182509E+04  0.10408182510E+04  0.50400001928E-02 0. -1.
       -1   -1    0    0    0  501  0.00000000000E+00  0.00000000000E+00 -0.69479432510E+03  0.69479432511E+03  0.50400001928E-02 0.  1.
    10030    2    1    2    0    0  0.00000000000E+00  0.00000000000E+00  0.34602392585E+03  0.17356125761E+04  0.17007699600E+04 0.  0.
        3    1    3    3  502    0 -0.67267256835E+03 -0.15314559578E+03  0.68040272238E+03  0.96896327719E+03  0.10100000352E+00 0. -1.
       -3    1    3    3    0  502  0.67267256835E+03  0.15314559578E+03 -0.33437879653E+03  0.76664929889E+03  0.10100000352E+00 0.  1.
</event>
<event>
 5   0  0.7583716E-06  0.1700018E+04  0.7818609E-02  0.8761354E-01
        1   -1    0    0  501    0  0.00000000000E+00  0.00000000000E+00  0.73802844630E+03  0.73802844632E+03  0.50400001928E-02 0. -1.
       -1   -1    0    0    0  501  0.00000000000E+00  0.00000000000E+00 -0.97897978365E+03  0.97897978367E+03  0.50400001928E-02 0.  1.
    10030    2    1    2    0    0  0.00000000000E+00  0.00000000000E+00 -0.24095133735E+03  0.17170082300E+04  0.17000175631E+04 0.  0.
        5    1    3    3  502    0 -0.72639145455E+03 -0.40784569838E+03 -0.29101279742E+03  0.88243594509E+03  0.46999998093E+01 0.  1.
       -5    1    3    3    0  502  0.72639145455E+03  0.40784569838E+03  0.50061460074E+02  0.83457228489E+03  0.46999998093E+01 0. -1.
</event>
<event>
 5   0  0.7455669E-06  0.1699555E+04  0.7818609E-02  0.8761618E-01
        1   -1    0    0  501    0  0.00000000000E+00  0.00000000000E+00  0.64531973887E+03  0.64531973889E+03  0.50400001928E-02 0.  1.
       -1   -1    0    0    0  501  0.00000000000E+00  0.00000000000E+00 -0.11190138031E+04  0.11190138031E+04  0.50400001928E-02 0. -1.
    10030    2    1    2    0    0  0.00000000000E+00  0.00000000000E+00 -0.47369406424E+03  0.17643335420E+04  0.16995548773E+04 0.  0.
        4    1    3    3  502    0 -0.60468481042E+03  0.42045745641E+03 -0.67690484551E+03  0.10003149381E+04  0.12699999809E+01 0. -1.
       -4    1    3    3    0  502  0.60468481042E+03 -0.42045745641E+03  0.20321078127E+03  0.76401860392E+03  0.12699999809E+01 0.  1.
</event>
<event>
 5   0  0.1435301E-05  0.1700063E+04  0.7818609E-02  0.8761328E-01
       -2   -1    0    0    0  501  0.00000000000E+00  0.00000000000E+00  0.59031283489E+03  0.59031283489E+03  0.25500000920E-02 0.  1.
        2   -1    0    0  501    0  0.00000000000E+00  0.00000000000E+00 -0.12240184947E+04  0.12240184947E+04  0.25500000920E-02 0. -1.
    10030    2    1    2    0    0  0.00000000000E+00  0.00000000000E+00 -0.63370565982E+03  0.18143313296E+04  0.17000633254E+04 0.  0.
        2    1    3    3  502    0 -0.44292383799E+03  0.24209828605E+03  0.41304719175E+03  0.65222778919E+03  0.25500000920E-02 0.  1.
       -2    1    3    3    0  502  0.44292383799E+03 -0.24209828605E+03 -0.10467528516E+04  0.11621035404E+04  0.25500000920E-02 0. -1.
</event>
<event>
 5   0  0.1419012E-05  0.1700209E+04  0.7818609E-02  0.8761245E-01
       -2   -1    0    0    0  501  0.00000000000E+00  0.00000000000E+00  0.45088898852E+03  0.45088898853E+03  0.25500000920E-02 0.  1.
        2   -1    0    0  501    0  0.00000000000E+00  0.00000000000E+00 -0.16027831605E+04  0.16027831605E+04  0.25500000920E-02 0. -1.
    10030    2    1    2    0    0  0.00000000000E+00  0.00000000000E+00 -0.11518941720E+04  0.20536721491E+04  0.17002085497E+04 0.  0.
        4    1    3    3  502    0  0.44071611217E+02  0.38639790855E+03  0.33713630232E+03  0.51469228661E+03  0.12699999809E+01 0.  1.
       -4    1    3    3    0  502 -0.44071611217E+02 -0.38639790855E+03 -0.14890304743E+04  0.15389798625E+04  0.12699999809E+01 0. -1.
</event>
<event>
 5   0  0.1419012E-05  0.1700975E+04  0.7818609E-02  0.8760808E-01
       -2   -1    0    0    0  501  0.00000000000E+00  0.00000000000E+00  0.36576927836E+03  0.36576927837E+03  0.25500000920E-02 0.  1.
        2   -1    0    0  501    0  0.00000000000E+00  0.00000000000E+00 -0.19775554704E+04  0.19775554704E+04  0.25500000920E-02 0. -1.
    10030    2    1    2    0    0  0.00000000000E+00  0.00000000000E+00 -0.16117861920E+04  0.23433247487E+04  0.17009750584E+04 0.  0.
        4    1    3    3  502    0  0.15586981218E+03  0.57805141485E+03  0.26281922069E+02  0.59927555338E+03  0.12699999809E+01 0.  1.
       -4    1    3    3    0  502 -0.15586981218E+03 -0.57805141485E+03 -0.16380681141E+04  0.17440491953E+04  0.12699999809E+01 0. -1.
</event>
<event>
 5   0  0.7455669E-06  0.1700055E+04  0.7818609E-02  0.8761333E-01
        1   -1    0    0  501    0  0.00000000000E+00  0.00000000000E+00  0.46412342346E+03  0.46412342349E+03  0.50400001928E-02 0.  1.
       -1   -1    0    0    0  501  0.00000000000E+00  0.00000000000E+00 -0.15567985717E+04  0.15567985718E+04  0.50400001928E-02 0. -1.
    10030    2    1    2    0    0  0.00000000000E+00  0.00000000000E+00 -0.10926751483E+04  0.20209219952E+04  0.17000549200E+04 0.  0.
        4    1    3    3  502    0  0.23870586998E+03 -0.40164223143E+03 -0.13904664028E+04  0.14668658441E+04  0.12699999809E+01 0. -1.
       -4    1    3    3    0  502 -0.23870586998E+03  0.40164223143E+03  0.29779125452E+03  0.55405615112E+03  0.12699999809E+01 0.  1.
</event>
<event>
 5   0  0.1435301E-05  0.1699989E+04  0.7818609E-02  0.8761371E-01
       -2   -1    0    0    0  501  0.00000000000E+00  0.00000000000E+00  0.49913371793E+03  0.49913371793E+03  0.25500000920E-02 0.  1.
        2   -1    0    0  501    0  0.00000000000E+00  0.00000000000E+00 -0.14474886979E+04  0.14474886979E+04  0.25500000920E-02 0. -1.
    10030    2    1    2    0    0  0.00000000000E+00  0.00000000000E+00 -0.94835497996E+03  0.19466224158E+04  0.16999887240E+04 0.  0.
        2    1    3    3  502    0 -0.65644676833E+02 -0.83850699374E+03 -0.61482763824E+03  0.10418331089E+04  0.25500000920E-02 0. -1.
       -2    1    3    3    0  502  0.65644676833E+02  0.83850699374E+03 -0.33352734172E+03  0.90478930688E+03  0.25500000920E-02 0.  1.
</event>
<event>
 5   0  0.1419012E-05  0.1700233E+04  0.7818609E-02  0.8761231E-01
       -2   -1    0    0    0  501  0.00000000000E+00  0.00000000000E+00  0.68439686241E+03  0.68439686241E+03  0.25500000920E-02 0.  1.
        2   -1    0    0  501    0  0.00000000000E+00  0.00000000000E+00 -0.10559634763E+04  0.10559634763E+04  0.25500000920E-02 0. -1.
    10030    2    1    2    0    0  0.00000000000E+00  0.00000000000E+00 -0.37156661388E+03  0.17403603387E+04  0.17002330311E+04 0.  0.
        4    1    3    3  502    0  0.58175695890E+03  0.22704734633E+03 -0.77620223915E+03  0.99623450335E+03  0.12699999809E+01 0. -1.
       -4    1    3    3    0  502 -0.58175695890E+03 -0.22704734633E+03  0.40463562527E+03  0.74412583535E+03  0.12699999809E+01 0.  1.
</event>
<event>
 5   0  0.1441756E-05  0.1700536E+04  0.7818609E-02  0.8761058E-01
        2   -1    0    0  501    0  0.00000000000E+00  0.00000000000E+00  0.55244090907E+03  0.55244090908E+03  0.25500000920E-02 0.  1.
       -2   -1    0    0    0  501  0.00000000000E+00  0.00000000000E+00 -0.13086576734E+04  0.13086576734E+04  0.25500000920E-02 0. -1.
    10030    2    1    2    0    0  0.00000000000E+00  0.00000000000E+00 -0.75621676434E+03  0.18610985825E+04  0.17005364269E+04 0.  0.
        5    1    3    3  502    0  0.74984916433E+03  0.27027693577E+03 -0.70204619913E+03  0.10621743487E+04  0.46999998093E+01 0.  1.
       -5    1    3    3    0  502 -0.74984916433E+03 -0.27027693577E+03 -0.54170565207E+02  0.79892423382E+03  0.46999998093E+01 0. -1.
</event>
<event>
 5   0  0.5229750E-06  0.1700383E+04  0.7818609E-02  0.8761146E-01
       -4   -1    0    0    0  501  0.00000000000E+00  0.00000000000E+00  0.40450632507E+03  0.40450831873E+03  0.12699999809E+01 0. -1.
        4   -1    0    0  501    0  0.00000000000E+00  0.00000000000E+00 -0.17869257815E+04  0.17869262328E+04  0.12699999809E+01 0.  1.
    10030    2    1    2    0    0  0.00000000000E+00  0.00000000000E+00 -0.13824194564E+04  0.21914345516E+04  0.17003828511E+04 0.  0.
        1    1    3    3  502    0 -0.14130430505E+02  0.14277009417E+03 -0.17712136698E+04  0.17770145843E+04  0.50400001928E-02 0.  1.
       -1    1    3    3    0  502  0.14130430505E+02 -0.14277009417E+03  0.38879421336E+03  0.41441996721E+03  0.50400001928E-02 0. -1.
</event>
<event>
 5   0  0.1441756E-05  0.1699408E+04  0.7818609E-02  0.8761702E-01
        2   -1    0    0  501    0  0.00000000000E+00  0.00000000000E+00  0.89107244233E+03  0.89107244234E+03  0.25500000920E-02 0. -1.
       -2   -1    0    0    0  501  0.00000000000E+00  0.00000000000E+00 -0.81025620352E+03  0.81025620352E+03  0.25500000920E-02 0.  1.
    10030    2    1    2    0    0  0.00000000000E+00  0.00000000000E+00  0.80816238819E+02  0.17013286459E+04  0.16994081019E+04 0.  0.
        5    1    3    3  502    0  0.60116617245E+03 -0.16573129699E+03  0.61821482217E+03  0.87811120369E+03  0.46999998093E+01 0.  1.
       -5    1    3    3    0  502 -0.60116617245E+03  0.16573129699E+03 -0.53739858335E+03  0.82321744217E+03  0.46999998093E+01 0. -1.
</event>
<event>
 5   0  0.7583716E-06  0.1698616E+04  0.7818609E-02  0.8762154E-01
        1   -1    0    0  501    0  0.00000000000E+00  0.00000000000E+00  0.89202119118E+03  0.89202119119E+03  0.50400001928E-02 0.  1.
       -1   -1    0    0    0  501  0.00000000000E+00  0.00000000000E+00 -0.80864046173E+03  0.80864046175E+03  0.50400001928E-02 0. -1.
    10030    2    1    2    0    0  0.00000000000E+00  0.00000000000E+00  0.83380729450E+02  0.17006616529E+04  0.16986164110E+04 0.  0.
        5    1    3    3  502    0 -0.36018213720E+03  0.51197729900E+03  0.61635918006E+03  0.87850592228E+03  0.46999998093E+01 0.  1.
       -5    1    3    3    0  502  0.36018213720E+03 -0.51197729900E+03 -0.53297845061E+03  0.82215573066E+03  0.46999998093E+01 0. -1.
</event>
<event>
 5   0  0.7476457E-06  0.1700464E+04  0.7818609E-02  0.8761100E-01
       -1   -1    0    0    0  501  0.00000000000E+00  0.00000000000E+00  0.42113980170E+03  0.42113980173E+03  0.50400001928E-02 0.  1.
        1   -1    0    0  501    0  0.00000000000E+00  0.00000000000E+00 -0.17165180286E+04  0.17165180286E+04  0.50400001928E-02 0. -1.
    10030    2    1    2    0    0  0.00000000000E+00  0.00000000000E+00 -0.12953782269E+04  0.21376578304E+04  0.17004635394E+04 0.  0.
        2    1    3    3  502    0 -0.25199588463E+03  0.80397492331E+03 -0.79111161513E+03  0.11557401052E+04  0.25500000920E-02 0. -1.
       -2    1    3    3    0  502  0.25199588463E+03 -0.80397492331E+03 -0.50426661178E+03  0.98191772514E+03  0.25500000920E-02 0.  1.
</event>
<event>
 5   0  0.1374441E-05  0.1700047E+04  0.7818609E-02  0.8761337E-01
       -2   -1    0    0    0  501  0.00000000000E+00  0.00000000000E+00  0.62741744395E+03  0.62741744396E+03  0.25500000920E-02 0.  1.
        2   -1    0    0  501    0  0.00000000000E+00  0.00000000000E+00 -0.11516100477E+04  0.11516100477E+04  0.25500000920E-02 0. -1.
    10030    2    1    2    0    0  0.00000000000E+00  0.00000000000E+00 -0.52419260370E+03  0.17790274916E+04  0.17000473317E+04 0.  0.
        1    1    3    3  502    0  0.26672077851E+03 -0.64778137650E+03 -0.76589750624E+03  0.10379593805E+04  0.50400001928E-02 0. -1.
       -1    1    3    3    0  502 -0.26672077851E+03  0.64778137650E+03  0.24170490253E+03  0.74106811115E+03  0.50400001928E-02 0.  1.
</event>
<event>
 5   0  0.7455669E-06  0.1691312E+04  0.7818609E-02  0.8766335E-01
        1   -1    0    0  501    0  0.00000000000E+00  0.00000000000E+00  0.40856873193E+03  0.40856873196E+03  0.50400001928E-02 0. -1.
       -1   -1    0    0    0  501  0.00000000000E+00  0.00000000000E+00 -0.17503398969E+04  0.17503398970E+04  0.50400001928E-02 0.  1.
    10030    2    1    2    0    0  0.00000000000E+00  0.00000000000E+00 -0.13417711650E+04  0.21589086289E+04  0.16913120968E+04 0.  0.
        4    1    3    3  502    0  0.19069384563E+03 -0.75627942787E+03 -0.25371266586E+03  0.82017952028E+03  0.12699999809E+01 0. -1.
       -4    1    3    3    0  502 -0.19069384563E+03  0.75627942787E+03 -0.10880584992E+04  0.13387291086E+04  0.12699999809E+01 0.  1.
</event>
<event>
 5   0  0.1423543E-05  0.1700916E+04  0.7818609E-02  0.8760842E-01
       -2   -1    0    0    0  501  0.00000000000E+00  0.00000000000E+00  0.15585459714E+04  0.15585459714E+04  0.25500000920E-02 0. -1.
        2   -1    0    0  501    0  0.00000000000E+00  0.00000000000E+00 -0.46407295754E+03  0.46407295755E+03  0.25500000920E-02 0.  1.
    10030    2    1    2    0    0  0.00000000000E+00  0.00000000000E+00  0.10944730138E+04  0.20226189289E+04  0.17009162688E+04 0.  0.
        3    1    3    3  502    0  0.73806818454E+03 -0.32422285367E+03  0.22504035282E+03  0.83696372351E+03  0.10100000352E+00 0.  1.
       -3    1    3    3    0  502 -0.73806818454E+03  0.32422285367E+03  0.86943266100E+03  0.11856552054E+04  0.10100000352E+00 0. -1.
</event>
<event>
 5   0  0.7583716E-06  0.1700617E+04  0.7818609E-02  0.8761013E-01
        1   -1    0    0  501    0  0.00000000000E+00  0.00000000000E+00  0.40690056698E+03  0.40690056701E+03  0.50400001928E-02 0. -1.
       -1   -1    0    0    0  501  0.00000000000E+00  0.00000000000E+00 -0.17769066947E+04  0.17769066947E+04  0.50400001928E-02 0.  1.
    10030    2    1    2    0    0  0.00000000000E+00  0.00000000000E+00 -0.13700061277E+04  0.21838072617E+04  0.17006167606E+04 0.  0.
        5    1    3    3  502    0  0.41989069594E+03 -0.40210660940E+03 -0.14817871611E+04  0.15917641794E+04  0.46999998093E+01 0.  1.
       -5    1    3    3    0  502 -0.41989069594E+03  0.40210660940E+03  0.11178103345E+03  0.59204308230E+03  0.46999998093E+01 0. -1.
</event>
<event>
 5   0  0.7461128E-06  0.1700127E+04  0.7818609E-02  0.8761292E-01
        1   -1    0    0  501    0  0.00000000000E+00  0.00000000000E+00  0.69618576316E+03  0.69618576317E+03  0.50400001928E-02 0.  1.
       -1   -1    0    0    0  501  0.00000000000E+00  0.00000000000E+00 -0.10379526108E+04  0.10379526108E+04  0.50400001928E-02 0. -1.
    10030    2    1    2    0    0  0.00000000000E+00  0.00000000000E+00 -0.34176684765E+03  0.17341383740E+04  0.17001268547E+04 0.  0.
        3    1    3    3  502    0 -0.28577510532E+03 -0.20838905603E+03 -0.95933788221E+03  0.10224590906E+04  0.10100000352E+00 0. -1.
       -3    1    3    3    0  502  0.28577510532E+03  0.20838905603E+03  0.61757103456E+03  0.71167928340E+03  0.10100000352E+00 0.  1.
</event>
<event>
 5   0  0.5229750E-06  0.1700517E+04  0.7818609E-02  0.8761070E-01
        3   -1    0    0  501    0  0.00000000000E+00  0.00000000000E+00  0.12218629277E+04  0.12218629318E+04  0.10100000352E+00 0. -1.
       -3   -1    0    0    0  501  0.00000000000E+00  0.00000000000E+00 -0.59166969644E+03  0.59166970506E+03  0.10100000352E+00 0.  1.
    10030    2    1    2    0    0  0.00000000000E+00  0.00000000000E+00  0.63019323121E+03  0.18135326369E+04  0.17005167204E+04 0.  0.
        4    1    3    3  502    0  0.88632628355E+02  0.79602925872E+03  0.61940103879E+03  0.10125105349E+04  0.12699999809E+01 0. -1.
       -4    1    3    3    0  502 -0.88632628355E+02 -0.79602925872E+03  0.10792192428E+02  0.80102210198E+03  0.12699999809E+01 0.  1.
</event>
<event>
 5   0  0.1435301E-05  0.1699923E+04  0.7818609E-02  0.8761408E-01
       -2   -1    0    0    0  501  0.00000000000E+00  0.00000000000E+00  0.67944793902E+03  0.67944793903E+03  0.25500000920E-02 0.  1.
        2   -1    0    0  501    0  0.00000000000E+00  0.00000000000E+00 -0.10632670262E+04  0.10632670262E+04  0.25500000920E-02 0. -1.
    10030    2    1    2    0    0  0.00000000000E+00  0.00000000000E+00 -0.38381908718E+03  0.17427149652E+04  0.16999230448E+04 0.  0.
        2    1    3    3  502    0 -0.31736918675E+03  0.47994692809E+03  0.44942792394E+03  0.73010801482E+03  0.25500000920E-02 0.  1.
       -2    1    3    3    0  502  0.31736918675E+03 -0.47994692809E+03 -0.83324701112E+03  0.10126069504E+04  0.25500000920E-02 0. -1.
</event>
<event>
 5   0  0.1441756E-05  0.1699857E+04  0.7818609E-02  0.8761446E-01
       -2   -1    0    0    0  501  0.00000000000E+00  0.00000000000E+00  0.12667347048E+04  0.12667347048E+04  0.25500000920E-02 0. -1.
        2   -1    0    0  501    0  0.00000000000E+00  0.00000000000E+00 -0.57026793060E+03  0.57026793060E+03  0.25500000920E-02 0.  1.
    10030    2    1    2    0    0  0.00000000000E+00  0.00000000000E+00  0.69646677417E+03  0.18370026354E+04  0.16998566748E+04 0.  0.
        5    1    3    3  502    0  0.72871049301E+03  0.36232452467E+03  0.61307307632E+03  0.10189105607E+04  0.46999998093E+01 0. -1.
       -5    1    3    3    0  502 -0.72871049301E+03 -0.36232452467E+03  0.83393697847E+02  0.81809207467E+03  0.46999998093E+01 0.  1.
</event>
<event>
 5   0  0.7455669E-06  0.1699657E+04  0.7818609E-02  0.8761560E-01
       -1   -1    0    0    0  501  0.00000000000E+00  0.00000000000E+00  0.12725348152E+04  0.12725348152E+04  0.50400001928E-02 0.  1.
        1   -1    0    0  501    0  0.00000000000E+00  0.00000000000E+00 -0.56753539617E+03  0.56753539619E+03  0.50400001928E-02 0. -1.
    10030    2    1    2    0    0  0.00000000000E+00  0.00000000000E+00  0.70499941898E+03  0.18400702114E+04  0.16996570836E+04 0.  0.
        4    1    3    3  502    0 -0.23805598100E+03  0.71527908432E+03 -0.72226923498E+02  0.75730651650E+03  0.12699999809E+01 0.  1.
       -4    1    3    3    0  502  0.23805598100E+03 -0.71527908432E+03  0.77722634248E+03  0.10827636949E+04  0.12699999809E+01 0. -1.
</event>
<event>
 5   0  0.1419012E-05  0.1700000E+04  0.7818609E-02  0.8761364E-01
        2   -1    0    0  501    0  0.00000000000E+00  0.00000000000E+00  0.15606201284E+04  0.15606201284E+04  0.25500000920E-02 0.  1.
       -2   -1    0    0    0  501  0.00000000000E+00  0.00000000000E+00 -0.46295685697E+03  0.46295685697E+03  0.25500000920E-02 0. -1.
    10030    2    1    2    0    0  0.00000000000E+00  0.00000000000E+00  0.10976632714E+04  0.20235769854E+04  0.16999997524E+04 0.  0.
        4    1    3    3  502    0  0.61572067093E+03 -0.72637362685E+02 -0.14331786579E+03  0.63634091069E+03  0.12699999809E+01 0. -1.
       -4    1    3    3    0  502 -0.61572067093E+03  0.72637362685E+02  0.12409811372E+04  0.13872360747E+04  0.12699999809E+01 0.  1.
</event>
<event>
 5   0  0.7583716E-06  0.1700439E+04  0.7818609E-02  0.8761114E-01
        1   -1    0    0  501    0  0.00000000000E+00  0.00000000000E+00  0.57013057498E+03  0.57013057501E+03  0.50400001928E-02 0.  1.
       -1   -1    0    0    0  501  0.00000000000E+00  0.00000000000E+00 -0.12679079716E+04  0.12679079716E+04  0.50400001928E-02 0. -1.
    10030    2    1    2    0    0  0.00000000000E+00  0.00000000000E+00 -0.69777739658E+03  0.18380385466E+04  0.17004388856E+04 0.  0.
        5    1    3    3  502    0 -0.42436965499E+03  0.72523044781E+03 -0.20877625103E+03  0.86582816973E+03  0.46999998093E+01 0.  1.
       -5    1    3    3    0  502  0.42436965499E+03 -0.72523044781E+03 -0.48900114555E+03  0.97221037685E+03  0.46999998093E+01 0. -1.
</event>
<event>
 5   0  0.1435301E-05  0.1700505E+04  0.7818609E-02  0.8761076E-01
        2   -1    0    0  501    0  0.00000000000E+00  0.00000000000E+00  0.14210498306E+04  0.14210498306E+04  0.25500000920E-02 0.  1.
       -2   -1    0    0    0  501  0.00000000000E+00  0.00000000000E+00 -0.50872928056E+03  0.50872928057E+03  0.25500000920E-02 0. -1.
    10030    2    1    2    0    0  0.00000000000E+00  0.00000000000E+00  0.91232055004E+03  0.19297791112E+04  0.17005054048E+04 0.  0.
        2    1    3    3  502    0  0.73002112553E+03  0.26035580708E+03  0.85288518822E+03  0.11524448509E+04  0.25500000920E-02 0.  1.
       -2    1    3    3    0  502 -0.73002112553E+03 -0.26035580708E+03  0.59435361814E+02  0.77733426030E+03  0.25500000920E-02 0. -1.
</event>
<event>
 5   0  0.1423543E-05  0.1701026E+04  0.7818609E-02  0.8760780E-01
        2   -1    0    0  501    0  0.00000000000E+00  0.00000000000E+00  0.17272402487E+04  0.17272402487E+04  0.25500000920E-02 0. -1.
       -2   -1    0    0    0  501  0.00000000000E+00  0.00000000000E+00 -0.41880218208E+03  0.41880218209E+03  0.25500000920E-02 0.  1.
    10030    2    1    2    0    0  0.00000000000E+00  0.00000000000E+00  0.13084380666E+04  0.21460424308E+04  0.17010255555E+04 0.  0.
        3    1    3    3  502    0  0.31793135209E+03  0.50827753372E+03  0.14153259877E+04  0.15370667056E+04  0.10100000352E+00 0. -1.
       -3    1    3    3    0  502 -0.31793135209E+03 -0.50827753372E+03 -0.10688792110E+03  0.60897572514E+03  0.10100000352E+00 0.  1.
</event>
<event>
 5   0  0.7476457E-06  0.1701989E+04  0.7818609E-02  0.8760231E-01
       -1   -1    0    0    0  501  0.00000000000E+00  0.00000000000E+00  0.62092841593E+03  0.62092841595E+03  0.50400001928E-02 0. -1.
        1   -1    0    0  501    0  0.00000000000E+00  0.00000000000E+00 -0.11663039916E+04  0.11663039916E+04  0.50400001928E-02 0.  1.
    10030    2    1    2    0    0  0.00000000000E+00  0.00000000000E+00 -0.54537557565E+03  0.17872324076E+04  0.17019885899E+04 0.  0.
        2    1    3    3  502    0  0.32029982991E+03 -0.36883051047E+03  0.45903628351E+03  0.67032994568E+03  0.25500000920E-02 0. -1.
       -2    1    3    3    0  502 -0.32029982991E+03  0.36883051047E+03 -0.10044118592E+04  0.11169024619E+04  0.25500000920E-02 0.  1.
</event>
<event>
 5   0  0.7583716E-06  0.1699703E+04  0.7818609E-02  0.8761534E-01
        1   -1    0    0  501    0  0.00000000000E+00  0.00000000000E+00  0.19005790717E+04  0.19005790717E+04  0.50400001928E-02 0. -1.
       -1   -1    0    0    0  501  0.00000000000E+00  0.00000000000E+00 -0.38001454806E+03  0.38001454809E+03  0.50400001928E-02 0.  1.
    10030    2    1    2    0    0  0.00000000000E+00  0.00000000000E+00  0.15205645237E+04  0.22805936198E+04  0.16997031471E+04 0.  0.
        5    1    3    3  502    0 -0.75394377471E+03  0.25129011868E+03  0.35630851339E+03  0.87095108122E+03  0.46999998093E+01 0.  1.
       -5    1    3    3    0  502  0.75394377471E+03 -0.25129011868E+03  0.11642560103E+04  0.14096425386E+04  0.46999998093E+01 0. -1.
</event>
<event>
 5   0  0.1423543E-05  0.1701353E+04  0.7818609E-02  0.8760593E-01
        2   -1    0    0  501    0  0.00000000000E+00  0.00000000000E+00  0.87121496576E+03  0.87121496577E+03  0.25500000920E-02 0. -1.
       -2   -1    0    0    0  501  0.00000000000E+00  0.00000000000E+00 -0.83062248717E+03  0.83062248717E+03  0.25500000920E-02 0.  1.
    10030    2    1    2    0    0  0.00000000000E+00  0.00000000000E+00  0.40592478599E+02  0.17018374529E+04  0.17013532752E+04 0.  0.
        3    1    3    3  502    0 -0.16733352935E+03 -0.16726051592E+02 -0.81382983000E+03  0.83102302811E+03  0.10100000352E+00 0.  1.
       -3    1    3    3    0  502  0.16733352935E+03  0.16726051592E+02  0.85442230860E+03  0.87081442483E+03  0.10100000352E+00 0. -1.
</event>
<event>
 5   0  0.1423543E-05  0.1699887E+04  0.7818609E-02  0.8761429E-01
        2   -1    0    0  501    0  0.00000000000E+00  0.00000000000E+00  0.15412570098E+04  0.15412570098E+04  0.25500000920E-02 0.  1.
       -2   -1    0    0    0  501  0.00000000000E+00  0.00000000000E+00 -0.46871104535E+03  0.46871104535E+03  0.25500000920E-02 0. -1.
    10030    2    1    2    0    0  0.00000000000E+00  0.00000000000E+00  0.10725459644E+04  0.20099680552E+04  0.16998872718E+04 0.  0.
        3    1    3    3  502    0 -0.50995912363E+03  0.47800408880E+03 -0.35528279155E+02  0.69986319056E+03  0.10100000352E+00 0. -1.
       -3    1    3    3    0  502  0.50995912363E+03 -0.47800408880E+03  0.11080742436E+04  0.13101048646E+04  0.10100000352E+00 0.  1.
</event>
<event>
 5   0  0.1435301E-05  0.1699537E+04  0.7818609E-02  0.8761629E-01
        2   -1    0    0  501    0  0.00000000000E+00  0.00000000000E+00  0.11284410462E+04  0.11284410462E+04  0.25500000920E-02 0.  1.
       -2   -1    0    0    0  501  0.00000000000E+00  0.00000000000E+00 -0.63991489366E+03  0.63991489367E+03  0.25500000920E-02 0. -1.
    10030    2    1    2    0    0  0.00000000000E+00  0.00000000000E+00  0.48852615254E+03  0.17683559399E+04  0.16995366805E+04 0.  0.
        2    1    3    3  502    0 -0.13919530644E+03 -0.81999257488E+03  0.42550929090E+03  0.93424906360E+03  0.25500000920E-02 0.  1.
       -2    1    3    3    0  502  0.13919530644E+03  0.81999257488E+03  0.63016861636E+02  0.83410687627E+03  0.25500000920E-02 0. -1.
</event>
<event>
 5   0  0.7082527E-06  0.1700614E+04  0.7818609E-02  0.8761014E-01
        1   -1    0    0  501    0  0.00000000000E+00  0.00000000000E+00  0.16594887668E+04  0.16594887668E+04  0.50400001928E-02 0.  1.
       -1   -1    0    0    0  501  0.00000000000E+00  0.00000000000E+00 -0.43568981054E+03  0.43568981057E+03  0.50400001928E-02 0. -1.
    10030    2    1    2    0    0  0.00000000000E+00  0.00000000000E+00  0.12237989563E+04  0.20951785774E+04  0.17006144142E+04 0.  0.
        1    1    3    3  502    0  0.40968864443E+03  0.37980431611E+03 -0.17786414782E+03  0.58628641381E+03  0.50400001928E-02 0. -1.
       -1    1    3    3    0  502 -0.40968864443E+03 -0.37980431611E+03  0.14016631041E+04  0.15088921636E+04  0.50400001928E-02 0.  1.
</event>
<event>
 5   0  0.1419012E-05  0.1699830E+04  0.7818609E-02  0.8761461E-01
        2   -1    0    0  501    0  0.00000000000E+00  0.00000000000E+00  0.14304572501E+04  0.14304572501E+04  0.25500000920E-02 0.  1.
       -2   -1    0    0    0  501  0.00000000000E+00  0.00000000000E+00 -0.50498243167E+03  0.50498243168E+03  0.25500000920E-02 0. -1.
    10030    2    1    2    0    0  0.00000000000E+00  0.00000000000E+00  0.92547481847E+03  0.19354396818E+04  0.16998303216E+04 0.  0.
        4    1    3    3  502    0 -0.21805321975E+03 -0.46767080173E+03 -0.30621561951E+03  0.60002733601E+03  0.12699999809E+01 0. -1.
       -4    1    3    3    0  502  0.21805321975E+03  0.46767080173E+03  0.12316904380E+04  0.13354123458E+04  0.12699999809E+01 0.  1.
</event>
<event>
 5   0  0.1423543E-05  0.1699731E+04  0.7818609E-02  0.8761518E-01
        2   -1    0    0  501    0  0.00000000000E+00  0.00000000000E+00  0.11728679173E+04  0.11728679173E+04  0.25500000920E-02 0. -1.
       -2   -1    0    0    0  501  0.00000000000E+00  0.00000000000E+00 -0.61581622425E+03  0.61581622426E+03  0.25500000920E-02 0.  1.
    10030    2    1    2    0    0  0.00000000000E+00  0.00000000000E+00  0.55705169303E+03  0.17886841415E+04  0.16997306756E+04 0.  0.
        3    1    3    3  502    0  0.24551655329E+02  0.23985886807E+03  0.11361204952E+04  0.11614236308E+04  0.10100000352E+00 0. -1.
       -3    1    3    3    0  502 -0.24551655329E+02 -0.23985886807E+03 -0.57906880222E+03  0.62726051069E+03  0.10100000352E+00 0.  1.
</event>
<event>
 5   0  0.7476457E-06  0.1700676E+04  0.7818609E-02  0.8760979E-01
        1   -1    0    0  501    0  0.00000000000E+00  0.00000000000E+00  0.12151652126E+04  0.12151652126E+04  0.50400001928E-02 0.  1.
       -1   -1    0    0    0  501  0.00000000000E+00  0.00000000000E+00 -0.59504197273E+03  0.59504197275E+03  0.50400001928E-02 0. -1.
    10030    2    1    2    0    0  0.00000000000E+00  0.00000000000E+00  0.62012323982E+03  0.18102071853E+04  0.17006755191E+04 0.  0.
        2    1    3    3  502    0 -0.26286082630E+03  0.69704779746E+03  0.74647129937E+03  0.10546045926E+04  0.25500000920E-02 0.  1.
       -2    1    3    3    0  502  0.26286082630E+03 -0.69704779746E+03 -0.12634805955E+03  0.75560259271E+03  0.25500000920E-02 0. -1.
</event>
<event>
 5   0  0.7082527E-06  0.1699789E+04  0.7818609E-02  0.8761485E-01
       -1   -1    0    0    0  501  0.00000000000E+00  0.00000000000E+00  0.51675797225E+03  0.51675797228E+03  0.50400001928E-02 0.  1.
        1   -1    0    0  501    0  0.00000000000E+00  0.00000000000E+00 -0.13977921490E+04  0.13977921491E+04  0.50400001928E-02 0. -1.
    10030    2    1    2    0    0  0.00000000000E+00  0.00000000000E+00 -0.88103417679E+03  0.19145501213E+04  0.16997885005E+04 0.  0.
        1    1    3    3  502    0 -0.35146079454E+03  0.11319083580E+03 -0.13027299624E+04  0.13540466057E+04  0.50400001928E-02 0. -1.
       -1    1    3    3    0  502  0.35146079454E+03 -0.11319083580E+03  0.42169578562E+03  0.56050351563E+03  0.50400001928E-02 0.  1.
</event>
<event>
 5   0  0.1374441E-05  0.1699995E+04  0.7818609E-02  0.8761367E-01
       -2   -1    0    0    0  501  0.00000000000E+00  0.00000000000E+00  0.38413923646E+03  0.38413923647E+03  0.25500000920E-02 0. -1.
        2   -1    0    0  501    0  0.00000000000E+00  0.00000000000E+00 -0.18808180493E+04  0.18808180493E+04  0.25500000920E-02 0.  1.
    10030    2    1    2    0    0  0.00000000000E+00  0.00000000000E+00 -0.14966788128E+04  0.22649572857E+04  0.16999953051E+04 0.  0.
        1    1    3    3  502    0  0.51041330241E+03  0.47395246414E+03 -0.99255544401E+02  0.70356544874E+03  0.50400001928E-02 0. -1.
       -1    1    3    3    0  502 -0.51041330241E+03 -0.47395246414E+03 -0.13974232684E+04  0.15613918370E+04  0.50400001928E-02 0.  1.
</event>
<event>
 5   0  0.7583716E-06  0.1700241E+04  0.7818609E-02  0.8761227E-01
        1   -1    0    0  501    0  0.00000000000E+00  0.00000000000E+00  0.19566063534E+04  0.19566063534E+04  0.50400001928E-02 0.  1.
       -1   -1    0    0    0  501  0.00000000000E+00  0.00000000000E+00 -0.36936643024E+03  0.36936643027E+03  0.50400001928E-02 0. -1.
    10030    2    1    2    0    0  0.00000000000E+00  0.00000000000E+00  0.15872399231E+04  0.23259727837E+04  0.17002408114E+04 0.  0.
        5    1    3    3  502    0 -0.53001965256E+03  0.49966770684E+03  0.13932053662E+04  0.15721424654E+04  0.46999998093E+01 0.  1.
       -5    1    3    3    0  502  0.53001965256E+03 -0.49966770684E+03  0.19403455699E+03  0.75383031822E+03  0.46999998093E+01 0. -1.
</event>
<event>
 5   0  0.7082527E-06  0.1700280E+04  0.7818609E-02  0.8761205E-01
       -1   -1    0    0    0  501  0.00000000000E+00  0.00000000000E+00  0.45007317214E+03  0.45007317217E+03  0.50400001928E-02 0.  1.
        1   -1    0    0  501    0  0.00000000000E+00  0.00000000000E+00 -0.16058232862E+04  0.16058232862E+04  0.50400001928E-02 0. -1.
    10030    2    1    2    0    0  0.00000000000E+00  0.00000000000E+00 -0.11557501140E+04  0.20558964583E+04  0.17002799538E+04 0.  0.
        1    1    3    3  502    0  0.83566283697E+03 -0.13473966455E+03 -0.67347321168E+03  0.10816900301E+04  0.50400001928E-02 0.  1.
       -1    1    3    3    0  502 -0.83566283697E+03  0.13473966455E+03 -0.48227690235E+03  0.97420642826E+03  0.50400001928E-02 0. -1.
</event>
<event>
 5   0  0.1423543E-05  0.1704945E+04  0.7818609E-02  0.8758549E-01
       -2   -1    0    0    0  501  0.00000000000E+00  0.00000000000E+00  0.14713030873E+04  0.14713030873E+04  0.25500000920E-02 0.  1.
        2   -1    0    0  501    0  0.00000000000E+00  0.00000000000E+00 -0.49392223116E+03  0.49392223117E+03  0.25500000920E-02 0. -1.
    10030    2    1    2    0    0  0.00000000000E+00  0.00000000000E+00  0.97738085613E+03  0.19652253185E+04  0.17049449300E+04 0.  0.
        3    1    3    3  502    0  0.80989820104E+03 -0.46715746165E+02  0.18680773888E+03  0.83247498370E+03  0.10100000352E+00 0.  1.
       -3    1    3    3    0  502 -0.80989820104E+03  0.46715746165E+02  0.79057311724E+03  0.11327503348E+04  0.10100000352E+00 0. -1.
</event>
<event>
 5   0  0.7082527E-06  0.1700021E+04  0.7818609E-02  0.8761352E-01
       -1   -1    0    0    0  501  0.00000000000E+00  0.00000000000E+00  0.71969019140E+03  0.71969019142E+03  0.50400001928E-02 0.  1.
        1   -1    0    0  501    0  0.00000000000E+00  0.00000000000E+00 -0.10039290513E+04  0.10039290513E+04  0.50400001928E-02 0. -1.
    10030    2    1    2    0    0  0.00000000000E+00  0.00000000000E+00 -0.28423885991E+03  0.17236192427E+04  0.17000210482E+04 0.  0.
        1    1    3    3  502    0 -0.53798427529E+03  0.49132183219E+03  0.30178647186E+03  0.78860592051E+03  0.50400001928E-02 0.  1.
       -1    1    3    3    0  502  0.53798427529E+03 -0.49132183219E+03 -0.58602533177E+03  0.93501332223E+03  0.50400001928E-02 0. -1.
</event>
<event>
 5   0  0.7082527E-06  0.1700218E+04  0.7818609E-02  0.8761240E-01
       -1   -1    0    0    0  501  0.00000000000E+00  0.00000000000E+00  0.13875257730E+04  0.13875257731E+04  0.50400001928E-02 0. -1.
        1   -1    0    0  501    0  0.00000000000E+00  0.00000000000E+00 -0.52084473843E+03  0.52084473845E+03  0.50400001928E-02 0.  1.
    10030    2    1    2    0    0  0.00000000000E+00  0.00000000000E+00  0.86668103462E+03  0.19083705115E+04  0.17002182194E+04 0.  0.
        1    1    3    3  502    0 -0.75334809146E+02 -0.28476052230E+03  0.13284163333E+04  0.13606813893E+04  0.50400001928E-02 0. -1.
       -1    1    3    3    0  502  0.75334809146E+02  0.28476052230E+03 -0.46173529868E+03  0.54768912223E+03  0.50400001928E-02 0.  1.
</event>
<event>
 5   0  0.7476457E-06  0.1701027E+04  0.7818609E-02  0.8760779E-01
       -1   -1    0    0    0  501  0.00000000000E+00  0.00000000000E+00  0.38592248530E+03  0.38592248533E+03  0.50400001928E-02 0.  1.
        1   -1    0    0  501    0  0.00000000000E+00  0.00000000000E+00 -0.18744003569E+04  0.18744003569E+04  0.50400001928E-02 0. -1.
    10030    2    1    2    0    0  0.00000000000E+00  0.00000000000E+00 -0.14884778716E+04  0.22603228422E+04  0.17010270359E+04 0.  0.
        2    1    3    3  502    0  0.25920247941E+03 -0.54816092411E+03 -0.15367501472E+04  0.16520494360E+04  0.25500000920E-02 0. -1.
       -2    1    3    3    0  502 -0.25920247941E+03  0.54816092411E+03  0.48272275675E+02  0.60827340617E+03  0.25500000920E-02 0.  1.
</event>
<event>
 5   0  0.1374441E-05  0.1700235E+04  0.7818609E-02  0.8761231E-01
       -2   -1    0    0    0  501  0.00000000000E+00  0.00000000000E+00  0.75141568677E+03  0.75141568677E+03  0.25500000920E-02 0.  1.
        2   -1    0    0  501    0  0.00000000000E+00  0.00000000000E+00 -0.96178378739E+03  0.96178378740E+03  0.25500000920E-02 0. -1.
    10030    2    1    2    0    0  0.00000000000E+00  0.00000000000E+00 -0.21036810062E+03  0.17131994742E+04  0.17002346016E+04 0.  0.
        1    1    3    3  502    0  0.24915661514E+03  0.40840966765E+03 -0.81326722841E+03  0.94354706313E+03  0.50400001928E-02 0. -1.
       -1    1    3    3    0  502 -0.24915661514E+03 -0.40840966765E+03  0.60289912779E+03  0.76965241104E+03  0.50400001928E-02 0.  1.
</event>
<event>
 5   0  0.5229750E-06  0.1700817E+04  0.7818609E-02  0.8760898E-01
        3   -1    0    0  501    0  0.00000000000E+00  0.00000000000E+00  0.91799740117E+03  0.91799740673E+03  0.10100000352E+00 0.  1.
       -3   -1    0    0    0  501  0.00000000000E+00  0.00000000000E+00 -0.78779599917E+03  0.78779600564E+03  0.10100000352E+00 0. -1.
    10030    2    1    2    0    0  0.00000000000E+00  0.00000000000E+00  0.13020140200E+03  0.17057934124E+04  0.17008170862E+04 0.  0.
        4    1    3    3  502    0  0.19722067975E+03 -0.74003413062E+03  0.43583962425E+03  0.88119481499E+03  0.12699999809E+01 0. -1.
       -4    1    3    3    0  502 -0.19722067975E+03  0.74003413062E+03 -0.30563822224E+03  0.82459859738E+03  0.12699999809E+01 0.  1.
</event>
<event>
 5   0  0.1423543E-05  0.1699962E+04  0.7818609E-02  0.8761386E-01
        2   -1    0    0  501    0  0.00000000000E+00  0.00000000000E+00  0.13870248373E+04  0.13870248373E+04  0.25500000920E-02 0.  1.
       -2   -1    0    0    0  501  0.00000000000E+00  0.00000000000E+00 -0.52087580248E+03  0.52087580248E+03  0.25500000920E-02 0. -1.
    10030    2    1    2    0    0  0.00000000000E+00  0.00000000000E+00  0.86614903483E+03  0.19079006398E+04  0.16999619704E+04 0.  0.
        3    1    3    3  502    0  0.61369842497E+02  0.77981593518E+03  0.80630023371E+03  0.11233873897E+04  0.10100000352E+00 0.  1.
       -3    1    3    3    0  502 -0.61369842497E+02 -0.77981593518E+03  0.59848801120E+02  0.78451325006E+03  0.10100000352E+00 0. -1.
</event>
<event>
 5   0  0.1435301E-05  0.1697537E+04  0.7818609E-02  0.8762771E-01
        2   -1    0    0  501    0  0.00000000000E+00  0.00000000000E+00  0.98661618482E+03  0.98661618483E+03  0.25500000920E-02 0.  1.
       -2   -1    0    0    0  501  0.00000000000E+00  0.00000000000E+00 -0.73018021429E+03  0.73018021429E+03  0.25500000920E-02 0. -1.
    10030    2    1    2    0    0  0.00000000000E+00  0.00000000000E+00  0.25643597054E+03  0.17167963991E+04  0.16975365884E+04 0.  0.
        2    1    3    3  502    0  0.11360538276E+03 -0.34005728575E+03 -0.64983657680E+03  0.74218105415E+03  0.25500000920E-02 0. -1.
       -2    1    3    3    0  502 -0.11360538276E+03  0.34005728575E+03  0.90627254734E+03  0.97461534497E+03  0.25500000920E-02 0.  1.
</event>
<event>
 5   0  0.1419012E-05  0.1700300E+04  0.7818609E-02  0.8761194E-01
       -2   -1    0    0    0  501  0.00000000000E+00  0.00000000000E+00  0.66324869337E+03  0.66324869337E+03  0.25500000920E-02 0. -1.
        2   -1    0    0  501    0  0.00000000000E+00  0.00000000000E+00 -0.10897189163E+04  0.10897189163E+04  0.25500000920E-02 0.  1.
    10030    2    1    2    0    0  0.00000000000E+00  0.00000000000E+00 -0.42647022291E+03  0.17529676097E+04  0.17002995587E+04 0.  0.
        4    1    3    3  502    0  0.41789472760E+03 -0.80603686768E+02  0.54550986138E+03  0.69189275140E+03  0.12699999809E+01 0. -1.
       -4    1    3    3    0  502 -0.41789472760E+03  0.80603686768E+02 -0.97198008429E+03  0.10610748583E+04  0.12699999809E+01 0.  1.
</event>
<event>
 5   0  0.1423543E-05  0.1700301E+04  0.7818609E-02  0.8761193E-01
       -2   -1    0    0    0  501  0.00000000000E+00  0.00000000000E+00  0.11044897990E+04  0.11044897990E+04  0.25500000920E-02 0.  1.
        2   -1    0    0  501    0  0.00000000000E+00  0.00000000000E+00 -0.65437952446E+03  0.65437952447E+03  0.25500000920E-02 0. -1.
    10030    2    1    2    0    0  0.00000000000E+00  0.00000000000E+00  0.45011027452E+03  0.17588693235E+04  0.17003005728E+04 0.  0.
        3    1    3    3  502    0 -0.23394844823E+03 -0.79716832856E+03  0.41167529112E+03  0.92719241585E+03  0.10100000352E+00 0.  1.
       -3    1    3    3    0  502  0.23394844823E+03  0.79716832856E+03  0.38434983403E+02  0.83167690761E+03  0.10100000352E+00 0. -1.
</event>
<event>
 5   0  0.7082527E-06  0.1701263E+04  0.7818609E-02  0.8760644E-01
       -1   -1    0    0    0  501  0.00000000000E+00  0.00000000000E+00  0.87964479642E+03  0.87964479643E+03  0.50400001928E-02 0. -1.
        1   -1    0    0  501    0  0.00000000000E+00  0.00000000000E+00 -0.82257540348E+03  0.82257540350E+03  0.50400001928E-02 0.  1.
    10030    2    1    2    0    0  0.00000000000E+00  0.00000000000E+00  0.57069392938E+02  0.17022201999E+04  0.17012632640E+04 0.  0.
        1    1    3    3  502    0  0.15906431378E+02 -0.80088600875E+03 -0.25781286142E+03  0.84150988414E+03  0.50400001928E-02 0. -1.
       -1    1    3    3    0  502 -0.15906431378E+02  0.80088600875E+03  0.31488225436E+03  0.86071031579E+03  0.50400001928E-02 0.  1.
</event>
<event>
 5   0  0.5229750E-06  0.1695919E+04  0.7818609E-02  0.8763695E-01
        3   -1    0    0  501    0  0.00000000000E+00  0.00000000000E+00  0.67033586837E+03  0.67033587598E+03  0.10100000352E+00 0. -1.
       -3   -1    0    0    0  501  0.00000000000E+00  0.00000000000E+00 -0.10726494211E+04  0.10726494259E+04  0.10100000352E+00 0.  1.
    10030    2    1    2    0    0  0.00000000000E+00  0.00000000000E+00 -0.40231355273E+03  0.17429853018E+04  0.16959190923E+04 0.  0.
        4    1    3    3  502    0 -0.43491564773E+03  0.53510212185E+03 -0.70835855755E+03  0.98856429250E+03  0.12699999809E+01 0.  1.
       -4    1    3    3    0  502  0.43491564773E+03 -0.53510212185E+03  0.30604500483E+03  0.75442100934E+03  0.12699999809E+01 0. -1.
</event>
<event>
 5   0  0.5229750E-06  0.1700038E+04  0.7818609E-02  0.8761343E-01
        3   -1    0    0  501    0  0.00000000000E+00  0.00000000000E+00  0.66741210034E+03  0.66741210799E+03  0.10100000352E+00 0.  1.
       -3   -1    0    0    0  501  0.00000000000E+00  0.00000000000E+00 -0.10825873578E+04  0.10825873625E+04  0.10100000352E+00 0. -1.
    10030    2    1    2    0    0  0.00000000000E+00  0.00000000000E+00 -0.41517525748E+03  0.17499994705E+04  0.17000375444E+04 0.  0.
        5    1    3    3  502    0  0.72966223719E+03 -0.22615059144E+03  0.17613937121E+03  0.78396316143E+03  0.46999998093E+01 0.  1.
       -5    1    3    3    0  502 -0.72966223719E+03  0.22615059144E+03 -0.59131462868E+03  0.96603630909E+03  0.46999998093E+01 0. -1.
</event>
<event>
 5   0  0.1419012E-05  0.1700066E+04  0.7818609E-02  0.8761327E-01
        2   -1    0    0  501    0  0.00000000000E+00  0.00000000000E+00  0.26529378626E+04  0.26529378626E+04  0.25500000920E-02 0. -1.
       -2   -1    0    0    0  501  0.00000000000E+00  0.00000000000E+00 -0.27236084081E+03  0.27236084082E+03  0.25500000920E-02 0.  1.
    10030    2    1    2    0    0  0.00000000000E+00  0.00000000000E+00  0.23805770218E+04  0.29252987034E+04  0.17000663362E+04 0.  0.
        4    1    3    3  502    0  0.38593998213E+03 -0.68965134960E+03  0.17289136655E+04  0.19009767830E+04  0.12699999809E+01 0. -1.
       -4    1    3    3    0  502 -0.38593998213E+03  0.68965134960E+03  0.65166335627E+03  0.10243219204E+04  0.12699999809E+01 0.  1.
</event>
<event>
 5   0  0.1435301E-05  0.1699917E+04  0.7818609E-02  0.8761412E-01
        2   -1    0    0  501    0  0.00000000000E+00  0.00000000000E+00  0.19267759888E+04  0.19267759888E+04  0.25500000920E-02 0.  1.
       -2   -1    0    0    0  501  0.00000000000E+00  0.00000000000E+00 -0.37494201456E+03  0.37494201457E+03  0.25500000920E-02 0. -1.
    10030    2    1    2    0    0  0.00000000000E+00  0.00000000000E+00  0.15518339742E+04  0.23017180033E+04  0.16999167872E+04 0.  0.
        2    1    3    3  502    0 -0.62854719474E+03  0.41599688454E+03  0.24403724704E+03  0.79226205381E+03  0.25500000920E-02 0. -1.
       -2    1    3    3    0  502  0.62854719474E+03 -0.41599688454E+03  0.13077967272E+04  0.15094559495E+04  0.25500000920E-02 0.  1.
</event>
<event>
 5   0  0.7476457E-06  0.1700895E+04  0.7818609E-02  0.8760854E-01
        1   -1    0    0  501    0  0.00000000000E+00  0.00000000000E+00  0.16550074258E+04  0.16550074258E+04  0.50400001928E-02 0.  1.
       -1   -1    0    0    0  501  0.00000000000E+00  0.00000000000E+00 -0.43701394992E+03  0.43701394995E+03  0.50400001928E-02 0. -1.
    10030    2    1    2    0    0  0.00000000000E+00  0.00000000000E+00  0.12179934758E+04  0.20920213757E+04  0.17008954492E+04 0.  0.
        2    1    3    3  502    0 -0.22509170279E+03 -0.51515749895E+03  0.13938646018E+04  0.15029677480E+04  0.25500000920E-02 0.  1.
       -2    1    3    3    0  502  0.22509170279E+03  0.51515749895E+03 -0.17587112594E+03  0.58905362772E+03  0.25500000920E-02 0. -1.
</event>
<event>
 5   0  0.5229750E-06  0.1704514E+04  0.7818609E-02  0.8758794E-01
        4   -1    0    0  501    0  0.00000000000E+00  0.00000000000E+00  0.88085358624E+03  0.88085450177E+03  0.12699999809E+01 0.  1.
       -4   -1    0    0    0  501  0.00000000000E+00  0.00000000000E+00 -0.82458733803E+03  0.82458831603E+03  0.12699999809E+01 0. -1.
    10030    2    1    2    0    0  0.00000000000E+00  0.00000000000E+00  0.56266248215E+02  0.17054428178E+04  0.17045143925E+04 0.  0.
        3    1    3    3  502    0 -0.56158141672E+03  0.53415548150E+03  0.38279277144E+03  0.86442239796E+03  0.10100000352E+00 0.  1.
       -3    1    3    3    0  502  0.56158141672E+03 -0.53415548150E+03 -0.32652652323E+03  0.84102041984E+03  0.10100000352E+00 0. -1.
</event>
<event>
 5   0  0.1374441E-05  0.1700383E+04  0.7818609E-02  0.8761146E-01
        2   -1    0    0  501    0  0.00000000000E+00  0.00000000000E+00  0.68634640835E+03  0.68634640836E+03  0.25500000920E-02 0.  1.
       -2   -1    0    0    0  501  0.00000000000E+00  0.00000000000E+00 -0.10531499681E+04  0.10531499681E+04  0.25500000920E-02 0. -1.
    10030    2    1    2    0    0  0.00000000000E+00  0.00000000000E+00 -0.36680355971E+03  0.17394963764E+04  0.17003831310E+04 0.  0.
        1    1    3    3  502    0  0.52893866773E+03  0.56504115558E+03  0.17651210805E+03  0.79385398282E+03  0.50400001928E-02 0.  1.
       -1    1    3    3    0  502 -0.52893866773E+03 -0.56504115558E+03 -0.54331566776E+03  0.94564239360E+03  0.50400001928E-02 0. -1.
</event>
<event>
 5   0  0.7082527E-06  0.1700265E+04  0.7818609E-02  0.8761213E-01
        1   -1    0    0  501    0  0.00000000000E+00  0.00000000000E+00  0.16667941377E+04  0.16667941377E+04  0.50400001928E-02 0.  1.
       -1   -1    0    0    0  501  0.00000000000E+00  0.00000000000E+00 -0.43360185308E+03  0.43360185311E+03  0.50400001928E-02 0. -1.
    10030    2    1    2    0    0  0.00000000000E+00  0.00000000000E+00  0.12331922846E+04  0.21003959908E+04  0.17002647169E+04 0.  0.
        1    1    3    3  502    0 -0.26675052139E+03  0.78894010614E+03  0.40570929507E+03  0.92638132746E+03  0.50400001928E-02 0. -1.
       -1    1    3    3    0  502  0.26675052139E+03 -0.78894010614E+03  0.82748298955E+03  0.11740146633E+04  0.50400001928E-02 0.  1.
</event>
<event>
 5   0  0.7583716E-06  0.1710069E+04  0.7818609E-02  0.8755643E-01
       -1   -1    0    0    0  501  0.00000000000E+00  0.00000000000E+00  0.39878430205E+03  0.39878430208E+03  0.50400001928E-02 0. -1.
        1   -1    0    0  501    0  0.00000000000E+00  0.00000000000E+00 -0.18332812618E+04  0.18332812618E+04  0.50400001928E-02 0.  1.
    10030    2    1    2    0    0  0.00000000000E+00  0.00000000000E+00 -0.14344969598E+04  0.22320655639E+04  0.17100687571E+04 0.  0.
        5    1    3    3  502    0 -0.57819153908E+03 -0.10736649394E+02 -0.15392869813E+04  0.16443379313E+04  0.46999998093E+01 0.  1.
       -5    1    3    3    0  502  0.57819153908E+03  0.10736649394E+02  0.10479002154E+03  0.58772763260E+03  0.46999998093E+01 0. -1.
</event>
<event>
 5   0  0.7082527E-06  0.1699383E+04  0.7818609E-02  0.8761716E-01
       -1   -1    0    0    0  501  0.00000000000E+00  0.00000000000E+00  0.64028625785E+03  0.64028625787E+03  0.50400001928E-02 0.  1.
        1   -1    0    0  501    0  0.00000000000E+00  0.00000000000E+00 -0.11275830892E+04  0.11275830892E+04  0.50400001928E-02 0. -1.
    10030    2    1    2    0    0  0.00000000000E+00  0.00000000000E+00 -0.48729683131E+03  0.17678693471E+04  0.16993833665E+04 0.  0.
        1    1    3    3  502    0 -0.94866666086E+02  0.19089526921E+03 -0.10993139189E+04  0.11197909539E+04  0.50400001928E-02 0. -1.
       -1    1    3    3    0  502  0.94866666086E+02 -0.19089526921E+03  0.61201708759E+03  0.64807839315E+03  0.50400001928E-02 0.  1.
</event>
<event>
 5   0  0.7461128E-06  0.1704123E+04  0.7818609E-02  0.8759016E-01
        1   -1    0    0  501    0  0.00000000000E+00  0.00000000000E+00  0.92509349526E+03  0.92509349527E+03  0.50400001928E-02 0.  1.
       -1   -1    0    0    0  501  0.00000000000E+00  0.00000000000E+00 -0.78479483155E+03  0.78479483156E+03  0.50400001928E-02 0. -1.
    10030    2    1    2    0    0  0.00000000000E+00  0.00000000000E+00  0.14029866371E+03  0.17098883268E+04  0.17041227583E+04 0.  0.
        3    1    3    3  502    0 -0.34022022492E+03  0.50153278232E+03 -0.53081248084E+03  0.80563442901E+03  0.10100000352E+00 0. -1.
       -3    1    3    3    0  502  0.34022022492E+03 -0.50153278232E+03  0.67111114455E+03  0.90425389782E+03  0.10100000352E+00 0.  1.
</event>
<event>
 5   0  0.1423543E-05  0.1700491E+04  0.7818609E-02  0.8761085E-01
       -2   -1    0    0    0  501  0.00000000000E+00  0.00000000000E+00  0.57825881376E+03  0.57825881376E+03  0.25500000920E-02 0.  1.
        2   -1    0    0  501    0  0.00000000000E+00  0.00000000000E+00 -0.12501619653E+04  0.12501619653E+04  0.25500000920E-02 0. -1.
    10030    2    1    2    0    0  0.00000000000E+00  0.00000000000E+00 -0.67190315153E+03  0.18284207790E+04  0.17004907234E+04 0.  0.
        3    1    3    3  502    0 -0.20228831930E+03 -0.15411115511E+03 -0.12083123148E+04  0.12347831683E+04  0.10100000352E+00 0. -1.
       -3    1    3    3    0  502  0.20228831930E+03  0.15411115511E+03  0.53640916330E+03  0.59363761078E+03  0.10100000352E+00 0.  1.
</event>
<event>
 5   0  0.1374441E-05  0.1700270E+04  0.7818609E-02  0.8761211E-01
       -2   -1    0    0    0  501  0.00000000000E+00  0.00000000000E+00  0.77283899887E+03  0.77283899888E+03  0.25500000920E-02 0. -1.
        2   -1    0    0  501    0  0.00000000000E+00  0.00000000000E+00 -0.93516150666E+03  0.93516150667E+03  0.25500000920E-02 0.  1.
    10030    2    1    2    0    0  0.00000000000E+00  0.00000000000E+00 -0.16232250779E+03  0.17080005055E+04  0.17002697228E+04 0.  0.
        1    1    3    3  502    0 -0.59993691525E+03  0.60163395606E+03 -0.11030286415E+03  0.85676977142E+03  0.50400001928E-02 0.  1.
       -1    1    3    3    0  502  0.59993691525E+03 -0.60163395606E+03 -0.52019643642E+02  0.85123073412E+03  0.50400001928E-02 0. -1.
</event>
<event>
 5   0  0.5229750E-06  0.1700065E+04  0.7818609E-02  0.8761327E-01
       -3   -1    0    0    0  501  0.00000000000E+00  0.00000000000E+00  0.71859410393E+03  0.71859411103E+03  0.10100000352E+00 0. -1.
        3   -1    0    0  501    0  0.00000000000E+00  0.00000000000E+00 -0.10055125935E+04  0.10055125986E+04  0.10100000352E+00 0.  1.
    10030    2    1    2    0    0  0.00000000000E+00  0.00000000000E+00 -0.28691848957E+03  0.17241067096E+04  0.17000652124E+04 0.  0.
        1    1    3    3  502    0 -0.16026153922E+03 -0.45443701849E+03  0.56669958151E+03  0.74387174999E+03  0.50400001928E-02 0. -1.
       -1    1    3    3    0  502  0.16026153922E+03  0.45443701849E+03 -0.85361807108E+03  0.98023495961E+03  0.50400001928E-02 0.  1.
</event>
<event>
 5   0  0.1419012E-05  0.1700216E+04  0.7818609E-02  0.8761241E-01
        2   -1    0    0  501    0  0.00000000000E+00  0.00000000000E+00  0.11501111129E+04  0.11501111129E+04  0.25500000920E-02 0.  1.
       -2   -1    0    0    0  501  0.00000000000E+00  0.00000000000E+00 -0.62836012718E+03  0.62836012718E+03  0.25500000920E-02 0. -1.
    10030    2    1    2    0    0  0.00000000000E+00  0.00000000000E+00  0.52175098569E+03  0.17784712400E+04  0.17002164158E+04 0.  0.
        4    1    3    3  502    0 -0.43069421639E+02 -0.56825602694E+03 -0.39896112553E+03  0.69565902554E+03  0.12699999809E+01 0. -1.
       -4    1    3    3    0  502  0.43069421639E+02  0.56825602694E+03  0.92071211122E+03  0.10828122145E+04  0.12699999809E+01 0.  1.
</event>
<event>
 5   0  0.7476457E-06  0.1700550E+04  0.7818609E-02  0.8761050E-01
       -1   -1    0    0    0  501  0.00000000000E+00  0.00000000000E+00  0.70987550954E+03  0.70987550955E+03  0.50400001928E-02 0.  1.
        1   -1    0    0  501    0  0.00000000000E+00  0.00000000000E+00 -0.10184432730E+04  0.10184432730E+04  0.50400001928E-02 0. -1.
    10030    2    1    2    0    0  0.00000000000E+00  0.00000000000E+00 -0.30856776349E+03  0.17283187826E+04  0.17005504255E+04 0.  0.
        2    1    3    3  502    0  0.33914283524E+03 -0.35886180040E+03  0.54923922660E+03  0.73855492857E+03  0.25500000920E-02 0.  1.
       -2    1    3    3    0  502 -0.33914283524E+03  0.35886180040E+03 -0.85780699009E+03  0.98976385402E+03  0.25500000920E-02 0. -1.
</event>
<event>
 5   0  0.1441756E-05  0.1701148E+04  0.7818609E-02  0.8760710E-01
        2   -1    0    0  501    0  0.00000000000E+00  0.00000000000E+00  0.71234921422E+03  0.71234921423E+03  0.25500000920E-02 0.  1.
       -2   -1    0    0    0  501  0.00000000000E+00  0.00000000000E+00 -0.10156205057E+04  0.10156205057E+04  0.25500000920E-02 0. -1.
    10030    2    1    2    0    0  0.00000000000E+00  0.00000000000E+00 -0.30327129148E+03  0.17279697199E+04  0.17011483994E+04 0.  0.
        5    1    3    3  502    0 -0.28615732242E+03 -0.73105901585E+03 -0.48408952205E+03  0.92233294053E+03  0.46999998093E+01 0. -1.
       -5    1    3    3    0  502  0.28615732242E+03  0.73105901585E+03  0.18081823057E+03  0.80563677941E+03  0.46999998093E+01 0.  1.
</event>
<event>
 5   0  0.1441756E-05  0.1699219E+04  0.7818609E-02  0.8761810E-01
        2   -1    0    0  501    0  0.00000000000E+00  0.00000000000E+00  0.55891894499E+03  0.55891894499E+03  0.25500000920E-02 0. -1.
       -2   -1    0    0    0  501  0.00000000000E+00  0.00000000000E+00 -0.12914860214E+04  0.12914860214E+04  0.25500000920E-02 0.  1.
    10030    2    1    2    0    0  0.00000000000E+00  0.00000000000E+00 -0.73256707637E+03  0.18504049664E+04  0.16992186493E+04 0.  0.
        5    1    3    3  502    0  0.26922170393E+03  0.49279433905E+03  0.32800664578E+03  0.65033609475E+03  0.46999998093E+01 0. -1.
       -5    1    3    3    0  502 -0.26922170393E+03 -0.49279433905E+03 -0.10605737222E+04  0.12000688716E+04  0.46999998093E+01 0.  1.
</event>
<event>
 5   0  0.1423543E-05  0.1700484E+04  0.7818609E-02  0.8761088E-01
       -2   -1    0    0    0  501  0.00000000000E+00  0.00000000000E+00  0.58498221479E+03  0.58498221479E+03  0.25500000920E-02 0.  1.
        2   -1    0    0  501    0  0.00000000000E+00  0.00000000000E+00 -0.12357834851E+04  0.12357834851E+04  0.25500000920E-02 0. -1.
    10030    2    1    2    0    0  0.00000000000E+00  0.00000000000E+00 -0.65080127035E+03  0.18207656999E+04  0.17004838842E+04 0.  0.
        3    1    3    3  502    0 -0.52696984054E+03 -0.65611685093E+03 -0.45532974621E+03  0.95682376794E+03  0.10100000352E+00 0. -1.
       -3    1    3    3    0  502  0.52696984054E+03  0.65611685093E+03 -0.19547152414E+03  0.86394193200E+03  0.10100000352E+00 0.  1.
</event>
<event>
 5   0  0.1441756E-05  0.1700074E+04  0.7818609E-02  0.8761322E-01
        2   -1    0    0  501    0  0.00000000000E+00  0.00000000000E+00  0.11468432259E+04  0.11468432259E+04  0.25500000920E-02 0. -1.
       -2   -1    0    0    0  501  0.00000000000E+00  0.00000000000E+00 -0.63004527334E+03  0.63004527334E+03  0.25500000920E-02 0.  1.
    10030    2    1    2    0    0  0.00000000000E+00  0.00000000000E+00  0.51679795255E+03  0.17768884992E+04  0.17000742969E+04 0.  0.
        5    1    3    3  502    0 -0.10922670602E+03 -0.17042791792E+03  0.11212700061E+04  0.11394053998E+04  0.46999998093E+01 0. -1.
       -5    1    3    3    0  502  0.10922670602E+03  0.17042791792E+03 -0.60447205356E+03  0.63748309942E+03  0.46999998093E+01 0.  1.
</event>
<event>
 5   0  0.1435301E-05  0.1700435E+04  0.7818609E-02  0.8761116E-01
        2   -1    0    0  501    0  0.00000000000E+00  0.00000000000E+00  0.10300386911E+04  0.10300386911E+04  0.25500000920E-02 0. -1.
       -2   -1    0    0    0  501  0.00000000000E+00  0.00000000000E+00 -0.70178899868E+03  0.70178899869E+03  0.25500000920E-02 0.  1.
    10030    2    1    2    0    0  0.00000000000E+00  0.00000000000E+00  0.32824969238E+03  0.17318276897E+04  0.17004350286E+04 0.  0.
        2    1    3    3  502    0 -0.20614266802E+03 -0.13984882356E+03  0.99203907750E+03  0.10228362647E+04  0.25500000920E-02 0. -1.
       -2    1    3    3    0  502  0.20614266802E+03  0.13984882356E+03 -0.66378938512E+03  0.70899142508E+03  0.25500000920E-02 0.  1.
</event>
<event>
 5   0  0.1441756E-05  0.1699246E+04  0.7818609E-02  0.8761794E-01
       -2   -1    0    0    0  501  0.00000000000E+00  0.00000000000E+00  0.13465356953E+04  0.13465356953E+04  0.25500000920E-02 0.  1.
        2   -1    0    0  501    0  0.00000000000E+00  0.00000000000E+00 -0.53608651467E+03  0.53608651468E+03  0.25500000920E-02 0. -1.
    10030    2    1    2    0    0  0.00000000000E+00  0.00000000000E+00  0.81044918058E+03  0.18826222099E+04  0.16992464539E+04 0.  0.
        5    1    3    3  502    0 -0.13175257735E+03  0.20740613820E+03  0.13062957467E+04  0.13292128181E+04  0.46999998093E+01 0.  1.
       -5    1    3    3    0  502  0.13175257735E+03 -0.20740613820E+03 -0.49584656617E+03  0.55340939184E+03  0.46999998093E+01 0. -1.
</event>
<event>
 5   0  0.1435301E-05  0.1700445E+04  0.7818609E-02  0.8761111E-01
       -2   -1    0    0    0  501  0.00000000000E+00  0.00000000000E+00  0.44344075301E+03  0.44344075301E+03  0.25500000920E-02 0.  1.
        2   -1    0    0  501    0  0.00000000000E+00  0.00000000000E+00 -0.16301568570E+04  0.16301568570E+04  0.25500000920E-02 0. -1.
    10030    2    1    2    0    0  0.00000000000E+00  0.00000000000E+00 -0.11867161040E+04  0.20735976100E+04  0.17004446291E+04 0.  0.
        2    1    3    3  502    0 -0.72607972616E+03 -0.35723668230E+03 -0.91150958535E+03  0.12188763432E+04  0.25500000920E-02 0. -1.
       -2    1    3    3    0  502  0.72607972616E+03  0.35723668230E+03 -0.27520651862E+03  0.85472126674E+03  0.25500000920E-02 0.  1.
</event>
<event>
 5   0  0.1419012E-05  0.1699668E+04  0.7818609E-02  0.8761554E-01
       -2   -1    0    0    0  501  0.00000000000E+00  0.00000000000E+00  0.12939821236E+04  0.12939821236E+04  0.25500000920E-02 0.  1.
        2   -1    0    0  501    0  0.00000000000E+00  0.00000000000E+00 -0.55813558254E+03  0.55813558255E+03  0.25500000920E-02 0. -1.
    10030    2    1    2    0    0  0.00000000000E+00  0.00000000000E+00  0.73584654103E+03  0.18521177061E+04  0.16996675750E+04 0.  0.
        4    1    3    3  502    0 -0.37441416201E+03  0.41471266543E+03  0.10657047706E+04  0.12032875095E+04  0.12699999809E+01 0.  1.
       -4    1    3    3    0  502  0.37441416201E+03 -0.41471266543E+03 -0.32985822953E+03  0.64883019664E+03  0.12699999809E+01 0. -1.
</event>
<event>
 5   0  0.1374441E-05  0.1694861E+04  0.7818609E-02  0.8764301E-01
       -2   -1    0    0    0  501  0.00000000000E+00  0.00000000000E+00  0.57513134463E+03  0.57513134464E+03  0.25500000920E-02 0.  1.
        2   -1    0    0  501    0  0.00000000000E+00  0.00000000000E+00 -0.12486516362E+04  0.12486516362E+04  0.25500000920E-02 0. -1.
    10030    2    1    2    0    0  0.00000000000E+00  0.00000000000E+00 -0.67352029158E+03  0.18237829809E+04  0.16948612858E+04 0.  0.
        1    1    3    3  502    0 -0.29198759741E+03  0.40776665434E+03  0.39828705101E+03  0.64043967433E+03  0.50400001928E-02 0.  1.
       -1    1    3    3    0  502  0.29198759741E+03 -0.40776665434E+03 -0.10718073426E+04  0.11833433065E+04  0.50400001928E-02 0. -1.
</event>
<event>
 5   0  0.7082527E-06  0.1701111E+04  0.7818609E-02  0.8760731E-01
       -1   -1    0    0    0  501  0.00000000000E+00  0.00000000000E+00  0.39992310319E+03  0.39992310322E+03  0.50400001928E-02 0. -1.
        1   -1    0    0  501    0  0.00000000000E+00  0.00000000000E+00 -0.18089596816E+04  0.18089596816E+04  0.50400001928E-02 0.  1.
    10030    2    1    2    0    0  0.00000000000E+00  0.00000000000E+00 -0.14090365784E+04  0.22088827849E+04  0.17011111304E+04 0.  0.
        1    1    3    3  502    0  0.13239772837E+03  0.37224532399E+03  0.27354091074E+03  0.48054174593E+03  0.50400001928E-02 0. -1.
       -1    1    3    3    0  502 -0.13239772837E+03 -0.37224532399E+03 -0.16825774892E+04  0.17283410389E+04  0.50400001928E-02 0.  1.
</event>
<event>
 5   0  0.7583716E-06  0.1699780E+04  0.7818609E-02  0.8761490E-01
        1   -1    0    0  501    0  0.00000000000E+00  0.00000000000E+00  0.85944778538E+03  0.85944778539E+03  0.50400001928E-02 0.  1.
       -1   -1    0    0    0  501  0.00000000000E+00  0.00000000000E+00 -0.84043835074E+03  0.84043835076E+03  0.50400001928E-02 0. -1.
    10030    2    1    2    0    0  0.00000000000E+00  0.00000000000E+00  0.19009434637E+02  0.16998861361E+04  0.16997798438E+04 0.  0.
        5    1    3    3  502    0  0.48872867613E+03  0.83935584456E+02  0.69975791012E+03  0.85766201034E+03  0.46999998093E+01 0.  1.
       -5    1    3    3    0  502 -0.48872867613E+03 -0.83935584456E+02 -0.68074847548E+03  0.84222412580E+03  0.46999998093E+01 0. -1.
</event>
<event>
 5   0  0.7476457E-06  0.1698085E+04  0.7818609E-02  0.8762458E-01
       -1   -1    0    0    0  501  0.00000000000E+00  0.00000000000E+00  0.46187119259E+03  0.46187119262E+03  0.50400001928E-02 0. -1.
        1   -1    0    0  501    0  0.00000000000E+00  0.00000000000E+00 -0.15607657867E+04  0.15607657867E+04  0.50400001928E-02 0.  1.
    10030    2    1    2    0    0  0.00000000000E+00  0.00000000000E+00 -0.10988945942E+04  0.20226369794E+04  0.16980845153E+04 0.  0.
        2    1    3    3  502    0 -0.33546062678E+03 -0.75063656867E+03 -0.80179699971E+03  0.11484195745E+04  0.25500000920E-02 0.  1.
       -2    1    3    3    0  502  0.33546062678E+03  0.75063656867E+03 -0.29709759444E+03  0.87421740487E+03  0.25500000920E-02 0. -1.
</event>
<event>
 5   0  0.7583716E-06  0.1700464E+04  0.7818609E-02  0.8761100E-01
        1   -1    0    0  501    0  0.00000000000E+00  0.00000000000E+00  0.14611725725E+04  0.14611725725E+04  0.50400001928E-02 0. -1.
       -1   -1    0    0    0  501  0.00000000000E+00  0.00000000000E+00 -0.49473589279E+03  0.49473589281E+03  0.50400001928E-02 0.  1.
    10030    2    1    2    0    0  0.00000000000E+00  0.00000000000E+00  0.96643667975E+03  0.19559084654E+04  0.17004640746E+04 0.  0.
        5    1    3    3  502    0 -0.59944283327E+02 -0.34997851643E+03  0.13717918116E+04  0.14170085192E+04  0.46999998093E+01 0. -1.
       -5    1    3    3    0  502  0.59944283327E+02  0.34997851643E+03 -0.40535513185E+03  0.53889994617E+03  0.46999998093E+01 0.  1.
</event>
<event>
 5   0  0.1374441E-05  0.1700536E+04  0.7818609E-02  0.8761059E-01
        2   -1    0    0  501    0  0.00000000000E+00  0.00000000000E+00  0.10828255791E+04  0.10828255791E+04  0.25500000920E-02 0. -1.
       -2   -1    0    0    0  501  0.00000000000E+00  0.00000000000E+00 -0.66765663382E+03  0.66765663382E+03  0.25500000920E-02 0.  1.
    10030    2    1    2    0    0  0.00000000000E+00  0.00000000000E+00  0.41516894528E+03  0.17504822129E+04  0.17005360110E+04 0.  0.
        1    1    3    3  502    0  0.42422385593E+03  0.64161166623E+02 -0.54805587621E+03  0.69602282916E+03  0.50400001928E-02 0.  1.
       -1    1    3    3    0  502 -0.42422385593E+03 -0.64161166623E+02  0.96322482149E+03  0.10544593838E+04  0.50400001928E-02 0. -1.
</event>
<event>
 5   0  0.1419012E-05  0.1700210E+04  0.7818609E-02  0.8761245E-01
       -2   -1    0    0    0  501  0.00000000000E+00  0.00000000000E+00  0.57511454114E+03  0.57511454115E+03  0.25500000920E-02 0.  1.
        2   -1    0    0  501    0  0.00000000000E+00  0.00000000000E+00 -0.12565817891E+04  0.12565817891E+04  0.25500000920E-02 0. -1.
    10030    2    1    2    0    0  0.00000000000E+00  0.00000000000E+00 -0.68146724798E+03  0.18316963303E+04  0.17002099389E+04 0.  0.
        4    1    3    3  502    0 -0.41583044890E+02 -0.30807008552E+02 -0.12548821392E+04  0.12559494486E+04  0.12699999809E+01 0. -1.
       -4    1    3    3    0  502  0.41583044890E+02  0.30807008552E+02  0.57341489119E+03  0.57574688165E+03  0.12699999809E+01 0.  1.
</event>
<event>
 5   0  0.7455669E-06  0.1699592E+04  0.7818609E-02  0.8761597E-01
        1   -1    0    0  501    0  0.00000000000E+00  0.00000000000E+00  0.77340980046E+03  0.77340980048E+03  0.50400001928E-02 0. -1.
       -1   -1    0    0    0  501  0.00000000000E+00  0.00000000000E+00 -0.93372696539E+03  0.93372696540E+03  0.50400001928E-02 0.  1.
    10030    2    1    2    0    0  0.00000000000E+00  0.00000000000E+00 -0.16031716493E+03  0.17071367659E+04  0.16995924053E+04 0.  0.
        4    1    3    3  502    0 -0.66733955361E+03 -0.22818903476E+03 -0.55633007497E+03  0.89828563420E+03  0.12699999809E+01 0.  1.
       -4    1    3    3    0  502  0.66733955361E+03  0.22818903476E+03  0.39601291005E+03  0.80885113168E+03  0.12699999809E+01 0. -1.
</event>
<event>
 5   0  0.7476457E-06  0.1700355E+04  0.7818609E-02  0.8761162E-01
       -1   -1    0    0    0  501  0.00000000000E+00  0.00000000000E+00  0.10522201871E+04  0.10522201871E+04  0.50400001928E-02 0.  1.
        1   -1    0    0  501    0  0.00000000000E+00  0.00000000000E+00 -0.68692994490E+03  0.68692994492E+03  0.50400001928E-02 0. -1.
    10030    2    1    2    0    0  0.00000000000E+00  0.00000000000E+00  0.36529024220E+03  0.17391501320E+04  0.17003547338E+04 0.  0.
        2    1    3    3  502    0  0.33009086436E+01 -0.60861621795E+03 -0.42451227609E+03  0.74204802359E+03  0.25500000920E-02 0. -1.
       -2    1    3    3    0  502 -0.33009086436E+01  0.60861621795E+03  0.78980251829E+03  0.99710210844E+03  0.25500000920E-02 0.  1.
</event>
<event>
 5   0  0.7476457E-06  0.1700182E+04  0.7818609E-02  0.8761260E-01
        1   -1    0    0  501    0  0.00000000000E+00  0.00000000000E+00  0.24280795231E+04  0.24280795231E+04  0.50400001928E-02 0.  1.
       -1   -1    0    0    0  501  0.00000000000E+00  0.00000000000E+00 -0.29762403353E+03  0.29762403357E+03  0.50400001928E-02 0. -1.
    10030    2    1    2    0    0  0.00000000000E+00  0.00000000000E+00  0.21304554896E+04  0.27257035567E+04  0.17001821331E+04 0.  0.
        2    1    3    3  502    0  0.25452248153E+03  0.55973834239E+03  0.12416310207E+03  0.62729991349E+03  0.25500000920E-02 0. -1.
       -2    1    3    3    0  502 -0.25452248153E+03 -0.55973834239E+03  0.20062923875E+04  0.20984036432E+04  0.25500000920E-02 0.  1.
</event>
<event>
 5   0  0.1435301E-05  0.1697082E+04  0.7818609E-02  0.8763030E-01
        2   -1    0    0  501    0  0.00000000000E+00  0.00000000000E+00  0.44313116049E+03  0.44313116050E+03  0.25500000920E-02 0. -1.
       -2   -1    0    0    0  501  0.00000000000E+00  0.00000000000E+00 -0.16248511675E+04  0.16248511675E+04  0.25500000920E-02 0.  1.
    10030    2    1    2    0    0  0.00000000000E+00  0.00000000000E+00 -0.11817200071E+04  0.20679823280E+04  0.16970824182E+04 0.  0.
        2    1    3    3  502    0  0.81328624987E+03  0.21615812584E+03 -0.45813673043E+03  0.95814827838E+03  0.25500000920E-02 0. -1.
       -2    1    3    3    0  502 -0.81328624987E+03 -0.21615812584E+03 -0.72358327662E+03  0.11098340497E+04  0.25500000920E-02 0.  1.
</event>
<event>
 5   0  0.7082527E-06  0.1699959E+04  0.7818609E-02  0.8761388E-01
       -1   -1    0    0    0  501  0.00000000000E+00  0.00000000000E+00  0.78093425844E+03  0.78093425846E+03  0.50400001928E-02 0. -1.
        1   -1    0    0  501    0  0.00000000000E+00  0.00000000000E+00 -0.92512910571E+03  0.92512910572E+03  0.50400001928E-02 0.  1.
    10030    2    1    2    0    0  0.00000000000E+00  0.00000000000E+00 -0.14419484727E+03  0.17060633642E+04  0.16999588373E+04 0.  0.
        1    1    3    3  502    0  0.35131667766E+03 -0.36144976274E+03 -0.75894945789E+03  0.91108376049E+03  0.50400001928E-02 0.  1.
       -1    1    3    3    0  502 -0.35131667766E+03  0.36144976274E+03  0.61475461062E+03  0.79497960369E+03  0.50400001928E-02 0. -1.
</event>
<event>
 5   0  0.7476457E-06  0.1700081E+04  0.7818609E-02  0.8761318E-01
       -1   -1    0    0    0  501  0.00000000000E+00  0.00000000000E+00  0.22077339264E+04  0.22077339264E+04  0.50400001928E-02 0.  1.
        1   -1    0    0  501    0  0.00000000000E+00  0.00000000000E+00 -0.32729001671E+03  0.32729001675E+03  0.50400001928E-02 0. -1.
    10030    2    1    2    0    0  0.00000000000E+00  0.00000000000E+00  0.18804439097E+04  0.25350239431E+04  0.17000814965E+04 0.  0.
        2    1    3    3  502    0  0.43674662197E+03 -0.52266483436E+03  0.18188398598E+03  0.70498789014E+03  0.25500000920E-02 0. -1.
       -2    1    3    3    0  502 -0.43674662197E+03  0.52266483436E+03  0.16985599237E+04  0.18300360530E+04  0.25500000920E-02 0.  1.
</event>
<event>
 5   0  0.7461128E-06  0.1696202E+04  0.7818609E-02  0.8763534E-01
       -1   -1    0    0    0  501  0.00000000000E+00  0.00000000000E+00  0.41654622323E+03  0.41654622326E+03  0.50400001928E-02 0.  1.
        1   -1    0    0  501    0  0.00000000000E+00  0.00000000000E+00 -0.17267593147E+04  0.17267593147E+04  0.50400001928E-02 0. -1.
    10030    2    1    2    0    0  0.00000000000E+00  0.00000000000E+00 -0.13102130915E+04  0.21433055380E+04  0.16962017227E+04 0.  0.
        3    1    3    3  502    0  0.66586258401E+03  0.39971416345E+03 -0.22450057498E+03  0.80842124639E+03  0.10100000352E+00 0.  1.
       -3    1    3    3    0  502 -0.66586258401E+03 -0.39971416345E+03 -0.10857125165E+04  0.13348842916E+04  0.10100000352E+00 0. -1.
</event>
<event>
 5   0  0.7455669E-06  0.1699794E+04  0.7818609E-02  0.8761482E-01
       -1   -1    0    0    0  501  0.00000000000E+00  0.00000000000E+00  0.40612585009E+03  0.40612585012E+03  0.50400001928E-02 0.  1.
        1   -1    0    0  501    0  0.00000000000E+00  0.00000000000E+00 -0.17785741745E+04  0.17785741745E+04  0.50400001928E-02 0. -1.
    10030    2    1    2    0    0  0.00000000000E+00  0.00000000000E+00 -0.13724483244E+04  0.21847000246E+04  0.16997940447E+04 0.  0.
        4    1    3    3  502    0  0.90600479854E+02  0.19908290855E+03 -0.17417778638E+04  0.17554583992E+04  0.12699999809E+01 0. -1.
       -4    1    3    3    0  502 -0.90600479854E+02 -0.19908290855E+03  0.36932953942E+03  0.42924162545E+03  0.12699999809E+01 0.  1.
</event>
<event>
 5   0  0.1419012E-05  0.1698370E+04  0.7818609E-02  0.8762295E-01
        2   -1    0    0  501    0  0.00000000000E+00  0.00000000000E+00  0.10979209287E+04  0.10979209287E+04  0.25500000920E-02 0. -1.
       -2   -1    0    0    0  501  0.00000000000E+00  0.00000000000E+00 -0.65680063267E+03  0.65680063267E+03  0.25500000920E-02 0.  1.
    10030    2    1    2    0    0  0.00000000000E+00  0.00000000000E+00  0.44112029601E+03  0.17547215614E+04  0.16983699957E+04 0.  0.
        4    1    3    3  502    0  0.60346882438E+03 -0.16377240122E+03 -0.37306213501E+03  0.72812978986E+03  0.12699999809E+01 0.  1.
       -4    1    3    3    0  502 -0.60346882438E+03  0.16377240122E+03  0.81418243103E+03  0.10265917715E+04  0.12699999809E+01 0. -1.
</event>
<event>
 5   0  0.1435301E-05  0.1700752E+04  0.7818609E-02  0.8760936E-01
       -2   -1    0    0    0  501  0.00000000000E+00  0.00000000000E+00  0.72811383337E+03  0.72811383338E+03  0.25500000920E-02 0. -1.
        2   -1    0    0  501    0  0.00000000000E+00  0.00000000000E+00 -0.99316742730E+03  0.99316742730E+03  0.25500000920E-02 0.  1.
    10030    2    1    2    0    0  0.00000000000E+00  0.00000000000E+00 -0.26505359393E+03  0.17212812607E+04  0.17007515311E+04 0.  0.
        2    1    3    3  502    0 -0.46141273197E+03  0.71270011336E+03 -0.84034106428E+02  0.85317342425E+03  0.25500000920E-02 0. -1.
       -2    1    3    3    0  502  0.46141273197E+03 -0.71270011336E+03 -0.18101948750E+03  0.86810783642E+03  0.25500000920E-02 0.  1.
</event>
<event>
 5   0  0.1441756E-05  0.1700794E+04  0.7818609E-02  0.8760912E-01
        2   -1    0    0  501    0  0.00000000000E+00  0.00000000000E+00  0.11689832376E+04  0.11689832376E+04  0.25500000920E-02 0. -1.
       -2   -1    0    0    0  501  0.00000000000E+00  0.00000000000E+00 -0.61863593866E+03  0.61863593867E+03  0.25500000920E-02 0.  1.
    10030    2    1    2    0    0  0.00000000000E+00  0.00000000000E+00  0.55034729894E+03  0.17876191763E+04  0.17007939822E+04 0.  0.
        5    1    3    3  502    0  0.32852628142E+03 -0.53919133983E+03  0.87389956636E+03  0.10781369860E+04  0.46999998093E+01 0. -1.
       -5    1    3    3    0  502 -0.32852628142E+03  0.53919133983E+03 -0.32355226742E+03  0.70948219026E+03  0.46999998093E+01 0.  1.
</event>
<event>
 5   0  0.1423543E-05  0.1699476E+04  0.7818609E-02  0.8761663E-01
        2   -1    0    0  501    0  0.00000000000E+00  0.00000000000E+00  0.11834270269E+04  0.11834270269E+04  0.25500000920E-02 0.  1.
       -2   -1    0    0    0  501  0.00000000000E+00  0.00000000000E+00 -0.61013900680E+03  0.61013900681E+03  0.25500000920E-02 0. -1.
    10030    2    1    2    0    0  0.00000000000E+00  0.00000000000E+00  0.57328802013E+03  0.17935660337E+04  0.16994763792E+04 0.  0.
        3    1    3    3  502    0 -0.45987824960E+03 -0.66454488890E+03  0.56375907454E+03  0.98535892859E+03  0.10100000352E+00 0. -1.
       -3    1    3    3    0  502  0.45987824960E+03  0.66454488890E+03  0.95289455906E+01  0.80820710516E+03  0.10100000352E+00 0.  1.
</event>
<event>
 5   0  0.1374441E-05  0.1699991E+04  0.7818609E-02  0.8761370E-01
       -2   -1    0    0    0  501  0.00000000000E+00  0.00000000000E+00  0.14690972890E+04  0.14690972890E+04  0.25500000920E-02 0. -1.
        2   -1    0    0  501    0  0.00000000000E+00  0.00000000000E+00 -0.49179315725E+03  0.49179315726E+03  0.25500000920E-02 0.  1.
    10030    2    1    2    0    0  0.00000000000E+00  0.00000000000E+00  0.97730413173E+03  0.19608904462E+04  0.16999905812E+04 0.  0.
        1    1    3    3  502    0  0.27851192257E+03  0.14937731498E+03  0.13988056720E+04  0.14340640785E+04  0.50400001928E-02 0. -1.
       -1    1    3    3    0  502 -0.27851192257E+03 -0.14937731498E+03 -0.42150154028E+03  0.52682636772E+03  0.50400001928E-02 0.  1.
</event>
<event>
 5   0  0.7461128E-06  0.1699791E+04  0.7818609E-02  0.8761484E-01
        1   -1    0    0  501    0  0.00000000000E+00  0.00000000000E+00  0.16735259898E+04  0.16735259898E+04  0.50400001928E-02 0.  1.
       -1   -1    0    0    0  501  0.00000000000E+00  0.00000000000E+00 -0.43161710613E+03  0.43161710616E+03  0.50400001928E-02 0. -1.
    10030    2    1    2    0    0  0.00000000000E+00  0.00000000000E+00  0.12419088837E+04  0.21051430960E+04  0.16997910987E+04 0.  0.
        3    1    3    3  502    0  0.73867385289E+03  0.40996858953E+03  0.73586652178E+03  0.11203628222E+04  0.10100000352E+00 0. -1.
       -3    1    3    3    0  502 -0.73867385289E+03 -0.40996858953E+03  0.50604236189E+03  0.98478027375E+03  0.10100000352E+00 0.  1.
</event>
<event>
 5   0  0.7461128E-06  0.1699613E+04  0.7818609E-02  0.8761585E-01
       -1   -1    0    0    0  501  0.00000000000E+00  0.00000000000E+00  0.62215504782E+03  0.62215504784E+03  0.50400001928E-02 0. -1.
        1   -1    0    0  501    0  0.00000000000E+00  0.00000000000E+00 -0.11607571845E+04  0.11607571845E+04  0.50400001928E-02 0.  1.
    10030    2    1    2    0    0  0.00000000000E+00  0.00000000000E+00 -0.53860213672E+03  0.17829122324E+04  0.16996128285E+04 0.  0.
        3    1    3    3  502    0  0.23815056352E+03 -0.45312729931E+03 -0.98087603262E+03  0.11064166674E+04  0.10100000352E+00 0.  1.
       -3    1    3    3    0  502 -0.23815056352E+03  0.45312729931E+03  0.44227389590E+03  0.67649556501E+03  0.10100000352E+00 0. -1.
</event>
<event>
 5   0  0.1441756E-05  0.1700762E+04  0.7818609E-02  0.8760930E-01
       -2   -1    0    0    0  501  0.00000000000E+00  0.00000000000E+00  0.17131645393E+04  0.17131645393E+04  0.25500000920E-02 0.  1.
        2   -1    0    0  501    0  0.00000000000E+00  0.00000000000E+00 -0.42211255073E+03  0.42211255074E+03  0.25500000920E-02 0. -1.
    10030    2    1    2    0    0  0.00000000000E+00  0.00000000000E+00  0.12910519885E+04  0.21352770900E+04  0.17007624802E+04 0.  0.
        5    1    3    3  502    0  0.84232276178E+03  0.66751749832E+02  0.52534851929E+03  0.99497567198E+03  0.46999998093E+01 0. -1.
       -5    1    3    3    0  502 -0.84232276178E+03 -0.66751749832E+02  0.76570346925E+03  0.11403014180E+04  0.46999998093E+01 0.  1.
</event>
<event>
 5   0  0.7455669E-06  0.1700587E+04  0.7818609E-02  0.8761030E-01
       -1   -1    0    0    0  501  0.00000000000E+00  0.00000000000E+00  0.74567142114E+03  0.74567142116E+03  0.50400001928E-02 0. -1.
        1   -1    0    0  501    0  0.00000000000E+00  0.00000000000E+00 -0.96959445943E+03  0.96959445945E+03  0.50400001928E-02 0.  1.
    10030    2    1    2    0    0  0.00000000000E+00  0.00000000000E+00 -0.22392303829E+03  0.17152658806E+04  0.17005868146E+04 0.  0.
        4    1    3    3  502    0  0.23345055355E+03  0.44974333641E+03 -0.80066503489E+03  0.94754120786E+03  0.12699999809E+01 0.  1.
       -4    1    3    3    0  502 -0.23345055355E+03 -0.44974333641E+03  0.57674199659E+03  0.76772467274E+03  0.12699999809E+01 0. -1.
</event>
<event>
 5   0  0.1374441E-05  0.1699231E+04  0.7818609E-02  0.8761803E-01
        2   -1    0    0  501    0  0.00000000000E+00  0.00000000000E+00  0.11925048022E+04  0.11925048022E+04  0.25500000920E-02 0. -1.
       -2   -1    0    0    0  501  0.00000000000E+00  0.00000000000E+00 -0.60531985342E+03  0.60531985342E+03  0.25500000920E-02 0.  1.
    10030    2    1    2    0    0  0.00000000000E+00  0.00000000000E+00  0.58718494880E+03  0.17978246556E+04  0.16992313934E+04 0.  0.
        1    1    3    3  502    0 -0.36384087365E+02  0.60897989743E+03  0.91922861950E+03  0.11032504576E+04  0.50400001928E-02 0.  1.
       -1    1    3    3    0  502  0.36384087365E+02 -0.60897989743E+03 -0.33204367070E+03  0.69457419803E+03  0.50400001928E-02 0. -1.
</event>
<event>
 5   0  0.1423543E-05  0.1698947E+04  0.7818609E-02  0.8761965E-01
        2   -1    0    0  501    0  0.00000000000E+00  0.00000000000E+00  0.10542421723E+04  0.10542421723E+04  0.25500000920E-02 0.  1.
       -2   -1    0    0    0  501  0.00000000000E+00  0.00000000000E+00 -0.68447788282E+03  0.68447788282E+03  0.25500000920E-02 0. -1.
    10030    2    1    2    0    0  0.00000000000E+00  0.00000000000E+00  0.36976428944E+03  0.17387200551E+04  0.16989472623E+04 0.  0.
        3    1    3    3  502    0 -0.27550545996E+03 -0.70914793166E+02 -0.63427659489E+03  0.69515392208E+03  0.10100000352E+00 0. -1.
       -3    1    3    3    0  502  0.27550545996E+03  0.70914793166E+02  0.10040408843E+04  0.10435661330E+04  0.10100000352E+00 0.  1.
</event>
<event>
 5   0  0.7082527E-06  0.1699988E+04  0.7818609E-02  0.8761371E-01
       -1   -1    0    0    0  501  0.00000000000E+00  0.00000000000E+00  0.63139272365E+03  0.63139272367E+03  0.50400001928E-02 0. -1.
        1   -1    0    0  501    0  0.00000000000E+00  0.00000000000E+00 -0.11442791916E+04  0.11442791916E+04  0.50400001928E-02 0.  1.
    10030    2    1    2    0    0  0.00000000000E+00  0.00000000000E+00 -0.51288646797E+03  0.17756719153E+04  0.16999877122E+04 0.  0.
        1    1    3    3  502    0  0.25557343187E+03 -0.80844586830E+03 -0.19388479218E+03  0.86976652828E+03  0.50400001928E-02 0. -1.
       -1    1    3    3    0  502 -0.25557343187E+03  0.80844586830E+03 -0.31900167579E+03  0.90590538702E+03  0.50400001928E-02 0.  1.
</event>
<event>
 5   0  0.1423543E-05  0.1695919E+04  0.7818609E-02  0.8763695E-01
       -2   -1    0    0    0  501  0.00000000000E+00  0.00000000000E+00  0.39795278588E+03  0.39795278588E+03  0.25500000920E-02 0.  1.
        2   -1    0    0  501    0  0.00000000000E+00  0.00000000000E+00 -0.18068350855E+04  0.18068350855E+04  0.25500000920E-02 0. -1.
    10030    2    1    2    0    0  0.00000000000E+00  0.00000000000E+00 -0.14088822997E+04  0.22047878714E+04  0.16959186961E+04 0.  0.
        3    1    3    3  502    0 -0.79983431075E+03 -0.27987571864E+03 -0.66395735693E+03  0.10765243725E+04  0.10100000352E+00 0. -1.
       -3    1    3    3    0  502  0.79983431075E+03  0.27987571864E+03 -0.74492494273E+03  0.11282634989E+04  0.10100000352E+00 0.  1.
</event>
<event>
 5   0  0.1374441E-05  0.1700198E+04  0.7818609E-02  0.8761252E-01
       -2   -1    0    0    0  501  0.00000000000E+00  0.00000000000E+00  0.58586503747E+03  0.58586503747E+03  0.25500000920E-02 0.  1.
        2   -1    0    0  501    0  0.00000000000E+00  0.00000000000E+00 -0.12335061030E+04  0.12335061030E+04  0.25500000920E-02 0. -1.
    10030    2    1    2    0    0  0.00000000000E+00  0.00000000000E+00 -0.64764106555E+03  0.18193711405E+04  0.17001977523E+04 0.  0.
        1    1    3    3  502    0  0.18674564043E+03  0.78545252109E+03 -0.38969467727E+02  0.80828721167E+03  0.50400001928E-02 0.  1.
       -1    1    3    3    0  502 -0.18674564043E+03 -0.78545252109E+03 -0.60867159783E+03  0.10110839288E+04  0.50400001928E-02 0. -1.
</event>
<event>
 5   0  0.7476457E-06  0.1700573E+04  0.7818609E-02  0.8761038E-01
        1   -1    0    0  501    0  0.00000000000E+00  0.00000000000E+00  0.80873661257E+03  0.80873661259E+03  0.50400001928E-02 0. -1.
       -1   -1    0    0    0  501  0.00000000000E+00  0.00000000000E+00 -0.89397109172E+03  0.89397109174E+03  0.50400001928E-02 0.  1.
    10030    2    1    2    0    0  0.00000000000E+00  0.00000000000E+00 -0.85234479151E+02  0.17027077043E+04  0.17005730240E+04 0.  0.
        2    1    3    3  502    0  0.54549295336E+03  0.31624034821E+03  0.52855184002E+03  0.82276215737E+03  0.25500000920E-02 0. -1.
       -2    1    3    3    0  502 -0.54549295336E+03 -0.31624034821E+03 -0.61378631917E+03  0.87994554696E+03  0.25500000920E-02 0.  1.
</event>
<event>
 5   0  0.1419012E-05  0.1699213E+04  0.7818609E-02  0.8761813E-01
        2   -1    0    0  501    0  0.00000000000E+00  0.00000000000E+00  0.75913390080E+03  0.75913390080E+03  0.25500000920E-02 0. -1.
       -2   -1    0    0    0  501  0.00000000000E+00  0.00000000000E+00 -0.95086195461E+03  0.95086195462E+03  0.25500000920E-02 0.  1.
    10030    2    1    2    0    0  0.00000000000E+00  0.00000000000E+00 -0.19172805382E+03  0.17099958554E+04  0.16992134001E+04 0.  0.
        4    1    3    3  502    0  0.28817013177E+03  0.50182510431E+01  0.70843383774E+03  0.76481849026E+03  0.12699999809E+01 0. -1.
       -4    1    3    3    0  502 -0.28817013177E+03 -0.50182510431E+01 -0.90016189156E+03  0.94517736516E+03  0.12699999809E+01 0.  1.
</event>
<event>
 5   0  0.1435301E-05  0.1700113E+04  0.7818609E-02  0.8761300E-01
       -2   -1    0    0    0  501  0.00000000000E+00  0.00000000000E+00  0.58551602519E+03  0.58551602519E+03  0.25500000920E-02 0. -1.
        2   -1    0    0  501    0  0.00000000000E+00  0.00000000000E+00 -0.12341176319E+04  0.12341176319E+04  0.25500000920E-02 0.  1.
    10030    2    1    2    0    0  0.00000000000E+00  0.00000000000E+00 -0.64860160671E+03  0.18196336571E+04  0.17001125262E+04 0.  0.
        2    1    3    3  502    0 -0.47282291258E+03  0.69669842956E+03 -0.44932673473E+03  0.95438185385E+03  0.25500000920E-02 0.  1.
       -2    1    3    3    0  502  0.47282291258E+03 -0.69669842956E+03 -0.19927487198E+03  0.86525180324E+03  0.25500000920E-02 0. -1.
</event>
<event>
 5   0  0.7461128E-06  0.1700174E+04  0.7818609E-02  0.8761265E-01
       -1   -1    0    0    0  501  0.00000000000E+00  0.00000000000E+00  0.57339642135E+03  0.57339642138E+03  0.50400001928E-02 0. -1.
        1   -1    0    0  501    0  0.00000000000E+00  0.00000000000E+00 -0.12602933792E+04  0.12602933792E+04  0.50400001928E-02 0.  1.
    10030    2    1    2    0    0  0.00000000000E+00  0.00000000000E+00 -0.68689695783E+03  0.18336898006E+04  0.17001737717E+04 0.  0.
        3    1    3    3  502    0  0.58135385763E+03 -0.61681420670E+03 -0.27342175694E+03  0.89061301402E+03  0.10100000352E+00 0. -1.
       -3    1    3    3    0  502 -0.58135385763E+03  0.61681420670E+03 -0.41347520088E+03  0.94307678655E+03  0.10100000352E+00 0.  1.
</event>
<event>
 5   0  0.7455669E-06  0.1700121E+04  0.7818609E-02  0.8761295E-01
       -1   -1    0    0    0  501  0.00000000000E+00  0.00000000000E+00  0.73676940341E+03  0.73676940343E+03  0.50400001928E-02 0. -1.
        1   -1    0    0  501    0  0.00000000000E+00  0.00000000000E+00 -0.98077242906E+03  0.98077242907E+03  0.50400001928E-02 0.  1.
    10030    2    1    2    0    0  0.00000000000E+00  0.00000000000E+00 -0.24400302565E+03  0.17175418325E+04  0.17001213103E+04 0.  0.
        4    1    3    3  502    0  0.33478658260E+03  0.14333381015E+03 -0.89797014949E+03  0.96900910176E+03  0.12699999809E+01 0.  1.
       -4    1    3    3    0  502 -0.33478658260E+03 -0.14333381015E+03  0.65396712384E+03  0.74853273074E+03  0.12699999809E+01 0. -1.
</event>
<event>
 5   0  0.7583716E-06  0.1698848E+04  0.7818609E-02  0.8762022E-01
       -1   -1    0    0    0  501  0.00000000000E+00  0.00000000000E+00  0.78979212334E+03  0.78979212336E+03  0.50400001928E-02 0. -1.
        1   -1    0    0  501    0  0.00000000000E+00  0.00000000000E+00 -0.91355814825E+03  0.91355814827E+03  0.50400001928E-02 0.  1.
    10030    2    1    2    0    0  0.00000000000E+00  0.00000000000E+00 -0.12376602491E+03  0.17033502716E+04  0.16988478799E+04 0.  0.
        5    1    3    3  502    0  0.33155065233E+03  0.55254532645E+02 -0.84402736639E+03  0.90850601740E+03  0.46999998093E+01 0.  1.
       -5    1    3    3    0  502 -0.33155065233E+03 -0.55254532645E+02  0.72026134148E+03  0.79484425422E+03  0.46999998093E+01 0. -1.
</event>
<event>
 5   0  0.7455669E-06  0.1699949E+04  0.7818609E-02  0.8761393E-01
        1   -1    0    0  501    0  0.00000000000E+00  0.00000000000E+00  0.82510020682E+03  0.82510020684E+03  0.50400001928E-02 0.  1.
       -1   -1    0    0    0  501  0.00000000000E+00  0.00000000000E+00 -0.87559917464E+03  0.87559917465E+03  0.50400001928E-02 0. -1.
    10030    2    1    2    0    0  0.00000000000E+00  0.00000000000E+00 -0.50498967818E+02  0.17006993815E+04  0.16999494817E+04 0.  0.
        4    1    3    3  502    0 -0.28409116366E+03 -0.35278456550E+03 -0.74479600394E+03  0.87171522833E+03  0.12699999809E+01 0. -1.
       -4    1    3    3    0  502  0.28409116366E+03  0.35278456550E+03  0.69429703612E+03  0.82898415316E+03  0.12699999809E+01 0.  1.
</event>
<event>
 5   0  0.7082527E-06  0.1700289E+04  0.7818609E-02  0.8761199E-01
       -1   -1    0    0    0  501  0.00000000000E+00  0.00000000000E+00  0.62072643197E+03  0.62072643199E+03  0.50400001928E-02 0.  1.
        1   -1    0    0  501    0  0.00000000000E+00  0.00000000000E+00 -0.11643547170E+04  0.11643547170E+04  0.50400001928E-02 0. -1.
    10030    2    1    2    0    0  0.00000000000E+00  0.00000000000E+00 -0.54362828506E+03  0.17850811490E+04  0.17002890920E+04 0.  0.
        1    1    3    3  502    0  0.25642135978E+03 -0.43532767237E+03  0.44601057641E+03  0.67393436653E+03  0.50400001928E-02 0. -1.
       -1    1    3    3    0  502 -0.25642135978E+03  0.43532767237E+03 -0.98963886148E+03  0.11111467825E+04  0.50400001928E-02 0.  1.
</event>
<event>
 5   0  0.1441756E-05  0.1700478E+04  0.7818609E-02  0.8761092E-01
        2   -1    0    0  501    0  0.00000000000E+00  0.00000000000E+00  0.65136085903E+03  0.65136085903E+03  0.25500000920E-02 0.  1.
       -2   -1    0    0    0  501  0.00000000000E+00  0.00000000000E+00 -0.11098406217E+04  0.11098406217E+04  0.25500000920E-02 0. -1.
    10030    2    1    2    0    0  0.00000000000E+00  0.00000000000E+00 -0.45847976266E+03  0.17612014807E+04  0.17004784512E+04 0.  0.
        5    1    3    3  502    0 -0.21755968562E+03 -0.39923497774E+03  0.51486081089E+03  0.68689484555E+03  0.46999998093E+01 0.  1.
       -5    1    3    3    0  502  0.21755968562E+03  0.39923497774E+03 -0.97334057355E+03  0.10743066352E+04  0.46999998093E+01 0. -1.
</event>
<event>
 5   0  0.7455669E-06  0.1700427E+04  0.7818609E-02  0.8761121E-01
       -1   -1    0    0    0  501  0.00000000000E+00  0.00000000000E+00  0.47504596716E+03  0.47504596719E+03  0.50400001928E-02 0. -1.
        1   -1    0    0  501    0  0.00000000000E+00  0.00000000000E+00 -0.15216704093E+04  0.15216704093E+04  0.50400001928E-02 0.  1.
    10030    2    1    2    0    0  0.00000000000E+00  0.00000000000E+00 -0.10466244421E+04  0.19967163765E+04  0.17004274655E+04 0.  0.
        4    1    3    3  502    0  0.58971133470E+03  0.75029936463E+00  0.19585985798E+03  0.62138773571E+03  0.12699999809E+01 0. -1.
       -4    1    3    3    0  502 -0.58971133470E+03 -0.75029936463E+00 -0.12424843001E+04  0.13753286408E+04  0.12699999809E+01 0.  1.
</event>
<event>
 5   0  0.5229750E-06  0.1700195E+04  0.7818609E-02  0.8761253E-01
       -4   -1    0    0    0  501  0.00000000000E+00  0.00000000000E+00  0.11047257901E+04  0.11047265201E+04  0.12699999809E+01 0. -1.
        4   -1    0    0  501    0  0.00000000000E+00  0.00000000000E+00 -0.65415665342E+03  0.65415788623E+03  0.12699999809E+01 0.  1.
    10030    2    1    2    0    0  0.00000000000E+00  0.00000000000E+00  0.45056913667E+03  0.17588844063E+04  0.17001946382E+04 0.  0.
        2    1    3    3  502    0 -0.44007729122E+03  0.15451613982E+03  0.96053769677E+03  0.10677902072E+04  0.25500000920E-02 0. -1.
       -2    1    3    3    0  502  0.44007729122E+03 -0.15451613982E+03 -0.50996856010E+03  0.69109419909E+03  0.25500000920E-02 0.  1.
</event>
<event>
 5   0  0.1423543E-05  0.1703824E+04  0.7818609E-02  0.8759186E-01
        2   -1    0    0  501    0  0.00000000000E+00  0.00000000000E+00  0.23267041987E+04  0.23267041987E+04  0.25500000920E-02 0.  1.
       -2   -1    0    0    0  501  0.00000000000E+00  0.00000000000E+00 -0.31192357915E+03  0.31192357916E+03  0.25500000920E-02 0. -1.
    10030    2    1    2    0    0  0.00000000000E+00  0.00000000000E+00  0.20147806196E+04  0.26386277779E+04  0.17038238187E+04 0.  0.
        3    1    3    3  502    0 -0.14802502112E+03 -0.40434792371E+03 -0.13099454778E+03  0.45007580698E+03  0.10100000352E+00 0. -1.
       -3    1    3    3    0  502  0.14802502112E+03  0.40434792371E+03  0.21457751674E+04  0.21885519709E+04  0.10100000352E+00 0.  1.
</event>
<event>
 5   0  0.1423543E-05  0.1700264E+04  0.7818609E-02  0.8761214E-01
       -2   -1    0    0    0  501  0.00000000000E+00  0.00000000000E+00  0.11826173051E+04  0.11826173051E+04  0.25500000920E-02 0. -1.
        2   -1    0    0  501    0  0.00000000000E+00  0.00000000000E+00 -0.61112282787E+03  0.61112282787E+03  0.25500000920E-02 0.  1.
    10030    2    1    2    0    0  0.00000000000E+00  0.00000000000E+00  0.57149447725E+03  0.17937401330E+04  0.17002640169E+04 0.  0.
        3    1    3    3  502    0 -0.33846852003E+02  0.65586773446E+03 -0.28376111845E+03  0.71542188745E+03  0.10100000352E+00 0.  1.
       -3    1    3    3    0  502  0.33846852003E+02 -0.65586773446E+03  0.85525559570E+03  0.10783182455E+04  0.10100000352E+00 0. -1.
</event>
<event>
 5   0  0.7583716E-06  0.1699853E+04  0.7818609E-02  0.8761448E-01
        1   -1    0    0  501    0  0.00000000000E+00  0.00000000000E+00  0.69495618036E+03  0.69495618038E+03  0.50400001928E-02 0. -1.
       -1   -1    0    0    0  501  0.00000000000E+00  0.00000000000E+00 -0.10394536679E+04  0.10394536679E+04  0.50400001928E-02 0.  1.
    10030    2    1    2    0    0  0.00000000000E+00  0.00000000000E+00 -0.34449748750E+03  0.17344098482E+04  0.16998526415E+04 0.  0.
        5    1    3    3  502    0 -0.72154099965E+03 -0.28613565436E+03 -0.52549153378E+03  0.93736784078E+03  0.46999998093E+01 0.  1.
       -5    1    3    3    0  502  0.72154099965E+03  0.28613565436E+03  0.18099404628E+03  0.79704200746E+03  0.46999998093E+01 0. -1.
</event>
<event>
 5   0  0.1441756E-05  0.1699604E+04  0.7818609E-02  0.8761590E-01
       -2   -1    0    0    0  501  0.00000000000E+00  0.00000000000E+00  0.33051259930E+03  0.33051259931E+03  0.25500000920E-02 0.  1.
        2   -1    0    0  501    0  0.00000000000E+00  0.00000000000E+00 -0.21849811115E+04  0.21849811115E+04  0.25500000920E-02 0. -1.
    10030    2    1    2    0    0  0.00000000000E+00  0.00000000000E+00 -0.18544685122E+04  0.25154937109E+04  0.16996044088E+04 0.  0.
        5    1    3    3  502    0 -0.28694341229E+03 -0.78639668730E+03 -0.11436726634E+04  0.14173092544E+04  0.46999998093E+01 0. -1.
       -5    1    3    3    0  502  0.28694341229E+03  0.78639668730E+03 -0.71079584886E+03  0.10981844565E+04  0.46999998093E+01 0.  1.
</event>
<event>
 5   0  0.1423543E-05  0.1699212E+04  0.7818609E-02  0.8761814E-01
        2   -1    0    0  501    0  0.00000000000E+00  0.00000000000E+00  0.16493700832E+04  0.16493700832E+04  0.25500000920E-02 0.  1.
       -2   -1    0    0    0  501  0.00000000000E+00  0.00000000000E+00 -0.43763993158E+03  0.43763993159E+03  0.25500000920E-02 0. -1.
    10030    2    1    2    0    0  0.00000000000E+00  0.00000000000E+00  0.12117301516E+04  0.20870100148E+04  0.16992118295E+04 0.  0.
        3    1    3    3  502    0  0.76403059650E+03 -0.10430941755E+03  0.10439239714E+04  0.12978445497E+04  0.10100000352E+00 0.  1.
       -3    1    3    3    0  502 -0.76403059650E+03  0.10430941755E+03  0.16780618024E+03  0.78916546510E+03  0.10100000352E+00 0. -1.
</event>
<event>
 5   0  0.7461128E-06  0.1699754E+04  0.7818609E-02  0.8761505E-01
        1   -1    0    0  501    0  0.00000000000E+00  0.00000000000E+00  0.86031756470E+03  0.86031756471E+03  0.50400001928E-02 0.  1.
       -1   -1    0    0    0  501  0.00000000000E+00  0.00000000000E+00 -0.83956303347E+03  0.83956303349E+03  0.50400001928E-02 0. -1.
    10030    2    1    2    0    0  0.00000000000E+00  0.00000000000E+00  0.20754531223E+02  0.16998805982E+04  0.16997538932E+04 0.  0.
        3    1    3    3  502    0 -0.83509159014E+03  0.79302758859E+02 -0.12610240090E+03  0.84827396353E+03  0.10100000352E+00 0. -1.
       -3    1    3    3    0  502  0.83509159014E+03 -0.79302758859E+02  0.14685693213E+03  0.85160663467E+03  0.10100000352E+00 0.  1.
</event>
<event>
 5   0  0.7461128E-06  0.1698945E+04  0.7818609E-02  0.8761966E-01
       -1   -1    0    0    0  501  0.00000000000E+00  0.00000000000E+00  0.49301938694E+03  0.49301938697E+03  0.50400001928E-02 0.  1.
        1   -1    0    0  501    0  0.00000000000E+00  0.00000000000E+00 -0.14636413744E+04  0.14636413744E+04  0.50400001928E-02 0. -1.
    10030    2    1    2    0    0  0.00000000000E+00  0.00000000000E+00 -0.97062198744E+03  0.19566607614E+04  0.16989450528E+04 0.  0.
        3    1    3    3  502    0  0.80009195975E+03  0.28516188476E+03 -0.49889501719E+03  0.98506887726E+03  0.10100000352E+00 0.  1.
       -3    1    3    3    0  502 -0.80009195975E+03 -0.28516188476E+03 -0.47172697025E+03  0.97159188410E+03  0.10100000352E+00 0. -1.
</event>
<event>
 5   0  0.7455669E-06  0.1700330E+04  0.7818609E-02  0.8761176E-01
       -1   -1    0    0    0  501  0.00000000000E+00  0.00000000000E+00  0.44256138954E+03  0.44256138957E+03  0.50400001928E-02 0.  1.
        1   -1    0    0  501    0  0.00000000000E+00  0.00000000000E+00 -0.16331753197E+04  0.16331753197E+04  0.50400001928E-02 0. -1.
    10030    2    1    2    0    0  0.00000000000E+00  0.00000000000E+00 -0.11906139301E+04  0.20757367093E+04  0.17003297785E+04 0.  0.
        4    1    3    3  502    0  0.50430344864E+03 -0.20089230909E+03  0.20344369652E+03  0.57971599833E+03  0.12699999809E+01 0.  1.
       -4    1    3    3    0  502 -0.50430344864E+03  0.20089230909E+03 -0.13940576267E+04  0.14960207109E+04  0.12699999809E+01 0. -1.
</event>
<event>
 5   0  0.1374441E-05  0.1699632E+04  0.7818609E-02  0.8761574E-01
        2   -1    0    0  501    0  0.00000000000E+00  0.00000000000E+00  0.10487496563E+04  0.10487496563E+04  0.25500000920E-02 0. -1.
       -2   -1    0    0    0  501  0.00000000000E+00  0.00000000000E+00 -0.68861765760E+03  0.68861765760E+03  0.25500000920E-02 0.  1.
    10030    2    1    2    0    0  0.00000000000E+00  0.00000000000E+00  0.36013199866E+03  0.17373673139E+04  0.16996323505E+04 0.  0.
        1    1    3    3  502    0  0.49481276132E+03 -0.51771564569E+03 -0.28760488518E+03  0.77174200907E+03  0.50400001928E-02 0.  1.
       -1    1    3    3    0  502 -0.49481276132E+03  0.51771564569E+03  0.64773688384E+03  0.96562530480E+03  0.50400001928E-02 0. -1.
</event>
<event>
 5   0  0.1441756E-05  0.1699182E+04  0.7818609E-02  0.8761831E-01
       -2   -1    0    0    0  501  0.00000000000E+00  0.00000000000E+00  0.14329197685E+04  0.14329197685E+04  0.25500000920E-02 0. -1.
        2   -1    0    0  501    0  0.00000000000E+00  0.00000000000E+00 -0.50373005989E+03  0.50373005990E+03  0.25500000920E-02 0.  1.
    10030    2    1    2    0    0  0.00000000000E+00  0.00000000000E+00  0.92918970860E+03  0.19366498284E+04  0.16991818747E+04 0.  0.
        5    1    3    3  502    0 -0.66674034416E+03 -0.52077251225E+03  0.55314411564E+03  0.10108101695E+04  0.46999998093E+01 0.  1.
       -5    1    3    3    0  502  0.66674034416E+03  0.52077251225E+03  0.37604559296E+03  0.92583965892E+03  0.46999998093E+01 0. -1.
</event>
<event>
 5   0  0.1435301E-05  0.1699950E+04  0.7818609E-02  0.8761393E-01
       -2   -1    0    0    0  501  0.00000000000E+00  0.00000000000E+00  0.68208099115E+03  0.68208099115E+03  0.25500000920E-02 0. -1.
        2   -1    0    0  501    0  0.00000000000E+00  0.00000000000E+00 -0.10591962653E+04  0.10591962653E+04  0.25500000920E-02 0.  1.
    10030    2    1    2    0    0  0.00000000000E+00  0.00000000000E+00 -0.37711527414E+03  0.17412772564E+04  0.16999501622E+04 0.  0.
        2    1    3    3  502    0  0.27524146338E+02 -0.17480205033E+03 -0.10401193063E+04  0.10550646931E+04  0.25500000920E-02 0.  1.
       -2    1    3    3    0  502 -0.27524146338E+02  0.17480205033E+03  0.66300403212E+03  0.68621256331E+03  0.25500000920E-02 0. -1.
</event>
<event>
 5   0  0.1423543E-05  0.1699610E+04  0.7818609E-02  0.8761587E-01
        2   -1    0    0  501    0  0.00000000000E+00  0.00000000000E+00  0.12480543521E+04  0.12480543521E+04  0.25500000920E-02 0.  1.
       -2   -1    0    0    0  501  0.00000000000E+00  0.00000000000E+00 -0.57863529332E+03  0.57863529333E+03  0.25500000920E-02 0. -1.
    10030    2    1    2    0    0  0.00000000000E+00  0.00000000000E+00  0.66941905876E+03  0.18266896454E+04  0.16996097153E+04 0.  0.
        3    1    3    3  502    0  0.43340427466E+03 -0.72561817053E+03  0.23974405295E+03  0.87854323503E+03  0.10100000352E+00 0. -1.
       -3    1    3    3    0  502 -0.43340427466E+03  0.72561817053E+03  0.42967500581E+03  0.94814641038E+03  0.10100000352E+00 0.  1.
</event>
<event>
 5   0  0.7476457E-06  0.1699880E+04  0.7818609E-02  0.8761433E-01
        1   -1    0    0  501    0  0.00000000000E+00  0.00000000000E+00  0.90940363515E+03  0.90940363516E+03  0.50400001928E-02 0.  1.
       -1   -1    0    0    0  501  0.00000000000E+00  0.00000000000E+00 -0.79436487315E+03  0.79436487317E+03  0.50400001928E-02 0. -1.
    10030    2    1    2    0    0  0.00000000000E+00  0.00000000000E+00  0.11503876200E+03  0.17037685083E+04  0.16998803526E+04 0.  0.
        2    1    3    3  502    0  0.52380191512E+03 -0.50446470786E+02  0.72649267431E+03  0.89705345356E+03  0.25500000920E-02 0.  1.
       -2    1    3    3    0  502 -0.52380191512E+03  0.50446470786E+02 -0.61145391232E+03  0.80671505477E+03  0.25500000920E-02 0. -1.
</event>
<event>
 5   0  0.7082527E-06  0.1699375E+04  0.7818609E-02  0.8761721E-01
        1   -1    0    0  501    0  0.00000000000E+00  0.00000000000E+00  0.18320934700E+04  0.18320934700E+04  0.50400001928E-02 0. -1.
       -1   -1    0    0    0  501  0.00000000000E+00  0.00000000000E+00 -0.39406750368E+03  0.39406750371E+03  0.50400001928E-02 0.  1.
    10030    2    1    2    0    0  0.00000000000E+00  0.00000000000E+00  0.14380259663E+04  0.22261609737E+04  0.16993745912E+04 0.  0.
        1    1    3    3  502    0  0.63877354506E+03 -0.22913965321E+03  0.49210558066E+02  0.68041039204E+03  0.50400001928E-02 0.  1.
       -1    1    3    3    0  502 -0.63877354506E+03  0.22913965321E+03  0.13888154083E+04  0.15457505817E+04  0.50400001928E-02 0. -1.
</event>
<event>
 5   0  0.1423543E-05  0.1700033E+04  0.7818609E-02  0.8761345E-01
       -2   -1    0    0    0  501  0.00000000000E+00  0.00000000000E+00  0.59331398943E+03  0.59331398943E+03  0.25500000920E-02 0. -1.
        2   -1    0    0  501    0  0.00000000000E+00  0.00000000000E+00 -0.12177839348E+04  0.12177839348E+04  0.25500000920E-02 0.  1.
    10030    2    1    2    0    0  0.00000000000E+00  0.00000000000E+00 -0.62446994537E+03  0.18110979242E+04  0.17000332286E+04 0.  0.
        3    1    3    3  502    0 -0.21839797736E+03  0.37645699676E+03 -0.10900802464E+04  0.11737514646E+04  0.10100000352E+00 0.  1.
       -3    1    3    3    0  502  0.21839797736E+03 -0.37645699676E+03  0.46561030104E+03  0.63734645960E+03  0.10100000352E+00 0. -1.
</event>
<event>
 5   0  0.1441756E-05  0.1698223E+04  0.7818609E-02  0.8762378E-01
       -2   -1    0    0    0  501  0.00000000000E+00  0.00000000000E+00  0.50238451477E+03  0.50238451477E+03  0.25500000920E-02 0. -1.
        2   -1    0    0  501    0  0.00000000000E+00  0.00000000000E+00 -0.14351371896E+04  0.14351371896E+04  0.25500000920E-02 0.  1.
    10030    2    1    2    0    0  0.00000000000E+00  0.00000000000E+00 -0.93275267486E+03  0.19375217044E+04  0.16982234254E+04 0.  0.
        5    1    3    3  502    0  0.68505407717E+03  0.31950085035E+03 -0.25109607292E+02  0.75632827819E+03  0.46999998093E+01 0. -1.
       -5    1    3    3    0  502 -0.68505407717E+03 -0.31950085035E+03 -0.90764306756E+03  0.11811934262E+04  0.46999998093E+01 0.  1.
</event>
<event>
 5   0  0.7461128E-06  0.1699102E+04  0.7818609E-02  0.8761877E-01
       -1   -1    0    0    0  501  0.00000000000E+00  0.00000000000E+00  0.50144625646E+03  0.50144625648E+03  0.50400001928E-02 0.  1.
        1   -1    0    0  501    0  0.00000000000E+00  0.00000000000E+00 -0.14393105089E+04  0.14393105089E+04  0.50400001928E-02 0. -1.
    10030    2    1    2    0    0  0.00000000000E+00  0.00000000000E+00 -0.93786425242E+03  0.19407567654E+04  0.16991019588E+04 0.  0.
        3    1    3    3  502    0 -0.68197971062E+03 -0.49316234381E+03 -0.33655503050E+03  0.90640759144E+03  0.10100000352E+00 0.  1.
       -3    1    3    3    0  502  0.68197971062E+03  0.49316234381E+03 -0.60130922192E+03  0.10343491739E+04  0.10100000352E+00 0. -1.
</event>
<event>
 5   0  0.7476457E-06  0.1700083E+04  0.7818609E-02  0.8761317E-01
        1   -1    0    0  501    0  0.00000000000E+00  0.00000000000E+00  0.34458391663E+03  0.34458391667E+03  0.50400001928E-02 0. -1.
       -1   -1    0    0    0  501  0.00000000000E+00  0.00000000000E+00 -0.20969369865E+04  0.20969369865E+04  0.50400001928E-02 0.  1.
    10030    2    1    2    0    0  0.00000000000E+00  0.00000000000E+00 -0.17523530698E+04  0.24415209031E+04  0.17000832448E+04 0.  0.
        2    1    3    3  502    0  0.66666166461E+03  0.14767097171E+03 -0.16032642680E+04  0.17426132112E+04  0.25500000920E-02 0.  1.
       -2    1    3    3    0  502 -0.66666166461E+03 -0.14767097171E+03 -0.14908880183E+03  0.69890769189E+03  0.25500000920E-02 0. -1.
</event>
<event>
 5   0  0.7476457E-06  0.1700776E+04  0.7818609E-02  0.8760922E-01
       -1   -1    0    0    0  501  0.00000000000E+00  0.00000000000E+00  0.41421681243E+03  0.41421681246E+03  0.50400001928E-02 0. -1.
        1   -1    0    0  501    0  0.00000000000E+00  0.00000000000E+00 -0.17458480955E+04  0.17458480955E+04  0.50400001928E-02 0.  1.
    10030    2    1    2    0    0  0.00000000000E+00  0.00000000000E+00 -0.13316312830E+04  0.21600649079E+04  0.17007758619E+04 0.  0.
        2    1    3    3  502    0 -0.32638289609E+03  0.42113208444E+03 -0.15075813449E+04  0.15989620192E+04  0.25500000920E-02 0.  1.
       -2    1    3    3    0  502  0.32638289609E+03 -0.42113208444E+03  0.17595006189E+03  0.56110288868E+03  0.25500000920E-02 0. -1.
</event>
<event>
 5   0  0.1419012E-05  0.1700344E+04  0.7818609E-02  0.8761168E-01
       -2   -1    0    0    0  501  0.00000000000E+00  0.00000000000E+00  0.51291436570E+03  0.51291436571E+03  0.25500000920E-02 0. -1.
        2   -1    0    0  501    0  0.00000000000E+00  0.00000000000E+00 -0.14091877584E+04  0.14091877584E+04  0.25500000920E-02 0.  1.
    10030    2    1    2    0    0  0.00000000000E+00  0.00000000000E+00 -0.89627339272E+03  0.19221021241E+04  0.17003442537E+04 0.  0.
        4    1    3    3  502    0  0.59910927541E+03 -0.32060478382E+03  0.12945306143E+03  0.69172180775E+03  0.12699999809E+01 0. -1.
       -4    1    3    3    0  502 -0.59910927541E+03  0.32060478382E+03 -0.10257264542E+04  0.12303803164E+04  0.12699999809E+01 0.  1.
</event>
<event>
 5   0  0.7583716E-06  0.1706593E+04  0.7818609E-02  0.8757613E-01
       -1   -1    0    0    0  501  0.00000000000E+00  0.00000000000E+00  0.96300087672E+03  0.96300087674E+03  0.50400001928E-02 0.  1.
        1   -1    0    0  501    0  0.00000000000E+00  0.00000000000E+00 -0.75608963583E+03  0.75608963585E+03  0.50400001928E-02 0. -1.
    10030    2    1    2    0    0  0.00000000000E+00  0.00000000000E+00  0.20691124090E+03  0.17190905126E+04  0.17065930765E+04 0.  0.
        5    1    3    3  502    0 -0.44041780358E+03 -0.73076744381E+03  0.93183218813E+02  0.85830886103E+03  0.46999998093E+01 0.  1.
       -5    1    3    3    0  502  0.44041780358E+03  0.73076744381E+03  0.11372802208E+03  0.86078165156E+03  0.46999998093E+01 0. -1.
</event>
<event>
 5   0  0.1441756E-05  0.1698559E+04  0.7818609E-02  0.8762187E-01
        2   -1    0    0  501    0  0.00000000000E+00  0.00000000000E+00  0.11623443251E+04  0.11623443251E+04  0.25500000920E-02 0.  1.
       -2   -1    0    0    0  501  0.00000000000E+00  0.00000000000E+00 -0.62053499647E+03  0.62053499647E+03  0.25500000920E-02 0. -1.
    10030    2    1    2    0    0  0.00000000000E+00  0.00000000000E+00  0.54180932863E+03  0.17828793216E+04  0.16985586027E+04 0.  0.
        5    1    3    3  502    0  0.15237383356E+03 -0.74615946045E+03  0.66543834674E+03  0.10113367436E+04  0.46999998093E+01 0.  1.
       -5    1    3    3    0  502 -0.15237383356E+03  0.74615946045E+03 -0.12362901811E+03  0.77154257801E+03  0.46999998093E+01 0. -1.
</event>
<event>
 5   0  0.7476457E-06  0.1700029E+04  0.7818609E-02  0.8761348E-01
        1   -1    0    0  501    0  0.00000000000E+00  0.00000000000E+00  0.92212894445E+03  0.92212894446E+03  0.50400001928E-02 0.  1.
       -1   -1    0    0    0  501  0.00000000000E+00  0.00000000000E+00 -0.78353936791E+03  0.78353936793E+03  0.50400001928E-02 0. -1.
    10030    2    1    2    0    0  0.00000000000E+00  0.00000000000E+00  0.13858957653E+03  0.17056683124E+04  0.17000286236E+04 0.  0.
        2    1    3    3  502    0  0.40134581853E+03  0.57778491173E+03 -0.40937327885E+03  0.81394124587E+03  0.25500000920E-02 0. -1.
       -2    1    3    3    0  502 -0.40134581853E+03 -0.57778491173E+03  0.54796285538E+03  0.89172706652E+03  0.25500000920E-02 0.  1.
</event>
<event>
 5   0  0.1374441E-05  0.1700117E+04  0.7818609E-02  0.8761298E-01
        2   -1    0    0  501    0  0.00000000000E+00  0.00000000000E+00  0.17443915034E+04  0.17443915034E+04  0.25500000920E-02 0.  1.
       -2   -1    0    0    0  501  0.00000000000E+00  0.00000000000E+00 -0.41424158390E+03  0.41424158391E+03  0.25500000920E-02 0. -1.
    10030    2    1    2    0    0  0.00000000000E+00  0.00000000000E+00  0.13301499195E+04  0.21586330874E+04  0.17001170540E+04 0.  0.
        1    1    3    3  502    0 -0.28946695519E+03  0.75540902455E+03  0.99657424370E+03  0.12835864349E+04  0.50400001928E-02 0.  1.
       -1    1    3    3    0  502  0.28946695519E+03 -0.75540902455E+03  0.33357567584E+03  0.87504665250E+03  0.50400001928E-02 0. -1.
</event>
<event>
 5   0  0.7583716E-06  0.1700661E+04  0.7818609E-02  0.8760987E-01
       -1   -1    0    0    0  501  0.00000000000E+00  0.00000000000E+00  0.91174387584E+03  0.91174387586E+03  0.50400001928E-02 0. -1.
        1   -1    0    0  501    0  0.00000000000E+00  0.00000000000E+00 -0.79305396266E+03  0.79305396267E+03  0.50400001928E-02 0.  1.
    10030    2    1    2    0    0  0.00000000000E+00  0.00000000000E+00  0.11868991319E+03  0.17047978385E+04  0.17006611581E+04 0.  0.
        5    1    3    3  502    0 -0.33849937318E+03 -0.30096949401E+03 -0.66204118269E+03  0.80217521748E+03  0.46999998093E+01 0.  1.
       -5    1    3    3    0  502  0.33849937318E+03  0.30096949401E+03  0.78073109588E+03  0.90262262105E+03  0.46999998093E+01 0. -1.
</event>
<event>
 5   0  0.5229750E-06  0.1698640E+04  0.7818609E-02  0.8762140E-01
       -4   -1    0    0    0  501  0.00000000000E+00  0.00000000000E+00  0.46320381658E+03  0.46320555761E+03  0.12699999809E+01 0.  1.
        4   -1    0    0  501    0  0.00000000000E+00  0.00000000000E+00 -0.15572896480E+04  0.15572901659E+04  0.12699999809E+01 0. -1.
    10030    2    1    2    0    0  0.00000000000E+00  0.00000000000E+00 -0.10940858315E+04  0.20204957235E+04  0.16986403863E+04 0.  0.
        5    1    3    3  502    0  0.18880873036E+03 -0.57334460132E+03 -0.12577000853E+04  0.13950642864E+04  0.46999998093E+01 0. -1.
       -5    1    3    3    0  502 -0.18880873036E+03  0.57334460132E+03  0.16361425383E+03  0.62543143715E+03  0.46999998093E+01 0.  1.
</event>
<event>
 5   0  0.1435301E-05  0.1700019E+04  0.7818609E-02  0.8761354E-01
        2   -1    0    0  501    0  0.00000000000E+00  0.00000000000E+00  0.76422361103E+03  0.76422361104E+03  0.25500000920E-02 0. -1.
       -2   -1    0    0    0  501  0.00000000000E+00  0.00000000000E+00 -0.94542483434E+03  0.94542483435E+03  0.25500000920E-02 0.  1.
    10030    2    1    2    0    0  0.00000000000E+00  0.00000000000E+00 -0.18120122331E+03  0.17096484454E+04  0.17000188009E+04 0.  0.
        2    1    3    3  502    0  0.69995510146E+02 -0.66207427603E+03 -0.62205812124E+03  0.91115203157E+03  0.25500000920E-02 0.  1.
       -2    1    3    3    0  502 -0.69995510146E+02  0.66207427603E+03  0.44085689793E+03  0.79849641382E+03  0.25500000920E-02 0. -1.
</event>
<event>
 5   0  0.1435301E-05  0.1688559E+04  0.7818609E-02  0.8767916E-01
       -2   -1    0    0    0  501  0.00000000000E+00  0.00000000000E+00  0.69973033337E+03  0.69973033337E+03  0.25500000920E-02 0. -1.
        2   -1    0    0  501    0  0.00000000000E+00  0.00000000000E+00 -0.10186898000E+04  0.10186898000E+04  0.25500000920E-02 0.  1.
    10030    2    1    2    0    0  0.00000000000E+00  0.00000000000E+00 -0.31895946659E+03  0.17184201333E+04  0.16885593307E+04 0.  0.
        2    1    3    3  502    0  0.85236680793E+02 -0.42357843188E+03 -0.89765103289E+03  0.99622354748E+03  0.25500000920E-02 0.  1.
       -2    1    3    3    0  502 -0.85236680793E+02  0.42357843188E+03  0.57869156630E+03  0.72219658585E+03  0.25500000920E-02 0. -1.
</event>
<event>
 5   0  0.1419012E-05  0.1696753E+04  0.7818609E-02  0.8763218E-01
       -2   -1    0    0    0  501  0.00000000000E+00  0.00000000000E+00  0.17752930475E+04  0.17752930475E+04  0.25500000920E-02 0.  1.
        2   -1    0    0  501    0  0.00000000000E+00  0.00000000000E+00 -0.40542183203E+03  0.40542183204E+03  0.25500000920E-02 0. -1.
    10030    2    1    2    0    0  0.00000000000E+00  0.00000000000E+00  0.13698712154E+04  0.21807148795E+04  0.16967528514E+04 0.  0.
        4    1    3    3  502    0 -0.16612066359E+03 -0.10474429639E+03  0.17456761606E+04  0.17566884508E+04  0.12699999809E+01 0.  1.
       -4    1    3    3    0  502  0.16612066359E+03  0.10474429639E+03 -0.37580494520E+03  0.42402642870E+03  0.12699999809E+01 0. -1.
</event>
<event>
 5   0  0.1435301E-05  0.1702164E+04  0.7818609E-02  0.8760131E-01
       -2   -1    0    0    0  501  0.00000000000E+00  0.00000000000E+00  0.57263941144E+03  0.57263941144E+03  0.25500000920E-02 0.  1.
        2   -1    0    0  501    0  0.00000000000E+00  0.00000000000E+00 -0.12649151517E+04  0.12649151517E+04  0.25500000920E-02 0. -1.
    10030    2    1    2    0    0  0.00000000000E+00  0.00000000000E+00 -0.69227574022E+03  0.18375545631E+04  0.17021636443E+04 0.  0.
        2    1    3    3  502    0  0.74404710857E+03 -0.26437743149E+03 -0.68894720742E+03  0.10479264195E+04  0.25500000920E-02 0. -1.
       -2    1    3    3    0  502 -0.74404710857E+03  0.26437743149E+03 -0.33285328005E+01  0.78962814361E+03  0.25500000920E-02 0.  1.
</event>
<event>
 5   0  0.1435301E-05  0.1701153E+04  0.7818609E-02  0.8760707E-01
       -2   -1    0    0    0  501  0.00000000000E+00  0.00000000000E+00  0.13361434610E+04  0.13361434610E+04  0.25500000920E-02 0. -1.
        2   -1    0    0  501    0  0.00000000000E+00  0.00000000000E+00 -0.54146939943E+03  0.54146939944E+03  0.25500000920E-02 0.  1.
    10030    2    1    2    0    0  0.00000000000E+00  0.00000000000E+00  0.79467406152E+03  0.18776128604E+04  0.17011534879E+04 0.  0.
        2    1    3    3  502    0 -0.45450663419E+03 -0.52880268702E+03 -0.14029608556E+03  0.71126053873E+03  0.25500000920E-02 0.  1.
       -2    1    3    3    0  502  0.45450663419E+03  0.52880268702E+03  0.93497014708E+03  0.11663523217E+04  0.25500000920E-02 0. -1.
</event>
<event>
 5   0  0.1423543E-05  0.1699756E+04  0.7818609E-02  0.8761503E-01
       -2   -1    0    0    0  501  0.00000000000E+00  0.00000000000E+00  0.89980396200E+03  0.89980396200E+03  0.25500000920E-02 0. -1.
        2   -1    0    0  501    0  0.00000000000E+00  0.00000000000E+00 -0.80272249395E+03  0.80272249395E+03  0.25500000920E-02 0.  1.
    10030    2    1    2    0    0  0.00000000000E+00  0.00000000000E+00  0.97081468051E+02  0.17025264560E+04  0.16997563125E+04 0.  0.
        3    1    3    3  502    0 -0.23180617702E+03  0.11921434910E+03 -0.76169457753E+03  0.80506198791E+03  0.10100000352E+00 0.  1.
       -3    1    3    3    0  502  0.23180617702E+03 -0.11921434910E+03  0.85877604558E+03  0.89746446804E+03  0.10100000352E+00 0. -1.
</event>
<event>
 5   0  0.7455669E-06  0.1699292E+04  0.7818609E-02  0.8761768E-01
       -1   -1    0    0    0  501  0.00000000000E+00  0.00000000000E+00  0.40689499651E+03  0.40689499654E+03  0.50400001928E-02 0.  1.
        1   -1    0    0  501    0  0.00000000000E+00  0.00000000000E+00 -0.17741641322E+04  0.17741641322E+04  0.50400001928E-02 0. -1.
    10030    2    1    2    0    0  0.00000000000E+00  0.00000000000E+00 -0.13672691357E+04  0.21810591288E+04  0.16992922155E+04 0.  0.
        4    1    3    3  502    0 -0.39045541374E+03  0.13200352869E+03 -0.16372547077E+04  0.16883379260E+04  0.12699999809E+01 0. -1.
       -4    1    3    3    0  502  0.39045541374E+03 -0.13200352869E+03  0.26998557195E+03  0.49272120278E+03  0.12699999809E+01 0.  1.
</event>
<event>
 5   0  0.7082527E-06  0.1700025E+04  0.7818609E-02  0.8761350E-01
        1   -1    0    0  501    0  0.00000000000E+00  0.00000000000E+00  0.10931527611E+04  0.10931527611E+04  0.50400001928E-02 0.  1.
       -1   -1    0    0    0  501  0.00000000000E+00  0.00000000000E+00 -0.66095197656E+03  0.66095197658E+03  0.50400001928E-02 0. -1.
    10030    2    1    2    0    0  0.00000000000E+00  0.00000000000E+00  0.43220078450E+03  0.17541047377E+04  0.17000252682E+04 0.  0.
        1    1    3    3  502    0  0.36841046298E+02 -0.29111311992E+03 -0.60703477406E+03  0.67423684876E+03  0.50400001928E-02 0. -1.
       -1    1    3    3    0  502 -0.36841046298E+02  0.29111311992E+03  0.10392355586E+04  0.10798678889E+04  0.50400001928E-02 0.  1.
</event>
<event>
 5   0  0.7461128E-06  0.1698271E+04  0.7818609E-02  0.8762351E-01
       -1   -1    0    0    0  501  0.00000000000E+00  0.00000000000E+00  0.62659305834E+03  0.62659305836E+03  0.50400001928E-02 0. -1.
        1   -1    0    0  501    0  0.00000000000E+00  0.00000000000E+00 -0.11507163833E+04  0.11507163833E+04  0.50400001928E-02 0.  1.
    10030    2    1    2    0    0  0.00000000000E+00  0.00000000000E+00 -0.52412332493E+03  0.17773094416E+04  0.16982707651E+04 0.  0.
        3    1    3    3  502    0 -0.12235967862E+03 -0.17151974339E+03  0.59880311755E+03  0.63478823013E+03  0.10100000352E+00 0. -1.
       -3    1    3    3    0  502  0.12235967862E+03  0.17151974339E+03 -0.11229264425E+04  0.11425212115E+04  0.10100000352E+00 0.  1.
</event>
<event>
 5   0  0.7476457E-06  0.1698947E+04  0.7818609E-02  0.8761965E-01
       -1   -1    0    0    0  501  0.00000000000E+00  0.00000000000E+00  0.37652034068E+03  0.37652034072E+03  0.50400001928E-02 0.  1.
        1   -1    0    0  501    0  0.00000000000E+00  0.00000000000E+00 -0.19165096044E+04  0.19165096044E+04  0.50400001928E-02 0. -1.
    10030    2    1    2    0    0  0.00000000000E+00  0.00000000000E+00 -0.15399892637E+04  0.22930299451E+04  0.16989465550E+04 0.  0.
        2    1    3    3  502    0  0.27857920229E+03  0.79928613559E+03 -0.86675955039E+03  0.12115018847E+04  0.25500000920E-02 0. -1.
       -2    1    3    3    0  502 -0.27857920229E+03 -0.79928613559E+03 -0.67322971332E+03  0.10815280604E+04  0.25500000920E-02 0.  1.
</event>
<event>
 5   0  0.7082527E-06  0.1700167E+04  0.7818609E-02  0.8761269E-01
       -1   -1    0    0    0  501  0.00000000000E+00  0.00000000000E+00  0.92642338068E+03  0.92642338069E+03  0.50400001928E-02 0.  1.
        1   -1    0    0  501    0  0.00000000000E+00  0.00000000000E+00 -0.78003441346E+03  0.78003441347E+03  0.50400001928E-02 0. -1.
    10030    2    1    2    0    0  0.00000000000E+00  0.00000000000E+00  0.14638896722E+03  0.17064577942E+04  0.17001671899E+04 0.  0.
        1    1    3    3  502    0 -0.83476097030E+03 -0.69701030009E+02  0.21849893315E+03  0.86569388061E+03  0.50400001928E-02 0.  1.
       -1    1    3    3    0  502  0.83476097030E+03  0.69701030009E+02 -0.72109965926E+02  0.84076391355E+03  0.50400001928E-02 0. -1.
</event>
<event>
 5   0  0.1419012E-05  0.1701119E+04  0.7818609E-02  0.8760726E-01
       -2   -1    0    0    0  501  0.00000000000E+00  0.00000000000E+00  0.78112054515E+03  0.78112054515E+03  0.25500000920E-02 0. -1.
        2   -1    0    0  501    0  0.00000000000E+00  0.00000000000E+00 -0.92617148822E+03  0.92617148822E+03  0.25500000920E-02 0.  1.
    10030    2    1    2    0    0  0.00000000000E+00  0.00000000000E+00 -0.14505094307E+03  0.17072920334E+04  0.17011191349E+04 0.  0.
        4    1    3    3  502    0  0.73033709076E+03  0.41286660085E+03  0.67978495104E+02  0.84170884808E+03  0.12699999809E+01 0. -1.
       -4    1    3    3    0  502 -0.73033709076E+03 -0.41286660085E+03 -0.21302943817E+03  0.86558318529E+03  0.12699999809E+01 0.  1.
</event>
<event>
 5   0  0.1419012E-05  0.1701339E+04  0.7818609E-02  0.8760601E-01
       -2   -1    0    0    0  501  0.00000000000E+00  0.00000000000E+00  0.35749188683E+03  0.35749188684E+03  0.25500000920E-02 0.  1.
        2   -1    0    0  501    0  0.00000000000E+00  0.00000000000E+00 -0.20242087432E+04  0.20242087432E+04  0.25500000920E-02 0. -1.
    10030    2    1    2    0    0  0.00000000000E+00  0.00000000000E+00 -0.16667168564E+04  0.23817006301E+04  0.17013385354E+04 0.  0.
        4    1    3    3  502    0 -0.62145491328E+03  0.34610713589E+03 -0.18027897257E+03  0.73382455642E+03  0.12699999809E+01 0.  1.
       -4    1    3    3    0  502  0.62145491328E+03 -0.34610713589E+03 -0.14864378838E+04  0.16478760737E+04  0.12699999809E+01 0. -1.
</event>
<event>
 5   0  0.1435301E-05  0.1699952E+04  0.7818609E-02  0.8761392E-01
       -2   -1    0    0    0  501  0.00000000000E+00  0.00000000000E+00  0.78982186509E+03  0.78982186510E+03  0.25500000920E-02 0.  1.
        2   -1    0    0  501    0  0.00000000000E+00  0.00000000000E+00 -0.91471111066E+03  0.91471111066E+03  0.25500000920E-02 0. -1.
    10030    2    1    2    0    0  0.00000000000E+00  0.00000000000E+00 -0.12488924557E+03  0.17045329758E+04  0.16999515704E+04 0.  0.
        2    1    3    3  502    0  0.60970177036E+02  0.79878821812E+03  0.22236110743E+03  0.83139908708E+03  0.25500000920E-02 0.  1.
       -2    1    3    3    0  502 -0.60970177036E+02 -0.79878821812E+03 -0.34725035300E+03  0.87313388868E+03  0.25500000920E-02 0. -1.
</event>
<event>
 5   0  0.5229750E-06  0.1694784E+04  0.7818609E-02  0.8764345E-01
       -3   -1    0    0    0  501  0.00000000000E+00  0.00000000000E+00  0.11604681374E+04  0.11604681418E+04  0.10100000352E+00 0. -1.
        3   -1    0    0  501    0  0.00000000000E+00  0.00000000000E+00 -0.61877874058E+03  0.61877874883E+03  0.10100000352E+00 0.  1.
    10030    2    1    2    0    0  0.00000000000E+00  0.00000000000E+00  0.54168939681E+03  0.17792468906E+04  0.16947837901E+04 0.  0.
        4    1    3    3  502    0 -0.56414383512E+03 -0.59978774354E+03  0.60699389329E+02  0.82564497986E+03  0.12699999809E+01 0.  1.
       -4    1    3    3    0  502  0.56414383512E+03  0.59978774354E+03  0.48099000748E+03  0.95360191076E+03  0.12699999809E+01 0. -1.
</event>
<event>
 5   0  0.7455669E-06  0.1702357E+04  0.7818609E-02  0.8760021E-01
       -1   -1    0    0    0  501  0.00000000000E+00  0.00000000000E+00  0.29153486721E+03  0.29153486726E+03  0.50400001928E-02 0. -1.
        1   -1    0    0  501    0  0.00000000000E+00  0.00000000000E+00 -0.24851391768E+04  0.24851391768E+04  0.50400001928E-02 0.  1.
    10030    2    1    2    0    0  0.00000000000E+00  0.00000000000E+00 -0.21936043096E+04  0.27766740441E+04  0.17023568603E+04 0.  0.
        4    1    3    3  502    0 -0.59045605933E+03 -0.44620624731E+02 -0.99476980101E+02  0.60043870680E+03  0.12699999809E+01 0. -1.
       -4    1    3    3    0  502  0.59045605933E+03  0.44620624731E+02 -0.20941273295E+04  0.21762353373E+04  0.12699999809E+01 0.  1.
</event>
<event>
 5   0  0.7461128E-06  0.1699870E+04  0.7818609E-02  0.8761438E-01
        1   -1    0    0  501    0  0.00000000000E+00  0.00000000000E+00  0.60405424978E+03  0.60405424980E+03  0.50400001928E-02 0. -1.
       -1   -1    0    0    0  501  0.00000000000E+00  0.00000000000E+00 -0.11959022949E+04  0.11959022949E+04  0.50400001928E-02 0.  1.
    10030    2    1    2    0    0  0.00000000000E+00  0.00000000000E+00 -0.59184804515E+03  0.17999565447E+04  0.16998704228E+04 0.  0.
        3    1    3    3  502    0  0.48110292904E+03  0.49585634154E+03 -0.82010245897E+03  0.10723346461E+04  0.10100000352E+00 0.  1.
       -3    1    3    3    0  502 -0.48110292904E+03 -0.49585634154E+03  0.22825441382E+03  0.72762189866E+03  0.10100000352E+00 0. -1.
</event>
<event>
 5   0  0.7455669E-06  0.1700425E+04  0.7818609E-02  0.8761122E-01
        1   -1    0    0  501    0  0.00000000000E+00  0.00000000000E+00  0.14997843671E+04  0.14997843671E+04  0.50400001928E-02 0.  1.
       -1   -1    0    0    0  501  0.00000000000E+00  0.00000000000E+00 -0.48197677375E+03  0.48197677377E+03  0.50400001928E-02 0. -1.
    10030    2    1    2    0    0  0.00000000000E+00  0.00000000000E+00  0.10178075934E+04  0.19817611409E+04  0.17004249241E+04 0.  0.
        4    1    3    3  502    0 -0.11325117003E+03  0.44431468266E+03 -0.32552806637E+03  0.56232686191E+03  0.12699999809E+01 0. -1.
       -4    1    3    3    0  502  0.11325117003E+03 -0.44431468266E+03  0.13433356597E+04  0.14194342790E+04  0.12699999809E+01 0.  1.
</event>
<event>
 5   0  0.7455669E-06  0.1699890E+04  0.7818609E-02  0.8761427E-01
       -1   -1    0    0    0  501  0.00000000000E+00  0.00000000000E+00  0.11696176281E+04  0.11696176281E+04  0.50400001928E-02 0. -1.
        1   -1    0    0  501    0  0.00000000000E+00  0.00000000000E+00 -0.61764332481E+03  0.61764332483E+03  0.50400001928E-02 0.  1.
    10030    2    1    2    0    0  0.00000000000E+00  0.00000000000E+00  0.55197430329E+03  0.17872609529E+04  0.16998900207E+04 0.  0.
        4    1    3    3  502    0 -0.24289744655E+03  0.14729013049E+03  0.11182293662E+04  0.11537469742E+04  0.12699999809E+01 0. -1.
       -4    1    3    3    0  502  0.24289744655E+03 -0.14729013049E+03 -0.56625506293E+03  0.63351397875E+03  0.12699999809E+01 0.  1.
</event>
<event>
 5   0  0.1374441E-05  0.1700456E+04  0.7818609E-02  0.8761104E-01
       -2   -1    0    0    0  501  0.00000000000E+00  0.00000000000E+00  0.15126468686E+04  0.15126468686E+04  0.25500000920E-02 0.  1.
        2   -1    0    0  501    0  0.00000000000E+00  0.00000000000E+00 -0.47789606955E+03  0.47789606956E+03  0.25500000920E-02 0. -1.
    10030    2    1    2    0    0  0.00000000000E+00  0.00000000000E+00  0.10347507991E+04  0.19905429382E+04  0.17004564013E+04 0.  0.
        1    1    3    3  502    0  0.17166505781E+03  0.87210194594E+02 -0.45203808932E+03  0.49133791258E+03  0.50400001928E-02 0. -1.
       -1    1    3    3    0  502 -0.17166505781E+03 -0.87210194594E+02  0.14867888884E+04  0.14992050256E+04  0.50400001928E-02 0.  1.
</event>
<event>
 5   0  0.1435301E-05  0.1693097E+04  0.7818609E-02  0.8765311E-01
       -2   -1    0    0    0  501  0.00000000000E+00  0.00000000000E+00  0.70883643719E+03  0.70883643720E+03  0.25500000920E-02 0. -1.
        2   -1    0    0  501    0  0.00000000000E+00  0.00000000000E+00 -0.10110156974E+04  0.10110156974E+04  0.25500000920E-02 0.  1.
    10030    2    1    2    0    0  0.00000000000E+00  0.00000000000E+00 -0.30217926018E+03  0.17198521346E+04  0.16930974749E+04 0.  0.
        2    1    3    3  502    0  0.11537224210E+03  0.82534188715E+03 -0.30225239680E+03  0.88648547440E+03  0.25500000920E-02 0.  1.
       -2    1    3    3    0  502 -0.11537224210E+03 -0.82534188715E+03  0.73136617011E-01  0.83336666018E+03  0.25500000920E-02 0. -1.
</event>
<event>
 5   0  0.1423543E-05  0.1701093E+04  0.7818609E-02  0.8760741E-01
        2   -1    0    0  501    0  0.00000000000E+00  0.00000000000E+00  0.16223275417E+04  0.16223275417E+04  0.25500000920E-02 0.  1.
       -2   -1    0    0    0  501  0.00000000000E+00  0.00000000000E+00 -0.44592057992E+03  0.44592057992E+03  0.25500000920E-02 0. -1.
    10030    2    1    2    0    0  0.00000000000E+00  0.00000000000E+00  0.11764069618E+04  0.20682481217E+04  0.17010928702E+04 0.  0.
        3    1    3    3  502    0  0.33155176803E+03  0.66113167201E+02  0.15371248259E+04  0.15738647548E+04  0.10100000352E+00 0.  1.
       -3    1    3    3    0  502 -0.33155176803E+03 -0.66113167201E+02 -0.36071786409E+03  0.49438336687E+03  0.10100000352E+00 0. -1.
</event>
<event>
 5   0  0.1441756E-05  0.1699888E+04  0.7818609E-02  0.8761428E-01
        2   -1    0    0  501    0  0.00000000000E+00  0.00000000000E+00  0.73300713612E+03  0.73300713613E+03  0.25500000920E-02 0. -1.
       -2   -1    0    0    0  501  0.00000000000E+00  0.00000000000E+00 -0.98553617954E+03  0.98553617954E+03  0.25500000920E-02 0.  1.
    10030    2    1    2    0    0  0.00000000000E+00  0.00000000000E+00 -0.25252904341E+03  0.17185433157E+04  0.16998882934E+04 0.  0.
        5    1    3    3  502    0 -0.18337035322E+03  0.33931648477E+03 -0.89195496465E+03  0.97178501339E+03  0.46999998093E+01 0.  1.
       -5    1    3    3    0  502  0.18337035322E+03 -0.33931648477E+03  0.63942592124E+03  0.74675830228E+03  0.46999998093E+01 0. -1.
</event>
<event>
 5   0  0.7583716E-06  0.1698962E+04  0.7818609E-02  0.8761957E-01
       -1   -1    0    0    0  501  0.00000000000E+00  0.00000000000E+00  0.98305966318E+03  0.98305966320E+03  0.50400001928E-02 0. -1.
        1   -1    0    0  501    0  0.00000000000E+00  0.00000000000E+00 -0.73405315709E+03  0.73405315711E+03  0.50400001928E-02 0.  1.
    10030    2    1    2    0    0  0.00000000000E+00  0.00000000000E+00  0.24900650609E+03  0.17171128203E+04  0.16989620942E+04 0.  0.
        5    1    3    3  502    0  0.45063761395E+03 -0.21807445225E+03  0.81810402183E+03  0.95913867942E+03  0.46999998093E+01 0. -1.
       -5    1    3    3    0  502 -0.45063761395E+03  0.21807445225E+03 -0.56909751574E+03  0.75797414088E+03  0.46999998093E+01 0.  1.
</event>
<event>
 5   0  0.7476457E-06  0.1699752E+04  0.7818609E-02  0.8761506E-01
       -1   -1    0    0    0  501  0.00000000000E+00  0.00000000000E+00  0.11038393354E+04  0.11038393355E+04  0.50400001928E-02 0. -1.
        1   -1    0    0  501    0  0.00000000000E+00  0.00000000000E+00 -0.65434273592E+03  0.65434273594E+03  0.50400001928E-02 0.  1.
    10030    2    1    2    0    0  0.00000000000E+00  0.00000000000E+00  0.44949659952E+03  0.17581820714E+04  0.16997520417E+04 0.  0.
        2    1    3    3  502    0 -0.17795380811E+03  0.34865135816E+02  0.10835953756E+04  0.10986637673E+04  0.25500000920E-02 0. -1.
       -2    1    3    3    0  502  0.17795380811E+03 -0.34865135816E+02 -0.63409877612E+03  0.65951830407E+03  0.25500000920E-02 0.  1.
</event>
<event>
 5   0  0.7583716E-06  0.1700213E+04  0.7818609E-02  0.8761243E-01
       -1   -1    0    0    0  501  0.00000000000E+00  0.00000000000E+00  0.39640007658E+03  0.39640007661E+03  0.50400001928E-02 0. -1.
        1   -1    0    0  501    0  0.00000000000E+00  0.00000000000E+00 -0.18231111770E+04  0.18231111770E+04  0.50400001928E-02 0.  1.
    10030    2    1    2    0    0  0.00000000000E+00  0.00000000000E+00 -0.14267111004E+04  0.22195112536E+04  0.17002134104E+04 0.  0.
        5    1    3    3  502    0  0.59634653996E+03 -0.53879710520E+03 -0.35175398794E+03  0.87731663288E+03  0.46999998093E+01 0. -1.
       -5    1    3    3    0  502 -0.59634653996E+03  0.53879710520E+03 -0.10749571125E+04  0.13421946208E+04  0.46999998093E+01 0.  1.
</event>
<event>
 5   0  0.1435301E-05  0.1700135E+04  0.7818609E-02  0.8761287E-01
        2   -1    0    0  501    0  0.00000000000E+00  0.00000000000E+00  0.72348308197E+03  0.72348308198E+03  0.25500000920E-02 0.  1.
       -2   -1    0    0    0  501  0.00000000000E+00  0.00000000000E+00 -0.99880005652E+03  0.99880005652E+03  0.25500000920E-02 0. -1.
    10030    2    1    2    0    0  0.00000000000E+00  0.00000000000E+00 -0.27531697455E+03  0.17222831385E+04  0.17001352219E+04 0.  0.
        2    1    3    3  502    0 -0.55802678645E+03 -0.59251340371E+03  0.11078921496E+03  0.82142575936E+03  0.25500000920E-02 0.  1.
       -2    1    3    3    0  502  0.55802678645E+03  0.59251340371E+03 -0.38610618950E+03  0.90085737914E+03  0.25500000920E-02 0. -1.
</event>
<event>
 5   0  0.1374441E-05  0.1697143E+04  0.7818609E-02  0.8762995E-01
        2   -1    0    0  501    0  0.00000000000E+00  0.00000000000E+00  0.14811739434E+04  0.14811739434E+04  0.25500000920E-02 0. -1.
       -2   -1    0    0    0  501  0.00000000000E+00  0.00000000000E+00 -0.48615080973E+03  0.48615080973E+03  0.25500000920E-02 0.  1.
    10030    2    1    2    0    0  0.00000000000E+00  0.00000000000E+00  0.99502313368E+03  0.19673247531E+04  0.16971433787E+04 0.  0.
        1    1    3    3  502    0 -0.14127144808E+03  0.53357685470E+03  0.12446430835E+04  0.13615426130E+04  0.50400001928E-02 0. -1.
       -1    1    3    3    0  502  0.14127144808E+03 -0.53357685470E+03 -0.24961994978E+03  0.60578214010E+03  0.50400001928E-02 0.  1.
</event>
<event>
 5   0  0.1374441E-05  0.1700447E+04  0.7818609E-02  0.8761110E-01
       -2   -1    0    0    0  501  0.00000000000E+00  0.00000000000E+00  0.43506891519E+03  0.43506891520E+03  0.25500000920E-02 0. -1.
        2   -1    0    0  501    0  0.00000000000E+00  0.00000000000E+00 -0.16615293796E+04  0.16615293796E+04  0.25500000920E-02 0.  1.
    10030    2    1    2    0    0  0.00000000000E+00  0.00000000000E+00 -0.12264604644E+04  0.20965982948E+04  0.17004467469E+04 0.  0.
        1    1    3    3  502    0 -0.77825719112E+03 -0.23037451587E+03 -0.92544934623E+03  0.12309399520E+04  0.50400001928E-02 0.  1.
       -1    1    3    3    0  502  0.77825719112E+03  0.23037451587E+03 -0.30101111817E+03  0.86565834275E+03  0.50400001928E-02 0. -1.
</event>
<event>
 5   0  0.1423543E-05  0.1699874E+04  0.7818609E-02  0.8761436E-01
       -2   -1    0    0    0  501  0.00000000000E+00  0.00000000000E+00  0.99730106541E+03  0.99730106541E+03  0.25500000920E-02 0. -1.
        2   -1    0    0  501    0  0.00000000000E+00  0.00000000000E+00 -0.72434795751E+03  0.72434795751E+03  0.25500000920E-02 0.  1.
    10030    2    1    2    0    0  0.00000000000E+00  0.00000000000E+00  0.27295310790E+03  0.17216490229E+04  0.16998741009E+04 0.  0.
        3    1    3    3  502    0  0.86246361618E+02  0.33815464832E+03 -0.64843855469E+03  0.73638276086E+03  0.10100000352E+00 0.  1.
       -3    1    3    3    0  502 -0.86246361618E+02 -0.33815464832E+03  0.92139166259E+03  0.98526626207E+03  0.10100000352E+00 0. -1.
</event>
<event>
 5   0  0.7455669E-06  0.1700658E+04  0.7818609E-02  0.8760989E-01
        1   -1    0    0  501    0  0.00000000000E+00  0.00000000000E+00  0.10536220350E+04  0.10536220350E+04  0.50400001928E-02 0. -1.
       -1   -1    0    0    0  501  0.00000000000E+00  0.00000000000E+00 -0.68626095826E+03  0.68626095827E+03  0.50400001928E-02 0.  1.
    10030    2    1    2    0    0  0.00000000000E+00  0.00000000000E+00  0.36736107676E+03  0.17398829933E+04  0.17006583048E+04 0.  0.
        4    1    3    3  502    0 -0.16205933366E+03 -0.24415069499E+03 -0.63296922570E+03  0.69751304151E+03  0.12699999809E+01 0.  1.
       -4    1    3    3    0  502  0.16205933366E+03  0.24415069499E+03  0.10003303025E+04  0.10423699518E+04  0.12699999809E+01 0. -1.
</event>
<event>
 5   0  0.1423543E-05  0.1699156E+04  0.7818609E-02  0.8761846E-01
        2   -1    0    0  501    0  0.00000000000E+00  0.00000000000E+00  0.10191004161E+04  0.10191004161E+04  0.25500000920E-02 0. -1.
       -2   -1    0    0    0  501  0.00000000000E+00  0.00000000000E+00 -0.70825448257E+03  0.70825448257E+03  0.25500000920E-02 0.  1.
    10030    2    1    2    0    0  0.00000000000E+00  0.00000000000E+00  0.31084593352E+03  0.17273548987E+04  0.16991555996E+04 0.  0.
        3    1    3    3  502    0  0.83897572316E+03 -0.13254973129E+03  0.17396664768E+03  0.86701447510E+03  0.10100000352E+00 0. -1.
       -3    1    3    3    0  502 -0.83897572316E+03  0.13254973129E+03  0.13687928583E+03  0.86034042356E+03  0.10100000352E+00 0.  1.
</event>
<event>
 5   0  0.7476457E-06  0.1701375E+04  0.7818609E-02  0.8760581E-01
        1   -1    0    0  501    0  0.00000000000E+00  0.00000000000E+00  0.13386226643E+04  0.13386226643E+04  0.50400001928E-02 0. -1.
       -1   -1    0    0    0  501  0.00000000000E+00  0.00000000000E+00 -0.54060727615E+03  0.54060727617E+03  0.50400001928E-02 0.  1.
    10030    2    1    2    0    0  0.00000000000E+00  0.00000000000E+00  0.79801538819E+03  0.18792299405E+04  0.17013749174E+04 0.  0.
        2    1    3    3  502    0  0.36655544153E+03  0.22975056643E+03  0.12080537309E+04  0.12831765394E+04  0.25500000920E-02 0. -1.
       -2    1    3    3    0  502 -0.36655544153E+03 -0.22975056643E+03 -0.41003834272E+03  0.59605340113E+03  0.25500000920E-02 0.  1.
</event>
<event>
 5   0  0.1441756E-05  0.1699962E+04  0.7818609E-02  0.8761386E-01
        2   -1    0    0  501    0  0.00000000000E+00  0.00000000000E+00  0.83581929709E+03  0.83581929709E+03  0.25500000920E-02 0. -1.
       -2   -1    0    0    0  501  0.00000000000E+00  0.00000000000E+00 -0.86438248192E+03  0.86438248193E+03  0.25500000920E-02 0.  1.
    10030    2    1    2    0    0  0.00000000000E+00  0.00000000000E+00 -0.28563184836E+02  0.17002017790E+04  0.16999618331E+04 0.  0.
        5    1    3    3  502    0  0.24557138924E+03  0.39846389927E+03  0.69530194072E+03  0.83817997173E+03  0.46999998093E+01 0. -1.
       -5    1    3    3    0  502 -0.24557138924E+03 -0.39846389927E+03 -0.72386512556E+03  0.86202180729E+03  0.46999998093E+01 0.  1.
</event>
<event>
 5   0  0.1423543E-05  0.1699858E+04  0.7818609E-02  0.8761446E-01
        2   -1    0    0  501    0  0.00000000000E+00  0.00000000000E+00  0.16544143830E+04  0.16544143830E+04  0.25500000920E-02 0.  1.
       -2   -1    0    0    0  501  0.00000000000E+00  0.00000000000E+00 -0.43663727967E+03  0.43663727968E+03  0.25500000920E-02 0. -1.
    10030    2    1    2    0    0  0.00000000000E+00  0.00000000000E+00  0.12177771034E+04  0.20910516627E+04  0.16998576360E+04 0.  0.
        3    1    3    3  502    0  0.31784667869E+03 -0.51799722819E+02 -0.35867941619E+03  0.48203802364E+03  0.10100000352E+00 0. -1.
       -3    1    3    3    0  502 -0.31784667869E+03  0.51799722819E+02  0.15764565195E+04  0.16090136391E+04  0.10100000352E+00 0.  1.
</event>
<event>
 5   0  0.7476457E-06  0.1699743E+04  0.7818609E-02  0.8761511E-01
       -1   -1    0    0    0  501  0.00000000000E+00  0.00000000000E+00  0.43487947417E+03  0.43487947419E+03  0.50400001928E-02 0. -1.
        1   -1    0    0  501    0  0.00000000000E+00  0.00000000000E+00 -0.16608766707E+04  0.16608766707E+04  0.50400001928E-02 0.  1.
    10030    2    1    2    0    0  0.00000000000E+00  0.00000000000E+00 -0.12259971965E+04  0.20957561449E+04  0.16997425373E+04 0.  0.
        2    1    3    3  502    0 -0.32618005002E+03 -0.77009605373E+03 -0.42665953506E+03  0.93887151190E+03  0.25500000920E-02 0. -1.
       -2    1    3    3    0  502  0.32618005002E+03  0.77009605373E+03 -0.79933766146E+03  0.11568846330E+04  0.25500000920E-02 0.  1.
</event>
<event>
 5   0  0.7476457E-06  0.1696205E+04  0.7818609E-02  0.8763532E-01
       -1   -1    0    0    0  501  0.00000000000E+00  0.00000000000E+00  0.51316945309E+03  0.51316945311E+03  0.50400001928E-02 0.  1.
        1   -1    0    0  501    0  0.00000000000E+00  0.00000000000E+00 -0.14016374247E+04  0.14016374247E+04  0.50400001928E-02 0. -1.
    10030    2    1    2    0    0  0.00000000000E+00  0.00000000000E+00 -0.88846797164E+03  0.19148068778E+04  0.16962045993E+04 0.  0.
        2    1    3    3  502    0 -0.37130201498E+03  0.71774013805E+03 -0.15364636642E+03  0.82257115073E+03  0.25500000920E-02 0. -1.
       -2    1    3    3    0  502  0.37130201498E+03 -0.71774013805E+03 -0.73482160522E+03  0.10922357271E+04  0.25500000920E-02 0.  1.
</event>
<event>
 5   0  0.7583716E-06  0.1700397E+04  0.7818609E-02  0.8761138E-01
       -1   -1    0    0    0  501  0.00000000000E+00  0.00000000000E+00  0.36555530684E+03  0.36555530687E+03  0.50400001928E-02 0. -1.
        1   -1    0    0  501    0  0.00000000000E+00  0.00000000000E+00 -0.19773673914E+04  0.19773673914E+04  0.50400001928E-02 0.  1.
    10030    2    1    2    0    0  0.00000000000E+00  0.00000000000E+00 -0.16118120845E+04  0.23429226983E+04  0.17003965932E+04 0.  0.
        5    1    3    3  502    0 -0.30242092460E+03 -0.33536447201E+03  0.18662536432E+03  0.48865003973E+03  0.46999998093E+01 0. -1.
       -5    1    3    3    0  502  0.30242092460E+03  0.33536447201E+03 -0.17984374489E+04  0.18542726585E+04  0.46999998093E+01 0.  1.
</event>
<event>
 5   0  0.1435301E-05  0.1699633E+04  0.7818609E-02  0.8761574E-01
        2   -1    0    0  501    0  0.00000000000E+00  0.00000000000E+00  0.63134353959E+03  0.63134353960E+03  0.25500000920E-02 0. -1.
       -2   -1    0    0    0  501  0.00000000000E+00  0.00000000000E+00 -0.11438906844E+04  0.11438906845E+04  0.25500000920E-02 0.  1.
    10030    2    1    2    0    0  0.00000000000E+00  0.00000000000E+00 -0.51254714485E+03  0.17752342241E+04  0.16996328941E+04 0.  0.
        2    1    3    3  502    0 -0.51141817282E+03  0.23593780708E+03 -0.92095487181E+03  0.10795244658E+04  0.25500000920E-02 0.  1.
       -2    1    3    3    0  502  0.51141817282E+03 -0.23593780708E+03  0.40840772696E+03  0.69570975827E+03  0.25500000920E-02 0. -1.
</event>
<event>
 5   0  0.1435301E-05  0.1701513E+04  0.7818609E-02  0.8760502E-01
        2   -1    0    0  501    0  0.00000000000E+00  0.00000000000E+00  0.16454810934E+04  0.16454810934E+04  0.25500000920E-02 0. -1.
       -2   -1    0    0    0  501  0.00000000000E+00  0.00000000000E+00 -0.43986340255E+03  0.43986340256E+03  0.25500000920E-02 0.  1.
    10030    2    1    2    0    0  0.00000000000E+00  0.00000000000E+00  0.12056176908E+04  0.20853444960E+04  0.17015133412E+04 0.  0.
        2    1    3    3  502    0 -0.35075687197E+03  0.42093481434E+03 -0.19482809472E+03  0.58152771873E+03  0.25500000920E-02 0.  1.
       -2    1    3    3    0  502  0.35075687197E+03 -0.42093481434E+03  0.14004457856E+04  0.15038167772E+04  0.25500000920E-02 0. -1.
</event>
<event>
 5   0  0.7461128E-06  0.1700752E+04  0.7818609E-02  0.8760935E-01
       -1   -1    0    0    0  501  0.00000000000E+00  0.00000000000E+00  0.10877519730E+04  0.10877519731E+04  0.50400001928E-02 0.  1.
        1   -1    0    0  501    0  0.00000000000E+00  0.00000000000E+00 -0.66480190049E+03  0.66480190051E+03  0.50400001928E-02 0. -1.
    10030    2    1    2    0    0  0.00000000000E+00  0.00000000000E+00  0.42295007255E+03  0.17525538736E+04  0.17007522794E+04 0.  0.
        3    1    3    3  502    0 -0.75231767608E+02  0.84519927042E+03  0.26901431517E+03  0.89016309603E+03  0.10100000352E+00 0.  1.
       -3    1    3    3    0  502  0.75231767608E+02 -0.84519927042E+03  0.15393575738E+03  0.86239077753E+03  0.10100000352E+00 0. -1.
</event>
<event>
 5   0  0.1419012E-05  0.1701458E+04  0.7818609E-02  0.8760533E-01
       -2   -1    0    0    0  501  0.00000000000E+00  0.00000000000E+00  0.86081349489E+03  0.86081349490E+03  0.25500000920E-02 0.  1.
        2   -1    0    0  501    0  0.00000000000E+00  0.00000000000E+00 -0.84076241008E+03  0.84076241009E+03  0.25500000920E-02 0. -1.
    10030    2    1    2    0    0  0.00000000000E+00  0.00000000000E+00  0.20051084810E+02  0.17015759050E+04  0.17014577616E+04 0.  0.
        4    1    3    3  502    0  0.12069201328E+03  0.73012117183E+03  0.42969086588E+03  0.85573321821E+03  0.12699999809E+01 0.  1.
       -4    1    3    3    0  502 -0.12069201328E+03 -0.73012117183E+03 -0.40963978107E+03  0.84584268677E+03  0.12699999809E+01 0. -1.
</event>
<event>
 5   0  0.7082527E-06  0.1699141E+04  0.7818609E-02  0.8761854E-01
       -1   -1    0    0    0  501  0.00000000000E+00  0.00000000000E+00  0.54234624779E+03  0.54234624781E+03  0.50400001928E-02 0. -1.
        1   -1    0    0  501    0  0.00000000000E+00  0.00000000000E+00 -0.13308293589E+04  0.13308293590E+04  0.50400001928E-02 0.  1.
    10030    2    1    2    0    0  0.00000000000E+00  0.00000000000E+00 -0.78848311116E+03  0.18731756068E+04  0.16991413235E+04 0.  0.
        1    1    3    3  502    0  0.64948216473E+03  0.24383748561E+03 -0.93486434519E+03  0.11641542620E+04  0.50400001928E-02 0.  1.
       -1    1    3    3    0  502 -0.64948216473E+03 -0.24383748561E+03  0.14638123404E+03  0.70902134481E+03  0.50400001928E-02 0. -1.
</event>
<event>
 5   0  0.1435301E-05  0.1700460E+04  0.7818609E-02  0.8761102E-01
        2   -1    0    0  501    0  0.00000000000E+00  0.00000000000E+00  0.69364859704E+03  0.69364859705E+03  0.25500000920E-02 0.  1.
       -2   -1    0    0    0  501  0.00000000000E+00  0.00000000000E+00 -0.10421577048E+04  0.10421577048E+04  0.25500000920E-02 0. -1.
    10030    2    1    2    0    0  0.00000000000E+00  0.00000000000E+00 -0.34850910778E+03  0.17358063019E+04  0.17004602081E+04 0.  0.
        2    1    3    3  502    0 -0.20591689448E+02 -0.25413119084E+01  0.69339014387E+03  0.69370048837E+03  0.25500000920E-02 0.  1.
       -2    1    3    3    0  502  0.20591689448E+02  0.25413119084E+01 -0.10418992516E+04  0.10421058135E+04  0.25500000920E-02 0. -1.
</event>
<event>
 5   0  0.7461128E-06  0.1699753E+04  0.7818609E-02  0.8761506E-01
       -1   -1    0    0    0  501  0.00000000000E+00  0.00000000000E+00  0.36138303718E+03  0.36138303722E+03  0.50400001928E-02 0.  1.
        1   -1    0    0  501    0  0.00000000000E+00  0.00000000000E+00 -0.19986817444E+04  0.19986817444E+04  0.50400001928E-02 0. -1.
    10030    2    1    2    0    0  0.00000000000E+00  0.00000000000E+00 -0.16372987072E+04  0.23600647816E+04  0.16997525457E+04 0.  0.
        3    1    3    3  502    0 -0.76882124573E+03 -0.35662702872E+03 -0.73060726702E+03  0.11189530528E+04  0.10100000352E+00 0.  1.
       -3    1    3    3    0  502  0.76882124573E+03  0.35662702872E+03 -0.90669144015E+03  0.12411117288E+04  0.10100000352E+00 0. -1.
</event>
<event>
 5   0  0.1374441E-05  0.1700924E+04  0.7818609E-02  0.8760838E-01
       -2   -1    0    0    0  501  0.00000000000E+00  0.00000000000E+00  0.16107360301E+04  0.16107360301E+04  0.25500000920E-02 0. -1.
        2   -1    0    0  501    0  0.00000000000E+00  0.00000000000E+00 -0.44904029751E+03  0.44904029752E+03  0.25500000920E-02 0.  1.
    10030    2    1    2    0    0  0.00000000000E+00  0.00000000000E+00  0.11616957326E+04  0.20597763276E+04  0.17009237328E+04 0.  0.
        1    1    3    3  502    0  0.47122175410E+02 -0.28631812338E+03  0.15489365688E+04  0.15758816774E+04  0.50400001928E-02 0. -1.
       -1    1    3    3    0  502 -0.47122175410E+02  0.28631812338E+03 -0.38724083621E+03  0.48389465015E+03  0.50400001928E-02 0.  1.
</event>
<event>
 5   0  0.1441756E-05  0.1699785E+04  0.7818609E-02  0.8761487E-01
        2   -1    0    0  501    0  0.00000000000E+00  0.00000000000E+00  0.13528139638E+04  0.13528139638E+04  0.25500000920E-02 0.  1.
       -2   -1    0    0    0  501  0.00000000000E+00  0.00000000000E+00 -0.53393679733E+03  0.53393679734E+03  0.25500000920E-02 0. -1.
    10030    2    1    2    0    0  0.00000000000E+00  0.00000000000E+00  0.81887716645E+03  0.18867507611E+04  0.16997848749E+04 0.  0.
        5    1    3    3  502    0 -0.39619508575E+03 -0.65014496203E+03 -0.97748797421E+01  0.76143066388E+03  0.46999998093E+01 0. -1.
       -5    1    3    3    0  502  0.39619508575E+03  0.65014496203E+03  0.82865204620E+03  0.11253200973E+04  0.46999998093E+01 0.  1.
</event>
<event>
 5   0  0.7082527E-06  0.1700530E+04  0.7818609E-02  0.8761062E-01
       -1   -1    0    0    0  501  0.00000000000E+00  0.00000000000E+00  0.92694199099E+03  0.92694199100E+03  0.50400001928E-02 0. -1.
        1   -1    0    0  501    0  0.00000000000E+00  0.00000000000E+00 -0.77993092924E+03  0.77993092925E+03  0.50400001928E-02 0.  1.
    10030    2    1    2    0    0  0.00000000000E+00  0.00000000000E+00  0.14701106175E+03  0.17068729203E+04  0.17005301860E+04 0.  0.
        1    1    3    3  502    0  0.31818441967E+03  0.21579887152E+03  0.83471419701E+03  0.91899851392E+03  0.50400001928E-02 0. -1.
       -1    1    3    3    0  502 -0.31818441967E+03 -0.21579887152E+03 -0.68770313526E+03  0.78787440633E+03  0.50400001928E-02 0.  1.
</event>
<event>
 5   0  0.7455669E-06  0.1702208E+04  0.7818609E-02  0.8760106E-01
       -1   -1    0    0    0  501  0.00000000000E+00  0.00000000000E+00  0.54848006737E+03  0.54848006739E+03  0.50400001928E-02 0.  1.
        1   -1    0    0  501    0  0.00000000000E+00  0.00000000000E+00 -0.13207006897E+04  0.13207006897E+04  0.50400001928E-02 0. -1.
    10030    2    1    2    0    0  0.00000000000E+00  0.00000000000E+00 -0.77222062232E+03  0.18691807571E+04  0.17022079817E+04 0.  0.
        4    1    3    3  502    0 -0.58091469876E+03  0.60020034373E+03 -0.20676783425E+03  0.86049804766E+03  0.12699999809E+01 0.  1.
       -4    1    3    3    0  502  0.58091469876E+03 -0.60020034373E+03 -0.56545278807E+03  0.10086827094E+04  0.12699999809E+01 0. -1.
</event>
<event>
 5   0  0.7455669E-06  0.1700355E+04  0.7818609E-02  0.8761162E-01
       -1   -1    0    0    0  501  0.00000000000E+00  0.00000000000E+00  0.94912246894E+03  0.94912246895E+03  0.50400001928E-02 0.  1.
        1   -1    0    0  501    0  0.00000000000E+00  0.00000000000E+00 -0.76154777816E+03  0.76154777818E+03  0.50400001928E-02 0. -1.
    10030    2    1    2    0    0  0.00000000000E+00  0.00000000000E+00  0.18757469078E+03  0.17106702471E+04  0.17003553834E+04 0.  0.
        4    1    3    3  502    0  0.24771193399E+03 -0.72529628076E+03 -0.27639118776E+03  0.81474511272E+03  0.12699999809E+01 0.  1.
       -4    1    3    3    0  502 -0.24771193399E+03  0.72529628076E+03  0.46396587854E+03  0.89592513441E+03  0.12699999809E+01 0. -1.
</event>
<event>
 5   0  0.1435301E-05  0.1701892E+04  0.7818609E-02  0.8760286E-01
       -2   -1    0    0    0  501  0.00000000000E+00  0.00000000000E+00  0.37218062837E+03  0.37218062838E+03  0.25500000920E-02 0.  1.
        2   -1    0    0  501    0  0.00000000000E+00  0.00000000000E+00 -0.19455848946E+04  0.19455848946E+04  0.25500000920E-02 0. -1.
    10030    2    1    2    0    0  0.00000000000E+00  0.00000000000E+00 -0.15734042662E+04  0.23177655230E+04  0.17018918986E+04 0.  0.
        2    1    3    3  502    0  0.61949450180E+03 -0.25682250722E+03 -0.73336818771E+02  0.67461806006E+03  0.25500000920E-02 0.  1.
       -2    1    3    3    0  502 -0.61949450180E+03  0.25682250722E+03 -0.15000674475E+04  0.16431474629E+04  0.25500000920E-02 0. -1.
</event>
<event>
 5   0  0.1435301E-05  0.1700365E+04  0.7818609E-02  0.8761156E-01
        2   -1    0    0  501    0  0.00000000000E+00  0.00000000000E+00  0.94262837408E+03  0.94262837408E+03  0.25500000920E-02 0. -1.
       -2   -1    0    0    0  501  0.00000000000E+00  0.00000000000E+00 -0.76680263386E+03  0.76680263387E+03  0.25500000920E-02 0.  1.
    10030    2    1    2    0    0  0.00000000000E+00  0.00000000000E+00  0.17582574022E+03  0.17094310080E+04  0.17003645727E+04 0.  0.
        2    1    3    3  502    0 -0.24600484167E+03 -0.70393431636E+03 -0.32263699230E+03  0.81248786617E+03  0.25500000920E-02 0.  1.
       -2    1    3    3    0  502  0.24600484167E+03  0.70393431636E+03  0.49846273252E+03  0.89694314178E+03  0.25500000920E-02 0. -1.
</event>
<event>
 5   0  0.1419012E-05  0.1700718E+04  0.7818609E-02  0.8760955E-01
       -2   -1    0    0    0  501  0.00000000000E+00  0.00000000000E+00  0.56012199075E+03  0.56012199076E+03  0.25500000920E-02 0.  1.
        2   -1    0    0  501    0  0.00000000000E+00  0.00000000000E+00 -0.12909879570E+04  0.12909879570E+04  0.25500000920E-02 0. -1.
    10030    2    1    2    0    0  0.00000000000E+00  0.00000000000E+00 -0.73086596629E+03  0.18511099478E+04  0.17007183712E+04 0.  0.
        4    1    3    3  502    0  0.51903838184E+03  0.52520107799E+03  0.93610418655E+02  0.74431279549E+03  0.12699999809E+01 0.  1.
       -4    1    3    3    0  502 -0.51903838184E+03 -0.52520107799E+03 -0.82447638495E+03  0.11067971523E+04  0.12699999809E+01 0. -1.
</event>
<event>
 5   0  0.1441756E-05  0.1699628E+04  0.7818609E-02  0.8761576E-01
       -2   -1    0    0    0  501  0.00000000000E+00  0.00000000000E+00  0.46493116862E+03  0.46493116863E+03  0.25500000920E-02 0.  1.
        2   -1    0    0  501    0  0.00000000000E+00  0.00000000000E+00 -0.15533137645E+04  0.15533137645E+04  0.25500000920E-02 0. -1.
    10030    2    1    2    0    0  0.00000000000E+00  0.00000000000E+00 -0.10883825959E+04  0.20182449331E+04  0.16996281755E+04 0.  0.
        5    1    3    3  502    0  0.51260694795E+03  0.67481880908E+03 -0.46894339647E+03  0.96854339462E+03  0.46999998093E+01 0. -1.
       -5    1    3    3    0  502 -0.51260694795E+03 -0.67481880908E+03 -0.61943919940E+03  0.10497015385E+04  0.46999998093E+01 0.  1.
</event>
<event>
 5   0  0.1435301E-05  0.1700370E+04  0.7818609E-02  0.8761153E-01
        2   -1    0    0  501    0  0.00000000000E+00  0.00000000000E+00  0.71568247723E+03  0.71568247723E+03  0.25500000920E-02 0. -1.
       -2   -1    0    0    0  501  0.00000000000E+00  0.00000000000E+00 -0.10099655460E+04  0.10099655460E+04  0.25500000920E-02 0.  1.
    10030    2    1    2    0    0  0.00000000000E+00  0.00000000000E+00 -0.29428306875E+03  0.17256480232E+04  0.17003701290E+04 0.  0.
        2    1    3    3  502    0  0.30687268328E+01 -0.21845472265E+03  0.68670717381E+03  0.72062377528E+03  0.25500000920E-02 0. -1.
       -2    1    3    3    0  502 -0.30687268328E+01  0.21845472265E+03 -0.98099024256E+03  0.10050242479E+04  0.25500000920E-02 0.  1.
</event>
<event>
 5   0  0.1374441E-05  0.1699410E+04  0.7818609E-02  0.8761701E-01
       -2   -1    0    0    0  501  0.00000000000E+00  0.00000000000E+00  0.12388076073E+04  0.12388076073E+04  0.25500000920E-02 0.  1.
        2   -1    0    0  501    0  0.00000000000E+00  0.00000000000E+00 -0.58281727747E+03  0.58281727748E+03  0.25500000920E-02 0. -1.
    10030    2    1    2    0    0  0.00000000000E+00  0.00000000000E+00  0.65599032984E+03  0.18216248848E+04  0.16994098705E+04 0.  0.
        1    1    3    3  502    0  0.51395467818E+03 -0.15694349706E+03 -0.37753236149E+03  0.65674299120E+03  0.50400001928E-02 0. -1.
       -1    1    3    3    0  502 -0.51395467818E+03  0.15694349706E+03  0.10335226913E+04  0.11648818936E+04  0.50400001928E-02 0.  1.
</event>
<event>
 5   0  0.1419012E-05  0.1699909E+04  0.7818609E-02  0.8761417E-01
        2   -1    0    0  501    0  0.00000000000E+00  0.00000000000E+00  0.79520784448E+03  0.79520784448E+03  0.25500000920E-02 0.  1.
       -2   -1    0    0    0  501  0.00000000000E+00  0.00000000000E+00 -0.90846975639E+03  0.90846975639E+03  0.25500000920E-02 0. -1.
    10030    2    1    2    0    0  0.00000000000E+00  0.00000000000E+00 -0.11326191191E+03  0.17036776009E+04  0.16999085584E+04 0.  0.
        4    1    3    3  502    0  0.62869932460E+03 -0.46257254369E+03 -0.39380587677E+03  0.87425447120E+03  0.12699999809E+01 0. -1.
       -4    1    3    3    0  502 -0.62869932460E+03  0.46257254369E+03  0.28054396486E+03  0.82942312968E+03  0.12699999809E+01 0.  1.
</event>
<event>
 5   0  0.1419012E-05  0.1699942E+04  0.7818609E-02  0.8761397E-01
        2   -1    0    0  501    0  0.00000000000E+00  0.00000000000E+00  0.12901078625E+04  0.12901078625E+04  0.25500000920E-02 0.  1.
       -2   -1    0    0    0  501  0.00000000000E+00  0.00000000000E+00 -0.55999245389E+03  0.55999245389E+03  0.25500000920E-02 0. -1.
    10030    2    1    2    0    0  0.00000000000E+00  0.00000000000E+00  0.73011540866E+03  0.18501003164E+04  0.16999419610E+04 0.  0.
        4    1    3    3  502    0 -0.75706151800E+02 -0.74493036606E+03  0.80282729248E+03  0.10978096129E+04  0.12699999809E+01 0.  1.
       -4    1    3    3    0  502  0.75706151800E+02  0.74493036606E+03 -0.72711883825E+02  0.75229070355E+03  0.12699999809E+01 0. -1.
</event>
<event>
 5   0  0.1441756E-05  0.1699654E+04  0.7818609E-02  0.8761561E-01
        2   -1    0    0  501    0  0.00000000000E+00  0.00000000000E+00  0.11665024789E+04  0.11665024789E+04  0.25500000920E-02 0. -1.
       -2   -1    0    0    0  501  0.00000000000E+00  0.00000000000E+00 -0.61912108617E+03  0.61912108617E+03  0.25500000920E-02 0.  1.
    10030    2    1    2    0    0  0.00000000000E+00  0.00000000000E+00  0.54738139275E+03  0.17856235651E+04  0.16996544140E+04 0.  0.
        5    1    3    3  502    0 -0.65426977621E+03  0.15735282645E+02 -0.29582431291E+03  0.71822743842E+03  0.46999998093E+01 0.  1.
       -5    1    3    3    0  502  0.65426977621E+03 -0.15735282645E+02  0.84320570566E+03  0.10673961267E+04  0.46999998093E+01 0. -1.
</event>
<event>
 5   0  0.7455669E-06  0.1700227E+04  0.7818609E-02  0.8761235E-01
       -1   -1    0    0    0  501  0.00000000000E+00  0.00000000000E+00  0.71472301835E+03  0.71472301837E+03  0.50400001928E-02 0. -1.
        1   -1    0    0  501    0  0.00000000000E+00  0.00000000000E+00 -0.10111511418E+04  0.10111511418E+04  0.50400001928E-02 0.  1.
    10030    2    1    2    0    0  0.00000000000E+00  0.00000000000E+00 -0.29642812347E+03  0.17258741602E+04  0.17002270391E+04 0.  0.
        4    1    3    3  502    0  0.54690947623E+03 -0.50172139043E+03  0.27259578143E+03  0.79066073746E+03  0.12699999809E+01 0. -1.
       -4    1    3    3    0  502 -0.54690947623E+03  0.50172139043E+03 -0.56902390490E+03  0.93521342273E+03  0.12699999809E+01 0.  1.
</event>
<event>
 5   0  0.1441756E-05  0.1700074E+04  0.7818609E-02  0.8761322E-01
       -2   -1    0    0    0  501  0.00000000000E+00  0.00000000000E+00  0.82017662556E+03  0.82017662556E+03  0.25500000920E-02 0.  1.
        2   -1    0    0  501    0  0.00000000000E+00  0.00000000000E+00 -0.88098413237E+03  0.88098413237E+03  0.25500000920E-02 0. -1.
    10030    2    1    2    0    0  0.00000000000E+00  0.00000000000E+00 -0.60807506813E+02  0.17011607579E+04  0.17000736371E+04 0.  0.
        5    1    3    3  502    0  0.69080512629E+03 -0.43902100700E+03 -0.25987404410E+03  0.85878272916E+03  0.46999998093E+01 0. -1.
       -5    1    3    3    0  502 -0.69080512629E+03  0.43902100700E+03  0.19906653729E+03  0.84237802878E+03  0.46999998093E+01 0.  1.
</event>
<event>
 5   0  0.1423543E-05  0.1700412E+04  0.7818609E-02  0.8761130E-01
       -2   -1    0    0    0  501  0.00000000000E+00  0.00000000000E+00  0.78232465077E+03  0.78232465078E+03  0.25500000920E-02 0.  1.
        2   -1    0    0  501    0  0.00000000000E+00  0.00000000000E+00 -0.92397701809E+03  0.92397701809E+03  0.25500000920E-02 0. -1.
    10030    2    1    2    0    0  0.00000000000E+00  0.00000000000E+00 -0.14165236731E+03  0.17063016689E+04  0.17004117125E+04 0.  0.
        3    1    3    3  502    0  0.39122007100E+03  0.72484023654E+03  0.14062504308E+03  0.83559674808E+03  0.10100000352E+00 0.  1.
       -3    1    3    3    0  502 -0.39122007100E+03 -0.72484023654E+03 -0.28227741039E+03  0.87070492079E+03  0.10100000352E+00 0. -1.
</event>
<event>
 5   0  0.5229750E-06  0.1700228E+04  0.7818609E-02  0.8761235E-01
        4   -1    0    0  501    0  0.00000000000E+00  0.00000000000E+00  0.41220905616E+03  0.41221101256E+03  0.12699999809E+01 0.  1.
       -4   -1    0    0    0  501  0.00000000000E+00  0.00000000000E+00 -0.17532143587E+04  0.17532148187E+04  0.12699999809E+01 0. -1.
    10030    2    1    2    0    0  0.00000000000E+00  0.00000000000E+00 -0.13410053025E+04  0.21654258313E+04  0.17002275757E+04 0.  0.
        2    1    3    3  502    0 -0.69332461659E+03 -0.24254275545E+03 -0.12542246527E+03  0.74515555892E+03  0.25500000920E-02 0.  1.
       -2    1    3    3    0  502  0.69332461659E+03  0.24254275545E+03 -0.12155828373E+04  0.14202702723E+04  0.25500000920E-02 0. -1.
</event>
<event>
 5   0  0.7082527E-06  0.1699711E+04  0.7818609E-02  0.8761529E-01
       -1   -1    0    0    0  501  0.00000000000E+00  0.00000000000E+00  0.25869022366E+03  0.25869022371E+03  0.50400001928E-02 0. -1.
        1   -1    0    0  501    0  0.00000000000E+00  0.00000000000E+00 -0.27919661744E+04  0.27919661744E+04  0.50400001928E-02 0.  1.
    10030    2    1    2    0    0  0.00000000000E+00  0.00000000000E+00 -0.25332759507E+04  0.30506563981E+04  0.16997109803E+04 0.  0.
        1    1    3    3  502    0  0.37317298896E+03 -0.36451393996E+03 -0.24708007516E+04  0.25252692621E+04  0.50400001928E-02 0.  1.
       -1    1    3    3    0  502 -0.37317298896E+03  0.36451393996E+03 -0.62475199131E+02  0.52538713597E+03  0.50400001928E-02 0. -1.
</event>
<event>
 5   0  0.7583716E-06  0.1700362E+04  0.7818609E-02  0.8761158E-01
       -1   -1    0    0    0  501  0.00000000000E+00  0.00000000000E+00  0.63834219863E+03  0.63834219865E+03  0.50400001928E-02 0.  1.
        1   -1    0    0  501    0  0.00000000000E+00  0.00000000000E+00 -0.11323206595E+04  0.11323206595E+04  0.50400001928E-02 0. -1.
    10030    2    1    2    0    0  0.00000000000E+00  0.00000000000E+00 -0.49397846083E+03  0.17706628581E+04  0.17003623841E+04 0.  0.
        5    1    3    3  502    0  0.77130710496E+03  0.52634607889E+02 -0.61530866533E+03  0.98808496383E+03  0.46999998093E+01 0. -1.
       -5    1    3    3    0  502 -0.77130710496E+03 -0.52634607889E+02  0.12133020449E+03  0.78257789429E+03  0.46999998093E+01 0.  1.
</event>
<event>
 5   0  0.7583716E-06  0.1700067E+04  0.7818609E-02  0.8761326E-01
       -1   -1    0    0    0  501  0.00000000000E+00  0.00000000000E+00  0.58176518730E+03  0.58176518733E+03  0.50400001928E-02 0. -1.
        1   -1    0    0  501    0  0.00000000000E+00  0.00000000000E+00 -0.12420082411E+04  0.12420082411E+04  0.50400001928E-02 0.  1.
    10030    2    1    2    0    0  0.00000000000E+00  0.00000000000E+00 -0.66024305378E+03  0.18237734284E+04  0.17000672422E+04 0.  0.
        5    1    3    3  502    0 -0.22494919154E+03 -0.35708271489E+03 -0.11216631552E+04  0.11984408737E+04  0.46999998093E+01 0.  1.
       -5    1    3    3    0  502  0.22494919154E+03  0.35708271489E+03  0.46142010139E+03  0.62533255474E+03  0.46999998093E+01 0. -1.
</event>
<event>
 5   0  0.1374441E-05  0.1702417E+04  0.7818609E-02  0.8759987E-01
       -2   -1    0    0    0  501  0.00000000000E+00  0.00000000000E+00  0.12845147244E+04  0.12845147244E+04  0.25500000920E-02 0.  1.
        2   -1    0    0  501    0  0.00000000000E+00  0.00000000000E+00 -0.56406967169E+03  0.56406967170E+03  0.25500000920E-02 0. -1.
    10030    2    1    2    0    0  0.00000000000E+00  0.00000000000E+00  0.72044505275E+03  0.18485843961E+04  0.17024168689E+04 0.  0.
        1    1    3    3  502    0  0.26481621890E+03 -0.47937813531E+03  0.10678033142E+04  0.12000562254E+04  0.50400001928E-02 0.  1.
       -1    1    3    3    0  502 -0.26481621890E+03  0.47937813531E+03 -0.34735826142E+03  0.64852817071E+03  0.50400001928E-02 0. -1.
</event>
<event>
 5   0  0.1374441E-05  0.1699510E+04  0.7818609E-02  0.8761644E-01
       -2   -1    0    0    0  501  0.00000000000E+00  0.00000000000E+00  0.28806269444E+03  0.28806269445E+03  0.25500000920E-02 0. -1.
        2   -1    0    0  501    0  0.00000000000E+00  0.00000000000E+00 -0.25066898477E+04  0.25066898477E+04  0.25500000920E-02 0.  1.
    10030    2    1    2    0    0  0.00000000000E+00  0.00000000000E+00 -0.22186271533E+04  0.27947525422E+04  0.16995103197E+04 0.  0.
        1    1    3    3  502    0  0.67816409024E+03 -0.12075216081E+03 -0.29105313932E+03  0.74779646133E+03  0.50400001928E-02 0. -1.
       -1    1    3    3    0  502 -0.67816409024E+03  0.12075216081E+03 -0.19275740140E+04  0.20469560809E+04  0.50400001928E-02 0.  1.
</event>
<event>
 5   0  0.7455669E-06  0.1701030E+04  0.7818609E-02  0.8760777E-01
       -1   -1    0    0    0  501  0.00000000000E+00  0.00000000000E+00  0.63392518019E+03  0.63392518021E+03  0.50400001928E-02 0. -1.
        1   -1    0    0  501    0  0.00000000000E+00  0.00000000000E+00 -0.11411054135E+04  0.11411054135E+04  0.50400001928E-02 0.  1.
    10030    2    1    2    0    0  0.00000000000E+00  0.00000000000E+00 -0.50718023328E+03  0.17750305937E+04  0.17010296351E+04 0.  0.
        4    1    3    3  502    0  0.47057980733E+03 -0.45707095325E+03  0.31126701428E+03  0.72611843279E+03  0.12699999809E+01 0. -1.
       -4    1    3    3    0  502 -0.47057980733E+03  0.45707095325E+03 -0.81844724756E+03  0.10489121609E+04  0.12699999809E+01 0.  1.
</event>
<event>
 5   0  0.1435301E-05  0.1698536E+04  0.7818609E-02  0.8762200E-01
        2   -1    0    0  501    0  0.00000000000E+00  0.00000000000E+00  0.12467232795E+04  0.12467232795E+04  0.25500000920E-02 0. -1.
       -2   -1    0    0    0  501  0.00000000000E+00  0.00000000000E+00 -0.57852128009E+03  0.57852128009E+03  0.25500000920E-02 0.  1.
    10030    2    1    2    0    0  0.00000000000E+00  0.00000000000E+00  0.66820199940E+03  0.18252445596E+04  0.16985357783E+04 0.  0.
        2    1    3    3  502    0 -0.17796643649E+03  0.18034684037E+03 -0.53695989785E+03  0.59373644595E+03  0.25500000920E-02 0.  1.
       -2    1    3    3    0  502  0.17796643649E+03 -0.18034684037E+03  0.12051618972E+04  0.12315081136E+04  0.25500000920E-02 0. -1.
</event>
<event>
 5   0  0.5229750E-06  0.1700159E+04  0.7818609E-02  0.8761274E-01
       -3   -1    0    0    0  501  0.00000000000E+00  0.00000000000E+00  0.12506466957E+04  0.12506466998E+04  0.10100000352E+00 0.  1.
        3   -1    0    0  501    0  0.00000000000E+00  0.00000000000E+00 -0.57780907006E+03  0.57780907889E+03  0.10100000352E+00 0. -1.
    10030    2    1    2    0    0  0.00000000000E+00  0.00000000000E+00  0.67283762568E+03  0.18284557787E+04  0.17001588350E+04 0.  0.
        1    1    3    3  502    0 -0.32338014785E+03 -0.78312312706E+03  0.41076164758E+03  0.94158466604E+03  0.50400001928E-02 0.  1.
       -1    1    3    3    0  502  0.32338014785E+03  0.78312312706E+03  0.26207597810E+03  0.88687111267E+03  0.50400001928E-02 0. -1.
</event>
<event>
 5   0  0.1441756E-05  0.1699619E+04  0.7818609E-02  0.8761582E-01
       -2   -1    0    0    0  501  0.00000000000E+00  0.00000000000E+00  0.58867424270E+03  0.58867424271E+03  0.25500000920E-02 0.  1.
        2   -1    0    0  501    0  0.00000000000E+00  0.00000000000E+00 -0.12267834841E+04  0.12267834841E+04  0.25500000920E-02 0. -1.
    10030    2    1    2    0    0  0.00000000000E+00  0.00000000000E+00 -0.63810924140E+03  0.18154577268E+04  0.16996185907E+04 0.  0.
        5    1    3    3  502    0 -0.41650639222E+03  0.17700624791E+03  0.44923467082E+03  0.63768539737E+03  0.46999998093E+01 0.  1.
       -5    1    3    3    0  502  0.41650639222E+03 -0.17700624791E+03 -0.10873439122E+04  0.11777723294E+04  0.46999998093E+01 0. -1.
</event>
<event>
 5   0  0.1441756E-05  0.1699356E+04  0.7818609E-02  0.8761732E-01
        2   -1    0    0  501    0  0.00000000000E+00  0.00000000000E+00  0.32920968399E+04  0.32920968399E+04  0.25500000920E-02 0.  1.
       -2   -1    0    0    0  501  0.00000000000E+00  0.00000000000E+00 -0.21929876951E+03  0.21929876952E+03  0.25500000920E-02 0. -1.
    10030    2    1    2    0    0  0.00000000000E+00  0.00000000000E+00  0.30727980704E+04  0.35113956094E+04  0.16993560970E+04 0.  0.
        5    1    3    3  502    0 -0.70226853951E+03  0.41397388467E+03  0.10414533534E+04  0.13225742535E+04  0.46999998093E+01 0. -1.
       -5    1    3    3    0  502  0.70226853951E+03 -0.41397388467E+03  0.20313447170E+04  0.21888213559E+04  0.46999998093E+01 0.  1.
</event>
<event>
 5   0  0.7082527E-06  0.1699980E+04  0.7818609E-02  0.8761376E-01
       -1   -1    0    0    0  501  0.00000000000E+00  0.00000000000E+00  0.89905607306E+03  0.89905607308E+03  0.50400001928E-02 0.  1.
        1   -1    0    0  501    0  0.00000000000E+00  0.00000000000E+00 -0.80360169666E+03  0.80360169668E+03  0.50400001928E-02 0. -1.
    10030    2    1    2    0    0  0.00000000000E+00  0.00000000000E+00  0.95454376402E+02  0.17026577698E+04  0.16999799831E+04 0.  0.
        1    1    3    3  502    0 -0.61896201174E+03  0.45468732704E+03  0.41248273196E+03  0.87177780514E+03  0.50400001928E-02 0.  1.
       -1    1    3    3    0  502  0.61896201174E+03 -0.45468732704E+03 -0.31702835556E+03  0.83087996462E+03  0.50400001928E-02 0. -1.
</event>
<event>
 5   0  0.7455669E-06  0.1700117E+04  0.7818609E-02  0.8761298E-01
        1   -1    0    0  501    0  0.00000000000E+00  0.00000000000E+00  0.19673982697E+04  0.19673982697E+04  0.50400001928E-02 0.  1.
       -1   -1    0    0    0  501  0.00000000000E+00  0.00000000000E+00 -0.36728689735E+03  0.36728689738E+03  0.50400001928E-02 0. -1.
    10030    2    1    2    0    0  0.00000000000E+00  0.00000000000E+00  0.16001113723E+04  0.23346851671E+04  0.17001171799E+04 0.  0.
        4    1    3    3  502    0 -0.32171155511E+03  0.76138540365E+03  0.10726100440E+04  0.13541417861E+04  0.12699999809E+01 0. -1.
       -4    1    3    3    0  502  0.32171155511E+03 -0.76138540365E+03  0.52750132831E+03  0.98054338092E+03  0.12699999809E+01 0.  1.
</event>
<event>
 5   0  0.1423543E-05  0.1700289E+04  0.7818609E-02  0.8761199E-01
       -2   -1    0    0    0  501  0.00000000000E+00  0.00000000000E+00  0.84572039860E+03  0.84572039860E+03  0.25500000920E-02 0.  1.
        2   -1    0    0  501    0  0.00000000000E+00  0.00000000000E+00 -0.85459197969E+03  0.85459197970E+03  0.25500000920E-02 0. -1.
    10030    2    1    2    0    0  0.00000000000E+00  0.00000000000E+00 -0.88715810912E+01  0.17003123783E+04  0.17002892339E+04 0.  0.
        3    1    3    3  502    0 -0.35473517361E+03  0.69298320601E+03 -0.34602950962E+03  0.85193849481E+03  0.10100000352E+00 0. -1.
       -3    1    3    3    0  502  0.35473517361E+03 -0.69298320601E+03  0.33715792853E+03  0.84837388349E+03  0.10100000352E+00 0.  1.
</event>
<event>
 5   0  0.1374441E-05  0.1697868E+04  0.7818609E-02  0.8762581E-01
       -2   -1    0    0    0  501  0.00000000000E+00  0.00000000000E+00  0.68567069951E+03  0.68567069952E+03  0.25500000920E-02 0. -1.
        2   -1    0    0  501    0  0.00000000000E+00  0.00000000000E+00 -0.10510710338E+04  0.10510710338E+04  0.25500000920E-02 0.  1.
    10030    2    1    2    0    0  0.00000000000E+00  0.00000000000E+00 -0.36540033432E+03  0.17367417334E+04  0.16978676168E+04 0.  0.
        1    1    3    3  502    0 -0.40674368806E+03  0.64398528622E+03 -0.56615806857E+03  0.94904817332E+03  0.50400001928E-02 0. -1.
       -1    1    3    3    0  502  0.40674368806E+03 -0.64398528622E+03  0.20075773425E+03  0.78769356004E+03  0.50400001928E-02 0.  1.
</event>
<event>
 5   0  0.1441756E-05  0.1700392E+04  0.7818609E-02  0.8761141E-01
       -2   -1    0    0    0  501  0.00000000000E+00  0.00000000000E+00  0.36835179808E+03  0.36835179809E+03  0.25500000920E-02 0.  1.
        2   -1    0    0  501    0  0.00000000000E+00  0.00000000000E+00 -0.19623446275E+04  0.19623446275E+04  0.25500000920E-02 0. -1.
    10030    2    1    2    0    0  0.00000000000E+00  0.00000000000E+00 -0.15939928295E+04  0.23306964256E+04  0.17003919219E+04 0.  0.
        5    1    3    3  502    0  0.18276710992E+03 -0.27238807719E+02  0.34047575956E+03  0.38741657419E+03  0.46999998093E+01 0.  1.
       -5    1    3    3    0  502 -0.18276710992E+03  0.27238807719E+02 -0.19344685890E+04  0.19432798514E+04  0.46999998093E+01 0. -1.
</event>
<event>
 5   0  0.5229750E-06  0.1699969E+04  0.7818609E-02  0.8761382E-01
        4   -1    0    0  501    0  0.00000000000E+00  0.00000000000E+00  0.38620594289E+03  0.38620803101E+03  0.12699999809E+01 0. -1.
       -4   -1    0    0    0  501  0.00000000000E+00  0.00000000000E+00 -0.18706873724E+04  0.18706878035E+04  0.12699999809E+01 0.  1.
    10030    2    1    2    0    0  0.00000000000E+00  0.00000000000E+00 -0.14844814295E+04  0.22568958345E+04  0.16999687330E+04 0.  0.
        4    1    3    3  502    0  0.53576646085E+03  0.56197371585E+03 -0.28308782004E+03  0.82643843366E+03  0.12699999809E+01 0. -1.
       -4    1    3    3    0  502 -0.53576646085E+03 -0.56197371585E+03 -0.12013936095E+04  0.14304574009E+04  0.12699999809E+01 0.  1.
</event>
<event>
 5   0  0.1423543E-05  0.1700045E+04  0.7818609E-02  0.8761339E-01
        2   -1    0    0  501    0  0.00000000000E+00  0.00000000000E+00  0.45767444780E+03  0.45767444781E+03  0.25500000920E-02 0. -1.
       -2   -1    0    0    0  501  0.00000000000E+00  0.00000000000E+00 -0.15787171086E+04  0.15787171086E+04  0.25500000920E-02 0.  1.
    10030    2    1    2    0    0  0.00000000000E+00  0.00000000000E+00 -0.11210426608E+04  0.20363915564E+04  0.17000452711E+04 0.  0.
        3    1    3    3  502    0 -0.69278025839E+02  0.68736662385E+03 -0.11537465535E+04  0.13447689171E+04  0.10100000352E+00 0.  1.
       -3    1    3    3    0  502  0.69278025839E+02 -0.68736662385E+03  0.32703892686E+02  0.69162263934E+03  0.10100000352E+00 0. -1.
</event>
<event>
 5   0  0.1419012E-05  0.1705724E+04  0.7818609E-02  0.8758106E-01
        2   -1    0    0  501    0  0.00000000000E+00  0.00000000000E+00  0.11768426057E+04  0.11768426057E+04  0.25500000920E-02 0.  1.
       -2   -1    0    0    0  501  0.00000000000E+00  0.00000000000E+00 -0.61807245863E+03  0.61807245864E+03  0.25500000920E-02 0. -1.
    10030    2    1    2    0    0  0.00000000000E+00  0.00000000000E+00  0.55877014706E+03  0.17949150643E+04  0.17057244827E+04 0.  0.
        4    1    3    3  502    0  0.44125237536E+03  0.13628170630E+03 -0.47511127712E+03  0.66257731683E+03  0.12699999809E+01 0. -1.
       -4    1    3    3    0  502 -0.44125237536E+03 -0.13628170630E+03  0.10338814242E+04  0.11323377475E+04  0.12699999809E+01 0.  1.
</event>
<event>
 5   0  0.5229750E-06  0.1700342E+04  0.7818609E-02  0.8761169E-01
       -3   -1    0    0    0  501  0.00000000000E+00  0.00000000000E+00  0.12377977857E+04  0.12377977899E+04  0.10100000352E+00 0. -1.
        3   -1    0    0  501    0  0.00000000000E+00  0.00000000000E+00 -0.58393267724E+03  0.58393268597E+03  0.10100000352E+00 0.  1.
    10030    2    1    2    0    0  0.00000000000E+00  0.00000000000E+00  0.65386510850E+03  0.18217304758E+04  0.17003418322E+04 0.  0.
        2    1    3    3  502    0  0.63479107241E+03 -0.25298072668E+03 -0.21497475097E+03  0.71636101041E+03  0.25500000920E-02 0. -1.
       -2    1    3    3    0  502 -0.63479107241E+03  0.25298072668E+03  0.86883985947E+03  0.11053694654E+04  0.25500000920E-02 0.  1.
</event>
<event>
 5   0  0.1423543E-05  0.1699991E+04  0.7818609E-02  0.8761370E-01
       -2   -1    0    0    0  501  0.00000000000E+00  0.00000000000E+00  0.79104228128E+03  0.79104228129E+03  0.25500000920E-02 0.  1.
        2   -1    0    0  501    0  0.00000000000E+00  0.00000000000E+00 -0.91334192511E+03  0.91334192511E+03  0.25500000920E-02 0. -1.
    10030    2    1    2    0    0  0.00000000000E+00  0.00000000000E+00 -0.12229964382E+03  0.17043842064E+04  0.16999906824E+04 0.  0.
        3    1    3    3  502    0 -0.37430274336E+03 -0.26286884155E+03  0.65714403064E+03  0.80065027243E+03  0.10100000352E+00 0.  1.
       -3    1    3    3    0  502  0.37430274336E+03  0.26286884155E+03 -0.77944367446E+03  0.90373393397E+03  0.10100000352E+00 0. -1.
</event>
<event>
 5   0  0.1419012E-05  0.1699973E+04  0.7818609E-02  0.8761380E-01
       -2   -1    0    0    0  501  0.00000000000E+00  0.00000000000E+00  0.37889157554E+03  0.37889157555E+03  0.25500000920E-02 0. -1.
        2   -1    0    0  501    0  0.00000000000E+00  0.00000000000E+00 -0.19068180966E+04  0.19068180966E+04  0.25500000920E-02 0.  1.
    10030    2    1    2    0    0  0.00000000000E+00  0.00000000000E+00 -0.15279265210E+04  0.22857096721E+04  0.16999733091E+04 0.  0.
        4    1    3    3  502    0  0.52048874762E+03 -0.18398786736E+03  0.10503583701E+03  0.56195570261E+03  0.12699999809E+01 0. -1.
       -4    1    3    3    0  502 -0.52048874762E+03  0.18398786736E+03 -0.16329623580E+04  0.17237539695E+04  0.12699999809E+01 0.  1.
</event>
<event>
 5   0  0.1374441E-05  0.1699598E+04  0.7818609E-02  0.8761594E-01
       -2   -1    0    0    0  501  0.00000000000E+00  0.00000000000E+00  0.69625027918E+03  0.69625027919E+03  0.25500000920E-02 0. -1.
        2   -1    0    0  501    0  0.00000000000E+00  0.00000000000E+00 -0.10372109615E+04  0.10372109615E+04  0.25500000920E-02 0.  1.
    10030    2    1    2    0    0  0.00000000000E+00  0.00000000000E+00 -0.34096068230E+03  0.17334612407E+04  0.16995980954E+04 0.  0.
        1    1    3    3  502    0  0.51282701353E+03  0.34854375591E+02 -0.86068502571E+03  0.10024894447E+04  0.50400001928E-02 0.  1.
       -1    1    3    3    0  502 -0.51282701353E+03 -0.34854375591E+02  0.51972434341E+03  0.73097179594E+03  0.50400001928E-02 0. -1.
</event>
<event>
 5   0  0.7455669E-06  0.1696966E+04  0.7818609E-02  0.8763097E-01
        1   -1    0    0  501    0  0.00000000000E+00  0.00000000000E+00  0.14465356181E+04  0.14465356181E+04  0.50400001928E-02 0.  1.
       -1   -1    0    0    0  501  0.00000000000E+00  0.00000000000E+00 -0.49768785036E+03  0.49768785038E+03  0.50400001928E-02 0. -1.
    10030    2    1    2    0    0  0.00000000000E+00  0.00000000000E+00  0.94884776777E+03  0.19442234685E+04  0.16969657655E+04 0.  0.
        4    1    3    3  502    0 -0.76592119188E+03  0.30511855838E+03  0.70410569597E+03  0.10842043400E+04  0.12699999809E+01 0.  1.
       -4    1    3    3    0  502  0.76592119188E+03 -0.30511855838E+03  0.24474207180E+03  0.86001912854E+03  0.12699999809E+01 0. -1.
</event>
<event>
 5   0  0.1423543E-05  0.1699284E+04  0.7818609E-02  0.8761773E-01
        2   -1    0    0  501    0  0.00000000000E+00  0.00000000000E+00  0.97611179623E+03  0.97611179624E+03  0.25500000920E-02 0. -1.
       -2   -1    0    0    0  501  0.00000000000E+00  0.00000000000E+00 -0.73955858794E+03  0.73955858794E+03  0.25500000920E-02 0.  1.
    10030    2    1    2    0    0  0.00000000000E+00  0.00000000000E+00  0.23655320830E+03  0.17156703842E+04  0.16992843926E+04 0.  0.
        3    1    3    3  502    0 -0.32896562307E+03 -0.26235667658E+03 -0.62697557127E+03  0.75508130958E+03  0.10100000352E+00 0.  1.
       -3    1    3    3    0  502  0.32896562307E+03  0.26235667658E+03  0.86352877956E+03  0.96058907460E+03  0.10100000352E+00 0. -1.
</event>
<event>
 5   0  0.1441756E-05  0.1700016E+04  0.7818609E-02  0.8761355E-01
       -2   -1    0    0    0  501  0.00000000000E+00  0.00000000000E+00  0.80978462911E+03  0.80978462911E+03  0.25500000920E-02 0. -1.
        2   -1    0    0  501    0  0.00000000000E+00  0.00000000000E+00 -0.89222925153E+03  0.89222925154E+03  0.25500000920E-02 0.  1.
    10030    2    1    2    0    0  0.00000000000E+00  0.00000000000E+00 -0.82444622425E+02  0.17020138806E+04  0.17000159217E+04 0.  0.
        5    1    3    3  502    0 -0.36260109071E+03  0.70421147048E+03 -0.34996453141E+03  0.86596224478E+03  0.46999998093E+01 0.  1.
       -5    1    3    3    0  502  0.36260109071E+03 -0.70421147048E+03  0.26751990899E+03  0.83605163587E+03  0.46999998093E+01 0. -1.
</event>
<event>
 5   0  0.7461128E-06  0.1700083E+04  0.7818609E-02  0.8761317E-01
       -1   -1    0    0    0  501  0.00000000000E+00  0.00000000000E+00  0.89798830507E+03  0.89798830509E+03  0.50400001928E-02 0.  1.
        1   -1    0    0  501    0  0.00000000000E+00  0.00000000000E+00 -0.80465503471E+03  0.80465503473E+03  0.50400001928E-02 0. -1.
    10030    2    1    2    0    0  0.00000000000E+00  0.00000000000E+00  0.93333270363E+02  0.17026433398E+04  0.17000833048E+04 0.  0.
        3    1    3    3  502    0  0.69909622541E+03  0.12181977434E+02 -0.43747299607E+03  0.82478273833E+03  0.10100000352E+00 0. -1.
       -3    1    3    3    0  502 -0.69909622541E+03 -0.12181977434E+02  0.53080626643E+03  0.87786060149E+03  0.10100000352E+00 0.  1.
</event>
<event>
 5   0  0.7455669E-06  0.1700284E+04  0.7818609E-02  0.8761202E-01
        1   -1    0    0  501    0  0.00000000000E+00  0.00000000000E+00  0.24649737685E+04  0.24649737685E+04  0.50400001928E-02 0. -1.
       -1   -1    0    0    0  501  0.00000000000E+00  0.00000000000E+00 -0.29320449458E+03  0.29320449463E+03  0.50400001928E-02 0.  1.
    10030    2    1    2    0    0  0.00000000000E+00  0.00000000000E+00  0.21717692739E+04  0.27581782631E+04  0.17002839622E+04 0.  0.
        4    1    3    3  502    0  0.75373186847E+03 -0.20419815919E+03  0.16310242764E+04  0.18083280734E+04  0.12699999809E+01 0. -1.
       -4    1    3    3    0  502 -0.75373186847E+03  0.20419815919E+03  0.54074499749E+03  0.94985018975E+03  0.12699999809E+01 0.  1.
</event>
<event>
 5   0  0.1419012E-05  0.1705870E+04  0.7818609E-02  0.8758024E-01
        2   -1    0    0  501    0  0.00000000000E+00  0.00000000000E+00  0.94769557179E+03  0.94769557179E+03  0.25500000920E-02 0.  1.
       -2   -1    0    0    0  501  0.00000000000E+00  0.00000000000E+00 -0.76764957402E+03  0.76764957402E+03  0.25500000920E-02 0. -1.
    10030    2    1    2    0    0  0.00000000000E+00  0.00000000000E+00  0.18004599777E+03  0.17153451458E+04  0.17058699857E+04 0.  0.
        4    1    3    3  502    0  0.58478029567E+03  0.42180997051E+03  0.54819055319E+03  0.90576273987E+03  0.12699999809E+01 0.  1.
       -4    1    3    3    0  502 -0.58478029567E+03 -0.42180997051E+03 -0.36814455542E+03  0.80958240595E+03  0.12699999809E+01 0. -1.
</event>
<event>
 5   0  0.7461128E-06  0.1697862E+04  0.7818609E-02  0.8762585E-01
        1   -1    0    0  501    0  0.00000000000E+00  0.00000000000E+00  0.27499192102E+04  0.27499192102E+04  0.50400001928E-02 0.  1.
       -1   -1    0    0    0  501  0.00000000000E+00  0.00000000000E+00 -0.26207457227E+03  0.26207457232E+03  0.50400001928E-02 0. -1.
    10030    2    1    2    0    0  0.00000000000E+00  0.00000000000E+00  0.24878446380E+04  0.30119937826E+04  0.16978620685E+04 0.  0.
        3    1    3    3  502    0 -0.49344987334E+03 -0.51592098929E+03  0.42901161378E+03  0.83289748448E+03  0.10100000352E+00 0. -1.
       -3    1    3    3    0  502  0.49344987334E+03  0.51592098929E+03  0.20588330242E+04  0.21790962981E+04  0.10100000352E+00 0.  1.
</event>
<event>
 5   0  0.1441756E-05  0.1700535E+04  0.7818609E-02  0.8761059E-01
       -2   -1    0    0    0  501  0.00000000000E+00  0.00000000000E+00  0.10919043524E+04  0.10919043524E+04  0.25500000920E-02 0.  1.
        2   -1    0    0  501    0  0.00000000000E+00  0.00000000000E+00 -0.66210444568E+03  0.66210444569E+03  0.25500000920E-02 0. -1.
    10030    2    1    2    0    0  0.00000000000E+00  0.00000000000E+00  0.42979990667E+03  0.17540087980E+04  0.17005348876E+04 0.  0.
        5    1    3    3  502    0  0.57428276631E+03 -0.53709550777E+03 -0.11878553859E+03  0.79523856441E+03  0.46999998093E+01 0. -1.
       -5    1    3    3    0  502 -0.57428276631E+03  0.53709550777E+03  0.54858544527E+03  0.95877023363E+03  0.46999998093E+01 0.  1.
</event>
<event>
 5   0  0.1435301E-05  0.1700529E+04  0.7818609E-02  0.8761063E-01
        2   -1    0    0  501    0  0.00000000000E+00  0.00000000000E+00  0.13671301005E+04  0.13671301005E+04  0.25500000920E-02 0.  1.
       -2   -1    0    0    0  501  0.00000000000E+00  0.00000000000E+00 -0.52880841518E+03  0.52880841519E+03  0.25500000920E-02 0. -1.
    10030    2    1    2    0    0  0.00000000000E+00  0.00000000000E+00  0.83832168530E+03  0.18959385157E+04  0.17005292139E+04 0.  0.
        2    1    3    3  502    0 -0.16508630659E+03 -0.34792954624E+03  0.12643202394E+04  0.13216709597E+04  0.25500000920E-02 0.  1.
       -2    1    3    3    0  502  0.16508630659E+03  0.34792954624E+03 -0.42599855413E+03  0.57426755602E+03  0.25500000920E-02 0. -1.
</event>
<event>
 5   0  0.1441756E-05  0.1701713E+04  0.7818609E-02  0.8760388E-01
       -2   -1    0    0    0  501  0.00000000000E+00  0.00000000000E+00  0.89186982782E+03  0.89186982782E+03  0.25500000920E-02 0. -1.
        2   -1    0    0  501    0  0.00000000000E+00  0.00000000000E+00 -0.81172935017E+03  0.81172935018E+03  0.25500000920E-02 0.  1.
    10030    2    1    2    0    0  0.00000000000E+00  0.00000000000E+00  0.80140477645E+02  0.17035991780E+04  0.17017131554E+04 0.  0.
        5    1    3    3  502    0 -0.17968066978E+03 -0.40683322199E+03  0.76622676537E+03  0.88595934420E+03  0.46999998093E+01 0. -1.
       -5    1    3    3    0  502  0.17968066978E+03  0.40683322199E+03 -0.68608628773E+03  0.81763983380E+03  0.46999998093E+01 0.  1.
</event>
<event>
 5   0  0.7583716E-06  0.1700596E+04  0.7818609E-02  0.8761025E-01
       -1   -1    0    0    0  501  0.00000000000E+00  0.00000000000E+00  0.57798859379E+03  0.57798859382E+03  0.50400001928E-02 0. -1.
        1   -1    0    0  501    0  0.00000000000E+00  0.00000000000E+00 -0.12509007571E+04  0.12509007571E+04  0.50400001928E-02 0.  1.
    10030    2    1    2    0    0  0.00000000000E+00  0.00000000000E+00 -0.67291216334E+03  0.18288893510E+04  0.17005956246E+04 0.  0.
        5    1    3    3  502    0  0.27446722170E+02 -0.13941047475E+03  0.56511695414E+03  0.58272451886E+03  0.46999998093E+01 0. -1.
       -5    1    3    3    0  502 -0.27446722170E+02  0.13941047475E+03 -0.12380291175E+04  0.12461648321E+04  0.46999998093E+01 0.  1.
</event>
<event>
 5   0  0.7455669E-06  0.1699787E+04  0.7818609E-02  0.8761486E-01
        1   -1    0    0  501    0  0.00000000000E+00  0.00000000000E+00  0.11809905001E+04  0.11809905001E+04  0.50400001928E-02 0.  1.
       -1   -1    0    0    0  501  0.00000000000E+00  0.00000000000E+00 -0.61162151607E+03  0.61162151609E+03  0.50400001928E-02 0. -1.
    10030    2    1    2    0    0  0.00000000000E+00  0.00000000000E+00  0.56936898403E+03  0.17926120162E+04  0.16997872810E+04 0.  0.
        4    1    3    3  502    0  0.20755881737E+03  0.17310418151E+02  0.11536580354E+04  0.11723091695E+04  0.12699999809E+01 0.  1.
       -4    1    3    3    0  502 -0.20755881737E+03 -0.17310418151E+02 -0.58428905136E+03  0.62030284675E+03  0.12699999809E+01 0. -1.
</event>
<event>
 5   0  0.1423543E-05  0.1699886E+04  0.7818609E-02  0.8761429E-01
       -2   -1    0    0    0  501  0.00000000000E+00  0.00000000000E+00  0.28902702533E+03  0.28902702534E+03  0.25500000920E-02 0. -1.
        2   -1    0    0  501    0  0.00000000000E+00  0.00000000000E+00 -0.24994323496E+04  0.24994323496E+04  0.25500000920E-02 0.  1.
    10030    2    1    2    0    0  0.00000000000E+00  0.00000000000E+00 -0.22104053243E+04  0.27884593749E+04  0.16998864633E+04 0.  0.
        3    1    3    3  502    0  0.53190771334E+02 -0.35863120117E+03 -0.23662246926E+04  0.23938389467E+04  0.10100000352E+00 0.  1.
       -3    1    3    3    0  502 -0.53190771334E+02  0.35863120117E+03  0.15581936836E+03  0.39462042822E+03  0.10100000352E+00 0. -1.
</event>
<event>
 5   0  0.7476457E-06  0.1688881E+04  0.7818609E-02  0.8767731E-01
        1   -1    0    0  501    0  0.00000000000E+00  0.00000000000E+00  0.62478653577E+03  0.62478653579E+03  0.50400001928E-02 0.  1.
       -1   -1    0    0    0  501  0.00000000000E+00  0.00000000000E+00 -0.11413175051E+04  0.11413175051E+04  0.50400001928E-02 0. -1.
    10030    2    1    2    0    0  0.00000000000E+00  0.00000000000E+00 -0.51653096928E+03  0.17661040409E+04  0.16888810618E+04 0.  0.
        2    1    3    3  502    0  0.54004463148E+03  0.58094315155E+03 -0.56123090534E+03  0.97166006321E+03  0.25500000920E-02 0. -1.
       -2    1    3    3    0  502 -0.54004463148E+03 -0.58094315155E+03  0.44699936054E+02  0.79444397765E+03  0.25500000920E-02 0.  1.
</event>
<event>
 5   0  0.1419012E-05  0.1699979E+04  0.7818609E-02  0.8761376E-01
       -2   -1    0    0    0  501  0.00000000000E+00  0.00000000000E+00  0.37823643697E+03  0.37823643697E+03  0.25500000920E-02 0.  1.
        2   -1    0    0  501    0  0.00000000000E+00  0.00000000000E+00 -0.19101347156E+04  0.19101347156E+04  0.25500000920E-02 0. -1.
    10030    2    1    2    0    0  0.00000000000E+00  0.00000000000E+00 -0.15318982786E+04  0.22883711526E+04  0.16999794692E+04 0.  0.
        4    1    3    3  502    0 -0.68121431797E+03  0.50445469961E+03 -0.68131011589E+03  0.10875258976E+04  0.12699999809E+01 0.  1.
       -4    1    3    3    0  502  0.68121431797E+03 -0.50445469961E+03 -0.85058816274E+03  0.12008452550E+04  0.12699999809E+01 0. -1.
</event>
<event>
 5   0  0.7455669E-06  0.1699402E+04  0.7818609E-02  0.8761706E-01
        1   -1    0    0  501    0  0.00000000000E+00  0.00000000000E+00  0.16374378533E+04  0.16374378533E+04  0.50400001928E-02 0.  1.
       -1   -1    0    0    0  501  0.00000000000E+00  0.00000000000E+00 -0.44092771755E+03  0.44092771758E+03  0.50400001928E-02 0. -1.
    10030    2    1    2    0    0  0.00000000000E+00  0.00000000000E+00  0.11965101357E+04  0.20783655709E+04  0.16994019363E+04 0.  0.
        4    1    3    3  502    0 -0.71617578820E+03 -0.45117140251E+03  0.50733497086E+03  0.98684030096E+03  0.12699999809E+01 0.  1.
       -4    1    3    3    0  502  0.71617578820E+03  0.45117140251E+03  0.68917516488E+03  0.10915252699E+04  0.12699999809E+01 0. -1.
</event>
<event>
 5   0  0.7082527E-06  0.1699510E+04  0.7818609E-02  0.8761644E-01
       -1   -1    0    0    0  501  0.00000000000E+00  0.00000000000E+00  0.90756281050E+03  0.90756281051E+03  0.50400001928E-02 0.  1.
        1   -1    0    0  501    0  0.00000000000E+00  0.00000000000E+00 -0.79562898640E+03  0.79562898642E+03  0.50400001928E-02 0. -1.
    10030    2    1    2    0    0  0.00000000000E+00  0.00000000000E+00  0.11193382410E+03  0.17031917969E+04  0.16995096693E+04 0.  0.
        1    1    3    3  502    0  0.68530912873E+03  0.39313539647E+03 -0.25756749345E+03  0.83099040644E+03  0.50400001928E-02 0. -1.
       -1    1    3    3    0  502 -0.68530912873E+03 -0.39313539647E+03  0.36950131755E+03  0.87220139049E+03  0.50400001928E-02 0.  1.
</event>
<event>
 5   0  0.7583716E-06  0.1703874E+04  0.7818609E-02  0.8759158E-01
       -1   -1    0    0    0  501  0.00000000000E+00  0.00000000000E+00  0.10134258018E+04  0.10134258019E+04  0.50400001928E-02 0.  1.
        1   -1    0    0  501    0  0.00000000000E+00  0.00000000000E+00 -0.71618151019E+03  0.71618151021E+03  0.50400001928E-02 0. -1.
    10030    2    1    2    0    0  0.00000000000E+00  0.00000000000E+00  0.29724429165E+03  0.17296073121E+04  0.17038741987E+04 0.  0.
        5    1    3    3  502    0  0.34311486950E+03 -0.43686093512E+03  0.80428690987E+03  0.97748391992E+03  0.46999998093E+01 0.  1.
       -5    1    3    3    0  502 -0.34311486950E+03  0.43686093512E+03 -0.50704261823E+03  0.75212339214E+03  0.46999998093E+01 0. -1.
</event>
<event>
 5   0  0.7461128E-06  0.1699596E+04  0.7818609E-02  0.8761595E-01
        1   -1    0    0  501    0  0.00000000000E+00  0.00000000000E+00  0.12210210942E+04  0.12210210942E+04  0.50400001928E-02 0. -1.
       -1   -1    0    0    0  501  0.00000000000E+00  0.00000000000E+00 -0.59143673333E+03  0.59143673335E+03  0.50400001928E-02 0.  1.
    10030    2    1    2    0    0  0.00000000000E+00  0.00000000000E+00  0.62958436084E+03  0.18124578275E+04  0.16995961018E+04 0.  0.
        3    1    3    3  502    0  0.67666975699E+03 -0.51265548040E+03  0.35552711441E+03  0.92037880293E+03  0.10100000352E+00 0.  1.
       -3    1    3    3    0  502 -0.67666975699E+03  0.51265548040E+03  0.27405724643E+03  0.89207902459E+03  0.10100000352E+00 0. -1.
</event>
<event>
 5   0  0.1435301E-05  0.1698527E+04  0.7818609E-02  0.8762205E-01
       -2   -1    0    0    0  501  0.00000000000E+00  0.00000000000E+00  0.94431284619E+03  0.94431284620E+03  0.25500000920E-02 0.  1.
        2   -1    0    0  501    0  0.00000000000E+00  0.00000000000E+00 -0.76378155814E+03  0.76378155815E+03  0.25500000920E-02 0. -1.
    10030    2    1    2    0    0  0.00000000000E+00  0.00000000000E+00  0.18053128805E+03  0.17080944043E+04  0.16985272880E+04 0.  0.
        2    1    3    3  502    0 -0.44000669720E+03 -0.17034564539E+02  0.82054649816E+03  0.93123177868E+03  0.25500000920E-02 0. -1.
       -2    1    3    3    0  502  0.44000669720E+03  0.17034564539E+02 -0.64001521011E+03  0.77686262566E+03  0.25500000920E-02 0.  1.
</event>
<event>
 5   0  0.7455669E-06  0.1700000E+04  0.7818609E-02  0.8761364E-01
        1   -1    0    0  501    0  0.00000000000E+00  0.00000000000E+00  0.73721397159E+03  0.73721397160E+03  0.50400001928E-02 0.  1.
       -1   -1    0    0    0  501  0.00000000000E+00  0.00000000000E+00 -0.98004128746E+03  0.98004128747E+03  0.50400001928E-02 0. -1.
    10030    2    1    2    0    0  0.00000000000E+00  0.00000000000E+00 -0.24282731587E+03  0.17172552591E+04  0.17000001528E+04 0.  0.
        4    1    3    3  502    0 -0.15715816001E+03  0.53499958068E+03 -0.76946667219E+03  0.95026512674E+03  0.12699999809E+01 0. -1.
       -4    1    3    3    0  502  0.15715816001E+03 -0.53499958068E+03  0.52663935632E+03  0.76699013234E+03  0.12699999809E+01 0.  1.
</event>
<event>
 5   0  0.1423543E-05  0.1699449E+04  0.7818609E-02  0.8761678E-01
       -2   -1    0    0    0  501  0.00000000000E+00  0.00000000000E+00  0.46074668656E+03  0.46074668657E+03  0.25500000920E-02 0.  1.
        2   -1    0    0  501    0  0.00000000000E+00  0.00000000000E+00 -0.15670912466E+04  0.15670912466E+04  0.25500000920E-02 0. -1.
    10030    2    1    2    0    0  0.00000000000E+00  0.00000000000E+00 -0.11063445600E+04  0.20278379332E+04  0.16994494396E+04 0.  0.
        3    1    3    3  502    0  0.13693042363E+03  0.81731415521E+03 -0.77729586424E+03  0.11361959514E+04  0.10100000352E+00 0. -1.
       -3    1    3    3    0  502 -0.13693042363E+03 -0.81731415521E+03 -0.32904869579E+03  0.89164198175E+03  0.10100000352E+00 0.  1.
</event>
<event>
 5   0  0.1419012E-05  0.1698437E+04  0.7818609E-02  0.8762256E-01
       -2   -1    0    0    0  501  0.00000000000E+00  0.00000000000E+00  0.15771099410E+04  0.15771099410E+04  0.25500000920E-02 0. -1.
        2   -1    0    0  501    0  0.00000000000E+00  0.00000000000E+00 -0.45727447648E+03  0.45727447649E+03  0.25500000920E-02 0.  1.
    10030    2    1    2    0    0  0.00000000000E+00  0.00000000000E+00  0.11198354645E+04  0.20343844175E+04  0.16984370729E+04 0.  0.
        4    1    3    3  502    0  0.28592319049E+03 -0.54974641221E+03 -0.13562788378E+03  0.63432619713E+03  0.12699999809E+01 0.  1.
       -4    1    3    3    0  502 -0.28592319049E+03  0.54974641221E+03  0.12554633483E+04  0.14000582203E+04  0.12699999809E+01 0. -1.
</event>
<event>
 5   0  0.7082527E-06  0.1699786E+04  0.7818609E-02  0.8761486E-01
       -1   -1    0    0    0  501  0.00000000000E+00  0.00000000000E+00  0.66023772974E+03  0.66023772976E+03  0.50400001928E-02 0.  1.
        1   -1    0    0  501    0  0.00000000000E+00  0.00000000000E+00 -0.10940272959E+04  0.10940272959E+04  0.50400001928E-02 0. -1.
    10030    2    1    2    0    0  0.00000000000E+00  0.00000000000E+00 -0.43378956618E+03  0.17542650257E+04  0.16997859844E+04 0.  0.
        1    1    3    3  502    0  0.30475607593E+02 -0.83035930939E+03 -0.32585604161E+02  0.83155707379E+03  0.50400001928E-02 0. -1.
       -1    1    3    3    0  502 -0.30475607593E+02  0.83035930939E+03 -0.40120396202E+03  0.92270795191E+03  0.50400001928E-02 0.  1.
</event>
<event>
 5   0  0.1441756E-05  0.1698782E+04  0.7818609E-02  0.8762059E-01
        2   -1    0    0  501    0  0.00000000000E+00  0.00000000000E+00  0.12764519527E+04  0.12764519527E+04  0.25500000920E-02 0.  1.
       -2   -1    0    0    0  501  0.00000000000E+00  0.00000000000E+00 -0.56521126806E+03  0.56521126807E+03  0.25500000920E-02 0. -1.
    10030    2    1    2    0    0  0.00000000000E+00  0.00000000000E+00  0.71124068468E+03  0.18416632208E+04  0.16987819481E+04 0.  0.
        5    1    3    3  502    0 -0.68405837274E+03 -0.32438626187E+02 -0.18908847688E+03  0.71046791896E+03  0.46999998093E+01 0. -1.
       -5    1    3    3    0  502  0.68405837274E+03  0.32438626187E+02  0.90032916156E+03  0.11311953019E+04  0.46999998093E+01 0.  1.
</event>
<event>
 5   0  0.1374441E-05  0.1699520E+04  0.7818609E-02  0.8761638E-01
       -2   -1    0    0    0  501  0.00000000000E+00  0.00000000000E+00  0.59900050162E+03  0.59900050162E+03  0.25500000920E-02 0. -1.
        2   -1    0    0  501    0  0.00000000000E+00  0.00000000000E+00 -0.12054952343E+04  0.12054952343E+04  0.25500000920E-02 0.  1.
    10030    2    1    2    0    0  0.00000000000E+00  0.00000000000E+00 -0.60649473268E+03  0.18044957359E+04  0.16995202265E+04 0.  0.
        1    1    3    3  502    0  0.41946811611E+03  0.50283728462E+03 -0.87826435845E+03  0.10955122631E+04  0.50400001928E-02 0.  1.
       -1    1    3    3    0  502 -0.41946811611E+03 -0.50283728462E+03  0.27176962577E+03  0.70898347283E+03  0.50400001928E-02 0. -1.
</event>
<event>
 5   0  0.1423543E-05  0.1686954E+04  0.7818609E-02  0.8768840E-01
       -2   -1    0    0    0  501  0.00000000000E+00  0.00000000000E+00  0.38991810272E+03  0.38991810273E+03  0.25500000920E-02 0. -1.
        2   -1    0    0  501    0  0.00000000000E+00  0.00000000000E+00 -0.18246220979E+04  0.18246220979E+04  0.25500000920E-02 0.  1.
    10030    2    1    2    0    0  0.00000000000E+00  0.00000000000E+00 -0.14347039952E+04  0.22145402006E+04  0.16869536883E+04 0.  0.
        3    1    3    3  502    0 -0.24230988238E+03  0.43888753849E+03  0.17310810580E+03  0.53037984222E+03  0.10100000352E+00 0. -1.
       -3    1    3    3    0  502  0.24230988238E+03 -0.43888753849E+03 -0.16078121010E+04  0.16841603584E+04  0.10100000352E+00 0.  1.
</event>
<event>
 5   0  0.7082527E-06  0.1698643E+04  0.7818609E-02  0.8762138E-01
        1   -1    0    0  501    0  0.00000000000E+00  0.00000000000E+00  0.93949954995E+03  0.93949954997E+03  0.50400001928E-02 0.  1.
       -1   -1    0    0    0  501  0.00000000000E+00  0.00000000000E+00 -0.76779954901E+03  0.76779954903E+03  0.50400001928E-02 0. -1.
    10030    2    1    2    0    0  0.00000000000E+00  0.00000000000E+00  0.17170000094E+03  0.17072990990E+04  0.16986433773E+04 0.  0.
        1    1    3    3  502    0 -0.38602474439E+03 -0.38792351713E+03  0.73865756463E+03  0.91930123258E+03  0.50400001928E-02 0.  1.
       -1    1    3    3    0  502  0.38602474439E+03  0.38792351713E+03 -0.56695756369E+03  0.78799786641E+03  0.50400001928E-02 0. -1.
</event>
<event>
 5   0  0.7476457E-06  0.1700476E+04  0.7818609E-02  0.8761093E-01
       -1   -1    0    0    0  501  0.00000000000E+00  0.00000000000E+00  0.35252167853E+03  0.35252167857E+03  0.50400001928E-02 0. -1.
        1   -1    0    0  501    0  0.00000000000E+00  0.00000000000E+00 -0.20506673999E+04  0.20506673999E+04  0.50400001928E-02 0.  1.
    10030    2    1    2    0    0  0.00000000000E+00  0.00000000000E+00 -0.16981457213E+04  0.24031890784E+04  0.17004760674E+04 0.  0.
        2    1    3    3  502    0  0.42969138474E+03  0.56796242797E+03 -0.19272946084E+03  0.73780800401E+03  0.25500000920E-02 0.  1.
       -2    1    3    3    0  502 -0.42969138474E+03 -0.56796242797E+03 -0.15054162605E+04  0.16653810744E+04  0.25500000920E-02 0. -1.
</event>
<event>
 5   0  0.1374441E-05  0.1699776E+04  0.7818609E-02  0.8761492E-01
       -2   -1    0    0    0  501  0.00000000000E+00  0.00000000000E+00  0.44486535738E+03  0.44486535739E+03  0.25500000920E-02 0.  1.
        2   -1    0    0  501    0  0.00000000000E+00  0.00000000000E+00 -0.16236584388E+04  0.16236584388E+04  0.25500000920E-02 0. -1.
    10030    2    1    2    0    0  0.00000000000E+00  0.00000000000E+00 -0.11787930815E+04  0.20685237962E+04  0.16997757401E+04 0.  0.
        1    1    3    3  502    0  0.79709947333E+01 -0.69724171977E+03 -0.11807086058E+04  0.13712338839E+04  0.50400001928E-02 0. -1.
       -1    1    3    3    0  502 -0.79709947333E+01  0.69724171977E+03  0.19155243497E+01  0.69728991231E+03  0.50400001928E-02 0.  1.
</event>
<event>
 5   0  0.1423543E-05  0.1697969E+04  0.7818609E-02  0.8762524E-01
       -2   -1    0    0    0  501  0.00000000000E+00  0.00000000000E+00  0.39943347101E+03  0.39943347102E+03  0.25500000920E-02 0. -1.
        2   -1    0    0  501    0  0.00000000000E+00  0.00000000000E+00 -0.18044922427E+04  0.18044922427E+04  0.25500000920E-02 0.  1.
    10030    2    1    2    0    0  0.00000000000E+00  0.00000000000E+00 -0.14050587717E+04  0.22039257137E+04  0.16979689042E+04 0.  0.
        3    1    3    3  502    0 -0.31778919822E+01 -0.23553914093E+03 -0.17612255696E+04  0.17769086367E+04  0.10100000352E+00 0.  1.
       -3    1    3    3    0  502  0.31778919822E+01  0.23553914093E+03  0.35616679793E+03  0.42701707701E+03  0.10100000352E+00 0. -1.
</event>
<event>
 5   0  0.7583716E-06  0.1703215E+04  0.7818609E-02  0.8759533E-01
       -1   -1    0    0    0  501  0.00000000000E+00  0.00000000000E+00  0.14482252922E+04  0.14482252922E+04  0.50400001928E-02 0.  1.
        1   -1    0    0  501    0  0.00000000000E+00  0.00000000000E+00 -0.50077515490E+03  0.50077515493E+03  0.50400001928E-02 0. -1.
    10030    2    1    2    0    0  0.00000000000E+00  0.00000000000E+00  0.94745013728E+03  0.19490004471E+04  0.17032148955E+04 0.  0.
        5    1    3    3  502    0 -0.83509173040E+03 -0.75018393927E+02  0.64425058337E+03  0.10573962653E+04  0.46999998093E+01 0.  1.
       -5    1    3    3    0  502  0.83509173040E+03  0.75018393927E+02  0.30319955391E+03  0.89160418186E+03  0.46999998093E+01 0. -1.
</event>
<event>
 5   0  0.1423543E-05  0.1700542E+04  0.7818609E-02  0.8761055E-01
       -2   -1    0    0    0  501  0.00000000000E+00  0.00000000000E+00  0.13300862555E+04  0.13300862555E+04  0.25500000920E-02 0.  1.
        2   -1    0    0  501    0  0.00000000000E+00  0.00000000000E+00 -0.54354443572E+03  0.54354443573E+03  0.25500000920E-02 0. -1.
    10030    2    1    2    0    0  0.00000000000E+00  0.00000000000E+00  0.78654181974E+03  0.18736306912E+04  0.17005422467E+04 0.  0.
        3    1    3    3  502    0 -0.18903274714E+02 -0.73131116798E+03  0.87072326401E+03  0.11372477175E+04  0.10100000352E+00 0.  1.
       -3    1    3    3    0  502  0.18903274714E+02  0.73131116798E+03 -0.84181444278E+02  0.73638297371E+03  0.10100000352E+00 0. -1.
</event>
<event>
 5   0  0.7455669E-06  0.1701265E+04  0.7818609E-02  0.8760643E-01
        1   -1    0    0  501    0  0.00000000000E+00  0.00000000000E+00  0.16404213478E+04  0.16404213478E+04  0.50400001928E-02 0. -1.
       -1   -1    0    0    0  501  0.00000000000E+00  0.00000000000E+00 -0.44109119432E+03  0.44109119435E+03  0.50400001928E-02 0.  1.
    10030    2    1    2    0    0  0.00000000000E+00  0.00000000000E+00  0.11993301535E+04  0.20815125421E+04  0.17012647196E+04 0.  0.
        4    1    3    3  502    0 -0.35672857324E+02  0.28788237189E+03  0.15780323963E+04  0.16044739541E+04  0.12699999809E+01 0. -1.
       -4    1    3    3    0  502  0.35672857324E+02 -0.28788237189E+03 -0.37870224286E+03  0.47703858800E+03  0.12699999809E+01 0.  1.
</event>
<event>
 5   0  0.7455669E-06  0.1700102E+04  0.7818609E-02  0.8761306E-01
        1   -1    0    0  501    0  0.00000000000E+00  0.00000000000E+00  0.11784936219E+04  0.11784936219E+04  0.50400001928E-02 0. -1.
       -1   -1    0    0    0  501  0.00000000000E+00  0.00000000000E+00 -0.61314407559E+03  0.61314407561E+03  0.50400001928E-02 0.  1.
    10030    2    1    2    0    0  0.00000000000E+00  0.00000000000E+00  0.56534954628E+03  0.17916376975E+04  0.17001016233E+04 0.  0.
        4    1    3    3  502    0  0.41648511616E+01 -0.40248449879E+03  0.10717013835E+04  0.11447954341E+04  0.12699999809E+01 0. -1.
       -4    1    3    3    0  502 -0.41648511616E+01  0.40248449879E+03 -0.50635183719E+03  0.64684226337E+03  0.12699999809E+01 0.  1.
</event>
<event>
 5   0  0.1423543E-05  0.1699369E+04  0.7818609E-02  0.8761724E-01
       -2   -1    0    0    0  501  0.00000000000E+00  0.00000000000E+00  0.31248471004E+03  0.31248471005E+03  0.25500000920E-02 0. -1.
        2   -1    0    0  501    0  0.00000000000E+00  0.00000000000E+00 -0.23103979797E+04  0.23103979797E+04  0.25500000920E-02 0.  1.
    10030    2    1    2    0    0  0.00000000000E+00  0.00000000000E+00 -0.19979132696E+04  0.26228826897E+04  0.16993693451E+04 0.  0.
        3    1    3    3  502    0  0.48526966753E+03  0.59013233447E+03 -0.42513299931E+03  0.87434598399E+03  0.10100000352E+00 0. -1.
       -3    1    3    3    0  502 -0.48526966753E+03 -0.59013233447E+03 -0.15727802703E+04  0.17485367057E+04  0.10100000352E+00 0.  1.
</event>
<event>
 5   0  0.7461128E-06  0.1700173E+04  0.7818609E-02  0.8761266E-01
        1   -1    0    0  501    0  0.00000000000E+00  0.00000000000E+00  0.11417278475E+04  0.11417278475E+04  0.50400001928E-02 0. -1.
       -1   -1    0    0    0  501  0.00000000000E+00  0.00000000000E+00 -0.63294157487E+03  0.63294157489E+03  0.50400001928E-02 0.  1.
    10030    2    1    2    0    0  0.00000000000E+00  0.00000000000E+00  0.50878627265E+03  0.17746694224E+04  0.17001729581E+04 0.  0.
        3    1    3    3  502    0 -0.53877488083E+03  0.46488086069E+03  0.73980106229E+03  0.10264980316E+04  0.10100000352E+00 0. -1.
       -3    1    3    3    0  502  0.53877488083E+03 -0.46488086069E+03 -0.23101478964E+03  0.74817139085E+03  0.10100000352E+00 0.  1.
</event>
<event>
 5   0  0.7082527E-06  0.1699863E+04  0.7818609E-02  0.8761443E-01
        1   -1    0    0  501    0  0.00000000000E+00  0.00000000000E+00  0.51242762237E+03  0.51242762239E+03  0.50400001928E-02 0. -1.
       -1   -1    0    0    0  501  0.00000000000E+00  0.00000000000E+00 -0.14097271607E+04  0.14097271607E+04  0.50400001928E-02 0.  1.
    10030    2    1    2    0    0  0.00000000000E+00  0.00000000000E+00 -0.89729953834E+03  0.19221547831E+04  0.16998625088E+04 0.  0.
        1    1    3    3  502    0  0.36524945816E+03 -0.71090717153E+03 -0.12172800284E+03  0.80846390144E+03  0.50400001928E-02 0. -1.
       -1    1    3    3    0  502 -0.36524945816E+03  0.71090717153E+03 -0.77557153550E+03  0.11136908817E+04  0.50400001928E-02 0.  1.
</event>
<event>
 5   0  0.7455669E-06  0.1699806E+04  0.7818609E-02  0.8761475E-01
       -1   -1    0    0    0  501  0.00000000000E+00  0.00000000000E+00  0.10887141514E+04  0.10887141514E+04  0.50400001928E-02 0.  1.
        1   -1    0    0  501    0  0.00000000000E+00  0.00000000000E+00 -0.66347574221E+03  0.66347574223E+03  0.50400001928E-02 0. -1.
    10030    2    1    2    0    0  0.00000000000E+00  0.00000000000E+00  0.42523840921E+03  0.17521898937E+04  0.16998063769E+04 0.  0.
        4    1    3    3  502    0  0.31271716660E+03 -0.70090430652E+03 -0.16369964343E+03  0.78476624503E+03  0.12699999809E+01 0.  1.
       -4    1    3    3    0  502 -0.31271716660E+03  0.70090430652E+03  0.58893805264E+03  0.96742364863E+03  0.12699999809E+01 0. -1.
</event>
<event>
 5   0  0.1435301E-05  0.1700728E+04  0.7818609E-02  0.8760949E-01
        2   -1    0    0  501    0  0.00000000000E+00  0.00000000000E+00  0.58114404600E+03  0.58114404601E+03  0.25500000920E-02 0.  1.
       -2   -1    0    0    0  501  0.00000000000E+00  0.00000000000E+00 -0.12443022477E+04  0.12443022477E+04  0.25500000920E-02 0. -1.
    10030    2    1    2    0    0  0.00000000000E+00  0.00000000000E+00 -0.66315820165E+03  0.18254462937E+04  0.17007278944E+04 0.  0.
        2    1    3    3  502    0  0.58134847572E+03  0.41350927087E+03  0.16513480648E+03  0.73227417792E+03  0.25500000920E-02 0. -1.
       -2    1    3    3    0  502 -0.58134847572E+03 -0.41350927087E+03 -0.82829300814E+03  0.10931721158E+04  0.25500000920E-02 0.  1.
</event>
<event>
 5   0  0.1435301E-05  0.1701900E+04  0.7818609E-02  0.8760281E-01
       -2   -1    0    0    0  501  0.00000000000E+00  0.00000000000E+00  0.14743122065E+04  0.14743122065E+04  0.25500000920E-02 0. -1.
        2   -1    0    0  501    0  0.00000000000E+00  0.00000000000E+00 -0.49115532573E+03  0.49115532574E+03  0.25500000920E-02 0.  1.
    10030    2    1    2    0    0  0.00000000000E+00  0.00000000000E+00  0.98315688072E+03  0.19654675322E+04  0.17019004577E+04 0.  0.
        2    1    3    3  502    0 -0.85114471416E+02 -0.82044693555E+03  0.25005216735E+03  0.86191863520E+03  0.25500000920E-02 0. -1.
       -2    1    3    3    0  502  0.85114471416E+02  0.82044693555E+03  0.73310471337E+03  0.11035488970E+04  0.25500000920E-02 0.  1.
</event>
<event>
 5   0  0.1435301E-05  0.1699319E+04  0.7818609E-02  0.8761753E-01
       -2   -1    0    0    0  501  0.00000000000E+00  0.00000000000E+00  0.44960034463E+03  0.44960034463E+03  0.25500000920E-02 0.  1.
        2   -1    0    0  501    0  0.00000000000E+00  0.00000000000E+00 -0.16056948937E+04  0.16056948937E+04  0.25500000920E-02 0. -1.
    10030    2    1    2    0    0  0.00000000000E+00  0.00000000000E+00 -0.11560945490E+04  0.20552952383E+04  0.16993186606E+04 0.  0.
        2    1    3    3  502    0  0.83555902600E+02  0.38005582308E+03  0.33548954674E+03  0.51378716751E+03  0.25500000920E-02 0.  1.
       -2    1    3    3    0  502 -0.83555902600E+02 -0.38005582308E+03 -0.14915840958E+04  0.15415080708E+04  0.25500000920E-02 0. -1.
</event>
<event>
 5   0  0.7476457E-06  0.1698827E+04  0.7818609E-02  0.8762033E-01
        1   -1    0    0  501    0  0.00000000000E+00  0.00000000000E+00  0.12513289822E+04  0.12513289822E+04  0.50400001928E-02 0.  1.
       -1   -1    0    0    0  501  0.00000000000E+00  0.00000000000E+00 -0.57658978961E+03  0.57658978963E+03  0.50400001928E-02 0. -1.
    10030    2    1    2    0    0  0.00000000000E+00  0.00000000000E+00  0.67473919254E+03  0.18279187718E+04  0.16988272597E+04 0.  0.
        2    1    3    3  502    0 -0.80597786078E+03 -0.11802003995E+03  0.78294257171E+02  0.81832697170E+03  0.25500000920E-02 0.  1.
       -2    1    3    3    0  502  0.80597786078E+03  0.11802003995E+03  0.59644493537E+03  0.10095918001E+04  0.25500000920E-02 0. -1.
</event>
<event>
 5   0  0.7455669E-06  0.1699494E+04  0.7818609E-02  0.8761653E-01
        1   -1    0    0  501    0  0.00000000000E+00  0.00000000000E+00  0.11448933380E+04  0.11448933380E+04  0.50400001928E-02 0.  1.
       -1   -1    0    0    0  501  0.00000000000E+00  0.00000000000E+00 -0.63068730126E+03  0.63068730128E+03  0.50400001928E-02 0. -1.
    10030    2    1    2    0    0  0.00000000000E+00  0.00000000000E+00  0.51420603674E+03  0.17755806393E+04  0.16994936771E+04 0.  0.
        4    1    3    3  502    0 -0.27468550960E+03 -0.53192106704E+03 -0.37295149125E+03  0.70532728465E+03  0.12699999809E+01 0. -1.
       -4    1    3    3    0  502  0.27468550960E+03  0.53192106704E+03  0.88715752800E+03  0.10702533546E+04  0.12699999809E+01 0.  1.
</event>
<event>
 5   0  0.7461128E-06  0.1699979E+04  0.7818609E-02  0.8761376E-01
       -1   -1    0    0    0  501  0.00000000000E+00  0.00000000000E+00  0.73503081894E+03  0.73503081896E+03  0.50400001928E-02 0. -1.
        1   -1    0    0  501    0  0.00000000000E+00  0.00000000000E+00 -0.98292765581E+03  0.98292765582E+03  0.50400001928E-02 0.  1.
    10030    2    1    2    0    0  0.00000000000E+00  0.00000000000E+00 -0.24789683687E+03  0.17179584748E+04  0.16999789644E+04 0.  0.
        3    1    3    3  502    0  0.78272384617E+03 -0.31994745079E+03 -0.21122804568E+03  0.87157345537E+03  0.10100000352E+00 0.  1.
       -3    1    3    3    0  502 -0.78272384617E+03  0.31994745079E+03 -0.36668791186E+02  0.84638501941E+03  0.10100000352E+00 0. -1.
</event>
<event>
 5   0  0.1441756E-05  0.1700340E+04  0.7818609E-02  0.8761171E-01
       -2   -1    0    0    0  501  0.00000000000E+00  0.00000000000E+00  0.14006155044E+04  0.14006155044E+04  0.25500000920E-02 0.  1.
        2   -1    0    0  501    0  0.00000000000E+00  0.00000000000E+00 -0.51605078647E+03  0.51605078648E+03  0.25500000920E-02 0. -1.
    10030    2    1    2    0    0  0.00000000000E+00  0.00000000000E+00  0.88456471792E+03  0.19166662909E+04  0.17003396515E+04 0.  0.
        5    1    3    3  502    0  0.25045942358E+03  0.15077441539E+03 -0.45759655331E+03  0.54302812339E+03  0.46999998093E+01 0. -1.
       -5    1    3    3    0  502 -0.25045942358E+03 -0.15077441539E+03  0.13421612712E+04  0.13736381675E+04  0.46999998093E+01 0.  1.
</event>
<event>
 5   0  0.7455669E-06  0.1699370E+04  0.7818609E-02  0.8761724E-01
        1   -1    0    0  501    0  0.00000000000E+00  0.00000000000E+00  0.11536254280E+04  0.11536254280E+04  0.50400001928E-02 0. -1.
       -1   -1    0    0    0  501  0.00000000000E+00  0.00000000000E+00 -0.62582260770E+03  0.62582260772E+03  0.50400001928E-02 0.  1.
    10030    2    1    2    0    0  0.00000000000E+00  0.00000000000E+00  0.52780282029E+03  0.17794480357E+04  0.16993703230E+04 0.  0.
        4    1    3    3  502    0  0.33311020865E+03 -0.70328243358E+03 -0.93341668896E+02  0.78376199994E+03  0.12699999809E+01 0.  1.
       -4    1    3    3    0  502 -0.33311020865E+03  0.70328243358E+03  0.62114448919E+03  0.99568603578E+03  0.12699999809E+01 0. -1.
</event>
<event>
 5   0  0.1441756E-05  0.1698896E+04  0.7818609E-02  0.8761994E-01
        2   -1    0    0  501    0  0.00000000000E+00  0.00000000000E+00  0.47617476914E+03  0.47617476915E+03  0.25500000920E-02 0. -1.
       -2   -1    0    0    0  501  0.00000000000E+00  0.00000000000E+00 -0.15153297456E+04  0.15153297456E+04  0.25500000920E-02 0.  1.
    10030    2    1    2    0    0  0.00000000000E+00  0.00000000000E+00 -0.10391549764E+04  0.19915045147E+04  0.16988958671E+04 0.  0.
        5    1    3    3  502    0  0.48543848995E+03 -0.64918409551E+03 -0.22198412036E+03  0.84046984305E+03  0.46999998093E+01 0.  1.
       -5    1    3    3    0  502 -0.48543848995E+03  0.64918409551E+03 -0.81717085609E+03  0.11510346717E+04  0.46999998093E+01 0. -1.
</event>
<event>
 5   0  0.7455669E-06  0.1699924E+04  0.7818609E-02  0.8761408E-01
       -1   -1    0    0    0  501  0.00000000000E+00  0.00000000000E+00  0.62038596640E+03  0.62038596642E+03  0.50400001928E-02 0. -1.
        1   -1    0    0  501    0  0.00000000000E+00  0.00000000000E+00 -0.11644933570E+04  0.11644933570E+04  0.50400001928E-02 0.  1.
    10030    2    1    2    0    0  0.00000000000E+00  0.00000000000E+00 -0.54410739063E+03  0.17848793235E+04  0.16999239238E+04 0.  0.
        4    1    3    3  502    0 -0.53992066077E+02  0.51199190286E+03 -0.98215338231E+03  0.11089083511E+04  0.12699999809E+01 0.  1.
       -4    1    3    3    0  502  0.53992066077E+02 -0.51199190286E+03  0.43804599168E+03  0.67597097239E+03  0.12699999809E+01 0. -1.
</event>
<event>
 5   0  0.7583716E-06  0.1699460E+04  0.7818609E-02  0.8761673E-01
       -1   -1    0    0    0  501  0.00000000000E+00  0.00000000000E+00  0.10618694184E+04  0.10618694184E+04  0.50400001928E-02 0. -1.
        1   -1    0    0  501    0  0.00000000000E+00  0.00000000000E+00 -0.67997131844E+03  0.67997131846E+03  0.50400001928E-02 0.  1.
    10030    2    1    2    0    0  0.00000000000E+00  0.00000000000E+00  0.38189809998E+03  0.17418407369E+04  0.16994596182E+04 0.  0.
        5    1    3    3  502    0 -0.10212235551E+03 -0.78634063148E+03  0.50394654512E+03  0.93954498272E+03  0.46999998093E+01 0. -1.
       -5    1    3    3    0  502  0.10212235551E+03  0.78634063148E+03 -0.12204844515E+03  0.80229575418E+03  0.46999998093E+01 0.  1.
</event>
<event>
 5   0  0.7461128E-06  0.1710097E+04  0.7818609E-02  0.8755627E-01
       -1   -1    0    0    0  501  0.00000000000E+00  0.00000000000E+00  0.12074652661E+04  0.12074652661E+04  0.50400001928E-02 0. -1.
        1   -1    0    0  501    0  0.00000000000E+00  0.00000000000E+00 -0.60548977966E+03  0.60548977969E+03  0.50400001928E-02 0.  1.
    10030    2    1    2    0    0  0.00000000000E+00  0.00000000000E+00  0.60197548644E+03  0.18129550458E+04  0.17100969305E+04 0.  0.
        3    1    3    3  502    0 -0.51733884722E+02  0.19834923360E+03  0.11810309274E+04  0.11986879807E+04  0.10100000352E+00 0. -1.
       -3    1    3    3    0  502  0.51733884722E+02 -0.19834923360E+03 -0.57905544101E+03  0.61426706509E+03  0.10100000352E+00 0.  1.
</event>
<event>
 5   0  0.7082527E-06  0.1699813E+04  0.7818609E-02  0.8761471E-01
       -1   -1    0    0    0  501  0.00000000000E+00  0.00000000000E+00  0.33030003308E+03  0.33030003312E+03  0.50400001928E-02 0.  1.
        1   -1    0    0  501    0  0.00000000000E+00  0.00000000000E+00 -0.21869243995E+04  0.21869243995E+04  0.50400001928E-02 0. -1.
    10030    2    1    2    0    0  0.00000000000E+00  0.00000000000E+00 -0.18566243664E+04  0.25172244326E+04  0.16998131680E+04 0.  0.
        1    1    3    3  502    0 -0.75540295752E+03 -0.64969184669E+02 -0.35959415009E+03  0.83914395427E+03  0.50400001928E-02 0.  1.
       -1    1    3    3    0  502  0.75540295752E+03  0.64969184669E+02 -0.14970302163E+04  0.16780804783E+04  0.50400001928E-02 0. -1.
</event>
<event>
 5   0  0.1419012E-05  0.1699571E+04  0.7818609E-02  0.8761609E-01
        2   -1    0    0  501    0  0.00000000000E+00  0.00000000000E+00  0.16308990947E+04  0.16308990947E+04  0.25500000920E-02 0.  1.
       -2   -1    0    0    0  501  0.00000000000E+00  0.00000000000E+00 -0.44278351694E+03  0.44278351695E+03  0.25500000920E-02 0. -1.
    10030    2    1    2    0    0  0.00000000000E+00  0.00000000000E+00  0.11881155777E+04  0.20736826116E+04  0.16995708128E+04 0.  0.
        4    1    3    3  502    0  0.31382308286E+03  0.78969558590E+03  0.60069353299E+03  0.10406432526E+04  0.12699999809E+01 0.  1.
       -4    1    3    3    0  502 -0.31382308286E+03 -0.78969558590E+03  0.58742204475E+03  0.10330393590E+04  0.12699999809E+01 0. -1.
</event>
<event>
 5   0  0.1435301E-05  0.1700295E+04  0.7818609E-02  0.8761196E-01
       -2   -1    0    0    0  501  0.00000000000E+00  0.00000000000E+00  0.93175339182E+03  0.93175339183E+03  0.25500000920E-02 0.  1.
        2   -1    0    0  501    0  0.00000000000E+00  0.00000000000E+00 -0.77568851867E+03  0.77568851868E+03  0.25500000920E-02 0. -1.
    10030    2    1    2    0    0  0.00000000000E+00  0.00000000000E+00  0.15606487315E+03  0.17074419105E+04  0.17002945725E+04 0.  0.
        2    1    3    3  502    0  0.73413057028E+03  0.51639421164E+01  0.50852556395E+03  0.89306920769E+03  0.25500000920E-02 0.  1.
       -2    1    3    3    0  502 -0.73413057028E+03 -0.51639421164E+01 -0.35246069080E+03  0.81437270282E+03  0.25500000920E-02 0. -1.
</event>
<event>
 5   0  0.7461128E-06  0.1700270E+04  0.7818609E-02  0.8761211E-01
       -1   -1    0    0    0  501  0.00000000000E+00  0.00000000000E+00  0.12240476270E+04  0.12240476271E+04  0.50400001928E-02 0. -1.
        1   -1    0    0  501    0  0.00000000000E+00  0.00000000000E+00 -0.59044209470E+03  0.59044209472E+03  0.50400001928E-02 0.  1.
    10030    2    1    2    0    0  0.00000000000E+00  0.00000000000E+00  0.63360553234E+03  0.18144897218E+04  0.17002696786E+04 0.  0.
        3    1    3    3  502    0  0.22782904153E+03  0.29022175765E+03 -0.50054276711E+03  0.62183423248E+03  0.10100000352E+00 0.  1.
       -3    1    3    3    0  502 -0.22782904153E+03 -0.29022175765E+03  0.11341482995E+04  0.11926554893E+04  0.10100000352E+00 0. -1.
</event>
<event>
 5   0  0.1423543E-05  0.1696047E+04  0.7818609E-02  0.8763622E-01
       -2   -1    0    0    0  501  0.00000000000E+00  0.00000000000E+00  0.11610671534E+04  0.11610671534E+04  0.25500000920E-02 0. -1.
        2   -1    0    0  501    0  0.00000000000E+00  0.00000000000E+00 -0.61938199915E+03  0.61938199916E+03  0.25500000920E-02 0.  1.
    10030    2    1    2    0    0  0.00000000000E+00  0.00000000000E+00  0.54168515425E+03  0.17804491526E+04  0.16960472808E+04 0.  0.
        3    1    3    3  502    0 -0.67854482247E+03 -0.43617852415E+03 -0.38453519192E+01  0.80665331956E+03  0.10100000352E+00 0.  1.
       -3    1    3    3    0  502  0.67854482247E+03  0.43617852415E+03  0.54553050617E+03  0.97379583301E+03  0.10100000352E+00 0. -1.
</event>
<event>
 5   0  0.7082527E-06  0.1699008E+04  0.7818609E-02  0.8761930E-01
       -1   -1    0    0    0  501  0.00000000000E+00  0.00000000000E+00  0.68729183125E+03  0.68729183127E+03  0.50400001928E-02 0.  1.
        1   -1    0    0  501    0  0.00000000000E+00  0.00000000000E+00 -0.10500014350E+04  0.10500014350E+04  0.50400001928E-02 0. -1.
    10030    2    1    2    0    0  0.00000000000E+00  0.00000000000E+00 -0.36270960374E+03  0.17372932663E+04  0.16990084274E+04 0.  0.
        1    1    3    3  502    0  0.68859757381E+03 -0.43037555445E+03 -0.43651264343E+03  0.92191812241E+03  0.50400001928E-02 0.  1.
       -1    1    3    3    0  502 -0.68859757381E+03  0.43037555445E+03  0.73803039695E+02  0.81537514386E+03  0.50400001928E-02 0. -1.
</event>
<event>
 5   0  0.7455669E-06  0.1694499E+04  0.7818609E-02  0.8764508E-01
       -1   -1    0    0    0  501  0.00000000000E+00  0.00000000000E+00  0.77097017242E+03  0.77097017244E+03  0.50400001928E-02 0. -1.
        1   -1    0    0  501    0  0.00000000000E+00  0.00000000000E+00 -0.93107559383E+03  0.93107559384E+03  0.50400001928E-02 0.  1.
    10030    2    1    2    0    0  0.00000000000E+00  0.00000000000E+00 -0.16010542140E+03  0.17020457663E+04  0.16944987591E+04 0.  0.
        4    1    3    3  502    0 -0.70249952230E+03  0.37367111592E+03  0.21226616251E+03  0.82352548130E+03  0.12699999809E+01 0.  1.
       -4    1    3    3    0  502  0.70249952230E+03 -0.37367111592E+03 -0.37237158392E+03  0.87852028498E+03  0.12699999809E+01 0. -1.
</event>
<event>
 5   0  0.7583716E-06  0.1697621E+04  0.7818609E-02  0.8762722E-01
       -1   -1    0    0    0  501  0.00000000000E+00  0.00000000000E+00  0.10444372311E+04  0.10444372311E+04  0.50400001928E-02 0.  1.
        1   -1    0    0  501    0  0.00000000000E+00  0.00000000000E+00 -0.68982563964E+03  0.68982563966E+03  0.50400001928E-02 0. -1.
    10030    2    1    2    0    0  0.00000000000E+00  0.00000000000E+00  0.35461159142E+03  0.17342628707E+04  0.16976213724E+04 0.  0.
        5    1    3    3  502    0 -0.65747997958E+03  0.49873512849E+03  0.38018949962E+03  0.90861586909E+03  0.46999998093E+01 0.  1.
       -5    1    3    3    0  502  0.65747997958E+03 -0.49873512849E+03 -0.25577908207E+02  0.82564700164E+03  0.46999998093E+01 0. -1.
</event>
<event>
 5   0  0.1423543E-05  0.1699947E+04  0.7818609E-02  0.8761394E-01
        2   -1    0    0  501    0  0.00000000000E+00  0.00000000000E+00  0.78825893554E+03  0.78825893555E+03  0.25500000920E-02 0. -1.
       -2   -1    0    0    0  501  0.00000000000E+00  0.00000000000E+00 -0.91652016445E+03  0.91652016445E+03  0.25500000920E-02 0.  1.
    10030    2    1    2    0    0  0.00000000000E+00  0.00000000000E+00 -0.12826122890E+03  0.17047791000E+04  0.16999473042E+04 0.  0.
        3    1    3    3  502    0  0.75285587136E+03 -0.29663745896E+02 -0.45867394065E+03  0.88207352012E+03  0.10100000352E+00 0.  1.
       -3    1    3    3    0  502 -0.75285587136E+03  0.29663745896E+02  0.33041271175E+03  0.82270557987E+03  0.10100000352E+00 0. -1.
</event>
<event>
 5   0  0.7082527E-06  0.1695953E+04  0.7818609E-02  0.8763676E-01
        1   -1    0    0  501    0  0.00000000000E+00  0.00000000000E+00  0.14956016224E+04  0.14956016224E+04  0.50400001928E-02 0. -1.
       -1   -1    0    0    0  501  0.00000000000E+00  0.00000000000E+00 -0.48078605457E+03  0.48078605460E+03  0.50400001928E-02 0.  1.
    10030    2    1    2    0    0  0.00000000000E+00  0.00000000000E+00  0.10148155679E+04  0.19763876770E+04  0.16959533051E+04 0.  0.
        1    1    3    3  502    0 -0.15031072633E+03  0.72500776725E+03  0.25741273051E+02  0.74087258701E+03  0.50400001928E-02 0.  1.
       -1    1    3    3    0  502  0.15031072633E+03 -0.72500776725E+03  0.98907429480E+03  0.12355150900E+04  0.50400001928E-02 0. -1.
</event>
<event>
 5   0  0.1374441E-05  0.1698509E+04  0.7818609E-02  0.8762215E-01
       -2   -1    0    0    0  501  0.00000000000E+00  0.00000000000E+00  0.57109657836E+03  0.57109657837E+03  0.25500000920E-02 0.  1.
        2   -1    0    0  501    0  0.00000000000E+00  0.00000000000E+00 -0.12628914283E+04  0.12628914283E+04  0.25500000920E-02 0. -1.
    10030    2    1    2    0    0  0.00000000000E+00  0.00000000000E+00 -0.69179484990E+03  0.18339880066E+04  0.16985087265E+04 0.  0.
        1    1    3    3  502    0 -0.44690759812E+03 -0.59921446707E+03  0.89300371903E+02  0.75283393604E+03  0.50400001928E-02 0. -1.
       -1    1    3    3    0  502  0.44690759812E+03  0.59921446707E+03 -0.78109522180E+03  0.10811540706E+04  0.50400001928E-02 0.  1.
</event>
<event>
 5   0  0.7455669E-06  0.1699995E+04  0.7818609E-02  0.8761367E-01
       -1   -1    0    0    0  501  0.00000000000E+00  0.00000000000E+00  0.44777715706E+03  0.44777715709E+03  0.50400001928E-02 0. -1.
        1   -1    0    0  501    0  0.00000000000E+00  0.00000000000E+00 -0.16135167892E+04  0.16135167892E+04  0.50400001928E-02 0.  1.
    10030    2    1    2    0    0  0.00000000000E+00  0.00000000000E+00 -0.11657396321E+04  0.20612939463E+04  0.16999952480E+04 0.  0.
        4    1    3    3  502    0  0.48681976005E+03 -0.51797700481E+03 -0.17773049510E+02  0.71106339413E+03  0.12699999809E+01 0. -1.
       -4    1    3    3    0  502 -0.48681976005E+03  0.51797700481E+03 -0.11479665826E+04  0.13502305522E+04  0.12699999809E+01 0.  1.
</event>
<event>
 5   0  0.7583716E-06  0.1699291E+04  0.7818609E-02  0.8761769E-01
        1   -1    0    0  501    0  0.00000000000E+00  0.00000000000E+00  0.97764587972E+03  0.97764587973E+03  0.50400001928E-02 0.  1.
       -1   -1    0    0    0  501  0.00000000000E+00  0.00000000000E+00 -0.73840371284E+03  0.73840371286E+03  0.50400001928E-02 0. -1.
    10030    2    1    2    0    0  0.00000000000E+00  0.00000000000E+00  0.23924216687E+03  0.17160495926E+04  0.16992908491E+04 0.  0.
        5    1    3    3  502    0 -0.80039282092E+03 -0.27898850805E+03  0.17860950253E+03  0.86624863625E+03  0.46999998093E+01 0.  1.
       -5    1    3    3    0  502  0.80039282092E+03  0.27898850805E+03  0.60632664348E+02  0.84980095634E+03  0.46999998093E+01 0. -1.
</event>
<event>
 5   0  0.7476457E-06  0.1703654E+04  0.7818609E-02  0.8759283E-01
       -1   -1    0    0    0  501  0.00000000000E+00  0.00000000000E+00  0.34553681402E+03  0.34553681406E+03  0.50400001928E-02 0. -1.
        1   -1    0    0  501    0  0.00000000000E+00  0.00000000000E+00 -0.20999480536E+04  0.20999480536E+04  0.50400001928E-02 0.  1.
    10030    2    1    2    0    0  0.00000000000E+00  0.00000000000E+00 -0.17544112396E+04  0.24454848677E+04  0.17036541434E+04 0.  0.
        2    1    3    3  502    0  0.54754643097E+03  0.92264674787E+02  0.50055974332E+02  0.55751723279E+03  0.25500000920E-02 0. -1.
       -2    1    3    3    0  502 -0.54754643097E+03 -0.92264674787E+02 -0.18044672140E+04  0.18879676349E+04  0.25500000920E-02 0.  1.
</event>
<event>
 5   0  0.7476457E-06  0.1693649E+04  0.7818609E-02  0.8764995E-01
       -1   -1    0    0    0  501  0.00000000000E+00  0.00000000000E+00  0.12004516723E+04  0.12004516723E+04  0.50400001928E-02 0. -1.
        1   -1    0    0  501    0  0.00000000000E+00  0.00000000000E+00 -0.59736850471E+03  0.59736850473E+03  0.50400001928E-02 0.  1.
    10030    2    1    2    0    0  0.00000000000E+00  0.00000000000E+00  0.60308316757E+03  0.17978201770E+04  0.16936493385E+04 0.  0.
        2    1    3    3  502    0 -0.67851088713E+03  0.49559915349E+03  0.18962194175E+03  0.86136637135E+03  0.25500000920E-02 0.  1.
       -2    1    3    3    0  502  0.67851088713E+03 -0.49559915349E+03  0.41346122582E+03  0.93645380567E+03  0.25500000920E-02 0. -1.
</event>
<event>
 5   0  0.7583716E-06  0.1700094E+04  0.7818609E-02  0.8761311E-01
        1   -1    0    0  501    0  0.00000000000E+00  0.00000000000E+00  0.51205061976E+03  0.51205061978E+03  0.50400001928E-02 0.  1.
       -1   -1    0    0    0  501  0.00000000000E+00  0.00000000000E+00 -0.14111496384E+04  0.14111496384E+04  0.50400001928E-02 0. -1.
    10030    2    1    2    0    0  0.00000000000E+00  0.00000000000E+00 -0.89909901861E+03  0.19232002582E+04  0.17000941703E+04 0.  0.
        5    1    3    3  502    0 -0.62132170888E+03  0.40304214406E+03 -0.92152439022E+03  0.11822490971E+04  0.46999998093E+01 0. -1.
       -5    1    3    3    0  502  0.62132170888E+03 -0.40304214406E+03  0.22425371607E+02  0.74095116107E+03  0.46999998093E+01 0.  1.
</event>
<event>
 5   0  0.1435301E-05  0.1699331E+04  0.7818609E-02  0.8761746E-01
       -2   -1    0    0    0  501  0.00000000000E+00  0.00000000000E+00  0.83332824697E+03  0.83332824697E+03  0.25500000920E-02 0.  1.
        2   -1    0    0  501    0  0.00000000000E+00  0.00000000000E+00 -0.86632310821E+03  0.86632310821E+03  0.25500000920E-02 0. -1.
    10030    2    1    2    0    0  0.00000000000E+00  0.00000000000E+00 -0.32994861242E+02  0.16996513552E+04  0.16993310650E+04 0.  0.
        2    1    3    3  502    0 -0.80326587162E+03 -0.13631323936E+02 -0.29315333131E+03  0.85519632201E+03  0.25500000920E-02 0. -1.
       -2    1    3    3    0  502  0.80326587162E+03  0.13631323936E+02  0.26015847007E+03  0.84445503318E+03  0.25500000920E-02 0.  1.
</event>
<event>
 5   0  0.7082527E-06  0.1699858E+04  0.7818609E-02  0.8761445E-01
        1   -1    0    0  501    0  0.00000000000E+00  0.00000000000E+00  0.11910204299E+04  0.11910204299E+04  0.50400001928E-02 0. -1.
       -1   -1    0    0    0  501  0.00000000000E+00  0.00000000000E+00 -0.60652161653E+03  0.60652161655E+03  0.50400001928E-02 0.  1.
    10030    2    1    2    0    0  0.00000000000E+00  0.00000000000E+00  0.58449881333E+03  0.17975420464E+04  0.16998583899E+04 0.  0.
        1    1    3    3  502    0  0.13173953251E+03  0.63847016931E+01 -0.59563373842E+03  0.61006197981E+03  0.50400001928E-02 0.  1.
       -1    1    3    3    0  502 -0.13173953251E+03 -0.63847016931E+01  0.11801325517E+04  0.11874800666E+04  0.50400001928E-02 0. -1.
</event>
<event>
 5   0  0.7082527E-06  0.1699704E+04  0.7818609E-02  0.8761533E-01
        1   -1    0    0  501    0  0.00000000000E+00  0.00000000000E+00  0.10156313876E+04  0.10156313876E+04  0.50400001928E-02 0.  1.
       -1   -1    0    0    0  501  0.00000000000E+00  0.00000000000E+00 -0.71113269021E+03  0.71113269023E+03  0.50400001928E-02 0. -1.
    10030    2    1    2    0    0  0.00000000000E+00  0.00000000000E+00  0.30449869736E+03  0.17267640778E+04  0.16997043048E+04 0.  0.
        1    1    3    3  502    0  0.21668517413E+03 -0.45270995201E+03 -0.54448972410E+03  0.74051861895E+03  0.50400001928E-02 0. -1.
       -1    1    3    3    0  502 -0.21668517413E+03  0.45270995201E+03  0.84898842146E+03  0.98624545887E+03  0.50400001928E-02 0.  1.
</event>
<event>
 5   0  0.7082527E-06  0.1699237E+04  0.7818609E-02  0.8761800E-01
        1   -1    0    0  501    0  0.00000000000E+00  0.00000000000E+00  0.26167742457E+03  0.26167742462E+03  0.50400001928E-02 0.  1.
       -1   -1    0    0    0  501  0.00000000000E+00  0.00000000000E+00 -0.27585542832E+04  0.27585542832E+04  0.50400001928E-02 0. -1.
    10030    2    1    2    0    0  0.00000000000E+00  0.00000000000E+00 -0.24968768586E+04  0.30202317078E+04  0.16992367468E+04 0.  0.
        1    1    3    3  502    0  0.28534200597E+03 -0.90711601582E+02 -0.26616739780E+04  0.26784616892E+04  0.50400001928E-02 0. -1.
       -1    1    3    3    0  502 -0.28534200597E+03  0.90711601582E+02  0.16479711942E+03  0.34177001862E+03  0.50400001928E-02 0.  1.
</event>
<event>
 5   0  0.1419012E-05  0.1700193E+04  0.7818609E-02  0.8761255E-01
       -2   -1    0    0    0  501  0.00000000000E+00  0.00000000000E+00  0.46372901738E+03  0.46372901738E+03  0.25500000920E-02 0. -1.
        2   -1    0    0  501    0  0.00000000000E+00  0.00000000000E+00 -0.15583749313E+04  0.15583749313E+04  0.25500000920E-02 0.  1.
    10030    2    1    2    0    0  0.00000000000E+00  0.00000000000E+00 -0.10946459140E+04  0.20221039487E+04  0.17001925486E+04 0.  0.
        4    1    3    3  502    0 -0.41684856532E+03 -0.10964419854E+03 -0.14187739415E+04  0.14828033203E+04  0.12699999809E+01 0.  1.
       -4    1    3    3    0  502  0.41684856532E+03  0.10964419854E+03  0.32412802754E+03  0.53930062843E+03  0.12699999809E+01 0. -1.
</event>
<event>
 5   0  0.7461128E-06  0.1700260E+04  0.7818609E-02  0.8761216E-01
       -1   -1    0    0    0  501  0.00000000000E+00  0.00000000000E+00  0.95916488648E+03  0.95916488650E+03  0.50400001928E-02 0. -1.
        1   -1    0    0  501    0  0.00000000000E+00  0.00000000000E+00 -0.75348983172E+03  0.75348983174E+03  0.50400001928E-02 0.  1.
    10030    2    1    2    0    0  0.00000000000E+00  0.00000000000E+00  0.20567505476E+03  0.17126547182E+04  0.17002599671E+04 0.  0.
        3    1    3    3  502    0  0.35026062045E+03  0.16452248346E+03 -0.65962892818E+03  0.76476171642E+03  0.10100000352E+00 0. -1.
       -3    1    3    3    0  502 -0.35026062045E+03 -0.16452248346E+03  0.86530398294E+03  0.94789300182E+03  0.10100000352E+00 0.  1.
</event>
<event>
 5   0  0.1419012E-05  0.1700064E+04  0.7818609E-02  0.8761328E-01
        2   -1    0    0  501    0  0.00000000000E+00  0.00000000000E+00  0.12682686501E+04  0.12682686501E+04  0.25500000920E-02 0. -1.
       -2   -1    0    0    0  501  0.00000000000E+00  0.00000000000E+00 -0.56971717190E+03  0.56971717190E+03  0.25500000920E-02 0.  1.
    10030    2    1    2    0    0  0.00000000000E+00  0.00000000000E+00  0.69855147823E+03  0.18379858220E+04  0.17000640324E+04 0.  0.
        4    1    3    3  502    0 -0.49921113745E+02 -0.53896032555E+03 -0.35932263393E+03  0.64968047398E+03  0.12699999809E+01 0.  1.
       -4    1    3    3    0  502  0.49921113745E+02  0.53896032555E+03  0.10578741122E+04  0.11883053480E+04  0.12699999809E+01 0. -1.
</event>
<event>
 5   0  0.1423543E-05  0.1701266E+04  0.7818609E-02  0.8760642E-01
       -2   -1    0    0    0  501  0.00000000000E+00  0.00000000000E+00  0.68706922757E+03  0.68706922758E+03  0.25500000920E-02 0. -1.
        2   -1    0    0  501    0  0.00000000000E+00  0.00000000000E+00 -0.10531352685E+04  0.10531352685E+04  0.25500000920E-02 0.  1.
    10030    2    1    2    0    0  0.00000000000E+00  0.00000000000E+00 -0.36606604090E+03  0.17402044961E+04  0.17012663935E+04 0.  0.
        3    1    3    3  502    0  0.14211767867E+03  0.55043912645E+03  0.46421825427E+03  0.73394772588E+03  0.10100000352E+00 0. -1.
       -3    1    3    3    0  502 -0.14211767867E+03 -0.55043912645E+03 -0.83028429517E+03  0.10062567702E+04  0.10100000352E+00 0.  1.
</event>
<event>
 5   0  0.1374441E-05  0.1699991E+04  0.7818609E-02  0.8761369E-01
       -2   -1    0    0    0  501  0.00000000000E+00  0.00000000000E+00  0.48864332274E+03  0.48864332274E+03  0.25500000920E-02 0.  1.
        2   -1    0    0  501    0  0.00000000000E+00  0.00000000000E+00 -0.14785685696E+04  0.14785685696E+04  0.25500000920E-02 0. -1.
    10030    2    1    2    0    0  0.00000000000E+00  0.00000000000E+00 -0.98992524684E+03  0.19672118923E+04  0.16999913632E+04 0.  0.
        1    1    3    3  502    0 -0.30007496543E+03 -0.69648706023E+03 -0.50756461542E+02  0.76007593591E+03  0.50400001928E-02 0.  1.
       -1    1    3    3    0  502  0.30007496543E+03  0.69648706023E+03 -0.93916878530E+03  0.12071359564E+04  0.50400001928E-02 0. -1.
</event>
<event>
 5   0  0.1419012E-05  0.1702359E+04  0.7818609E-02  0.8760020E-01
        2   -1    0    0  501    0  0.00000000000E+00  0.00000000000E+00  0.11509378135E+04  0.11509378135E+04  0.25500000920E-02 0. -1.
       -2   -1    0    0    0  501  0.00000000000E+00  0.00000000000E+00 -0.62949217963E+03  0.62949217964E+03  0.25500000920E-02 0.  1.
    10030    2    1    2    0    0  0.00000000000E+00  0.00000000000E+00  0.52144563386E+03  0.17804299931E+04  0.17023587787E+04 0.  0.
        4    1    3    3  502    0  0.20189881986E+03 -0.15043370926E+03  0.11110990216E+04  0.11392699781E+04  0.12699999809E+01 0. -1.
       -4    1    3    3    0  502 -0.20189881986E+03  0.15043370926E+03 -0.58965338771E+03  0.64116001504E+03  0.12699999809E+01 0.  1.
</event>
<event>
 5   0  0.7461128E-06  0.1689978E+04  0.7818609E-02  0.8767101E-01
        1   -1    0    0  501    0  0.00000000000E+00  0.00000000000E+00  0.82236997700E+03  0.82236997702E+03  0.50400001928E-02 0.  1.
       -1   -1    0    0    0  501  0.00000000000E+00  0.00000000000E+00 -0.86823017817E+03  0.86823017819E+03  0.50400001928E-02 0. -1.
    10030    2    1    2    0    0  0.00000000000E+00  0.00000000000E+00 -0.45860201172E+02  0.16906001552E+04  0.16899780255E+04 0.  0.
        3    1    3    3  502    0 -0.39395796872E+03  0.17263711904E+03  0.70466148643E+03  0.82556300586E+03  0.10100000352E+00 0.  1.
       -3    1    3    3    0  502  0.39395796872E+03 -0.17263711904E+03 -0.75052168760E+03  0.86503714935E+03  0.10100000352E+00 0. -1.
</event>
<event>
 5   0  0.1423543E-05  0.1699423E+04  0.7818609E-02  0.8761693E-01
       -2   -1    0    0    0  501  0.00000000000E+00  0.00000000000E+00  0.18836372590E+04  0.18836372590E+04  0.25500000920E-02 0. -1.
        2   -1    0    0  501    0  0.00000000000E+00  0.00000000000E+00 -0.38330628669E+03  0.38330628670E+03  0.25500000920E-02 0.  1.
    10030    2    1    2    0    0  0.00000000000E+00  0.00000000000E+00  0.15003309723E+04  0.22669435457E+04  0.16994234354E+04 0.  0.
        3    1    3    3  502    0  0.12602112904E+03  0.83917539008E+03  0.69181636039E+03  0.10948545780E+04  0.10100000352E+00 0.  1.
       -3    1    3    3    0  502 -0.12602112904E+03 -0.83917539008E+03  0.80851461190E+03  0.11720889677E+04  0.10100000352E+00 0. -1.
</event>
<event>
 5   0  0.7082527E-06  0.1699748E+04  0.7818609E-02  0.8761508E-01
       -1   -1    0    0    0  501  0.00000000000E+00  0.00000000000E+00  0.11465917445E+04  0.11465917445E+04  0.50400001928E-02 0.  1.
        1   -1    0    0  501    0  0.00000000000E+00  0.00000000000E+00 -0.62994194435E+03  0.62994194437E+03  0.50400001928E-02 0. -1.
    10030    2    1    2    0    0  0.00000000000E+00  0.00000000000E+00  0.51664980016E+03  0.17765336889E+04  0.16997484907E+04 0.  0.
        1    1    3    3  502    0 -0.14089746663E+03 -0.82988913953E+03  0.38074045422E+03  0.92386761688E+03  0.50400001928E-02 0.  1.
       -1    1    3    3    0  502  0.14089746663E+03  0.82988913953E+03  0.13590934594E+03  0.85266607201E+03  0.50400001928E-02 0. -1.
</event>
<event>
 5   0  0.1419012E-05  0.1699672E+04  0.7818609E-02  0.8761552E-01
       -2   -1    0    0    0  501  0.00000000000E+00  0.00000000000E+00  0.67119732140E+03  0.67119732140E+03  0.25500000920E-02 0. -1.
        2   -1    0    0  501    0  0.00000000000E+00  0.00000000000E+00 -0.10760188851E+04  0.10760188851E+04  0.25500000920E-02 0.  1.
    10030    2    1    2    0    0  0.00000000000E+00  0.00000000000E+00 -0.40482156370E+03  0.17472162065E+04  0.16996717253E+04 0.  0.
        4    1    3    3  502    0 -0.36713314633E+03  0.46379643793E+03 -0.82966413100E+03  0.10189396774E+04  0.12699999809E+01 0.  1.
       -4    1    3    3    0  502  0.36713314633E+03 -0.46379643793E+03  0.42484256731E+03  0.72827652912E+03  0.12699999809E+01 0. -1.
</event>
<event>
 5   0  0.1435301E-05  0.1698653E+04  0.7818609E-02  0.8762133E-01
        2   -1    0    0  501    0  0.00000000000E+00  0.00000000000E+00  0.10565814669E+04  0.10565814669E+04  0.25500000920E-02 0.  1.
       -2   -1    0    0    0  501  0.00000000000E+00  0.00000000000E+00 -0.68272608997E+03  0.68272608997E+03  0.25500000920E-02 0. -1.
    10030    2    1    2    0    0  0.00000000000E+00  0.00000000000E+00  0.37385537689E+03  0.17393075568E+04  0.16986532708E+04 0.  0.
        2    1    3    3  502    0 -0.55242827433E+03  0.49188025354E+03 -0.24047405800E+03  0.77778593114E+03  0.25500000920E-02 0. -1.
       -2    1    3    3    0  502  0.55242827433E+03 -0.49188025354E+03  0.61432943489E+03  0.96152162569E+03  0.25500000920E-02 0.  1.
</event>
<event>
 5   0  0.1374441E-05  0.1696326E+04  0.7818609E-02  0.8763463E-01
        2   -1    0    0  501    0  0.00000000000E+00  0.00000000000E+00  0.71408406867E+03  0.71408406867E+03  0.25500000920E-02 0.  1.
       -2   -1    0    0    0  501  0.00000000000E+00  0.00000000000E+00 -0.10074166568E+04  0.10074166568E+04  0.25500000920E-02 0. -1.
    10030    2    1    2    0    0  0.00000000000E+00  0.00000000000E+00 -0.29333258815E+03  0.17215007255E+04  0.16963256588E+04 0.  0.
        1    1    3    3  502    0 -0.46032083193E+03  0.66411099753E+03 -0.40825421872E+03  0.90532325303E+03  0.50400001928E-02 0. -1.
       -1    1    3    3    0  502  0.46032083193E+03 -0.66411099753E+03  0.11492163057E+03  0.81617747246E+03  0.50400001928E-02 0.  1.
</event>
<event>
 5   0  0.1423543E-05  0.1698844E+04  0.7818609E-02  0.8762024E-01
       -2   -1    0    0    0  501  0.00000000000E+00  0.00000000000E+00  0.46878959255E+03  0.46878959256E+03  0.25500000920E-02 0.  1.
        2   -1    0    0  501    0  0.00000000000E+00  0.00000000000E+00 -0.15391076350E+04  0.15391076350E+04  0.25500000920E-02 0. -1.
    10030    2    1    2    0    0  0.00000000000E+00  0.00000000000E+00 -0.10703180425E+04  0.20078972276E+04  0.16988438906E+04 0.  0.
        3    1    3    3  502    0  0.99726235644E+02 -0.34038483240E+03  0.37707365717E+03  0.51767915676E+03  0.10100000352E+00 0.  1.
       -3    1    3    3    0  502 -0.99726235644E+02  0.34038483240E+03 -0.14473916996E+04  0.14902180708E+04  0.10100000352E+00 0. -1.
</event>
<event>
 5   0  0.1435301E-05  0.1699428E+04  0.7818609E-02  0.8761690E-01
       -2   -1    0    0    0  501  0.00000000000E+00  0.00000000000E+00  0.12471601752E+04  0.12471601752E+04  0.25500000920E-02 0.  1.
        2   -1    0    0  501    0  0.00000000000E+00  0.00000000000E+00 -0.57892666242E+03  0.57892666243E+03  0.25500000920E-02 0. -1.
    10030    2    1    2    0    0  0.00000000000E+00  0.00000000000E+00  0.66823351282E+03  0.18260868377E+04  0.16994284660E+04 0.  0.
        2    1    3    3  502    0 -0.42028553051E+03 -0.46051591738E+03  0.95446538981E+03  0.11400521995E+04  0.25500000920E-02 0. -1.
       -2    1    3    3    0  502  0.42028553051E+03  0.46051591738E+03 -0.28623187698E+03  0.68603463814E+03  0.25500000920E-02 0.  1.
</event>
<event>
 5   0  0.7476457E-06  0.1701562E+04  0.7818609E-02  0.8760474E-01
        1   -1    0    0  501    0  0.00000000000E+00  0.00000000000E+00  0.46834113667E+03  0.46834113670E+03  0.50400001928E-02 0.  1.
       -1   -1    0    0    0  501  0.00000000000E+00  0.00000000000E+00 -0.15455153767E+04  0.15455153767E+04  0.50400001928E-02 0. -1.
    10030    2    1    2    0    0  0.00000000000E+00  0.00000000000E+00 -0.10771742401E+04  0.20138565134E+04  0.17015621391E+04 0.  0.
        2    1    3    3  502    0  0.52058343730E+03 -0.16592253599E+03  0.23324672640E+03  0.59408874634E+03  0.25500000920E-02 0.  1.
       -2    1    3    3    0  502 -0.52058343730E+03  0.16592253599E+03 -0.13104209665E+04  0.14197677671E+04  0.25500000920E-02 0. -1.
</event>
<event>
 5   0  0.7476457E-06  0.1699791E+04  0.7818609E-02  0.8761484E-01
       -1   -1    0    0    0  501  0.00000000000E+00  0.00000000000E+00  0.58917241984E+03  0.58917241986E+03  0.50400001928E-02 0. -1.
        1   -1    0    0  501    0  0.00000000000E+00  0.00000000000E+00 -0.12259948759E+04  0.12259948759E+04  0.50400001928E-02 0.  1.
    10030    2    1    2    0    0  0.00000000000E+00  0.00000000000E+00 -0.63682245608E+03  0.18151672958E+04  0.16997910081E+04 0.  0.
        2    1    3    3  502    0 -0.83959372911E+03  0.10984568651E+03 -0.24038558029E+03  0.88020959551E+03  0.25500000920E-02 0.  1.
       -2    1    3    3    0  502  0.83959372911E+03 -0.10984568651E+03 -0.39643687579E+03  0.93495770027E+03  0.25500000920E-02 0. -1.
</event>
<event>
 5   0  0.7455669E-06  0.1694493E+04  0.7818609E-02  0.8764511E-01
       -1   -1    0    0    0  501  0.00000000000E+00  0.00000000000E+00  0.10823008448E+04  0.10823008448E+04  0.50400001928E-02 0.  1.
        1   -1    0    0  501    0  0.00000000000E+00  0.00000000000E+00 -0.66324123618E+03  0.66324123620E+03  0.50400001928E-02 0. -1.
    10030    2    1    2    0    0  0.00000000000E+00  0.00000000000E+00  0.41905960859E+03  0.17455420810E+04  0.16944929038E+04 0.  0.
        4    1    3    3  502    0  0.42287304822E+03  0.71150930278E+03  0.39597369650E+03  0.91753140768E+03  0.12699999809E+01 0. -1.
       -4    1    3    3    0  502 -0.42287304822E+03 -0.71150930278E+03  0.23085912094E+02  0.82801067330E+03  0.12699999809E+01 0.  1.
</event>
<event>
 5   0  0.7583716E-06  0.1699991E+04  0.7818609E-02  0.8761370E-01
       -1   -1    0    0    0  501  0.00000000000E+00  0.00000000000E+00  0.49296244152E+03  0.49296244155E+03  0.50400001928E-02 0.  1.
        1   -1    0    0  501    0  0.00000000000E+00  0.00000000000E+00 -0.14656132519E+04  0.14656132519E+04  0.50400001928E-02 0. -1.
    10030    2    1    2    0    0  0.00000000000E+00  0.00000000000E+00 -0.97265081038E+03  0.19585756935E+04  0.16999909259E+04 0.  0.
        5    1    3    3  502    0 -0.51922079791E+02  0.61279863464E+03  0.18965183550E+03  0.64358991423E+03  0.46999998093E+01 0.  1.
       -5    1    3    3    0  502  0.51922079791E+02 -0.61279863464E+03 -0.11623026459E+04  0.13149857792E+04  0.46999998093E+01 0. -1.
</event>
<event>
 5   0  0.7583716E-06  0.1699765E+04  0.7818609E-02  0.8761499E-01
        1   -1    0    0  501    0  0.00000000000E+00  0.00000000000E+00  0.10920132843E+04  0.10920132843E+04  0.50400001928E-02 0.  1.
       -1   -1    0    0    0  501  0.00000000000E+00  0.00000000000E+00 -0.66143887365E+03  0.66143887367E+03  0.50400001928E-02 0. -1.
    10030    2    1    2    0    0  0.00000000000E+00  0.00000000000E+00  0.43057441067E+03  0.17534521580E+04  0.16997647329E+04 0.  0.
        5    1    3    3  502    0 -0.13631262709E+03 -0.73381876223E+03 -0.20400724784E+03  0.77376492249E+03  0.46999998093E+01 0. -1.
       -5    1    3    3    0  502  0.13631262709E+03  0.73381876223E+03  0.63458165852E+03  0.97968723552E+03  0.46999998093E+01 0.  1.
</event>
<event>
 5   0  0.1423543E-05  0.1700600E+04  0.7818609E-02  0.8761022E-01
        2   -1    0    0  501    0  0.00000000000E+00  0.00000000000E+00  0.76746473574E+03  0.76746473575E+03  0.25500000920E-02 0.  1.
       -2   -1    0    0    0  501  0.00000000000E+00  0.00000000000E+00 -0.94207547667E+03  0.94207547668E+03  0.25500000920E-02 0. -1.
    10030    2    1    2    0    0  0.00000000000E+00  0.00000000000E+00 -0.17461074093E+03  0.17095402124E+04  0.17005995493E+04 0.  0.
        3    1    3    3  502    0 -0.75297611892E+03 -0.37812430863E+02 -0.48257338357E+03  0.89514238885E+03  0.10100000352E+00 0. -1.
       -3    1    3    3    0  502  0.75297611892E+03  0.37812430863E+02  0.30796264263E+03  0.81439782357E+03  0.10100000352E+00 0.  1.
</event>
<event>
 5   0  0.1423543E-05  0.1700660E+04  0.7818609E-02  0.8760988E-01
       -2   -1    0    0    0  501  0.00000000000E+00  0.00000000000E+00  0.71293109501E+03  0.71293109502E+03  0.25500000920E-02 0.  1.
        2   -1    0    0  501    0  0.00000000000E+00  0.00000000000E+00 -0.10142092916E+04  0.10142092916E+04  0.25500000920E-02 0. -1.
    10030    2    1    2    0    0  0.00000000000E+00  0.00000000000E+00 -0.30127819659E+03  0.17271403866E+04  0.17006602728E+04 0.  0.
        3    1    3    3  502    0 -0.40861034586E+03  0.24574843975E+03 -0.86566608341E+03  0.98829777322E+03  0.10100000352E+00 0. -1.
       -3    1    3    3    0  502  0.40861034586E+03 -0.24574843975E+03  0.56438788682E+03  0.73884261340E+03  0.10100000352E+00 0.  1.
</event>
<event>
 5   0  0.7583716E-06  0.1699721E+04  0.7818609E-02  0.8761524E-01
       -1   -1    0    0    0  501  0.00000000000E+00  0.00000000000E+00  0.16690296773E+04  0.16690296774E+04  0.50400001928E-02 0.  1.
        1   -1    0    0  501    0  0.00000000000E+00  0.00000000000E+00 -0.43274410101E+03  0.43274410103E+03  0.50400001928E-02 0. -1.
    10030    2    1    2    0    0  0.00000000000E+00  0.00000000000E+00  0.12362855763E+04  0.21017737784E+04  0.16997208563E+04 0.  0.
        5    1    3    3  502    0 -0.71906675364E+02 -0.41211878857E+03  0.15328721032E+04  0.15889403515E+04  0.46999998093E+01 0.  1.
       -5    1    3    3    0  502  0.71906675364E+02  0.41211878857E+03 -0.29658652684E+03  0.51283342691E+03  0.46999998093E+01 0. -1.
</event>
<event>
 5   0  0.1374441E-05  0.1700486E+04  0.7818609E-02  0.8761087E-01
       -2   -1    0    0    0  501  0.00000000000E+00  0.00000000000E+00  0.36893361536E+03  0.36893361536E+03  0.25500000920E-02 0. -1.
        2   -1    0    0  501    0  0.00000000000E+00  0.00000000000E+00 -0.19594675690E+04  0.19594675690E+04  0.25500000920E-02 0.  1.
    10030    2    1    2    0    0  0.00000000000E+00  0.00000000000E+00 -0.15905339536E+04  0.23284011843E+04  0.17004863474E+04 0.  0.
        1    1    3    3  502    0  0.64648441759E+03  0.42757228418E+03 -0.12738279219E+04  0.14911062119E+04  0.50400001928E-02 0.  1.
       -1    1    3    3    0  502 -0.64648441759E+03 -0.42757228418E+03 -0.31670603170E+03  0.83729497247E+03  0.50400001928E-02 0. -1.
</event>
<event>
 5   0  0.7476457E-06  0.1691036E+04  0.7818609E-02  0.8766493E-01
        1   -1    0    0  501    0  0.00000000000E+00  0.00000000000E+00  0.62055678849E+03  0.62055678851E+03  0.50400001928E-02 0.  1.
       -1   -1    0    0    0  501  0.00000000000E+00  0.00000000000E+00 -0.11520317139E+04  0.11520317139E+04  0.50400001928E-02 0. -1.
    10030    2    1    2    0    0  0.00000000000E+00  0.00000000000E+00 -0.53147492537E+03  0.17725885024E+04  0.16910364876E+04 0.  0.
        2    1    3    3  502    0 -0.42088609096E+03  0.72249054203E+03 -0.39734480356E+03  0.92575405903E+03  0.25500000920E-02 0. -1.
       -2    1    3    3    0  502  0.42088609096E+03 -0.72249054203E+03 -0.13413012182E+03  0.84683444336E+03  0.25500000920E-02 0.  1.
</event>
<event>
 5   0  0.1423543E-05  0.1700244E+04  0.7818609E-02  0.8761225E-01
       -2   -1    0    0    0  501  0.00000000000E+00  0.00000000000E+00  0.80053062230E+03  0.80053062231E+03  0.25500000920E-02 0.  1.
        2   -1    0    0  501    0  0.00000000000E+00  0.00000000000E+00 -0.90278517606E+03  0.90278517607E+03  0.25500000920E-02 0. -1.
    10030    2    1    2    0    0  0.00000000000E+00  0.00000000000E+00 -0.10225455376E+03  0.17033157984E+04  0.17002437223E+04 0.  0.
        3    1    3    3  502    0 -0.16862547528E+03 -0.28022312120E+03 -0.83724097775E+03  0.89885038443E+03  0.10100000352E+00 0. -1.
       -3    1    3    3    0  502  0.16862547528E+03  0.28022312120E+03  0.73498642399E+03  0.80446541394E+03  0.10100000352E+00 0.  1.
</event>
<event>
 5   0  0.1419012E-05  0.1702412E+04  0.7818609E-02  0.8759990E-01
        2   -1    0    0  501    0  0.00000000000E+00  0.00000000000E+00  0.24334194389E+04  0.24334194389E+04  0.25500000920E-02 0. -1.
       -2   -1    0    0    0  501  0.00000000000E+00  0.00000000000E+00 -0.29775051043E+03  0.29775051044E+03  0.25500000920E-02 0.  1.
    10030    2    1    2    0    0  0.00000000000E+00  0.00000000000E+00  0.21356689285E+04  0.27311699494E+04  0.17024122651E+04 0.  0.
        4    1    3    3  502    0  0.37019304689E+02 -0.67552510672E+03  0.23910254840E+03  0.71754877205E+03  0.12699999809E+01 0.  1.
       -4    1    3    3    0  502 -0.37019304689E+02  0.67552510672E+03  0.18965663801E+04  0.20136211773E+04  0.12699999809E+01 0. -1.
</event>
<event>
 5   0  0.1441756E-05  0.1701452E+04  0.7818609E-02  0.8760536E-01
       -2   -1    0    0    0  501  0.00000000000E+00  0.00000000000E+00  0.32682351244E+03  0.32682351245E+03  0.25500000920E-02 0. -1.
        2   -1    0    0  501    0  0.00000000000E+00  0.00000000000E+00 -0.22144519963E+04  0.22144519963E+04  0.25500000920E-02 0.  1.
    10030    2    1    2    0    0  0.00000000000E+00  0.00000000000E+00 -0.18876284839E+04  0.25412755088E+04  0.17014522968E+04 0.  0.
        5    1    3    3  502    0  0.19328700323E+01  0.63739876555E+03 -0.17853204107E+04  0.18956982832E+04  0.46999998093E+01 0. -1.
       -5    1    3    3    0  502 -0.19328700323E+01 -0.63739876555E+03 -0.10230807324E+03  0.64557722556E+03  0.46999998093E+01 0.  1.
</event>
<event>
 5   0  0.7082527E-06  0.1699995E+04  0.7818609E-02  0.8761367E-01
        1   -1    0    0  501    0  0.00000000000E+00  0.00000000000E+00  0.10065998338E+04  0.10065998338E+04  0.50400001928E-02 0.  1.
       -1   -1    0    0    0  501  0.00000000000E+00  0.00000000000E+00 -0.71775825834E+03  0.71775825836E+03  0.50400001928E-02 0. -1.
    10030    2    1    2    0    0  0.00000000000E+00  0.00000000000E+00  0.28884157548E+03  0.17243580922E+04  0.16999945219E+04 0.  0.
        1    1    3    3  502    0  0.21769556780E+03 -0.82109701464E+03  0.11392876170E+03  0.85707142670E+03  0.50400001928E-02 0. -1.
       -1    1    3    3    0  502 -0.21769556780E+03  0.82109701464E+03  0.17491281378E+03  0.86728666549E+03  0.50400001928E-02 0.  1.
</event>
<event>
 5   0  0.7461128E-06  0.1699948E+04  0.7818609E-02  0.8761394E-01
       -1   -1    0    0    0  501  0.00000000000E+00  0.00000000000E+00  0.61025572382E+03  0.61025572384E+03  0.50400001928E-02 0.  1.
        1   -1    0    0  501    0  0.00000000000E+00  0.00000000000E+00 -0.11838569455E+04  0.11838569455E+04  0.50400001928E-02 0. -1.
    10030    2    1    2    0    0  0.00000000000E+00  0.00000000000E+00 -0.57360122166E+03  0.17941126693E+04  0.16999476194E+04 0.  0.
        3    1    3    3  502    0  0.83090977849E+02  0.83593239315E+03 -0.15013480622E+03  0.85336249435E+03  0.10100000352E+00 0.  1.
       -3    1    3    3    0  502 -0.83090977849E+02 -0.83593239315E+03 -0.42346641544E+03  0.94075017498E+03  0.10100000352E+00 0. -1.
</event>
<event>
 5   0  0.7455669E-06  0.1699552E+04  0.7818609E-02  0.8761620E-01
       -1   -1    0    0    0  501  0.00000000000E+00  0.00000000000E+00  0.39989262328E+03  0.39989262331E+03  0.50400001928E-02 0.  1.
        1   -1    0    0  501    0  0.00000000000E+00  0.00000000000E+00 -0.18057838087E+04  0.18057838087E+04  0.50400001928E-02 0. -1.
    10030    2    1    2    0    0  0.00000000000E+00  0.00000000000E+00 -0.14058911854E+04  0.22056764320E+04  0.16995524404E+04 0.  0.
        4    1    3    3  502    0 -0.18142482357E+02  0.69185194159E+03 -0.63024703206E+02  0.69495466389E+03  0.12699999809E+01 0.  1.
       -4    1    3    3    0  502  0.18142482357E+02 -0.69185194159E+03 -0.13428664822E+04  0.15107217681E+04  0.12699999809E+01 0. -1.
</event>
<event>
 5   0  0.7583716E-06  0.1699909E+04  0.7818609E-02  0.8761416E-01
        1   -1    0    0  501    0  0.00000000000E+00  0.00000000000E+00  0.12595119340E+04  0.12595119340E+04  0.50400001928E-02 0. -1.
       -1   -1    0    0    0  501  0.00000000000E+00  0.00000000000E+00 -0.57357344193E+03  0.57357344195E+03  0.50400001928E-02 0.  1.
    10030    2    1    2    0    0  0.00000000000E+00  0.00000000000E+00  0.68593849204E+03  0.18330853759E+04  0.16999089330E+04 0.  0.
        5    1    3    3  502    0  0.34189817339E+03  0.76339922840E+03  0.50553736307E+03  0.97737549506E+03  0.46999998093E+01 0. -1.
       -5    1    3    3    0  502 -0.34189817339E+03 -0.76339922840E+03  0.18040112897E+03  0.85570988087E+03  0.46999998093E+01 0.  1.
</event>
<event>
 5   0  0.1423543E-05  0.1700142E+04  0.7818609E-02  0.8761283E-01
        2   -1    0    0  501    0  0.00000000000E+00  0.00000000000E+00  0.62344640529E+03  0.62344640529E+03  0.25500000920E-02 0. -1.
       -2   -1    0    0    0  501  0.00000000000E+00  0.00000000000E+00 -0.11590743456E+04  0.11590743456E+04  0.25500000920E-02 0.  1.
    10030    2    1    2    0    0  0.00000000000E+00  0.00000000000E+00 -0.53562794028E+03  0.17825207509E+04  0.17001420343E+04 0.  0.
        3    1    3    3  502    0 -0.34323734938E+02  0.48474440754E+03 -0.99907999512E+03  0.11109977976E+04  0.10100000352E+00 0.  1.
       -3    1    3    3    0  502  0.34323734938E+02 -0.48474440754E+03  0.46345205484E+03  0.67152295326E+03  0.10100000352E+00 0. -1.
</event>
<event>
 5   0  0.7476457E-06  0.1699642E+04  0.7818609E-02  0.8761569E-01
       -1   -1    0    0    0  501  0.00000000000E+00  0.00000000000E+00  0.37937720942E+03  0.37937720945E+03  0.50400001928E-02 0. -1.
        1   -1    0    0  501    0  0.00000000000E+00  0.00000000000E+00 -0.19036349562E+04  0.19036349562E+04  0.50400001928E-02 0.  1.
    10030    2    1    2    0    0  0.00000000000E+00  0.00000000000E+00 -0.15242577468E+04  0.22830121657E+04  0.16996419829E+04 0.  0.
        2    1    3    3  502    0  0.45674518903E+03  0.62903675820E+03 -0.30092440305E+03  0.83358197391E+03  0.25500000920E-02 0. -1.
       -2    1    3    3    0  502 -0.45674518903E+03 -0.62903675820E+03 -0.12233333438E+04  0.14494301918E+04  0.25500000920E-02 0.  1.
</event>
<event>
 5   0  0.7455669E-06  0.1699955E+04  0.7818609E-02  0.8761390E-01
       -1   -1    0    0    0  501  0.00000000000E+00  0.00000000000E+00  0.39097465818E+03  0.39097465821E+03  0.50400001928E-02 0. -1.
        1   -1    0    0  501    0  0.00000000000E+00  0.00000000000E+00 -0.18478479210E+04  0.18478479210E+04  0.50400001928E-02 0.  1.
    10030    2    1    2    0    0  0.00000000000E+00  0.00000000000E+00 -0.14568732628E+04  0.22388225792E+04  0.16999549516E+04 0.  0.
        4    1    3    3  502    0  0.51004917690E+03 -0.64099010295E+03 -0.10271396354E+04  0.13137868619E+04  0.12699999809E+01 0.  1.
       -4    1    3    3    0  502 -0.51004917690E+03  0.64099010295E+03 -0.42973362743E+03  0.92503571735E+03  0.12699999809E+01 0. -1.
</event>
<event>
 5   0  0.7461128E-06  0.1699199E+04  0.7818609E-02  0.8761821E-01
        1   -1    0    0  501    0  0.00000000000E+00  0.00000000000E+00  0.86186438843E+03  0.86186438844E+03  0.50400001928E-02 0.  1.
       -1   -1    0    0    0  501  0.00000000000E+00  0.00000000000E+00 -0.83750892315E+03  0.83750892317E+03  0.50400001928E-02 0. -1.
    10030    2    1    2    0    0  0.00000000000E+00  0.00000000000E+00  0.24355465274E+02  0.16993733116E+04  0.16991987710E+04 0.  0.
        3    1    3    3  502    0 -0.24078672918E+03 -0.39274045487E+03 -0.70175537900E+03  0.83945454672E+03  0.10100000352E+00 0. -1.
       -3    1    3    3    0  502  0.24078672918E+03  0.39274045487E+03  0.72611084428E+03  0.85991876490E+03  0.10100000352E+00 0.  1.
</event>
<event>
 5   0  0.7455669E-06  0.1700301E+04  0.7818609E-02  0.8761193E-01
        1   -1    0    0  501    0  0.00000000000E+00  0.00000000000E+00  0.24738852100E+04  0.24738852100E+04  0.50400001928E-02 0.  1.
       -1   -1    0    0    0  501  0.00000000000E+00  0.00000000000E+00 -0.29215411965E+03  0.29215411969E+03  0.50400001928E-02 0. -1.
    10030    2    1    2    0    0  0.00000000000E+00  0.00000000000E+00  0.21817310904E+04  0.27660393297E+04  0.17003008624E+04 0.  0.
        4    1    3    3  502    0  0.50675397102E+03 -0.14606697062E+02  0.22010749571E+04  0.22587043902E+04  0.12699999809E+01 0.  1.
       -4    1    3    3    0  502 -0.50675397102E+03  0.14606697062E+02 -0.19343866729E+02  0.50733493949E+03  0.12699999809E+01 0. -1.
</event>
<event>
 5   0  0.1435301E-05  0.1700027E+04  0.7818609E-02  0.8761349E-01
       -2   -1    0    0    0  501  0.00000000000E+00  0.00000000000E+00  0.25310284517E+03  0.25310284519E+03  0.25500000920E-02 0.  1.
        2   -1    0    0  501    0  0.00000000000E+00  0.00000000000E+00 -0.28546611403E+04  0.28546611403E+04  0.25500000920E-02 0. -1.
    10030    2    1    2    0    0  0.00000000000E+00  0.00000000000E+00 -0.26015582951E+04  0.31077639855E+04  0.17000268899E+04 0.  0.
        2    1    3    3  502    0  0.25229398673E+03 -0.56211741088E+02 -0.27810746537E+04  0.27930607306E+04  0.25500000920E-02 0. -1.
       -2    1    3    3    0  502 -0.25229398673E+03  0.56211741088E+02  0.17951635861E+03  0.31470325481E+03  0.25500000920E-02 0.  1.
</event>
<event>
 5   0  0.1441756E-05  0.1699724E+04  0.7818609E-02  0.8761522E-01
       -2   -1    0    0    0  501  0.00000000000E+00  0.00000000000E+00  0.42327222986E+03  0.42327222987E+03  0.25500000920E-02 0.  1.
        2   -1    0    0  501    0  0.00000000000E+00  0.00000000000E+00 -0.17063847990E+04  0.17063847990E+04  0.25500000920E-02 0. -1.
    10030    2    1    2    0    0  0.00000000000E+00  0.00000000000E+00 -0.12831125692E+04  0.21296570289E+04  0.16997238586E+04 0.  0.
        5    1    3    3  502    0  0.81815166986E+03  0.14722428031E+03 -0.42025638961E+03  0.93149592946E+03  0.46999998093E+01 0. -1.
       -5    1    3    3    0  502 -0.81815166986E+03 -0.14722428031E+03 -0.86285617955E+03  0.11981610994E+04  0.46999998093E+01 0.  1.
</event>
<event>
 5   0  0.1423543E-05  0.1700748E+04  0.7818609E-02  0.8760938E-01
       -2   -1    0    0    0  501  0.00000000000E+00  0.00000000000E+00  0.11073868914E+04  0.11073868914E+04  0.25500000920E-02 0. -1.
        2   -1    0    0  501    0  0.00000000000E+00  0.00000000000E+00 -0.65301127419E+03  0.65301127420E+03  0.25500000920E-02 0.  1.
    10030    2    1    2    0    0  0.00000000000E+00  0.00000000000E+00  0.45437561718E+03  0.17603981656E+04  0.17007482177E+04 0.  0.
        3    1    3    3  502    0 -0.52488515871E+02 -0.67388139090E+03  0.76129432498E+03  0.10180570872E+04  0.10100000352E+00 0. -1.
       -3    1    3    3    0  502  0.52488515871E+02  0.67388139090E+03 -0.30691870780E+03  0.74234107841E+03  0.10100000352E+00 0.  1.
</event>
<event>
 5   0  0.1441756E-05  0.1700122E+04  0.7818609E-02  0.8761295E-01
       -2   -1    0    0    0  501  0.00000000000E+00  0.00000000000E+00  0.92007609443E+03  0.92007609444E+03  0.25500000920E-02 0.  1.
        2   -1    0    0  501    0  0.00000000000E+00  0.00000000000E+00 -0.78537385575E+03  0.78537385575E+03  0.25500000920E-02 0. -1.
    10030    2    1    2    0    0  0.00000000000E+00  0.00000000000E+00  0.13470223869E+03  0.17054499502E+04  0.17001220072E+04 0.  0.
        5    1    3    3  502    0  0.12951972504E+03  0.81750933911E+03  0.26156763026E+03  0.86806485581E+03  0.46999998093E+01 0.  1.
       -5    1    3    3    0  502 -0.12951972504E+03 -0.81750933911E+03 -0.12686539157E+03  0.83738509437E+03  0.46999998093E+01 0. -1.
</event>
<event>
 5   0  0.7455669E-06  0.1699559E+04  0.7818609E-02  0.8761616E-01
        1   -1    0    0  501    0  0.00000000000E+00  0.00000000000E+00  0.14183780041E+04  0.14183780041E+04  0.50400001928E-02 0.  1.
       -1   -1    0    0    0  501  0.00000000000E+00  0.00000000000E+00 -0.50912045381E+03  0.50912045383E+03  0.50400001928E-02 0. -1.
    10030    2    1    2    0    0  0.00000000000E+00  0.00000000000E+00  0.90925755029E+03  0.19274984579E+04  0.16995590642E+04 0.  0.
        4    1    3    3  502    0 -0.15551027919E+03 -0.43278165465E+03 -0.35580081951E+03  0.58144582173E+03  0.12699999809E+01 0. -1.
       -4    1    3    3    0  502  0.15551027919E+03  0.43278165465E+03  0.12650583698E+04  0.13460526362E+04  0.12699999809E+01 0.  1.
</event>
<event>
 5   0  0.7461128E-06  0.1700771E+04  0.7818609E-02  0.8760925E-01
       -1   -1    0    0    0  501  0.00000000000E+00  0.00000000000E+00  0.76759517931E+03  0.76759517933E+03  0.50400001928E-02 0. -1.
        1   -1    0    0  501    0  0.00000000000E+00  0.00000000000E+00 -0.94210539745E+03  0.94210539747E+03  0.50400001928E-02 0.  1.
    10030    2    1    2    0    0  0.00000000000E+00  0.00000000000E+00 -0.17451021814E+03  0.17097005768E+04  0.17007710740E+04 0.  0.
        3    1    3    3  502    0 -0.37058132698E+03 -0.47279037371E+03  0.51781394855E+03  0.79309050738E+03  0.10100000352E+00 0. -1.
       -3    1    3    3    0  502  0.37058132698E+03  0.47279037371E+03 -0.69232416669E+03  0.91661006942E+03  0.10100000352E+00 0.  1.
</event>
<event>
 5   0  0.7461128E-06  0.1700786E+04  0.7818609E-02  0.8760916E-01
       -1   -1    0    0    0  501  0.00000000000E+00  0.00000000000E+00  0.60286634093E+03  0.60286634095E+03  0.50400001928E-02 0. -1.
        1   -1    0    0  501    0  0.00000000000E+00  0.00000000000E+00 -0.11995503791E+04  0.11995503792E+04  0.50400001928E-02 0.  1.
    10030    2    1    2    0    0  0.00000000000E+00  0.00000000000E+00 -0.59668403821E+03  0.18024167201E+04  0.17007863450E+04 0.  0.
        3    1    3    3  502    0 -0.44828553987E+03 -0.22074717145E+02  0.46712192528E+03  0.64780407660E+03  0.10100000352E+00 0. -1.
       -3    1    3    3    0  502  0.44828553987E+03  0.22074717145E+02 -0.10638059635E+04  0.11546126435E+04  0.10100000352E+00 0.  1.
</event>
<event>
 5   0  0.7583716E-06  0.1699968E+04  0.7818609E-02  0.8761383E-01
        1   -1    0    0  501    0  0.00000000000E+00  0.00000000000E+00  0.65780796273E+03  0.65780796275E+03  0.50400001928E-02 0. -1.
       -1   -1    0    0    0  501  0.00000000000E+00  0.00000000000E+00 -0.10983035364E+04  0.10983035364E+04  0.50400001928E-02 0.  1.
    10030    2    1    2    0    0  0.00000000000E+00  0.00000000000E+00 -0.44049557371E+03  0.17561114992E+04  0.16999680136E+04 0.  0.
        5    1    3    3  502    0  0.72865178559E+03  0.36771127505E+03 -0.46537277017E+03  0.93954186264E+03  0.46999998093E+01 0.  1.
       -5    1    3    3    0  502 -0.72865178559E+03 -0.36771127505E+03  0.24877196459E+02  0.81656963655E+03  0.46999998093E+01 0. -1.
</event>
<event>
 5   0  0.1435301E-05  0.1698231E+04  0.7818609E-02  0.8762374E-01
       -2   -1    0    0    0  501  0.00000000000E+00  0.00000000000E+00  0.59840598885E+03  0.59840598886E+03  0.25500000920E-02 0. -1.
        2   -1    0    0  501    0  0.00000000000E+00  0.00000000000E+00 -0.12048625534E+04  0.12048625534E+04  0.25500000920E-02 0.  1.
    10030    2    1    2    0    0  0.00000000000E+00  0.00000000000E+00 -0.60645656452E+03  0.18032685422E+04  0.16982308061E+04 0.  0.
        2    1    3    3  502    0 -0.40374224504E+02  0.12639055257E+03  0.58733031833E+03  0.60213084344E+03  0.25500000920E-02 0. -1.
       -2    1    3    3    0  502  0.40374224504E+02 -0.12639055257E+03 -0.11937868829E+04  0.12011376988E+04  0.25500000920E-02 0.  1.
</event>
<event>
 5   0  0.1423543E-05  0.1699921E+04  0.7818609E-02  0.8761409E-01
        2   -1    0    0  501    0  0.00000000000E+00  0.00000000000E+00  0.45103988739E+03  0.45103988740E+03  0.25500000920E-02 0. -1.
       -2   -1    0    0    0  501  0.00000000000E+00  0.00000000000E+00 -0.16017056259E+04  0.16017056259E+04  0.25500000920E-02 0.  1.
    10030    2    1    2    0    0  0.00000000000E+00  0.00000000000E+00 -0.11506657385E+04  0.20527455133E+04  0.16999213219E+04 0.  0.
        3    1    3    3  502    0 -0.64728866440E+02  0.47108559290E+03 -0.14260553348E+04  0.15032449202E+04  0.10100000352E+00 0.  1.
       -3    1    3    3    0  502  0.64728866440E+02 -0.47108559290E+03  0.27538959623E+03  0.54950059317E+03  0.10100000352E+00 0. -1.
</event>
<event>
 5   0  0.1423543E-05  0.1700239E+04  0.7818609E-02  0.8761228E-01
       -2   -1    0    0    0  501  0.00000000000E+00  0.00000000000E+00  0.58627512577E+03  0.58627512578E+03  0.25500000920E-02 0.  1.
        2   -1    0    0  501    0  0.00000000000E+00  0.00000000000E+00 -0.12327027373E+04  0.12327027373E+04  0.25500000920E-02 0. -1.
    10030    2    1    2    0    0  0.00000000000E+00  0.00000000000E+00 -0.64642761153E+03  0.18189778631E+04  0.17002387507E+04 0.  0.
        3    1    3    3  502    0  0.35073588191E+03  0.21007978862E+03  0.47419412646E+03  0.62610642563E+03  0.10100000352E+00 0.  1.
       -3    1    3    3    0  502 -0.35073588191E+03 -0.21007978862E+03 -0.11206217380E+04  0.11928714375E+04  0.10100000352E+00 0. -1.
</event>
<event>
 5   0  0.7476457E-06  0.1699561E+04  0.7818609E-02  0.8761615E-01
       -1   -1    0    0    0  501  0.00000000000E+00  0.00000000000E+00  0.48758878542E+03  0.48758878545E+03  0.50400001928E-02 0.  1.
        1   -1    0    0  501    0  0.00000000000E+00  0.00000000000E+00 -0.14810157583E+04  0.14810157583E+04  0.50400001928E-02 0. -1.
    10030    2    1    2    0    0  0.00000000000E+00  0.00000000000E+00 -0.99342697290E+03  0.19686045438E+04  0.16995607372E+04 0.  0.
        2    1    3    3  502    0 -0.35747268505E+03  0.76852668310E+03 -0.56723392788E+03  0.10198893627E+04  0.25500000920E-02 0. -1.
       -2    1    3    3    0  502  0.35747268505E+03 -0.76852668310E+03 -0.42619304502E+03  0.94871518109E+03  0.25500000920E-02 0.  1.
</event>
<event>
 5   0  0.1419012E-05  0.1696330E+04  0.7818609E-02  0.8763460E-01
        2   -1    0    0  501    0  0.00000000000E+00  0.00000000000E+00  0.12173532836E+04  0.12173532836E+04  0.25500000920E-02 0. -1.
       -2   -1    0    0    0  501  0.00000000000E+00  0.00000000000E+00 -0.59094095487E+03  0.59094095487E+03  0.25500000920E-02 0.  1.
    10030    2    1    2    0    0  0.00000000000E+00  0.00000000000E+00  0.62641232869E+03  0.18082942384E+04  0.16963300526E+04 0.  0.
        4    1    3    3  502    0  0.15905559179E+03 -0.46498260258E+02 -0.57351518377E+03  0.59697742705E+03  0.12699999809E+01 0.  1.
       -4    1    3    3    0  502 -0.15905559179E+03  0.46498260258E+02  0.11999275125E+04  0.12113168114E+04  0.12699999809E+01 0. -1.
</event>
<event>
 5   0  0.1423543E-05  0.1700774E+04  0.7818609E-02  0.8760923E-01
        2   -1    0    0  501    0  0.00000000000E+00  0.00000000000E+00  0.72291364775E+03  0.72291364775E+03  0.25500000920E-02 0. -1.
       -2   -1    0    0    0  501  0.00000000000E+00  0.00000000000E+00 -0.10003375936E+04  0.10003375936E+04  0.25500000920E-02 0.  1.
    10030    2    1    2    0    0  0.00000000000E+00  0.00000000000E+00 -0.27742394582E+03  0.17232512413E+04  0.17007735872E+04 0.  0.
        3    1    3    3  502    0 -0.16791568376E+03  0.96273159836E+02 -0.97772192159E+03  0.99669672635E+03  0.10100000352E+00 0.  1.
       -3    1    3    3    0  502  0.16791568376E+03 -0.96273159836E+02  0.70029797577E+03  0.72655451497E+03  0.10100000352E+00 0. -1.
</event>
<event>
 5   0  0.1423543E-05  0.1695878E+04  0.7818609E-02  0.8763719E-01
        2   -1    0    0  501    0  0.00000000000E+00  0.00000000000E+00  0.11279672692E+04  0.11279672692E+04  0.25500000920E-02 0. -1.
       -2   -1    0    0    0  501  0.00000000000E+00  0.00000000000E+00 -0.63743036925E+03  0.63743036926E+03  0.25500000920E-02 0.  1.
    10030    2    1    2    0    0  0.00000000000E+00  0.00000000000E+00  0.49053689995E+03  0.17653976385E+04  0.16958780533E+04 0.  0.
        3    1    3    3  502    0  0.14320196863E+03  0.79467220722E+03  0.51470248979E+03  0.95756429756E+03  0.10100000352E+00 0. -1.
       -3    1    3    3    0  502 -0.14320196863E+03 -0.79467220722E+03 -0.24165589837E+02  0.80783334091E+03  0.10100000352E+00 0.  1.
</event>
<event>
 5   0  0.1423543E-05  0.1699644E+04  0.7818609E-02  0.8761567E-01
        2   -1    0    0  501    0  0.00000000000E+00  0.00000000000E+00  0.17204012806E+04  0.17204012806E+04  0.25500000920E-02 0.  1.
       -2   -1    0    0    0  501  0.00000000000E+00  0.00000000000E+00 -0.41978436833E+03  0.41978436834E+03  0.25500000920E-02 0. -1.
    10030    2    1    2    0    0  0.00000000000E+00  0.00000000000E+00  0.13006169123E+04  0.21401856490E+04  0.16996441567E+04 0.  0.
        3    1    3    3  502    0  0.78648266371E+03 -0.22618140911E+03  0.93878410467E+03  0.12454029932E+04  0.10100000352E+00 0.  1.
       -3    1    3    3    0  502 -0.78648266371E+03  0.22618140911E+03  0.36183280761E+03  0.89478265574E+03  0.10100000352E+00 0. -1.
</event>
<event>
 5   0  0.1441756E-05  0.1699782E+04  0.7818609E-02  0.8761489E-01
        2   -1    0    0  501    0  0.00000000000E+00  0.00000000000E+00  0.21935388944E+04  0.21935388944E+04  0.25500000920E-02 0. -1.
       -2   -1    0    0    0  501  0.00000000000E+00  0.00000000000E+00 -0.32929177972E+03  0.32929177973E+03  0.25500000920E-02 0.  1.
    10030    2    1    2    0    0  0.00000000000E+00  0.00000000000E+00  0.18642471147E+04  0.25228306742E+04  0.16997815465E+04 0.  0.
        5    1    3    3  502    0 -0.38857265343E+03 -0.40931433730E+03 -0.10980233333E+02  0.56450827207E+03  0.46999998093E+01 0.  1.
       -5    1    3    3    0  502  0.38857265343E+03  0.40931433730E+03  0.18752273480E+04  0.19583224021E+04  0.46999998093E+01 0. -1.
</event>
<event>
 5   0  0.7461128E-06  0.1699308E+04  0.7818609E-02  0.8761759E-01
       -1   -1    0    0    0  501  0.00000000000E+00  0.00000000000E+00  0.66075666266E+03  0.66075666267E+03  0.50400001928E-02 0.  1.
        1   -1    0    0  501    0  0.00000000000E+00  0.00000000000E+00 -0.10925528074E+04  0.10925528075E+04  0.50400001928E-02 0. -1.
    10030    2    1    2    0    0  0.00000000000E+00  0.00000000000E+00 -0.43179614479E+03  0.17533094701E+04  0.16993075612E+04 0.  0.
        3    1    3    3  502    0 -0.56164161042E+03 -0.48514933299E+03 -0.64268592898E+03  0.98176187916E+03  0.10100000352E+00 0. -1.
       -3    1    3    3    0  502  0.56164161042E+03  0.48514933299E+03  0.21088978419E+03  0.77154759097E+03  0.10100000352E+00 0.  1.
</event>
<event>
 5   0  0.7476457E-06  0.1700487E+04  0.7818609E-02  0.8761087E-01
       -1   -1    0    0    0  501  0.00000000000E+00  0.00000000000E+00  0.13869315109E+04  0.13869315109E+04  0.50400001928E-02 0.  1.
        1   -1    0    0  501    0  0.00000000000E+00  0.00000000000E+00 -0.52123272386E+03  0.52123272388E+03  0.50400001928E-02 0. -1.
    10030    2    1    2    0    0  0.00000000000E+00  0.00000000000E+00  0.86569878703E+03  0.19081642348E+04  0.17004870940E+04 0.  0.
        2    1    3    3  502    0  0.43695807940E+03  0.68648372094E+03  0.70936193016E+03  0.10795307361E+04  0.25500000920E-02 0.  1.
       -2    1    3    3    0  502 -0.43695807940E+03 -0.68648372094E+03  0.15633685687E+03  0.82863349865E+03  0.25500000920E-02 0. -1.
</event>
<event>
 5   0  0.7455669E-06  0.1700845E+04  0.7818609E-02  0.8760883E-01
        1   -1    0    0  501    0  0.00000000000E+00  0.00000000000E+00  0.27005551219E+04  0.27005551219E+04  0.50400001928E-02 0.  1.
       -1   -1    0    0    0  501  0.00000000000E+00  0.00000000000E+00 -0.26780361807E+03  0.26780361811E+03  0.50400001928E-02 0. -1.
    10030    2    1    2    0    0  0.00000000000E+00  0.00000000000E+00  0.24327515038E+04  0.29683587400E+04  0.17008450047E+04 0.  0.
        4    1    3    3  502    0  0.55903492548E+03  0.13486839075E+02  0.98184481032E+02  0.56775324565E+03  0.12699999809E+01 0. -1.
       -4    1    3    3    0  502 -0.55903492548E+03 -0.13486839075E+02  0.23345670228E+04  0.24006054944E+04  0.12699999809E+01 0.  1.
</event>
<event>
 5   0  0.1423543E-05  0.1699770E+04  0.7818609E-02  0.8761496E-01
        2   -1    0    0  501    0  0.00000000000E+00  0.00000000000E+00  0.14260708014E+04  0.14260708014E+04  0.25500000920E-02 0.  1.
       -2   -1    0    0    0  501  0.00000000000E+00  0.00000000000E+00 -0.50649967526E+03  0.50649967526E+03  0.25500000920E-02 0. -1.
    10030    2    1    2    0    0  0.00000000000E+00  0.00000000000E+00  0.91957112619E+03  0.19325704767E+04  0.16997698642E+04 0.  0.
        3    1    3    3  502    0  0.73903521790E+03  0.28633140040E+03  0.80864090345E+03  0.11322803739E+04  0.10100000352E+00 0. -1.
       -3    1    3    3    0  502 -0.73903521790E+03 -0.28633140040E+03  0.11093022274E+03  0.80029010282E+03  0.10100000352E+00 0.  1.
</event>
<event>
 5   0  0.1423543E-05  0.1698574E+04  0.7818609E-02  0.8762178E-01
       -2   -1    0    0    0  501  0.00000000000E+00  0.00000000000E+00  0.83803419936E+03  0.83803419937E+03  0.25500000920E-02 0. -1.
        2   -1    0    0  501    0  0.00000000000E+00  0.00000000000E+00 -0.86069085857E+03  0.86069085857E+03  0.25500000920E-02 0.  1.
    10030    2    1    2    0    0  0.00000000000E+00  0.00000000000E+00 -0.22656659204E+02  0.16987250579E+04  0.16985739602E+04 0.  0.
        3    1    3    3  502    0  0.63807443826E+03  0.55986286124E+03 -0.37843934060E+02  0.84971617950E+03  0.10100000352E+00 0. -1.
       -3    1    3    3    0  502 -0.63807443826E+03 -0.55986286124E+03  0.15187274856E+02  0.84900887844E+03  0.10100000352E+00 0.  1.
</event>
<event>
 5   0  0.1374441E-05  0.1698936E+04  0.7818609E-02  0.8761971E-01
        2   -1    0    0  501    0  0.00000000000E+00  0.00000000000E+00  0.13689886990E+04  0.13689886990E+04  0.25500000920E-02 0.  1.
       -2   -1    0    0    0  501  0.00000000000E+00  0.00000000000E+00 -0.52710171630E+03  0.52710171631E+03  0.25500000920E-02 0. -1.
    10030    2    1    2    0    0  0.00000000000E+00  0.00000000000E+00  0.84188698265E+03  0.18960904153E+04  0.16989364824E+04 0.  0.
        1    1    3    3  502    0  0.43836677452E+03  0.82395178088E+01 -0.39106146735E+03  0.58750522544E+03  0.50400001928E-02 0. -1.
       -1    1    3    3    0  502 -0.43836677452E+03 -0.82395178088E+01  0.12329484500E+04  0.13085851898E+04  0.50400001928E-02 0.  1.
</event>
<event>
 5   0  0.7082527E-06  0.1702694E+04  0.7818609E-02  0.8759830E-01
        1   -1    0    0  501    0  0.00000000000E+00  0.00000000000E+00  0.19923867698E+04  0.19923867698E+04  0.50400001928E-02 0. -1.
       -1   -1    0    0    0  501  0.00000000000E+00  0.00000000000E+00 -0.36378051657E+03  0.36378051661E+03  0.50400001928E-02 0.  1.
    10030    2    1    2    0    0  0.00000000000E+00  0.00000000000E+00  0.16286062532E+04  0.23561672864E+04  0.17026937345E+04 0.  0.
        1    1    3    3  502    0  0.11454349180E+03 -0.47751197547E+03 -0.14805516350E+03  0.51289202538E+03  0.50400001928E-02 0.  1.
       -1    1    3    3    0  502 -0.11454349180E+03  0.47751197547E+03  0.17766614167E+04  0.18432752610E+04  0.50400001928E-02 0. -1.
</event>
<event>
 5   0  0.1435301E-05  0.1699263E+04  0.7818609E-02  0.8761785E-01
        2   -1    0    0  501    0  0.00000000000E+00  0.00000000000E+00  0.25480519343E+04  0.25480519343E+04  0.25500000920E-02 0.  1.
       -2   -1    0    0    0  501  0.00000000000E+00  0.00000000000E+00 -0.28330398556E+03  0.28330398557E+03  0.25500000920E-02 0. -1.
    10030    2    1    2    0    0  0.00000000000E+00  0.00000000000E+00  0.22647479487E+04  0.28313559199E+04  0.16992625088E+04 0.  0.
        2    1    3    3  502    0 -0.23494316732E+03 -0.11390066630E+03 -0.21480026524E+03  0.33809881338E+03  0.25500000920E-02 0. -1.
       -2    1    3    3    0  502  0.23494316732E+03  0.11390066630E+03  0.24795482140E+04  0.24932571065E+04  0.25500000920E-02 0.  1.
</event>
<event>
 5   0  0.1423543E-05  0.1700776E+04  0.7818609E-02  0.8760922E-01
        2   -1    0    0  501    0  0.00000000000E+00  0.00000000000E+00  0.91626343105E+03  0.91626343105E+03  0.25500000920E-02 0. -1.
       -2   -1    0    0    0  501  0.00000000000E+00  0.00000000000E+00 -0.78924891541E+03  0.78924891541E+03  0.25500000920E-02 0.  1.
    10030    2    1    2    0    0  0.00000000000E+00  0.00000000000E+00  0.12701451564E+03  0.17055123465E+04  0.17007761983E+04 0.  0.
        3    1    3    3  502    0 -0.53171445229E+03 -0.36634780735E+03  0.61842780993E+03  0.89408273724E+03  0.10100000352E+00 0. -1.
       -3    1    3    3    0  502  0.53171445229E+03  0.36634780735E+03 -0.49141329429E+03  0.81142960923E+03  0.10100000352E+00 0.  1.
</event>
<event>
 5   0  0.7082527E-06  0.1700163E+04  0.7818609E-02  0.8761272E-01
       -1   -1    0    0    0  501  0.00000000000E+00  0.00000000000E+00  0.45392705048E+03  0.45392705051E+03  0.50400001928E-02 0. -1.
        1   -1    0    0  501    0  0.00000000000E+00  0.00000000000E+00 -0.15919703175E+04  0.15919703175E+04  0.50400001928E-02 0.  1.
    10030    2    1    2    0    0  0.00000000000E+00  0.00000000000E+00 -0.11380432670E+04  0.20458973680E+04  0.17001628048E+04 0.  0.
        1    1    3    3  502    0  0.33680276105E+03  0.54262823761E+03  0.10609833459E+03  0.64740895941E+03  0.50400001928E-02 0. -1.
       -1    1    3    3    0  502 -0.33680276105E+03 -0.54262823761E+03 -0.12441416016E+04  0.13984884086E+04  0.50400001928E-02 0.  1.
</event>
<event>
 5   0  0.1419012E-05  0.1700029E+04  0.7818609E-02  0.8761348E-01
       -2   -1    0    0    0  501  0.00000000000E+00  0.00000000000E+00  0.11049086883E+04  0.11049086883E+04  0.25500000920E-02 0. -1.
        2   -1    0    0  501    0  0.00000000000E+00  0.00000000000E+00 -0.65392271132E+03  0.65392271132E+03  0.25500000920E-02 0.  1.
    10030    2    1    2    0    0  0.00000000000E+00  0.00000000000E+00  0.45098597700E+03  0.17588313996E+04  0.17000292765E+04 0.  0.
        4    1    3    3  502    0 -0.19383681241E+03 -0.82579489234E+03  0.28228577725E+03  0.89397806852E+03  0.12699999809E+01 0. -1.
       -4    1    3    3    0  502  0.19383681241E+03  0.82579489234E+03  0.16870019975E+03  0.86485333112E+03  0.12699999809E+01 0.  1.
</event>
<event>
 5   0  0.5229750E-06  0.1699112E+04  0.7818609E-02  0.8761871E-01
        3   -1    0    0  501    0  0.00000000000E+00  0.00000000000E+00  0.39420821544E+03  0.39420822838E+03  0.10100000352E+00 0. -1.
       -3   -1    0    0    0  501  0.00000000000E+00  0.00000000000E+00 -0.18308736685E+04  0.18308736713E+04  0.10100000352E+00 0.  1.
    10030    2    1    2    0    0  0.00000000000E+00  0.00000000000E+00 -0.14366654531E+04  0.22250818997E+04  0.16991120729E+04 0.  0.
        2    1    3    3  502    0 -0.67382059827E+03  0.83043938127E+02 -0.13871234311E+04  0.15443580891E+04  0.25500000920E-02 0.  1.
       -2    1    3    3    0  502  0.67382059827E+03 -0.83043938127E+02 -0.49542021964E+02  0.68072381055E+03  0.25500000920E-02 0. -1.
</event>
<event>
 5   0  0.1441756E-05  0.1700700E+04  0.7818609E-02  0.8760965E-01
        2   -1    0    0  501    0  0.00000000000E+00  0.00000000000E+00  0.14429277574E+04  0.14429277574E+04  0.25500000920E-02 0. -1.
       -2   -1    0    0    0  501  0.00000000000E+00  0.00000000000E+00 -0.50113066881E+03  0.50113066882E+03  0.25500000920E-02 0.  1.
    10030    2    1    2    0    0  0.00000000000E+00  0.00000000000E+00  0.94179708862E+03  0.19440584262E+04  0.17007002700E+04 0.  0.
        5    1    3    3  502    0 -0.51373450815E+03 -0.67061763214E+03  0.58185576971E+03  0.10257823259E+04  0.46999998093E+01 0. -1.
       -5    1    3    3    0  502  0.51373450815E+03  0.67061763214E+03  0.35994131890E+03  0.91827610034E+03  0.46999998093E+01 0.  1.
</event>
<event>
 5   0  0.1419012E-05  0.1700466E+04  0.7818609E-02  0.8761098E-01
       -2   -1    0    0    0  501  0.00000000000E+00  0.00000000000E+00  0.51708264903E+03  0.51708264904E+03  0.25500000920E-02 0. -1.
        2   -1    0    0  501    0  0.00000000000E+00  0.00000000000E+00 -0.13980288753E+04  0.13980288753E+04  0.25500000920E-02 0.  1.
    10030    2    1    2    0    0  0.00000000000E+00  0.00000000000E+00 -0.88094622628E+03  0.19151115243E+04  0.17004663763E+04 0.  0.
        4    1    3    3  502    0 -0.35804178678E+03 -0.11268504285E+03 -0.12996619789E+04  0.13527803636E+04  0.12699999809E+01 0.  1.
       -4    1    3    3    0  502  0.35804178678E+03  0.11268504285E+03  0.41871575259E+03  0.56233116073E+03  0.12699999809E+01 0. -1.
</event>
<event>
 5   0  0.1423543E-05  0.1699769E+04  0.7818609E-02  0.8761496E-01
        2   -1    0    0  501    0  0.00000000000E+00  0.00000000000E+00  0.61866903352E+03  0.61866903353E+03  0.25500000920E-02 0.  1.
       -2   -1    0    0    0  501  0.00000000000E+00  0.00000000000E+00 -0.11675125132E+04  0.11675125132E+04  0.25500000920E-02 0. -1.
    10030    2    1    2    0    0  0.00000000000E+00  0.00000000000E+00 -0.54884347966E+03  0.17861815467E+04  0.16997692057E+04 0.  0.
        3    1    3    3  502    0 -0.21953496395E+03  0.79695732705E+03 -0.66985084981E+02  0.82935130876E+03  0.10100000352E+00 0.  1.
       -3    1    3    3    0  502  0.21953496395E+03 -0.79695732705E+03 -0.48185839468E+03  0.95683023795E+03  0.10100000352E+00 0. -1.
</event>
<event>
 5   0  0.1423543E-05  0.1702208E+04  0.7818609E-02  0.8760106E-01
        2   -1    0    0  501    0  0.00000000000E+00  0.00000000000E+00  0.13962634156E+04  0.13962634156E+04  0.25500000920E-02 0.  1.
       -2   -1    0    0    0  501  0.00000000000E+00  0.00000000000E+00 -0.51879758259E+03  0.51879758259E+03  0.25500000920E-02 0. -1.
    10030    2    1    2    0    0  0.00000000000E+00  0.00000000000E+00  0.87746583301E+03  0.19150609982E+04  0.17022080774E+04 0.  0.
        3    1    3    3  502    0  0.44537051970E+03 -0.69951076743E+03  0.65428364914E+03  0.10562941434E+04  0.10100000352E+00 0.  1.
       -3    1    3    3    0  502 -0.44537051970E+03  0.69951076743E+03  0.22318218387E+03  0.85876685484E+03  0.10100000352E+00 0. -1.
</event>
<event>
 5   0  0.1419012E-05  0.1699653E+04  0.7818609E-02  0.8761562E-01
        2   -1    0    0  501    0  0.00000000000E+00  0.00000000000E+00  0.12747964581E+04  0.12747964581E+04  0.25500000920E-02 0.  1.
       -2   -1    0    0    0  501  0.00000000000E+00  0.00000000000E+00 -0.56652583992E+03  0.56652583993E+03  0.25500000920E-02 0. -1.
    10030    2    1    2    0    0  0.00000000000E+00  0.00000000000E+00  0.70827061816E+03  0.18413222980E+04  0.16996530636E+04 0.  0.
        4    1    3    3  502    0  0.14512793375E+03  0.55752696940E+03  0.10309528946E+04  0.11810012373E+04  0.12699999809E+01 0.  1.
       -4    1    3    3    0  502 -0.14512793375E+03 -0.55752696940E+03 -0.32268227645E+03  0.66032106069E+03  0.12699999809E+01 0. -1.
</event>
<event>
 5   0  0.1423543E-05  0.1699801E+04  0.7818609E-02  0.8761478E-01
        2   -1    0    0  501    0  0.00000000000E+00  0.00000000000E+00  0.51588999702E+03  0.51588999702E+03  0.25500000920E-02 0. -1.
       -2   -1    0    0    0  501  0.00000000000E+00  0.00000000000E+00 -0.14001644332E+04  0.14001644332E+04  0.25500000920E-02 0.  1.
    10030    2    1    2    0    0  0.00000000000E+00  0.00000000000E+00 -0.88427443621E+03  0.19160544303E+04  0.16998009593E+04 0.  0.
        3    1    3    3  502    0 -0.17368926774E+03 -0.83183784006E+03 -0.42585436023E+03  0.95051254605E+03  0.10100000352E+00 0.  1.
       -3    1    3    3    0  502  0.17368926774E+03  0.83183784006E+03 -0.45842007599E+03  0.96554188420E+03  0.10100000352E+00 0. -1.
</event>
<event>
 5   0  0.7583716E-06  0.1698640E+04  0.7818609E-02  0.8762140E-01
        1   -1    0    0  501    0  0.00000000000E+00  0.00000000000E+00  0.12108066469E+04  0.12108066469E+04  0.50400001928E-02 0.  1.
       -1   -1    0    0    0  501  0.00000000000E+00  0.00000000000E+00 -0.59575518333E+03  0.59575518336E+03  0.50400001928E-02 0. -1.
    10030    2    1    2    0    0  0.00000000000E+00  0.00000000000E+00  0.61505146356E+03  0.18065618303E+04  0.16986398511E+04 0.  0.
        5    1    3    3  502    0  0.27445306856E+03  0.14213696479E+03  0.11488579323E+04  0.11897159502E+04  0.46999998093E+01 0.  1.
       -5    1    3    3    0  502 -0.27445306856E+03 -0.14213696479E+03 -0.53380646876E+03  0.61684588002E+03  0.46999998093E+01 0. -1.
</event>
<event>
 5   0  0.1374441E-05  0.1700504E+04  0.7818609E-02  0.8761077E-01
       -2   -1    0    0    0  501  0.00000000000E+00  0.00000000000E+00  0.70488245091E+03  0.70488245092E+03  0.25500000920E-02 0.  1.
        2   -1    0    0  501    0  0.00000000000E+00  0.00000000000E+00 -0.10256020374E+04  0.10256020374E+04  0.25500000920E-02 0. -1.
    10030    2    1    2    0    0  0.00000000000E+00  0.00000000000E+00 -0.32071958647E+03  0.17304844883E+04  0.17005044872E+04 0.  0.
        1    1    3    3  502    0 -0.42237657925E+03  0.42627225680E+03  0.45260405239E+03  0.75163850346E+03  0.50400001928E-02 0.  1.
       -1    1    3    3    0  502  0.42237657925E+03 -0.42627225680E+03 -0.77332363886E+03  0.97884598485E+03  0.50400001928E-02 0. -1.
</event>
<event>
 5   0  0.7461128E-06  0.1699427E+04  0.7818609E-02  0.8761691E-01
        1   -1    0    0  501    0  0.00000000000E+00  0.00000000000E+00  0.98127097557E+03  0.98127097559E+03  0.50400001928E-02 0. -1.
       -1   -1    0    0    0  501  0.00000000000E+00  0.00000000000E+00 -0.73579332961E+03  0.73579332962E+03  0.50400001928E-02 0.  1.
    10030    2    1    2    0    0  0.00000000000E+00  0.00000000000E+00  0.24547764597E+03  0.17170643052E+04  0.16994265367E+04 0.  0.
        3    1    3    3  502    0  0.18532417895E+03  0.37680506126E+03 -0.62363324911E+03  0.75182813534E+03  0.10100000352E+00 0.  1.
       -3    1    3    3    0  502 -0.18532417895E+03 -0.37680506126E+03  0.86911089508E+03  0.96523616987E+03  0.10100000352E+00 0. -1.
</event>
<event>
 5   0  0.1419012E-05  0.1699823E+04  0.7818609E-02  0.8761465E-01
       -2   -1    0    0    0  501  0.00000000000E+00  0.00000000000E+00  0.72930436689E+03  0.72930436689E+03  0.25500000920E-02 0.  1.
        2   -1    0    0  501    0  0.00000000000E+00  0.00000000000E+00 -0.99046342750E+03  0.99046342751E+03  0.25500000920E-02 0. -1.
    10030    2    1    2    0    0  0.00000000000E+00  0.00000000000E+00 -0.26115906061E+03  0.17197677944E+04  0.16998227001E+04 0.  0.
        4    1    3    3  502    0  0.33105710650E+03  0.40218424225E+03  0.54886323338E+03  0.75670564576E+03  0.12699999809E+01 0.  1.
       -4    1    3    3    0  502 -0.33105710650E+03 -0.40218424225E+03 -0.81002229399E+03  0.96306214864E+03  0.12699999809E+01 0. -1.
</event>
<event>
 5   0  0.1419012E-05  0.1701228E+04  0.7818609E-02  0.8760664E-01
       -2   -1    0    0    0  501  0.00000000000E+00  0.00000000000E+00  0.31613786811E+03  0.31613786812E+03  0.25500000920E-02 0.  1.
        2   -1    0    0  501    0  0.00000000000E+00  0.00000000000E+00 -0.22886993805E+04  0.22886993805E+04  0.25500000920E-02 0. -1.
    10030    2    1    2    0    0  0.00000000000E+00  0.00000000000E+00 -0.19725615124E+04  0.26048372486E+04  0.17012284302E+04 0.  0.
        4    1    3    3  502    0  0.75803882447E+03  0.38567274362E+03 -0.10066286752E+04  0.13178274649E+04  0.12699999809E+01 0. -1.
       -4    1    3    3    0  502 -0.75803882447E+03 -0.38567274362E+03 -0.96593283721E+03  0.12870097838E+04  0.12699999809E+01 0.  1.
</event>
<event>
 5   0  0.5229750E-06  0.1701774E+04  0.7818609E-02  0.8760353E-01
       -3   -1    0    0    0  501  0.00000000000E+00  0.00000000000E+00  0.14576114955E+04  0.14576114990E+04  0.10100000352E+00 0.  1.
        3   -1    0    0  501    0  0.00000000000E+00  0.00000000000E+00 -0.49670918460E+03  0.49670919487E+03  0.10100000352E+00 0. -1.
    10030    2    1    2    0    0  0.00000000000E+00  0.00000000000E+00  0.96090231086E+03  0.19543206938E+04  0.17017744044E+04 0.  0.
        3    1    3    3  502    0 -0.73910406365E+03 -0.23185254876E+03  0.88481024138E+03  0.11759760179E+04  0.10100000352E+00 0.  1.
       -3    1    3    3    0  502  0.73910406365E+03  0.23185254876E+03  0.76092069473E+02  0.77834467591E+03  0.10100000352E+00 0. -1.
</event>
<event>
 5   0  0.1419012E-05  0.1699945E+04  0.7818609E-02  0.8761396E-01
       -2   -1    0    0    0  501  0.00000000000E+00  0.00000000000E+00  0.75623461868E+03  0.75623461869E+03  0.25500000920E-02 0. -1.
        2   -1    0    0  501    0  0.00000000000E+00  0.00000000000E+00 -0.95532961894E+03  0.95532961895E+03  0.25500000920E-02 0.  1.
    10030    2    1    2    0    0  0.00000000000E+00  0.00000000000E+00 -0.19909500026E+03  0.17115642376E+04  0.16999450934E+04 0.  0.
        4    1    3    3  502    0 -0.36524160792E+03  0.39906073763E+03 -0.75962043467E+03  0.93256405792E+03  0.12699999809E+01 0.  1.
       -4    1    3    3    0  502  0.36524160792E+03 -0.39906073763E+03  0.56052543440E+03  0.77900017971E+03  0.12699999809E+01 0. -1.
</event>
<event>
 5   0  0.1374441E-05  0.1700112E+04  0.7818609E-02  0.8761300E-01
       -2   -1    0    0    0  501  0.00000000000E+00  0.00000000000E+00  0.49700800041E+03  0.49700800042E+03  0.25500000920E-02 0.  1.
        2   -1    0    0  501    0  0.00000000000E+00  0.00000000000E+00 -0.14538907971E+04  0.14538907971E+04  0.25500000920E-02 0. -1.
    10030    2    1    2    0    0  0.00000000000E+00  0.00000000000E+00 -0.95688279673E+03  0.19508987976E+04  0.17001121821E+04 0.  0.
        1    1    3    3  502    0 -0.72768429787E+03  0.43803049995E+03 -0.43868708375E+03  0.95595058121E+03  0.50400001928E-02 0. -1.
       -1    1    3    3    0  502  0.72768429787E+03 -0.43803049995E+03 -0.51819571298E+03  0.99494821635E+03  0.50400001928E-02 0.  1.
</event>
<event>
 5   0  0.7455669E-06  0.1700784E+04  0.7818609E-02  0.8760918E-01
        1   -1    0    0  501    0  0.00000000000E+00  0.00000000000E+00  0.80075824683E+03  0.80075824685E+03  0.50400001928E-02 0.  1.
       -1   -1    0    0    0  501  0.00000000000E+00  0.00000000000E+00 -0.90310170648E+03  0.90310170649E+03  0.50400001928E-02 0. -1.
    10030    2    1    2    0    0  0.00000000000E+00  0.00000000000E+00 -0.10234345964E+03  0.17038599533E+04  0.17007835126E+04 0.  0.
        4    1    3    3  502    0  0.25518165427E+03 -0.40610805457E+03  0.65232572577E+03  0.80967394306E+03  0.12699999809E+01 0.  1.
       -4    1    3    3    0  502 -0.25518165427E+03  0.40610805457E+03 -0.75466918542E+03  0.89418601028E+03  0.12699999809E+01 0. -1.
</event>
<event>
 5   0  0.5229750E-06  0.1699890E+04  0.7818609E-02  0.8761427E-01
        3   -1    0    0  501    0  0.00000000000E+00  0.00000000000E+00  0.97126077686E+03  0.97126078211E+03  0.10100000352E+00 0.  1.
       -3   -1    0    0    0  501  0.00000000000E+00  0.00000000000E+00 -0.74378259119E+03  0.74378259805E+03  0.10100000352E+00 0. -1.
    10030    2    1    2    0    0  0.00000000000E+00  0.00000000000E+00  0.22747818567E+03  0.17150433802E+04  0.16998904291E+04 0.  0.
        5    1    3    3  502    0 -0.57147811265E+03 -0.45992780535E+03 -0.31934714068E+03  0.80007843717E+03  0.46999998093E+01 0. -1.
       -5    1    3    3    0  502  0.57147811265E+03  0.45992780535E+03  0.54682532635E+03  0.91496494299E+03  0.46999998093E+01 0.  1.
</event>
<event>
 5   0  0.7583716E-06  0.1699756E+04  0.7818609E-02  0.8761504E-01
       -1   -1    0    0    0  501  0.00000000000E+00  0.00000000000E+00  0.40089850095E+03  0.40089850099E+03  0.50400001928E-02 0.  1.
        1   -1    0    0  501    0  0.00000000000E+00  0.00000000000E+00 -0.18016842489E+04  0.18016842489E+04  0.50400001928E-02 0. -1.
    10030    2    1    2    0    0  0.00000000000E+00  0.00000000000E+00 -0.14007857480E+04  0.22025827499E+04  0.16997558820E+04 0.  0.
        5    1    3    3  502    0  0.33071575054E+03 -0.77924212604E+03 -0.60273882486E+03  0.10391859216E+04  0.46999998093E+01 0. -1.
       -5    1    3    3    0  502 -0.33071575054E+03  0.77924212604E+03 -0.79804692310E+03  0.11633968283E+04  0.46999998093E+01 0.  1.
</event>
<event>
 5   0  0.1419012E-05  0.1699052E+04  0.7818609E-02  0.8761905E-01
       -2   -1    0    0    0  501  0.00000000000E+00  0.00000000000E+00  0.80736330912E+03  0.80736330913E+03  0.25500000920E-02 0.  1.
        2   -1    0    0  501    0  0.00000000000E+00  0.00000000000E+00 -0.89389081333E+03  0.89389081333E+03  0.25500000920E-02 0. -1.
    10030    2    1    2    0    0  0.00000000000E+00  0.00000000000E+00 -0.86527504203E+02  0.17012541225E+04  0.16990522594E+04 0.  0.
        4    1    3    3  502    0 -0.33285505397E+02  0.78090723059E+03 -0.37651484303E+03  0.86757654855E+03  0.12699999809E+01 0. -1.
       -4    1    3    3    0  502  0.33285505397E+02 -0.78090723059E+03  0.28998733883E+03  0.83367757391E+03  0.12699999809E+01 0.  1.
</event>
<event>
 5   0  0.1374441E-05  0.1700336E+04  0.7818609E-02  0.8761173E-01
        2   -1    0    0  501    0  0.00000000000E+00  0.00000000000E+00  0.18837521367E+04  0.18837521367E+04  0.25500000920E-02 0.  1.
       -2   -1    0    0    0  501  0.00000000000E+00  0.00000000000E+00 -0.38369470855E+03  0.38369470856E+03  0.25500000920E-02 0. -1.
    10030    2    1    2    0    0  0.00000000000E+00  0.00000000000E+00  0.15000574281E+04  0.22674468452E+04  0.17003361163E+04 0.  0.
        1    1    3    3  502    0  0.26416908245E+03  0.75606568180E+02 -0.32284793891E+03  0.42394863953E+03  0.50400001928E-02 0. -1.
       -1    1    3    3    0  502 -0.26416908245E+03 -0.75606568180E+02  0.18229053670E+04  0.18434982057E+04  0.50400001928E-02 0.  1.
</event>
<event>
 5   0  0.1435301E-05  0.1700503E+04  0.7818609E-02  0.8761077E-01
        2   -1    0    0  501    0  0.00000000000E+00  0.00000000000E+00  0.12856820995E+04  0.12856820995E+04  0.25500000920E-02 0. -1.
       -2   -1    0    0    0  501  0.00000000000E+00  0.00000000000E+00 -0.56229126420E+03  0.56229126420E+03  0.25500000920E-02 0.  1.
    10030    2    1    2    0    0  0.00000000000E+00  0.00000000000E+00  0.72339083527E+03  0.18479733637E+04  0.17005032350E+04 0.  0.
        2    1    3    3  502    0 -0.64993990114E+03 -0.44066115920E+03  0.71604607763E+03  0.10626975664E+04  0.25500000920E-02 0. -1.
       -2    1    3    3    0  502  0.64993990114E+03  0.44066115920E+03  0.73447576362E+01  0.78527579728E+03  0.25500000920E-02 0.  1.
</event>
<event>
 5   0  0.1441756E-05  0.1699615E+04  0.7818609E-02  0.8761584E-01
        2   -1    0    0  501    0  0.00000000000E+00  0.00000000000E+00  0.20768154140E+04  0.20768154140E+04  0.25500000920E-02 0.  1.
       -2   -1    0    0    0  501  0.00000000000E+00  0.00000000000E+00 -0.34773104799E+03  0.34773104800E+03  0.25500000920E-02 0. -1.
    10030    2    1    2    0    0  0.00000000000E+00  0.00000000000E+00  0.17290843660E+04  0.24245464620E+04  0.16996154864E+04 0.  0.
        5    1    3    3  502    0  0.79955034594E+02 -0.43518542392E+02  0.20698215045E+04  0.20718276525E+04  0.46999998093E+01 0.  1.
       -5    1    3    3    0  502 -0.79955034594E+02  0.43518542392E+02 -0.34073713846E+03  0.35271880955E+03  0.46999998093E+01 0. -1.
</event>
<event>
 5   0  0.1435301E-05  0.1698871E+04  0.7818609E-02  0.8762009E-01
       -2   -1    0    0    0  501  0.00000000000E+00  0.00000000000E+00  0.97081596767E+03  0.97081596767E+03  0.25500000920E-02 0.  1.
        2   -1    0    0  501    0  0.00000000000E+00  0.00000000000E+00 -0.74323111789E+03  0.74323111789E+03  0.25500000920E-02 0. -1.
    10030    2    1    2    0    0  0.00000000000E+00  0.00000000000E+00  0.22758484978E+03  0.17140470856E+04  0.16988709626E+04 0.  0.
        2    1    3    3  502    0  0.81395493415E+03 -0.12422996342E+03  0.32442739365E+03  0.88499087701E+03  0.25500000920E-02 0.  1.
       -2    1    3    3    0  502 -0.81395493415E+03  0.12422996342E+03 -0.96842543868E+02  0.82905620855E+03  0.25500000920E-02 0. -1.
</event>
<event>
 5   0  0.7461128E-06  0.1699913E+04  0.7818609E-02  0.8761414E-01
       -1   -1    0    0    0  501  0.00000000000E+00  0.00000000000E+00  0.73099185282E+03  0.73099185284E+03  0.50400001928E-02 0.  1.
        1   -1    0    0  501    0  0.00000000000E+00  0.00000000000E+00 -0.98828228121E+03  0.98828228122E+03  0.50400001928E-02 0. -1.
    10030    2    1    2    0    0  0.00000000000E+00  0.00000000000E+00 -0.25729042839E+03  0.17192741341E+04  0.16999132871E+04 0.  0.
        3    1    3    3  502    0 -0.79216325976E+03 -0.30779184009E+03 -0.11554240377E+03  0.85767622342E+03  0.10100000352E+00 0. -1.
       -3    1    3    3    0  502  0.79216325976E+03  0.30779184009E+03 -0.14174802462E+03  0.86159791064E+03  0.10100000352E+00 0.  1.
</event>
<event>
 5   0  0.1374441E-05  0.1698622E+04  0.7818609E-02  0.8762151E-01
       -2   -1    0    0    0  501  0.00000000000E+00  0.00000000000E+00  0.41556044942E+03  0.41556044943E+03  0.25500000920E-02 0.  1.
        2   -1    0    0  501    0  0.00000000000E+00  0.00000000000E+00 -0.17357976485E+04  0.17357976485E+04  0.25500000920E-02 0. -1.
    10030    2    1    2    0    0  0.00000000000E+00  0.00000000000E+00 -0.13202371991E+04  0.21513580980E+04  0.16986216188E+04 0.  0.
        1    1    3    3  502    0  0.70365725782E+03  0.19947707882E+03 -0.11329919677E+03  0.74010901188E+03  0.50400001928E-02 0.  1.
       -1    1    3    3    0  502 -0.70365725782E+03 -0.19947707882E+03 -0.12069380023E+04  0.14112490861E+04  0.50400001928E-02 0. -1.
</event>
<event>
 5   0  0.7476457E-06  0.1695364E+04  0.7818609E-02  0.8764013E-01
       -1   -1    0    0    0  501  0.00000000000E+00  0.00000000000E+00  0.14460483925E+04  0.14460483925E+04  0.50400001928E-02 0. -1.
        1   -1    0    0  501    0  0.00000000000E+00  0.00000000000E+00 -0.49691590689E+03  0.49691590692E+03  0.50400001928E-02 0.  1.
    10030    2    1    2    0    0  0.00000000000E+00  0.00000000000E+00  0.94913248564E+03  0.19429642995E+04  0.16953636169E+04 0.  0.
        2    1    3    3  502    0 -0.84383240569E+03  0.21168548473E+02  0.38532752091E+03  0.92788929011E+03  0.25500000920E-02 0.  1.
       -2    1    3    3    0  502  0.84383240569E+03 -0.21168548473E+02  0.56380496473E+03  0.10150750093E+04  0.25500000920E-02 0. -1.
</event>
<event>
 5   0  0.7455669E-06  0.1696937E+04  0.7818609E-02  0.8763113E-01
        1   -1    0    0  501    0  0.00000000000E+00  0.00000000000E+00  0.16681201769E+04  0.16681201769E+04  0.50400001928E-02 0. -1.
       -1   -1    0    0    0  501  0.00000000000E+00  0.00000000000E+00 -0.43156300037E+03  0.43156300040E+03  0.50400001928E-02 0.  1.
    10030    2    1    2    0    0  0.00000000000E+00  0.00000000000E+00  0.12365571765E+04  0.20996831773E+04  0.16969371804E+04 0.  0.
        4    1    3    3  502    0  0.15402830938E+03  0.83336892607E+03  0.66882571534E+03  0.10796100858E+04  0.12699999809E+01 0. -1.
       -4    1    3    3    0  502 -0.15402830938E+03 -0.83336892607E+03  0.56773146119E+03  0.10200730915E+04  0.12699999809E+01 0.  1.
</event>
<event>
 5   0  0.1423543E-05  0.1699871E+04  0.7818609E-02  0.8761438E-01
       -2   -1    0    0    0  501  0.00000000000E+00  0.00000000000E+00  0.10166307544E+04  0.10166307544E+04  0.25500000920E-02 0.  1.
        2   -1    0    0  501    0  0.00000000000E+00  0.00000000000E+00 -0.71057313646E+03  0.71057313646E+03  0.25500000920E-02 0. -1.
    10030    2    1    2    0    0  0.00000000000E+00  0.00000000000E+00  0.30605761790E+03  0.17272038908E+04  0.16998711760E+04 0.  0.
        3    1    3    3  502    0 -0.44552482262E+02 -0.63186408613E+03 -0.42278731765E+03  0.76156829843E+03  0.10100000352E+00 0. -1.
       -3    1    3    3    0  502  0.44552482262E+02  0.63186408613E+03  0.72884493555E+03  0.96563559239E+03  0.10100000352E+00 0.  1.
</event>
<event>
 5   0  0.1441756E-05  0.1700991E+04  0.7818609E-02  0.8760800E-01
        2   -1    0    0  501    0  0.00000000000E+00  0.00000000000E+00  0.12936065738E+04  0.12936065738E+04  0.25500000920E-02 0.  1.
       -2   -1    0    0    0  501  0.00000000000E+00  0.00000000000E+00 -0.55916708669E+03  0.55916708670E+03  0.25500000920E-02 0. -1.
    10030    2    1    2    0    0  0.00000000000E+00  0.00000000000E+00  0.73443948713E+03  0.18527736605E+04  0.17009905575E+04 0.  0.
        5    1    3    3  502    0  0.68938905503E+03  0.44796903401E+03  0.13011062241E+03  0.83239677360E+03  0.46999998093E+01 0. -1.
       -5    1    3    3    0  502 -0.68938905503E+03 -0.44796903401E+03  0.60432886473E+03  0.10203768869E+04  0.46999998093E+01 0.  1.
</event>
<event>
 5   0  0.5229750E-06  0.1700099E+04  0.7818609E-02  0.8761308E-01
        3   -1    0    0  501    0  0.00000000000E+00  0.00000000000E+00  0.18278018260E+04  0.18278018288E+04  0.10100000352E+00 0. -1.
       -3   -1    0    0    0  501  0.00000000000E+00  0.00000000000E+00 -0.39532975955E+03  0.39532977245E+03  0.10100000352E+00 0.  1.
    10030    2    1    2    0    0  0.00000000000E+00  0.00000000000E+00  0.14324720665E+04  0.22231316013E+04  0.17000993781E+04 0.  0.
        3    1    3    3  502    0  0.75564886612E+03 -0.22902837306E+03  0.11279380850E+04  0.13768455027E+04  0.10100000352E+00 0. -1.
       -3    1    3    3    0  502 -0.75564886612E+03  0.22902837306E+03  0.30453398148E+03  0.84628609856E+03  0.10100000352E+00 0.  1.
</event>
<event>
 5   0  0.1441756E-05  0.1702927E+04  0.7818609E-02  0.8759697E-01
       -2   -1    0    0    0  501  0.00000000000E+00  0.00000000000E+00  0.30126811380E+03  0.30126811381E+03  0.25500000920E-02 0.  1.
        2   -1    0    0  501    0  0.00000000000E+00  0.00000000000E+00 -0.24064616352E+04  0.24064616352E+04  0.25500000920E-02 0. -1.
    10030    2    1    2    0    0  0.00000000000E+00  0.00000000000E+00 -0.21051935214E+04  0.27077297490E+04  0.17029270775E+04 0.  0.
        5    1    3    3  502    0  0.64093748949E+03  0.34967891779E+03 -0.17491230904E+04  0.18953970260E+04  0.46999998093E+01 0. -1.
       -5    1    3    3    0  502 -0.64093748949E+03 -0.34967891779E+03 -0.35607043102E+03  0.81233272298E+03  0.46999998093E+01 0.  1.
</event>
<event>
 5   0  0.1374441E-05  0.1701238E+04  0.7818609E-02  0.8760659E-01
       -2   -1    0    0    0  501  0.00000000000E+00  0.00000000000E+00  0.36617732069E+03  0.36617732070E+03  0.25500000920E-02 0.  1.
        2   -1    0    0  501    0  0.00000000000E+00  0.00000000000E+00 -0.19759628145E+04  0.19759628145E+04  0.25500000920E-02 0. -1.
    10030    2    1    2    0    0  0.00000000000E+00  0.00000000000E+00 -0.16097854939E+04  0.23421401352E+04  0.17012381012E+04 0.  0.
        1    1    3    3  502    0  0.43858340601E+03  0.10617212130E+03  0.18780734355E+03  0.48877348709E+03  0.50400001928E-02 0.  1.
       -1    1    3    3    0  502 -0.43858340601E+03 -0.10617212130E+03 -0.17975928374E+04  0.18533666482E+04  0.50400001928E-02 0. -1.
</event>
<event>
 5   0  0.7455669E-06  0.1700404E+04  0.7818609E-02  0.8761134E-01
       -1   -1    0    0    0  501  0.00000000000E+00  0.00000000000E+00  0.48298154208E+03  0.48298154211E+03  0.50400001928E-02 0.  1.
        1   -1    0    0  501    0  0.00000000000E+00  0.00000000000E+00 -0.14966278178E+04  0.14966278178E+04  0.50400001928E-02 0. -1.
    10030    2    1    2    0    0  0.00000000000E+00  0.00000000000E+00 -0.10136462757E+04  0.19796093599E+04  0.17004042006E+04 0.  0.
        4    1    3    3  502    0 -0.60015274081E+03  0.25182834681E+02  0.19365779330E+03  0.63112791197E+03  0.12699999809E+01 0.  1.
       -4    1    3    3    0  502  0.60015274081E+03 -0.25182834681E+02 -0.12073040690E+04  0.13484814479E+04  0.12699999809E+01 0. -1.
</event>
<event>
 5   0  0.5229750E-06  0.1698573E+04  0.7818609E-02  0.8762179E-01
       -3   -1    0    0    0  501  0.00000000000E+00  0.00000000000E+00  0.31658948900E+03  0.31658950511E+03  0.10100000352E+00 0. -1.
        3   -1    0    0  501    0  0.00000000000E+00  0.00000000000E+00 -0.22783043046E+04  0.22783043068E+04  0.10100000352E+00 0.  1.
    10030    2    1    2    0    0  0.00000000000E+00  0.00000000000E+00 -0.19617148156E+04  0.25948938119E+04  0.16985726000E+04 0.  0.
        2    1    3    3  502    0  0.47135883471E+03 -0.64199956270E+03 -0.14313180562E+04  0.16379908325E+04  0.25500000920E-02 0.  1.
       -2    1    3    3    0  502 -0.47135883471E+03  0.64199956270E+03 -0.53039675941E+03  0.95690297939E+03  0.25500000920E-02 0. -1.
</event>
<event>
 5   0  0.1441756E-05  0.1700366E+04  0.7818609E-02  0.8761156E-01
       -2   -1    0    0    0  501  0.00000000000E+00  0.00000000000E+00  0.76122441514E+03  0.76122441514E+03  0.25500000920E-02 0.  1.
        2   -1    0    0  501    0  0.00000000000E+00  0.00000000000E+00 -0.94953727001E+03  0.94953727001E+03  0.25500000920E-02 0. -1.
    10030    2    1    2    0    0  0.00000000000E+00  0.00000000000E+00 -0.18831285487E+03  0.17107616852E+04  0.17003657877E+04 0.  0.
        5    1    3    3  502    0 -0.16872293370E+03 -0.11354487463E+03 -0.92469051480E+03  0.94680225236E+03  0.46999998093E+01 0. -1.
       -5    1    3    3    0  502  0.16872293370E+03  0.11354487463E+03  0.73637765993E+03  0.76395943280E+03  0.46999998093E+01 0.  1.
</event>
<event>
 5   0  0.1435301E-05  0.1699271E+04  0.7818609E-02  0.8761780E-01
        2   -1    0    0  501    0  0.00000000000E+00  0.00000000000E+00  0.14535879714E+04  0.14535879714E+04  0.25500000920E-02 0.  1.
       -2   -1    0    0    0  501  0.00000000000E+00  0.00000000000E+00 -0.49661982185E+03  0.49661982186E+03  0.25500000920E-02 0. -1.
    10030    2    1    2    0    0  0.00000000000E+00  0.00000000000E+00  0.95696814952E+03  0.19502077932E+04  0.16992711372E+04 0.  0.
        2    1    3    3  502    0  0.24737255483E+03  0.36203402336E+03 -0.35673402436E+03  0.56526186771E+03  0.25500000920E-02 0. -1.
       -2    1    3    3    0  502 -0.24737255483E+03 -0.36203402336E+03  0.13137021739E+04  0.13849459255E+04  0.25500000920E-02 0.  1.
</event>
<event>
 5   0  0.1423543E-05  0.1700229E+04  0.7818609E-02  0.8761234E-01
       -2   -1    0    0    0  501  0.00000000000E+00  0.00000000000E+00  0.35683325119E+03  0.35683325120E+03  0.25500000920E-02 0.  1.
        2   -1    0    0  501    0  0.00000000000E+00  0.00000000000E+00 -0.20253011651E+04  0.20253011651E+04  0.25500000920E-02 0. -1.
    10030    2    1    2    0    0  0.00000000000E+00  0.00000000000E+00 -0.16684679139E+04  0.23821344163E+04  0.17002291603E+04 0.  0.
        3    1    3    3  502    0  0.82403845232E+03  0.20591969145E+03 -0.78464927950E+03  0.11563376636E+04  0.10100000352E+00 0. -1.
       -3    1    3    3    0  502 -0.82403845232E+03 -0.20591969145E+03 -0.88381863442E+03  0.12257967527E+04  0.10100000352E+00 0.  1.
</event>
<event>
 5   0  0.7082527E-06  0.1701016E+04  0.7818609E-02  0.8760785E-01
        1   -1    0    0  501    0  0.00000000000E+00  0.00000000000E+00  0.17047192967E+04  0.17047192967E+04  0.50400001928E-02 0. -1.
       -1   -1    0    0    0  501  0.00000000000E+00  0.00000000000E+00 -0.42433030816E+03  0.42433030819E+03  0.50400001928E-02 0.  1.
    10030    2    1    2    0    0  0.00000000000E+00  0.00000000000E+00  0.12803889885E+04  0.21290496049E+04  0.17010162428E+04 0.  0.
        1    1    3    3  502    0 -0.70412158418E+03  0.23899082161E+03  0.12343451101E+03  0.75375055334E+03  0.50400001928E-02 0. -1.
       -1    1    3    3    0  502  0.70412158418E+03 -0.23899082161E+03  0.11569544775E+04  0.13752990516E+04  0.50400001928E-02 0.  1.
</event>
<event>
 5   0  0.1423543E-05  0.1700907E+04  0.7818609E-02  0.8760847E-01
        2   -1    0    0  501    0  0.00000000000E+00  0.00000000000E+00  0.20237805761E+04  0.20237805761E+04  0.25500000920E-02 0. -1.
       -2   -1    0    0    0  501  0.00000000000E+00  0.00000000000E+00 -0.35738596684E+03  0.35738596685E+03  0.25500000920E-02 0.  1.
    10030    2    1    2    0    0  0.00000000000E+00  0.00000000000E+00  0.16663946092E+04  0.23811665429E+04  0.17009065558E+04 0.  0.
        3    1    3    3  502    0  0.57643074538E+03  0.34611464730E+01 -0.42169620962E+02  0.57798154891E+03  0.10100000352E+00 0.  1.
       -3    1    3    3    0  502 -0.57643074538E+03 -0.34611464730E+01  0.17085642302E+04  0.18031849940E+04  0.10100000352E+00 0. -1.
</event>
<event>
 5   0  0.1441756E-05  0.1700010E+04  0.7818609E-02  0.8761359E-01
       -2   -1    0    0    0  501  0.00000000000E+00  0.00000000000E+00  0.85123294703E+03  0.85123294704E+03  0.25500000920E-02 0. -1.
        2   -1    0    0  501    0  0.00000000000E+00  0.00000000000E+00 -0.84877906689E+03  0.84877906690E+03  0.25500000920E-02 0.  1.
    10030    2    1    2    0    0  0.00000000000E+00  0.00000000000E+00  0.24538801429E+01  0.17000120139E+04  0.17000102429E+04 0.  0.
        5    1    3    3  502    0  0.61636827354E+01  0.82460128392E+03 -0.20488331340E+03  0.84970849739E+03  0.46999998093E+01 0.  1.
       -5    1    3    3    0  502 -0.61636827354E+01 -0.82460128392E+03  0.20733719354E+03  0.85030351655E+03  0.46999998093E+01 0. -1.
</event>
<event>
 5   0  0.7082527E-06  0.1700500E+04  0.7818609E-02  0.8761079E-01
        1   -1    0    0  501    0  0.00000000000E+00  0.00000000000E+00  0.81150765808E+03  0.81150765809E+03  0.50400001928E-02 0.  1.
       -1   -1    0    0    0  501  0.00000000000E+00  0.00000000000E+00 -0.89084210090E+03  0.89084210091E+03  0.50400001928E-02 0. -1.
    10030    2    1    2    0    0  0.00000000000E+00  0.00000000000E+00 -0.79334442821E+02  0.17023497590E+04  0.17005001465E+04 0.  0.
        1    1    3    3  502    0  0.16762376071E+03 -0.60035802312E+03  0.53923306523E+03  0.82419644487E+03  0.50400001928E-02 0.  1.
       -1    1    3    3    0  502 -0.16762376071E+03  0.60035802312E+03 -0.61856750805E+03  0.87815331413E+03  0.50400001928E-02 0. -1.
</event>
<event>
 5   0  0.7476457E-06  0.1701187E+04  0.7818609E-02  0.8760688E-01
        1   -1    0    0  501    0  0.00000000000E+00  0.00000000000E+00  0.19199028610E+04  0.19199028610E+04  0.50400001928E-02 0. -1.
       -1   -1    0    0    0  501  0.00000000000E+00  0.00000000000E+00 -0.37684683253E+03  0.37684683257E+03  0.50400001928E-02 0.  1.
    10030    2    1    2    0    0  0.00000000000E+00  0.00000000000E+00  0.15430560284E+04  0.22967496935E+04  0.17011870114E+04 0.  0.
        2    1    3    3  502    0 -0.84415419144E+03 -0.46437696016E+02  0.89786433054E+03  0.12332530619E+04  0.25500000920E-02 0.  1.
       -2    1    3    3    0  502  0.84415419144E+03  0.46437696016E+02  0.64519169788E+03  0.10634966317E+04  0.25500000920E-02 0. -1.
</event>
<event>
 5   0  0.1419012E-05  0.1698452E+04  0.7818609E-02  0.8762248E-01
       -2   -1    0    0    0  501  0.00000000000E+00  0.00000000000E+00  0.78410282404E+03  0.78410282404E+03  0.25500000920E-02 0.  1.
        2   -1    0    0  501    0  0.00000000000E+00  0.00000000000E+00 -0.91975767079E+03  0.91975767079E+03  0.25500000920E-02 0. -1.
    10030    2    1    2    0    0  0.00000000000E+00  0.00000000000E+00 -0.13565484675E+03  0.17038604948E+04  0.16984517504E+04 0.  0.
        4    1    3    3  502    0 -0.27017021651E+03  0.40505375182E+03  0.63017743784E+03  0.79635777375E+03  0.12699999809E+01 0.  1.
       -4    1    3    3    0  502  0.27017021651E+03 -0.40505375182E+03 -0.76583228459E+03  0.90750272108E+03  0.12699999809E+01 0. -1.
</event>
<event>
 5   0  0.1419012E-05  0.1699693E+04  0.7818609E-02  0.8761539E-01
       -2   -1    0    0    0  501  0.00000000000E+00  0.00000000000E+00  0.94906364000E+03  0.94906364000E+03  0.25500000920E-02 0.  1.
        2   -1    0    0  501    0  0.00000000000E+00  0.00000000000E+00 -0.76100175878E+03  0.76100175879E+03  0.25500000920E-02 0. -1.
    10030    2    1    2    0    0  0.00000000000E+00  0.00000000000E+00  0.18806188121E+03  0.17100653988E+04  0.16996930302E+04 0.  0.
        4    1    3    3  502    0  0.44241583957E+03 -0.61300302330E+03 -0.29658179972E+03  0.81207564826E+03  0.12699999809E+01 0.  1.
       -4    1    3    3    0  502 -0.44241583957E+03  0.61300302330E+03  0.48464368093E+03  0.89798975052E+03  0.12699999809E+01 0. -1.
</event>
<event>
 5   0  0.1435301E-05  0.1699644E+04  0.7818609E-02  0.8761567E-01
       -2   -1    0    0    0  501  0.00000000000E+00  0.00000000000E+00  0.76802518230E+03  0.76802518230E+03  0.25500000920E-02 0.  1.
        2   -1    0    0  501    0  0.00000000000E+00  0.00000000000E+00 -0.94033043312E+03  0.94033043312E+03  0.25500000920E-02 0. -1.
    10030    2    1    2    0    0  0.00000000000E+00  0.00000000000E+00 -0.17230525082E+03  0.17083556154E+04  0.16996440243E+04 0.  0.
        2    1    3    3  502    0 -0.10946720667E+03 -0.49188319177E+03  0.60165391307E+03  0.78480543754E+03  0.25500000920E-02 0.  1.
       -2    1    3    3    0  502  0.10946720667E+03  0.49188319177E+03 -0.77395916389E+03  0.92355017788E+03  0.25500000920E-02 0. -1.
</event>
<event>
 5   0  0.1374441E-05  0.1701165E+04  0.7818609E-02  0.8760700E-01
        2   -1    0    0  501    0  0.00000000000E+00  0.00000000000E+00  0.14517783849E+04  0.14517783849E+04  0.25500000920E-02 0. -1.
       -2   -1    0    0    0  501  0.00000000000E+00  0.00000000000E+00 -0.49834768680E+03  0.49834768680E+03  0.25500000920E-02 0.  1.
    10030    2    1    2    0    0  0.00000000000E+00  0.00000000000E+00  0.95343069805E+03  0.19501260717E+04  0.17011647773E+04 0.  0.
        1    1    3    3  502    0  0.79387740765E+03 -0.30530162057E+03  0.46946685023E+03  0.97151919250E+03  0.50400001928E-02 0.  1.
       -1    1    3    3    0  502 -0.79387740765E+03  0.30530162057E+03  0.48396384782E+03  0.97860687915E+03  0.50400001928E-02 0. -1.
</event>
<event>
 5   0  0.1419012E-05  0.1699714E+04  0.7818609E-02  0.8761528E-01
       -2   -1    0    0    0  501  0.00000000000E+00  0.00000000000E+00  0.90177840887E+03  0.90177840888E+03  0.25500000920E-02 0. -1.
        2   -1    0    0  501    0  0.00000000000E+00  0.00000000000E+00 -0.80092458640E+03  0.80092458640E+03  0.25500000920E-02 0.  1.
    10030    2    1    2    0    0  0.00000000000E+00  0.00000000000E+00  0.10085382248E+03  0.17027029953E+04  0.16997135043E+04 0.  0.
        4    1    3    3  502    0  0.61116396808E+03  0.12499336801E+03 -0.52774515720E+03  0.81710544104E+03  0.12699999809E+01 0.  1.
       -4    1    3    3    0  502 -0.61116396808E+03 -0.12499336801E+03  0.62859897968E+03  0.88559755424E+03  0.12699999809E+01 0. -1.
</event>
<event>
 5   0  0.1423543E-05  0.1699903E+04  0.7818609E-02  0.8761420E-01
       -2   -1    0    0    0  501  0.00000000000E+00  0.00000000000E+00  0.15302892877E+04  0.15302892877E+04  0.25500000920E-02 0. -1.
        2   -1    0    0  501    0  0.00000000000E+00  0.00000000000E+00 -0.47207912243E+03  0.47207912244E+03  0.25500000920E-02 0.  1.
    10030    2    1    2    0    0  0.00000000000E+00  0.00000000000E+00  0.10582101653E+04  0.20023684102E+04  0.16999030843E+04 0.  0.
        3    1    3    3  502    0  0.20457067170E+03 -0.78256743734E+03  0.83662551285E+03  0.11637023729E+04  0.10100000352E+00 0.  1.
       -3    1    3    3    0  502 -0.20457067170E+03  0.78256743734E+03  0.22158465244E+03  0.83866603729E+03  0.10100000352E+00 0. -1.
</event>
<event>
 5   0  0.7082527E-06  0.1699539E+04  0.7818609E-02  0.8761627E-01
        1   -1    0    0  501    0  0.00000000000E+00  0.00000000000E+00  0.11381872570E+04  0.11381872570E+04  0.50400001928E-02 0.  1.
       -1   -1    0    0    0  501  0.00000000000E+00  0.00000000000E+00 -0.63443729584E+03  0.63443729586E+03  0.50400001928E-02 0. -1.
    10030    2    1    2    0    0  0.00000000000E+00  0.00000000000E+00  0.50374996119E+03  0.17726245529E+04  0.16995392853E+04 0.  0.
        1    1    3    3  502    0  0.44826187546E+02  0.57749627792E+03  0.90038225613E+03  0.10706070919E+04  0.50400001928E-02 0.  1.
       -1    1    3    3    0  502 -0.44826187546E+02 -0.57749627792E+03 -0.39663229494E+03  0.70201746098E+03  0.50400001928E-02 0. -1.
</event>
<event>
 5   0  0.7461128E-06  0.1700274E+04  0.7818609E-02  0.8761208E-01
       -1   -1    0    0    0  501  0.00000000000E+00  0.00000000000E+00  0.32679995425E+03  0.32679995429E+03  0.50400001928E-02 0. -1.
        1   -1    0    0  501    0  0.00000000000E+00  0.00000000000E+00 -0.22115455377E+04  0.22115455377E+04  0.50400001928E-02 0.  1.
    10030    2    1    2    0    0  0.00000000000E+00  0.00000000000E+00 -0.18847455834E+04  0.25383454919E+04  0.17002740727E+04 0.  0.
        3    1    3    3  502    0 -0.24702431514E+03  0.73216555002E+03 -0.41319040163E+03  0.87624980634E+03  0.10100000352E+00 0. -1.
       -3    1    3    3    0  502  0.24702431514E+03 -0.73216555002E+03 -0.14715551818E+04  0.16620956856E+04  0.10100000352E+00 0.  1.
</event>
<event>
 5   0  0.7455669E-06  0.1699174E+04  0.7818609E-02  0.8761836E-01
        1   -1    0    0  501    0  0.00000000000E+00  0.00000000000E+00  0.21701632201E+04  0.21701632201E+04  0.50400001928E-02 0. -1.
       -1   -1    0    0    0  501  0.00000000000E+00  0.00000000000E+00 -0.33260085696E+03  0.33260085700E+03  0.50400001928E-02 0.  1.
    10030    2    1    2    0    0  0.00000000000E+00  0.00000000000E+00  0.18375623631E+04  0.25027640771E+04  0.16991740897E+04 0.  0.
        4    1    3    3  502    0 -0.33561715503E+03 -0.74695545237E+03  0.12521166448E+04  0.14961213279E+04  0.12699999809E+01 0. -1.
       -4    1    3    3    0  502  0.33561715503E+03  0.74695545237E+03  0.58544571829E+03  0.10066427492E+04  0.12699999809E+01 0.  1.
</event>
<event>
 5   0  0.7082527E-06  0.1699813E+04  0.7818609E-02  0.8761471E-01
       -1   -1    0    0    0  501  0.00000000000E+00  0.00000000000E+00  0.36000390093E+03  0.36000390097E+03  0.50400001928E-02 0.  1.
        1   -1    0    0  501    0  0.00000000000E+00  0.00000000000E+00 -0.20064815333E+04  0.20064815333E+04  0.50400001928E-02 0. -1.
    10030    2    1    2    0    0  0.00000000000E+00  0.00000000000E+00 -0.16464776324E+04  0.23664854343E+04  0.16998131417E+04 0.  0.
        1    1    3    3  502    0  0.94131900037E+02  0.11749558992E+03 -0.19877693449E+04  0.19934625647E+04  0.50400001928E-02 0. -1.
       -1    1    3    3    0  502 -0.94131900037E+02 -0.11749558992E+03  0.34129171247E+03  0.37302286965E+03  0.50400001928E-02 0.  1.
</event>
<event>
 5   0  0.1374441E-05  0.1700026E+04  0.7818609E-02  0.8761350E-01
        2   -1    0    0  501    0  0.00000000000E+00  0.00000000000E+00  0.17653950640E+04  0.17653950640E+04  0.25500000920E-02 0. -1.
       -2   -1    0    0    0  501  0.00000000000E+00  0.00000000000E+00 -0.40926921642E+03  0.40926921642E+03  0.25500000920E-02 0.  1.
    10030    2    1    2    0    0  0.00000000000E+00  0.00000000000E+00  0.13561258476E+04  0.21746642804E+04  0.17000257110E+04 0.  0.
        1    1    3    3  502    0 -0.29100901294E+03 -0.79778097757E+03  0.63052364920E+03  0.10576865349E+04  0.50400001928E-02 0. -1.
       -1    1    3    3    0  502  0.29100901294E+03  0.79778097757E+03  0.72560219839E+03  0.11169777456E+04  0.50400001928E-02 0.  1.
</event>
<event>
 5   0  0.1419012E-05  0.1700277E+04  0.7818609E-02  0.8761206E-01
       -2   -1    0    0    0  501  0.00000000000E+00  0.00000000000E+00  0.37356060891E+03  0.37356060891E+03  0.25500000920E-02 0. -1.
        2   -1    0    0  501    0  0.00000000000E+00  0.00000000000E+00 -0.19347214073E+04  0.19347214073E+04  0.25500000920E-02 0.  1.
    10030    2    1    2    0    0  0.00000000000E+00  0.00000000000E+00 -0.15611607984E+04  0.23082820162E+04  0.17002772797E+04 0.  0.
        4    1    3    3  502    0 -0.41466776437E+03 -0.21221351363E+03  0.18488593067E+03  0.50116698857E+03  0.12699999809E+01 0. -1.
       -4    1    3    3    0  502  0.41466776437E+03  0.21221351363E+03 -0.17460467290E+04  0.18071150276E+04  0.12699999809E+01 0.  1.
</event>
<event>
 5   0  0.1435301E-05  0.1700338E+04  0.7818609E-02  0.8761172E-01
       -2   -1    0    0    0  501  0.00000000000E+00  0.00000000000E+00  0.43298552226E+03  0.43298552227E+03  0.25500000920E-02 0. -1.
        2   -1    0    0  501    0  0.00000000000E+00  0.00000000000E+00 -0.16693100240E+04  0.16693100240E+04  0.25500000920E-02 0.  1.
    10030    2    1    2    0    0  0.00000000000E+00  0.00000000000E+00 -0.12363245017E+04  0.21022955462E+04  0.17003376989E+04 0.  0.
        2    1    3    3  502    0 -0.29916616812E+03 -0.76156177552E+03 -0.90363476922E+03  0.12190293394E+04  0.25500000920E-02 0.  1.
       -2    1    3    3    0  502  0.29916616812E+03  0.76156177552E+03 -0.33268973248E+03  0.88326620687E+03  0.25500000920E-02 0. -1.
</event>
<event>
 5   0  0.7583716E-06  0.1699926E+04  0.7818609E-02  0.8761406E-01
       -1   -1    0    0    0  501  0.00000000000E+00  0.00000000000E+00  0.56733204406E+03  0.56733204408E+03  0.50400001928E-02 0. -1.
        1   -1    0    0  501    0  0.00000000000E+00  0.00000000000E+00 -0.12733942075E+04  0.12733942075E+04  0.50400001928E-02 0.  1.
    10030    2    1    2    0    0  0.00000000000E+00  0.00000000000E+00 -0.70606216342E+03  0.18407262516E+04  0.16999262792E+04 0.  0.
        5    1    3    3  502    0 -0.51879479450E+02  0.48513138627E+03 -0.11066439791E+04  0.12094324821E+04  0.46999998093E+01 0.  1.
       -5    1    3    3    0  502  0.51879479450E+02 -0.48513138627E+03  0.40058181565E+03  0.63129376947E+03  0.46999998093E+01 0. -1.
</event>
<event>
 5   0  0.7461128E-06  0.1700303E+04  0.7818609E-02  0.8761192E-01
       -1   -1    0    0    0  501  0.00000000000E+00  0.00000000000E+00  0.53959350901E+03  0.53959350903E+03  0.50400001928E-02 0.  1.
        1   -1    0    0  501    0  0.00000000000E+00  0.00000000000E+00 -0.13394480227E+04  0.13394480227E+04  0.50400001928E-02 0. -1.
    10030    2    1    2    0    0  0.00000000000E+00  0.00000000000E+00 -0.79985451370E+03  0.18790415317E+04  0.17003028657E+04 0.  0.
        3    1    3    3  502    0  0.49365208876E+03 -0.18737146793E+03  0.33641639143E+03  0.62608022677E+03  0.10100000352E+00 0.  1.
       -3    1    3    3    0  502 -0.49365208876E+03  0.18737146793E+03 -0.11362709051E+04  0.12529613050E+04  0.10100000352E+00 0. -1.
</event>
<event>
 5   0  0.1374441E-05  0.1699945E+04  0.7818609E-02  0.8761396E-01
       -2   -1    0    0    0  501  0.00000000000E+00  0.00000000000E+00  0.59066184863E+03  0.59066184864E+03  0.25500000920E-02 0.  1.
        2   -1    0    0  501    0  0.00000000000E+00  0.00000000000E+00 -0.12231249291E+04  0.12231249291E+04  0.25500000920E-02 0. -1.
    10030    2    1    2    0    0  0.00000000000E+00  0.00000000000E+00 -0.63246308050E+03  0.18137867778E+04  0.16999449776E+04 0.  0.
        1    1    3    3  502    0  0.76783614752E+03  0.22050902192E+03 -0.65227941264E+01  0.79889869512E+03  0.50400001928E-02 0. -1.
       -1    1    3    3    0  502 -0.76783614752E+03 -0.22050902192E+03 -0.62594028637E+03  0.10148880827E+04  0.50400001928E-02 0.  1.
</event>
<event>
 5   0  0.7455669E-06  0.1699464E+04  0.7818609E-02  0.8761670E-01
       -1   -1    0    0    0  501  0.00000000000E+00  0.00000000000E+00  0.58656754740E+03  0.58656754743E+03  0.50400001928E-02 0. -1.
        1   -1    0    0  501    0  0.00000000000E+00  0.00000000000E+00 -0.12309654554E+04  0.12309654554E+04  0.50400001928E-02 0.  1.
    10030    2    1    2    0    0  0.00000000000E+00  0.00000000000E+00 -0.64439790803E+03  0.18175330029E+04  0.16994639015E+04 0.  0.
        4    1    3    3  502    0 -0.92939488265E+02  0.23777570167E+02 -0.12251543274E+04  0.12289051469E+04  0.12699999809E+01 0.  1.
       -4    1    3    3    0  502  0.92939488265E+02 -0.23777570167E+02  0.58075641934E+03  0.58862785597E+03  0.12699999809E+01 0. -1.
</event>
<event>
 5   0  0.7461128E-06  0.1699543E+04  0.7818609E-02  0.8761625E-01
       -1   -1    0    0    0  501  0.00000000000E+00  0.00000000000E+00  0.65060279817E+03  0.65060279819E+03  0.50400001928E-02 0.  1.
        1   -1    0    0  501    0  0.00000000000E+00  0.00000000000E+00 -0.11099116317E+04  0.11099116317E+04  0.50400001928E-02 0. -1.
    10030    2    1    2    0    0  0.00000000000E+00  0.00000000000E+00 -0.45930883354E+03  0.17605144299E+04  0.16995430131E+04 0.  0.
        3    1    3    3  502    0  0.64819997999E+03 -0.15581788082E+03  0.31619300740E+03  0.73784853064E+03  0.10100000352E+00 0.  1.
       -3    1    3    3    0  502 -0.64819997999E+03  0.15581788082E+03 -0.77550184094E+03  0.10226658993E+04  0.10100000352E+00 0. -1.
</event>
<event>
 5   0  0.7082527E-06  0.1695872E+04  0.7818609E-02  0.8763722E-01
        1   -1    0    0  501    0  0.00000000000E+00  0.00000000000E+00  0.19502995120E+04  0.19502995120E+04  0.50400001928E-02 0.  1.
       -1   -1    0    0    0  501  0.00000000000E+00  0.00000000000E+00 -0.36865883161E+03  0.36865883165E+03  0.50400001928E-02 0. -1.
    10030    2    1    2    0    0  0.00000000000E+00  0.00000000000E+00  0.15816406804E+04  0.23189583437E+04  0.16958716218E+04 0.  0.
        1    1    3    3  502    0  0.21828549737E+03 -0.79760944495E+03  0.10472450919E+04  0.13343731365E+04  0.50400001928E-02 0. -1.
       -1    1    3    3    0  502 -0.21828549737E+03  0.79760944495E+03  0.53439558851E+03  0.98458520712E+03  0.50400001928E-02 0.  1.
</event>
<event>
 5   0  0.7583716E-06  0.1699532E+04  0.7818609E-02  0.8761632E-01
        1   -1    0    0  501    0  0.00000000000E+00  0.00000000000E+00  0.58246895729E+03  0.58246895731E+03  0.50400001928E-02 0. -1.
       -1   -1    0    0    0  501  0.00000000000E+00  0.00000000000E+00 -0.12397260669E+04  0.12397260669E+04  0.50400001928E-02 0.  1.
    10030    2    1    2    0    0  0.00000000000E+00  0.00000000000E+00 -0.65725710958E+03  0.18221950242E+04  0.16995316408E+04 0.  0.
        5    1    3    3  502    0  0.71988925716E+03 -0.45028313351E+03 -0.29332132171E+03  0.89836236045E+03  0.46999998093E+01 0. -1.
       -5    1    3    3    0  502 -0.71988925716E+03  0.45028313351E+03 -0.36393578786E+03  0.92383266374E+03  0.46999998093E+01 0.  1.
</event>
<event>
 5   0  0.7461128E-06  0.1700538E+04  0.7818609E-02  0.8761057E-01
       -1   -1    0    0    0  501  0.00000000000E+00  0.00000000000E+00  0.94511888180E+03  0.94511888182E+03  0.50400001928E-02 0. -1.
        1   -1    0    0  501    0  0.00000000000E+00  0.00000000000E+00 -0.76493834856E+03  0.76493834857E+03  0.50400001928E-02 0.  1.
    10030    2    1    2    0    0  0.00000000000E+00  0.00000000000E+00  0.18018053325E+03  0.17100572304E+04  0.17005383579E+04 0.  0.
        3    1    3    3  502    0  0.45686791466E+03 -0.40743018215E+03 -0.50332309052E+03  0.79250349427E+03  0.10100000352E+00 0.  1.
       -3    1    3    3    0  502 -0.45686791466E+03  0.40743018215E+03  0.68350362377E+03  0.91755373612E+03  0.10100000352E+00 0. -1.
</event>
<event>
 5   0  0.1419012E-05  0.1700291E+04  0.7818609E-02  0.8761198E-01
        2   -1    0    0  501    0  0.00000000000E+00  0.00000000000E+00  0.10664837779E+04  0.10664837779E+04  0.25500000920E-02 0. -1.
       -2   -1    0    0    0  501  0.00000000000E+00  0.00000000000E+00 -0.67769190294E+03  0.67769190295E+03  0.25500000920E-02 0.  1.
    10030    2    1    2    0    0  0.00000000000E+00  0.00000000000E+00  0.38879187497E+03  0.17441756809E+04  0.17002910585E+04 0.  0.
        4    1    3    3  502    0  0.63107908841E+03  0.29052968685E+03 -0.30822743488E+03  0.76004873480E+03  0.12699999809E+01 0.  1.
       -4    1    3    3    0  502 -0.63107908841E+03 -0.29052968685E+03  0.69701930984E+03  0.98412694606E+03  0.12699999809E+01 0. -1.
</event>
<event>
 5   0  0.1374441E-05  0.1700310E+04  0.7818609E-02  0.8761187E-01
       -2   -1    0    0    0  501  0.00000000000E+00  0.00000000000E+00  0.41383042967E+03  0.41383042968E+03  0.25500000920E-02 0. -1.
        2   -1    0    0  501    0  0.00000000000E+00  0.00000000000E+00 -0.17465213189E+04  0.17465213189E+04  0.25500000920E-02 0.  1.
    10030    2    1    2    0    0  0.00000000000E+00  0.00000000000E+00 -0.13326908892E+04  0.21603517486E+04  0.17003101692E+04 0.  0.
        1    1    3    3  502    0 -0.21938641862E+03 -0.65588271956E+03 -0.38153537803E+02  0.69265304083E+03  0.50400001928E-02 0. -1.
       -1    1    3    3    0  502  0.21938641862E+03  0.65588271956E+03 -0.12945373514E+04  0.14676987078E+04  0.50400001928E-02 0.  1.
</event>
<event>
 5   0  0.7455669E-06  0.1702818E+04  0.7818609E-02  0.8759759E-01
        1   -1    0    0  501    0  0.00000000000E+00  0.00000000000E+00  0.16649613035E+04  0.16649613035E+04  0.50400001928E-02 0. -1.
       -1   -1    0    0    0  501  0.00000000000E+00  0.00000000000E+00 -0.43538380440E+03  0.43538380442E+03  0.50400001928E-02 0.  1.
    10030    2    1    2    0    0  0.00000000000E+00  0.00000000000E+00  0.12295774991E+04  0.21003451079E+04  0.17028178840E+04 0.  0.
        4    1    3    3  502    0 -0.13864661140E+03 -0.83913814037E+03  0.66287556137E+03  0.10783233857E+04  0.12699999809E+01 0. -1.
       -4    1    3    3    0  502  0.13864661140E+03  0.83913814037E+03  0.56670193772E+03  0.10220217222E+04  0.12699999809E+01 0.  1.
</event>
<event>
 5   0  0.1441756E-05  0.1700036E+04  0.7818609E-02  0.8761344E-01
        2   -1    0    0  501    0  0.00000000000E+00  0.00000000000E+00  0.24817465582E+04  0.24817465582E+04  0.25500000920E-02 0. -1.
       -2   -1    0    0    0  501  0.00000000000E+00  0.00000000000E+00 -0.29113783111E+03  0.29113783113E+03  0.25500000920E-02 0.  1.
    10030    2    1    2    0    0  0.00000000000E+00  0.00000000000E+00  0.21906087271E+04  0.27728843893E+04  0.17000356589E+04 0.  0.
        5    1    3    3  502    0 -0.46879181484E+02  0.45034873817E+02 -0.28705624988E+03  0.29436232455E+03  0.46999998093E+01 0.  1.
       -5    1    3    3    0  502  0.46879181484E+02 -0.45034873817E+02  0.24776649769E+04  0.24785220648E+04  0.46999998093E+01 0. -1.
</event>
<event>
 5   0  0.7455669E-06  0.1699438E+04  0.7818609E-02  0.8761685E-01
       -1   -1    0    0    0  501  0.00000000000E+00  0.00000000000E+00  0.45818015405E+03  0.45818015408E+03  0.50400001928E-02 0.  1.
        1   -1    0    0  501    0  0.00000000000E+00  0.00000000000E+00 -0.15758475519E+04  0.15758475519E+04  0.50400001928E-02 0. -1.
    10030    2    1    2    0    0  0.00000000000E+00  0.00000000000E+00 -0.11176673979E+04  0.20340277060E+04  0.16994376413E+04 0.  0.
        4    1    3    3  502    0 -0.33338593382E+03  0.40148676113E+03  0.24377655167E+03  0.57599168420E+03  0.12699999809E+01 0.  1.
       -4    1    3    3    0  502  0.33338593382E+03 -0.40148676113E+03 -0.13614439496E+04  0.14580360218E+04  0.12699999809E+01 0. -1.
</event>
<event>
 5   0  0.7082527E-06  0.1696948E+04  0.7818609E-02  0.8763107E-01
       -1   -1    0    0    0  501  0.00000000000E+00  0.00000000000E+00  0.97424903854E+03  0.97424903855E+03  0.50400001928E-02 0. -1.
        1   -1    0    0  501    0  0.00000000000E+00  0.00000000000E+00 -0.73893611955E+03  0.73893611957E+03  0.50400001928E-02 0.  1.
    10030    2    1    2    0    0  0.00000000000E+00  0.00000000000E+00  0.23531291899E+03  0.17131851581E+04  0.16969476174E+04 0.  0.
        1    1    3    3  502    0  0.38073905517E+03 -0.64429290670E+03  0.52127215019E+03  0.91203082861E+03  0.50400001928E-02 0. -1.
       -1    1    3    3    0  502 -0.38073905517E+03  0.64429290670E+03 -0.28595923120E+03  0.80115432951E+03  0.50400001928E-02 0.  1.
</event>
<event>
 5   0  0.7082527E-06  0.1700187E+04  0.7818609E-02  0.8761258E-01
       -1   -1    0    0    0  501  0.00000000000E+00  0.00000000000E+00  0.44711787944E+03  0.44711787947E+03  0.50400001928E-02 0.  1.
        1   -1    0    0  501    0  0.00000000000E+00  0.00000000000E+00 -0.16162606764E+04  0.16162606764E+04  0.50400001928E-02 0. -1.
    10030    2    1    2    0    0  0.00000000000E+00  0.00000000000E+00 -0.11691427970E+04  0.20633785559E+04  0.17001871030E+04 0.  0.
        1    1    3    3  502    0 -0.17514741148E+03 -0.81817068207E+03 -0.40220864578E+03  0.92835966926E+03  0.50400001928E-02 0.  1.
       -1    1    3    3    0  502  0.17514741148E+03  0.81817068207E+03 -0.76693415121E+03  0.11350188867E+04  0.50400001928E-02 0. -1.
</event>
<event>
 5   0  0.7461128E-06  0.1699934E+04  0.7818609E-02  0.8761402E-01
       -1   -1    0    0    0  501  0.00000000000E+00  0.00000000000E+00  0.60205467351E+03  0.60205467353E+03  0.50400001928E-02 0.  1.
        1   -1    0    0  501    0  0.00000000000E+00  0.00000000000E+00 -0.11999643026E+04  0.11999643026E+04  0.50400001928E-02 0. -1.
    10030    2    1    2    0    0  0.00000000000E+00  0.00000000000E+00 -0.59790962905E+03  0.18020189761E+04  0.16999342534E+04 0.  0.
        3    1    3    3  502    0  0.52895571062E+02 -0.36784264969E+03  0.51137026650E+03  0.63214374633E+03  0.10100000352E+00 0.  1.
       -3    1    3    3    0  502 -0.52895571062E+02  0.36784264969E+03 -0.11092798956E+04  0.11698752298E+04  0.10100000352E+00 0. -1.
</event>
<event>
 5   0  0.1441756E-05  0.1699875E+04  0.7818609E-02  0.8761436E-01
        2   -1    0    0  501    0  0.00000000000E+00  0.00000000000E+00  0.10548404465E+04  0.10548404465E+04  0.25500000920E-02 0.  1.
       -2   -1    0    0    0  501  0.00000000000E+00  0.00000000000E+00 -0.68483687232E+03  0.68483687233E+03  0.25500000920E-02 0. -1.
    10030    2    1    2    0    0  0.00000000000E+00  0.00000000000E+00  0.37000357420E+03  0.17396773189E+04  0.16998748568E+04 0.  0.
        5    1    3    3  502    0 -0.71272652276E+03  0.27415981108E+03 -0.19686893259E+03  0.78862041876E+03  0.46999998093E+01 0. -1.
       -5    1    3    3    0  502  0.71272652276E+03 -0.27415981108E+03  0.56687250679E+03  0.95105690009E+03  0.46999998093E+01 0.  1.
</event>
<event>
 5   0  0.1374441E-05  0.1698884E+04  0.7818609E-02  0.8762001E-01
        2   -1    0    0  501    0  0.00000000000E+00  0.00000000000E+00  0.24021924580E+04  0.24021924580E+04  0.25500000920E-02 0.  1.
       -2   -1    0    0    0  501  0.00000000000E+00  0.00000000000E+00 -0.30037197447E+03  0.30037197448E+03  0.25500000920E-02 0. -1.
    10030    2    1    2    0    0  0.00000000000E+00  0.00000000000E+00  0.21018204836E+04  0.27025644325E+04  0.16988835059E+04 0.  0.
        1    1    3    3  502    0  0.52274478965E+03  0.56681401865E+02  0.21121896504E+04  0.21766533981E+04  0.50400001928E-02 0.  1.
       -1    1    3    3    0  502 -0.52274478965E+03 -0.56681401865E+02 -0.10369166816E+02  0.52591103437E+03  0.50400001928E-02 0. -1.
</event>
<event>
 5   0  0.7455669E-06  0.1700358E+04  0.7818609E-02  0.8761160E-01
        1   -1    0    0  501    0  0.00000000000E+00  0.00000000000E+00  0.72730263110E+03  0.72730263112E+03  0.50400001928E-02 0. -1.
       -1   -1    0    0    0  501  0.00000000000E+00  0.00000000000E+00 -0.99381470392E+03  0.99381470393E+03  0.50400001928E-02 0.  1.
    10030    2    1    2    0    0  0.00000000000E+00  0.00000000000E+00 -0.26651207282E+03  0.17211173351E+04  0.17003576671E+04 0.  0.
        4    1    3    3  502    0  0.26077249256E+03  0.46716160824E+03 -0.80204985779E+03  0.96412024581E+03  0.12699999809E+01 0.  1.
       -4    1    3    3    0  502 -0.26077249256E+03 -0.46716160824E+03  0.53553778497E+03  0.75699708925E+03  0.12699999809E+01 0. -1.
</event>
<event>
 5   0  0.7461128E-06  0.1697407E+04  0.7818609E-02  0.8762845E-01
       -1   -1    0    0    0  501  0.00000000000E+00  0.00000000000E+00  0.41215763195E+03  0.41215763198E+03  0.50400001928E-02 0.  1.
        1   -1    0    0  501    0  0.00000000000E+00  0.00000000000E+00 -0.17476257914E+04  0.17476257914E+04  0.50400001928E-02 0. -1.
    10030    2    1    2    0    0  0.00000000000E+00  0.00000000000E+00 -0.13354681594E+04  0.21597834234E+04  0.16974066192E+04 0.  0.
        3    1    3    3  502    0 -0.24509404213E+03 -0.52828316637E+03  0.11780599470E+03  0.59416534394E+03  0.10100000352E+00 0.  1.
       -3    1    3    3    0  502  0.24509404213E+03  0.52828316637E+03 -0.14532741541E+04  0.15656180794E+04  0.10100000352E+00 0. -1.
</event>
<event>
 5   0  0.1441756E-05  0.1700371E+04  0.7818609E-02  0.8761153E-01
       -2   -1    0    0    0  501  0.00000000000E+00  0.00000000000E+00  0.63058396397E+03  0.63058396397E+03  0.25500000920E-02 0.  1.
        2   -1    0    0  501    0  0.00000000000E+00  0.00000000000E+00 -0.11462633200E+04  0.11462633200E+04  0.25500000920E-02 0. -1.
    10030    2    1    2    0    0  0.00000000000E+00  0.00000000000E+00 -0.51567935604E+03  0.17768472840E+04  0.17003708632E+04 0.  0.
        5    1    3    3  502    0 -0.21795288448E+03 -0.19177886550E+03 -0.10928474137E+04  0.11307608734E+04  0.46999998093E+01 0. -1.
       -5    1    3    3    0  502  0.21795288448E+03  0.19177886550E+03  0.57716805770E+03  0.64608641058E+03  0.46999998093E+01 0.  1.
</event>
<event>
 5   0  0.7461128E-06  0.1699358E+04  0.7818609E-02  0.8761731E-01
       -1   -1    0    0    0  501  0.00000000000E+00  0.00000000000E+00  0.90036635488E+03  0.90036635489E+03  0.50400001928E-02 0. -1.
        1   -1    0    0  501    0  0.00000000000E+00  0.00000000000E+00 -0.80184515460E+03  0.80184515461E+03  0.50400001928E-02 0.  1.
    10030    2    1    2    0    0  0.00000000000E+00  0.00000000000E+00  0.98521200285E+02  0.17022115095E+04  0.16993579953E+04 0.  0.
        3    1    3    3  502    0 -0.33368659110E+03  0.78128073408E+03  0.34812013456E+02  0.85026949434E+03  0.10100000352E+00 0. -1.
       -3    1    3    3    0  502  0.33368659110E+03 -0.78128073408E+03  0.63709186829E+02  0.85194201517E+03  0.10100000352E+00 0.  1.
</event>
<event>
 5   0  0.7461128E-06  0.1699142E+04  0.7818609E-02  0.8761854E-01
        1   -1    0    0  501    0  0.00000000000E+00  0.00000000000E+00  0.10656731675E+04  0.10656731675E+04  0.50400001928E-02 0. -1.
       -1   -1    0    0    0  501  0.00000000000E+00  0.00000000000E+00 -0.67729091036E+03  0.67729091038E+03  0.50400001928E-02 0.  1.
    10030    2    1    2    0    0  0.00000000000E+00  0.00000000000E+00  0.38838225709E+03  0.17429640779E+04  0.16991418419E+04 0.  0.
        3    1    3    3  502    0 -0.17831501696E+03 -0.60706326864E+03 -0.38739578613E+03  0.74188783702E+03  0.10100000352E+00 0.  1.
       -3    1    3    3    0  502  0.17831501696E+03  0.60706326864E+03  0.77577804323E+03  0.10010762408E+04  0.10100000352E+00 0. -1.
</event>
<event>
 5   0  0.1419012E-05  0.1699809E+04  0.7818609E-02  0.8761473E-01
       -2   -1    0    0    0  501  0.00000000000E+00  0.00000000000E+00  0.71631054049E+03  0.71631054049E+03  0.25500000920E-02 0. -1.
        2   -1    0    0  501    0  0.00000000000E+00  0.00000000000E+00 -0.10084138797E+04  0.10084138797E+04  0.25500000920E-02 0.  1.
    10030    2    1    2    0    0  0.00000000000E+00  0.00000000000E+00 -0.29210333924E+03  0.17247244202E+04  0.16998088025E+04 0.  0.
        4    1    3    3  502    0 -0.75515064945E+03  0.38877755349E+03 -0.17708409628E+03  0.86761793407E+03  0.12699999809E+01 0.  1.
       -4    1    3    3    0  502  0.75515064945E+03 -0.38877755349E+03 -0.11501924296E+03  0.85710648615E+03  0.12699999809E+01 0. -1.
</event>
<event>
 5   0  0.1435301E-05  0.1699348E+04  0.7818609E-02  0.8761736E-01
       -2   -1    0    0    0  501  0.00000000000E+00  0.00000000000E+00  0.79437386800E+03  0.79437386800E+03  0.25500000920E-02 0. -1.
        2   -1    0    0  501    0  0.00000000000E+00  0.00000000000E+00 -0.90882376068E+03  0.90882376068E+03  0.25500000920E-02 0.  1.
    10030    2    1    2    0    0  0.00000000000E+00  0.00000000000E+00 -0.11444989268E+03  0.17031976287E+04  0.16993479292E+04 0.  0.
        2    1    3    3  502    0 -0.53430242106E+03 -0.95549840762E+02 -0.71241603815E+03  0.89562573692E+03  0.25500000920E-02 0.  1.
       -2    1    3    3    0  502  0.53430242106E+03  0.95549840762E+02  0.59796614547E+03  0.80757189176E+03  0.25500000920E-02 0. -1.
</event>
<event>
 5   0  0.7476457E-06  0.1699452E+04  0.7818609E-02  0.8761677E-01
        1   -1    0    0  501    0  0.00000000000E+00  0.00000000000E+00  0.68842004901E+03  0.68842004903E+03  0.50400001928E-02 0.  1.
       -1   -1    0    0    0  501  0.00000000000E+00  0.00000000000E+00 -0.10488286561E+04  0.10488286561E+04  0.50400001928E-02 0. -1.
    10030    2    1    2    0    0  0.00000000000E+00  0.00000000000E+00 -0.36040860705E+03  0.17372487051E+04  0.16994524705E+04 0.  0.
        2    1    3    3  502    0 -0.44646183026E+03 -0.60432430007E+03  0.22548297607E+03  0.78446070523E+03  0.25500000920E-02 0.  1.
       -2    1    3    3    0  502  0.44646183026E+03  0.60432430007E+03 -0.58589158312E+03  0.95278799988E+03  0.25500000920E-02 0. -1.
</event>
<event>
 5   0  0.1435301E-05  0.1699315E+04  0.7818609E-02  0.8761755E-01
       -2   -1    0    0    0  501  0.00000000000E+00  0.00000000000E+00  0.50717789703E+03  0.50717789704E+03  0.25500000920E-02 0. -1.
        2   -1    0    0  501    0  0.00000000000E+00  0.00000000000E+00 -0.14234012012E+04  0.14234012012E+04  0.25500000920E-02 0.  1.
    10030    2    1    2    0    0  0.00000000000E+00  0.00000000000E+00 -0.91622330414E+03  0.19305790982E+04  0.16993147182E+04 0.  0.
        2    1    3    3  502    0 -0.25713838439E+03 -0.75465187341E+03 -0.12436707361E+03  0.80689947811E+03  0.25500000920E-02 0. -1.
       -2    1    3    3    0  502  0.25713838439E+03  0.75465187341E+03 -0.79185623053E+03  0.11236796201E+04  0.25500000920E-02 0.  1.
</event>
<event>
 5   0  0.7476457E-06  0.1700677E+04  0.7818609E-02  0.8760978E-01
        1   -1    0    0  501    0  0.00000000000E+00  0.00000000000E+00  0.76756355331E+03  0.76756355332E+03  0.50400001928E-02 0. -1.
       -1   -1    0    0    0  501  0.00000000000E+00  0.00000000000E+00 -0.94204043772E+03  0.94204043774E+03  0.50400001928E-02 0.  1.
    10030    2    1    2    0    0  0.00000000000E+00  0.00000000000E+00 -0.17447688441E+03  0.17096039911E+04  0.17006774012E+04 0.  0.
        2    1    3    3  502    0  0.61175321766E+03  0.24179195089E+03 -0.62892726255E+03  0.91008507757E+03  0.25500000920E-02 0.  1.
       -2    1    3    3    0  502 -0.61175321766E+03 -0.24179195089E+03  0.45445037814E+03  0.79951891349E+03  0.25500000920E-02 0. -1.
</event>
<event>
 5   0  0.5229750E-06  0.1695006E+04  0.7818609E-02  0.8764218E-01
        3   -1    0    0  501    0  0.00000000000E+00  0.00000000000E+00  0.19948402899E+04  0.19948402925E+04  0.10100000352E+00 0.  1.
       -3   -1    0    0    0  501  0.00000000000E+00  0.00000000000E+00 -0.36005946769E+03  0.36005948185E+03  0.10100000352E+00 0. -1.
    10030    2    1    2    0    0  0.00000000000E+00  0.00000000000E+00  0.16347808223E+04  0.23548997744E+04  0.16950057848E+04 0.  0.
        3    1    3    3  502    0  0.17377909050E+03 -0.32979386372E+03 -0.24004110343E+03  0.44337670934E+03  0.10100000352E+00 0. -1.
       -3    1    3    3    0  502 -0.17377909050E+03  0.32979386372E+03  0.18748219257E+04  0.19115230650E+04  0.10100000352E+00 0.  1.
</event>
<event>
 5   0  0.7082527E-06  0.1700078E+04  0.7818609E-02  0.8761320E-01
        1   -1    0    0  501    0  0.00000000000E+00  0.00000000000E+00  0.96796502915E+03  0.96796502916E+03  0.50400001928E-02 0.  1.
       -1   -1    0    0    0  501  0.00000000000E+00  0.00000000000E+00 -0.74648010425E+03  0.74648010427E+03  0.50400001928E-02 0. -1.
    10030    2    1    2    0    0  0.00000000000E+00  0.00000000000E+00  0.22148492490E+03  0.17144451334E+04  0.17000783934E+04 0.  0.
        1    1    3    3  502    0  0.16432492707E+03  0.83394037106E+03  0.12119400770E+03  0.85857277599E+03  0.50400001928E-02 0.  1.
       -1    1    3    3    0  502 -0.16432492707E+03 -0.83394037106E+03  0.10029091720E+03  0.85587235744E+03  0.50400001928E-02 0. -1.
</event>
<event>
 5   0  0.1435301E-05  0.1702644E+04  0.7818609E-02  0.8759858E-01
       -2   -1    0    0    0  501  0.00000000000E+00  0.00000000000E+00  0.13116918865E+04  0.13116918865E+04  0.25500000920E-02 0.  1.
        2   -1    0    0  501    0  0.00000000000E+00  0.00000000000E+00 -0.55253021531E+03  0.55253021532E+03  0.25500000920E-02 0. -1.
    10030    2    1    2    0    0  0.00000000000E+00  0.00000000000E+00  0.75916167123E+03  0.18642221019E+04  0.17026442970E+04 0.  0.
        2    1    3    3  502    0  0.55247652898E+03 -0.18380409744E+03  0.10595955751E+04  0.12090314488E+04  0.25500000920E-02 0.  1.
       -2    1    3    3    0  502 -0.55247652898E+03  0.18380409744E+03 -0.30043390387E+03  0.65519065310E+03  0.25500000920E-02 0. -1.
</event>
<event>
 5   0  0.1419012E-05  0.1705495E+04  0.7818609E-02  0.8758236E-01
       -2   -1    0    0    0  501  0.00000000000E+00  0.00000000000E+00  0.72109738610E+03  0.72109738611E+03  0.25500000920E-02 0.  1.
        2   -1    0    0  501    0  0.00000000000E+00  0.00000000000E+00 -0.10084331964E+04  0.10084331964E+04  0.25500000920E-02 0. -1.
    10030    2    1    2    0    0  0.00000000000E+00  0.00000000000E+00 -0.28733581028E+03  0.17295305825E+04  0.17054952852E+04 0.  0.
        4    1    3    3  502    0 -0.56973587036E+03 -0.27185838452E+03  0.43770984438E+03  0.76817801582E+03  0.12699999809E+01 0.  1.
       -4    1    3    3    0  502  0.56973587036E+03  0.27185838452E+03 -0.72504565466E+03  0.96135256668E+03  0.12699999809E+01 0. -1.
</event>
<event>
 5   0  0.1374441E-05  0.1700096E+04  0.7818609E-02  0.8761309E-01
        2   -1    0    0  501    0  0.00000000000E+00  0.00000000000E+00  0.15074017978E+04  0.15074017978E+04  0.25500000920E-02 0. -1.
       -2   -1    0    0    0  501  0.00000000000E+00  0.00000000000E+00 -0.47935584720E+03  0.47935584721E+03  0.25500000920E-02 0.  1.
    10030    2    1    2    0    0  0.00000000000E+00  0.00000000000E+00  0.10280459506E+04  0.19867576450E+04  0.17000963100E+04 0.  0.
        1    1    3    3  502    0  0.54024061289E+03 -0.18775700635E+03 -0.22087614861E+03  0.61310593399E+03  0.50400001928E-02 0.  1.
       -1    1    3    3    0  502 -0.54024061289E+03  0.18775700635E+03  0.12489220992E+04  0.13736517110E+04  0.50400001928E-02 0. -1.
</event>
<event>
 5   0  0.1374441E-05  0.1705432E+04  0.7818609E-02  0.8758273E-01
       -2   -1    0    0    0  501  0.00000000000E+00  0.00000000000E+00  0.56654581180E+03  0.56654581181E+03  0.25500000920E-02 0. -1.
        2   -1    0    0  501    0  0.00000000000E+00  0.00000000000E+00 -0.12834343041E+04  0.12834343041E+04  0.25500000920E-02 0.  1.
    10030    2    1    2    0    0  0.00000000000E+00  0.00000000000E+00 -0.71688849232E+03  0.18499801159E+04  0.17054317104E+04 0.  0.
        1    1    3    3  502    0  0.83011374715E+03  0.10716630836E+03 -0.53519943719E+03  0.99348471978E+03  0.50400001928E-02 0. -1.
       -1    1    3    3    0  502 -0.83011374715E+03 -0.10716630836E+03 -0.18168905513E+03  0.85649539615E+03  0.50400001928E-02 0.  1.
</event>
<event>
 5   0  0.7476457E-06  0.1699802E+04  0.7818609E-02  0.8761477E-01
       -1   -1    0    0    0  501  0.00000000000E+00  0.00000000000E+00  0.77810724673E+03  0.77810724675E+03  0.50400001928E-02 0.  1.
        1   -1    0    0  501    0  0.00000000000E+00  0.00000000000E+00 -0.92831871978E+03  0.92831871979E+03  0.50400001928E-02 0. -1.
    10030    2    1    2    0    0  0.00000000000E+00  0.00000000000E+00 -0.15021147305E+03  0.17064259665E+04  0.16998017804E+04 0.  0.
        2    1    3    3  502    0  0.47934412644E+03 -0.66476489888E+03 -0.30103467849E+03  0.87310081892E+03  0.25500000920E-02 0. -1.
       -2    1    3    3    0  502 -0.47934412644E+03  0.66476489888E+03  0.15082320544E+03  0.83332514762E+03  0.25500000920E-02 0.  1.
</event>
<event>
 5   0  0.5229750E-06  0.1699951E+04  0.7818609E-02  0.8761393E-01
        4   -1    0    0  501    0  0.00000000000E+00  0.00000000000E+00  0.88377642928E+03  0.88377734178E+03  0.12699999809E+01 0.  1.
       -4   -1    0    0    0  501  0.00000000000E+00  0.00000000000E+00 -0.81746504006E+03  0.81746602659E+03  0.12699999809E+01 0. -1.
    10030    2    1    2    0    0  0.00000000000E+00  0.00000000000E+00  0.66311389216E+02  0.17012433684E+04  0.16999505281E+04 0.  0.
        4    1    3    3  502    0 -0.80956899972E+03 -0.87437211212E+02 -0.21076950493E+03  0.84111392113E+03  0.12699999809E+01 0.  1.
       -4    1    3    3    0  502  0.80956899972E+03  0.87437211212E+02  0.27708089415E+03  0.86012944724E+03  0.12699999809E+01 0. -1.
</event>
<event>
 5   0  0.1374441E-05  0.1706382E+04  0.7818609E-02  0.8757733E-01
       -2   -1    0    0    0  501  0.00000000000E+00  0.00000000000E+00  0.59444050798E+03  0.59444050798E+03  0.25500000920E-02 0.  1.
        2   -1    0    0  501    0  0.00000000000E+00  0.00000000000E+00 -0.12245715334E+04  0.12245715334E+04  0.25500000920E-02 0. -1.
    10030    2    1    2    0    0  0.00000000000E+00  0.00000000000E+00 -0.63013102538E+03  0.18190120413E+04  0.17063820491E+04 0.  0.
        1    1    3    3  502    0 -0.29969930824E+03 -0.44093701143E+03 -0.10251320117E+04  0.11554829141E+04  0.50400001928E-02 0. -1.
       -1    1    3    3    0  502  0.29969930824E+03  0.44093701143E+03  0.39500098634E+03  0.66352912720E+03  0.50400001928E-02 0.  1.
</event>
<event>
 5   0  0.1441756E-05  0.1693571E+04  0.7818609E-02  0.8765040E-01
        2   -1    0    0  501    0  0.00000000000E+00  0.00000000000E+00  0.10968883016E+04  0.10968883016E+04  0.25500000920E-02 0. -1.
       -2   -1    0    0    0  501  0.00000000000E+00  0.00000000000E+00 -0.65370895111E+03  0.65370895111E+03  0.25500000920E-02 0.  1.
    10030    2    1    2    0    0  0.00000000000E+00  0.00000000000E+00  0.44317935050E+03  0.17505972527E+04  0.16935710214E+04 0.  0.
        5    1    3    3  502    0 -0.19945608148E+03  0.15980348965E+02 -0.62890679532E+03  0.65998783866E+03  0.46999998093E+01 0.  1.
       -5    1    3    3    0  502  0.19945608148E+03 -0.15980348965E+02  0.10720861458E+04  0.10906094141E+04  0.46999998093E+01 0. -1.
</event>
<event>
 5   0  0.1419012E-05  0.1699787E+04  0.7818609E-02  0.8761486E-01
        2   -1    0    0  501    0  0.00000000000E+00  0.00000000000E+00  0.12701377179E+04  0.12701377179E+04  0.25500000920E-02 0. -1.
       -2   -1    0    0    0  501  0.00000000000E+00  0.00000000000E+00 -0.56869348132E+03  0.56869348132E+03  0.25500000920E-02 0.  1.
    10030    2    1    2    0    0  0.00000000000E+00  0.00000000000E+00  0.70144423656E+03  0.18388311992E+04  0.16997870932E+04 0.  0.
        4    1    3    3  502    0  0.35107895675E+03 -0.25812946085E+03 -0.43864433737E+03  0.61830228855E+03  0.12699999809E+01 0.  1.
       -4    1    3    3    0  502 -0.35107895675E+03  0.25812946085E+03  0.11400885739E+04  0.12205289106E+04  0.12699999809E+01 0. -1.
</event>
<event>
 5   0  0.7082527E-06  0.1700506E+04  0.7818609E-02  0.8761076E-01
       -1   -1    0    0    0  501  0.00000000000E+00  0.00000000000E+00  0.83643312210E+03  0.83643312211E+03  0.50400001928E-02 0.  1.
        1   -1    0    0  501    0  0.00000000000E+00  0.00000000000E+00 -0.86430144298E+03  0.86430144299E+03  0.50400001928E-02 0. -1.
    10030    2    1    2    0    0  0.00000000000E+00  0.00000000000E+00 -0.27868320880E+02  0.17007345651E+04  0.17005062239E+04 0.  0.
        1    1    3    3  502    0  0.16477541288E+03 -0.48526272081E+03 -0.69247902580E+03  0.86148595235E+03  0.50400001928E-02 0. -1.
       -1    1    3    3    0  502 -0.16477541288E+03  0.48526272081E+03  0.66461070492E+03  0.83924861276E+03  0.50400001928E-02 0.  1.
</event>
<event>
 5   0  0.1423543E-05  0.1699498E+04  0.7818609E-02  0.8761651E-01
        2   -1    0    0  501    0  0.00000000000E+00  0.00000000000E+00  0.11824136704E+04  0.11824136704E+04  0.25500000920E-02 0.  1.
       -2   -1    0    0    0  501  0.00000000000E+00  0.00000000000E+00 -0.61067745690E+03  0.61067745691E+03  0.25500000920E-02 0. -1.
    10030    2    1    2    0    0  0.00000000000E+00  0.00000000000E+00  0.57173621349E+03  0.17930911273E+04  0.16994980121E+04 0.  0.
        3    1    3    3  502    0  0.49212321562E+03 -0.13096294518E+03  0.10035776568E+04  0.11253908991E+04  0.10100000352E+00 0.  1.
       -3    1    3    3    0  502 -0.49212321562E+03  0.13096294518E+03 -0.43184144331E+03  0.66770022819E+03  0.10100000352E+00 0. -1.
</event>
<event>
 5   0  0.1374441E-05  0.1700093E+04  0.7818609E-02  0.8761311E-01
        2   -1    0    0  501    0  0.00000000000E+00  0.00000000000E+00  0.14216744296E+04  0.14216744296E+04  0.25500000920E-02 0. -1.
       -2   -1    0    0    0  501  0.00000000000E+00  0.00000000000E+00 -0.50825940849E+03  0.50825940850E+03  0.25500000920E-02 0.  1.
    10030    2    1    2    0    0  0.00000000000E+00  0.00000000000E+00  0.91341502107E+03  0.19299338381E+04  0.17000934147E+04 0.  0.
        1    1    3    3  502    0  0.61908047043E+03  0.29041020196E+03  0.10299300806E+04  0.12362664297E+04  0.50400001928E-02 0. -1.
       -1    1    3    3    0  502 -0.61908047043E+03 -0.29041020196E+03 -0.11651505955E+03  0.69366740834E+03  0.50400001928E-02 0.  1.
</event>
<event>
 5   0  0.7455669E-06  0.1701203E+04  0.7818609E-02  0.8760678E-01
       -1   -1    0    0    0  501  0.00000000000E+00  0.00000000000E+00  0.44648711184E+03  0.44648711187E+03  0.50400001928E-02 0. -1.
        1   -1    0    0  501    0  0.00000000000E+00  0.00000000000E+00 -0.16204790044E+04  0.16204790044E+04  0.50400001928E-02 0.  1.
    10030    2    1    2    0    0  0.00000000000E+00  0.00000000000E+00 -0.11739918926E+04  0.20669661163E+04  0.17012030925E+04 0.  0.
        4    1    3    3  502    0 -0.34383956351E+02  0.64928925309E+03 -0.12533255363E+04  0.14119438033E+04  0.12699999809E+01 0.  1.
       -4    1    3    3    0  502  0.34383956351E+02 -0.64928925309E+03  0.79333643766E+02  0.65502231303E+03  0.12699999809E+01 0. -1.
</event>
<event>
 5   0  0.1423543E-05  0.1699957E+04  0.7818609E-02  0.8761389E-01
        2   -1    0    0  501    0  0.00000000000E+00  0.00000000000E+00  0.10478425894E+04  0.10478425894E+04  0.25500000920E-02 0. -1.
       -2   -1    0    0    0  501  0.00000000000E+00  0.00000000000E+00 -0.68947693444E+03  0.68947693444E+03  0.25500000920E-02 0.  1.
    10030    2    1    2    0    0  0.00000000000E+00  0.00000000000E+00  0.35836565496E+03  0.17373195238E+04  0.16999568187E+04 0.  0.
        3    1    3    3  502    0 -0.22686711696E+02 -0.80256584126E+03 -0.10594127643E+03  0.80984577587E+03  0.10100000352E+00 0.  1.
       -3    1    3    3    0  502  0.22686711696E+02  0.80256584126E+03  0.46430693139E+03  0.92747374797E+03  0.10100000352E+00 0. -1.
</event>
<event>
 5   0  0.1374441E-05  0.1697929E+04  0.7818609E-02  0.8762546E-01
       -2   -1    0    0    0  501  0.00000000000E+00  0.00000000000E+00  0.88152215869E+03  0.88152215869E+03  0.25500000920E-02 0. -1.
        2   -1    0    0  501    0  0.00000000000E+00  0.00000000000E+00 -0.81760936365E+03  0.81760936366E+03  0.25500000920E-02 0.  1.
    10030    2    1    2    0    0  0.00000000000E+00  0.00000000000E+00  0.63912795037E+02  0.16991315224E+04  0.16979290577E+04 0.  0.
        1    1    3    3  502    0  0.39787928531E+02 -0.72876508534E+03  0.46592137501E+03  0.86588934431E+03  0.50400001928E-02 0. -1.
       -1    1    3    3    0  502 -0.39787928531E+02  0.72876508534E+03 -0.40200857997E+03  0.83324217804E+03  0.50400001928E-02 0.  1.
</event>
<event>
 5   0  0.7476457E-06  0.1699757E+04  0.7818609E-02  0.8761503E-01
       -1   -1    0    0    0  501  0.00000000000E+00  0.00000000000E+00  0.13619423875E+04  0.13619423875E+04  0.50400001928E-02 0. -1.
        1   -1    0    0  501    0  0.00000000000E+00  0.00000000000E+00 -0.53034096749E+03  0.53034096751E+03  0.50400001928E-02 0.  1.
    10030    2    1    2    0    0  0.00000000000E+00  0.00000000000E+00  0.83160142000E+03  0.18922833550E+04  0.16997574456E+04 0.  0.
        2    1    3    3  502    0 -0.78680659378E+03 -0.24458748975E+03  0.64774038113E+03  0.10480721624E+04  0.25500000920E-02 0. -1.
       -2    1    3    3    0  502  0.78680659378E+03  0.24458748975E+03  0.18386103887E+03  0.84421119264E+03  0.25500000920E-02 0.  1.
</event>
<event>
 5   0  0.1441756E-05  0.1702657E+04  0.7818609E-02  0.8759850E-01
       -2   -1    0    0    0  501  0.00000000000E+00  0.00000000000E+00  0.73217724677E+03  0.73217724677E+03  0.25500000920E-02 0.  1.
        2   -1    0    0  501    0  0.00000000000E+00  0.00000000000E+00 -0.98987030739E+03  0.98987030739E+03  0.25500000920E-02 0. -1.
    10030    2    1    2    0    0  0.00000000000E+00  0.00000000000E+00 -0.25769306062E+03  0.17220475542E+04  0.17026573541E+04 0.  0.
        5    1    3    3  502    0  0.19083511499E+03 -0.59676841968E+03  0.45407452991E+03  0.77379348443E+03  0.46999998093E+01 0.  1.
       -5    1    3    3    0  502 -0.19083511499E+03  0.59676841968E+03 -0.71176759053E+03  0.94825406974E+03  0.46999998093E+01 0. -1.
</event>
<event>
 5   0  0.7082527E-06  0.1700073E+04  0.7818609E-02  0.8761323E-01
       -1   -1    0    0    0  501  0.00000000000E+00  0.00000000000E+00  0.47972893791E+03  0.47972893794E+03  0.50400001928E-02 0. -1.
        1   -1    0    0  501    0  0.00000000000E+00  0.00000000000E+00 -0.15061882358E+04  0.15061882358E+04  0.50400001928E-02 0.  1.
    10030    2    1    2    0    0  0.00000000000E+00  0.00000000000E+00 -0.10264592978E+04  0.19859171737E+04  0.17000730369E+04 0.  0.
        1    1    3    3  502    0 -0.22749813097E+03  0.66220131995E+02  0.44037437944E+03  0.50007009466E+03  0.50400001928E-02 0. -1.
       -1    1    3    3    0  502  0.22749813097E+03 -0.66220131995E+02 -0.14668336773E+04  0.14858470790E+04  0.50400001928E-02 0.  1.
</event>
<event>
 5   0  0.1374441E-05  0.1699950E+04  0.7818609E-02  0.8761393E-01
        2   -1    0    0  501    0  0.00000000000E+00  0.00000000000E+00  0.12543848238E+04  0.12543848238E+04  0.25500000920E-02 0.  1.
       -2   -1    0    0    0  501  0.00000000000E+00  0.00000000000E+00 -0.57594561614E+03  0.57594561614E+03  0.25500000920E-02 0. -1.
    10030    2    1    2    0    0  0.00000000000E+00  0.00000000000E+00  0.67843920769E+03  0.18303304400E+04  0.16999499290E+04 0.  0.
        1    1    3    3  502    0 -0.74044782115E+03  0.41015363213E+03  0.42240069338E+03  0.94599752832E+03  0.50400001928E-02 0.  1.
       -1    1    3    3    0  502  0.74044782115E+03 -0.41015363213E+03  0.25603851432E+03  0.88433291166E+03  0.50400001928E-02 0. -1.
</event>
<event>
 5   0  0.1435301E-05  0.1700430E+04  0.7818609E-02  0.8761119E-01
       -2   -1    0    0    0  501  0.00000000000E+00  0.00000000000E+00  0.81050646359E+03  0.81050646359E+03  0.25500000920E-02 0.  1.
        2   -1    0    0  501    0  0.00000000000E+00  0.00000000000E+00 -0.89186945555E+03  0.89186945556E+03  0.25500000920E-02 0. -1.
    10030    2    1    2    0    0  0.00000000000E+00  0.00000000000E+00 -0.81362991967E+02  0.17023759191E+04  0.17004304848E+04 0.  0.
        2    1    3    3  502    0  0.46046402307E+03 -0.87218985453E+02  0.66951835421E+03  0.81724481925E+03  0.25500000920E-02 0.  1.
       -2    1    3    3    0  502 -0.46046402307E+03  0.87218985453E+02 -0.75088134618E+03  0.88513109990E+03  0.25500000920E-02 0. -1.
</event>
<event>
 5   0  0.7583716E-06  0.1701910E+04  0.7818609E-02  0.8760276E-01
        1   -1    0    0  501    0  0.00000000000E+00  0.00000000000E+00  0.11969501951E+04  0.11969501951E+04  0.50400001928E-02 0. -1.
       -1   -1    0    0    0  501  0.00000000000E+00  0.00000000000E+00 -0.60497436858E+03  0.60497436860E+03  0.50400001928E-02 0.  1.
    10030    2    1    2    0    0  0.00000000000E+00  0.00000000000E+00  0.59197582651E+03  0.18019245637E+04  0.17019097374E+04 0.  0.
        5    1    3    3  502    0 -0.23610295995E+03  0.49369839448E+03 -0.39393408321E+03  0.67430620961E+03  0.46999998093E+01 0.  1.
       -5    1    3    3    0  502  0.23610295995E+03 -0.49369839448E+03  0.98590990972E+03  0.11276183541E+04  0.46999998093E+01 0. -1.
</event>
<event>
 5   0  0.7461128E-06  0.1699160E+04  0.7818609E-02  0.8761844E-01
       -1   -1    0    0    0  501  0.00000000000E+00  0.00000000000E+00  0.28290142237E+03  0.28290142241E+03  0.50400001928E-02 0.  1.
        1   -1    0    0  501    0  0.00000000000E+00  0.00000000000E+00 -0.25513685707E+04  0.25513685707E+04  0.50400001928E-02 0. -1.
    10030    2    1    2    0    0  0.00000000000E+00  0.00000000000E+00 -0.22684671483E+04  0.28342699931E+04  0.16991595543E+04 0.  0.
        3    1    3    3  502    0  0.34343683558E+03  0.52164518204E+03 -0.20949495236E+04  0.21860640596E+04  0.10100000352E+00 0. -1.
       -3    1    3    3    0  502 -0.34343683558E+03 -0.52164518204E+03 -0.17351762475E+03  0.64820593354E+03  0.10100000352E+00 0.  1.
</event>
<event>
 5   0  0.1423543E-05  0.1700395E+04  0.7818609E-02  0.8761139E-01
       -2   -1    0    0    0  501  0.00000000000E+00  0.00000000000E+00  0.84000297090E+03  0.84000297091E+03  0.25500000920E-02 0.  1.
        2   -1    0    0  501    0  0.00000000000E+00  0.00000000000E+00 -0.86051591449E+03  0.86051591449E+03  0.25500000920E-02 0. -1.
    10030    2    1    2    0    0  0.00000000000E+00  0.00000000000E+00 -0.20512943589E+02  0.17005188854E+04  0.17003951596E+04 0.  0.
        3    1    3    3  502    0 -0.98533216670E+02 -0.60476433066E+03  0.57918205745E+03  0.84314918982E+03  0.10100000352E+00 0.  1.
       -3    1    3    3    0  502  0.98533216670E+02  0.60476433066E+03 -0.59969500104E+03  0.85736969558E+03  0.10100000352E+00 0. -1.
</event>
<event>
 5   0  0.1441756E-05  0.1699475E+04  0.7818609E-02  0.8761664E-01
       -2   -1    0    0    0  501  0.00000000000E+00  0.00000000000E+00  0.72250773760E+03  0.72250773760E+03  0.25500000920E-02 0.  1.
        2   -1    0    0  501    0  0.00000000000E+00  0.00000000000E+00 -0.99937231515E+03  0.99937231515E+03  0.25500000920E-02 0. -1.
    10030    2    1    2    0    0  0.00000000000E+00  0.00000000000E+00 -0.27686457755E+03  0.17218800528E+04  0.16994754843E+04 0.  0.
        5    1    3    3  502    0 -0.64990425613E+03  0.41081337421E+03 -0.50498759927E+03  0.91987919640E+03  0.46999998093E+01 0. -1.
       -5    1    3    3    0  502  0.64990425613E+03 -0.41081337421E+03  0.22812302172E+03  0.80200085636E+03  0.46999998093E+01 0.  1.
</event>
<event>
 5   0  0.7583716E-06  0.1699432E+04  0.7818609E-02  0.8761688E-01
        1   -1    0    0  501    0  0.00000000000E+00  0.00000000000E+00  0.49192856226E+03  0.49192856228E+03  0.50400001928E-02 0. -1.
       -1   -1    0    0    0  501  0.00000000000E+00  0.00000000000E+00 -0.14677280229E+04  0.14677280229E+04  0.50400001928E-02 0.  1.
    10030    2    1    2    0    0  0.00000000000E+00  0.00000000000E+00 -0.97579946063E+03  0.19596565852E+04  0.16994320653E+04 0.  0.
        5    1    3    3  502    0  0.83140550390E+03  0.63451922717E+02 -0.29935776277E+03  0.88594492974E+03  0.46999998093E+01 0. -1.
       -5    1    3    3    0  502 -0.83140550390E+03 -0.63451922717E+02 -0.67644169786E+03  0.10737116554E+04  0.46999998093E+01 0.  1.
</event>
<event>
 5   0  0.1374441E-05  0.1700828E+04  0.7818609E-02  0.8760892E-01
        2   -1    0    0  501    0  0.00000000000E+00  0.00000000000E+00  0.14226579376E+04  0.14226579377E+04  0.25500000920E-02 0.  1.
       -2   -1    0    0    0  501  0.00000000000E+00  0.00000000000E+00 -0.50834730872E+03  0.50834730873E+03  0.25500000920E-02 0. -1.
    10030    2    1    2    0    0  0.00000000000E+00  0.00000000000E+00  0.91431062893E+03  0.19310052464E+04  0.17008284262E+04 0.  0.
        1    1    3    3  502    0  0.76282928352E+03  0.35640891859E+03  0.59277168575E+03  0.10297155454E+04  0.50400001928E-02 0. -1.
       -1    1    3    3    0  502 -0.76282928352E+03 -0.35640891859E+03  0.32153894318E+03  0.90128970095E+03  0.50400001928E-02 0.  1.
</event>
<event>
 5   0  0.7082527E-06  0.1696047E+04  0.7818609E-02  0.8763622E-01
        1   -1    0    0  501    0  0.00000000000E+00  0.00000000000E+00  0.10477033008E+04  0.10477033009E+04  0.50400001928E-02 0.  1.
       -1   -1    0    0    0  501  0.00000000000E+00  0.00000000000E+00 -0.68640068370E+03  0.68640068372E+03  0.50400001928E-02 0. -1.
    10030    2    1    2    0    0  0.00000000000E+00  0.00000000000E+00  0.36130261714E+03  0.17341039846E+04  0.16960474782E+04 0.  0.
        1    1    3    3  502    0 -0.21077495031E+03  0.31318896280E+03  0.95705227930E+03  0.10288160533E+04  0.50400001928E-02 0.  1.
       -1    1    3    3    0  502  0.21077495031E+03 -0.31318896280E+03 -0.59574966215E+03  0.70528793133E+03  0.50400001928E-02 0. -1.
</event>
<event>
 5   0  0.1423543E-05  0.1698348E+04  0.7818609E-02  0.8762307E-01
        2   -1    0    0  501    0  0.00000000000E+00  0.00000000000E+00  0.60586625535E+03  0.60586625535E+03  0.25500000920E-02 0. -1.
       -2   -1    0    0    0  501  0.00000000000E+00  0.00000000000E+00 -0.11901915571E+04  0.11901915572E+04  0.25500000920E-02 0.  1.
    10030    2    1    2    0    0  0.00000000000E+00  0.00000000000E+00 -0.58432530180E+03  0.17960578125E+04  0.16983484941E+04 0.  0.
        3    1    3    3  502    0 -0.70259046576E+03 -0.46272171816E+03 -0.16996328551E+03  0.85827284686E+03  0.10100000352E+00 0. -1.
       -3    1    3    3    0  502  0.70259046576E+03  0.46272171816E+03 -0.41436201629E+03  0.93778496564E+03  0.10100000352E+00 0.  1.
</event>
<event>
 5   0  0.1419012E-05  0.1700661E+04  0.7818609E-02  0.8760988E-01
       -2   -1    0    0    0  501  0.00000000000E+00  0.00000000000E+00  0.11514127721E+04  0.11514127721E+04  0.25500000920E-02 0. -1.
        2   -1    0    0  501    0  0.00000000000E+00  0.00000000000E+00 -0.62797790609E+03  0.62797790610E+03  0.25500000920E-02 0.  1.
    10030    2    1    2    0    0  0.00000000000E+00  0.00000000000E+00  0.52343486603E+03  0.17793906782E+04  0.17006607912E+04 0.  0.
        4    1    3    3  502    0  0.58146938610E+03  0.30643612968E+03 -0.30274848834E+03  0.72364909219E+03  0.12699999809E+01 0.  1.
       -4    1    3    3    0  502 -0.58146938610E+03 -0.30643612968E+03  0.82618335437E+03  0.10557415860E+04  0.12699999809E+01 0. -1.
</event>
<event>
 5   0  0.1435301E-05  0.1699668E+04  0.7818609E-02  0.8761553E-01
        2   -1    0    0  501    0  0.00000000000E+00  0.00000000000E+00  0.15520507412E+04  0.15520507412E+04  0.25500000920E-02 0.  1.
       -2   -1    0    0    0  501  0.00000000000E+00  0.00000000000E+00 -0.46533158640E+03  0.46533158641E+03  0.25500000920E-02 0. -1.
    10030    2    1    2    0    0  0.00000000000E+00  0.00000000000E+00  0.10867191548E+04  0.20173823276E+04  0.16996684778E+04 0.  0.
        2    1    3    3  502    0 -0.12831559641E+02  0.44436880882E+03  0.14030339367E+04  0.14717786908E+04  0.25500000920E-02 0.  1.
       -2    1    3    3    0  502  0.12831559641E+02 -0.44436880882E+03 -0.31631478194E+03  0.54560363677E+03  0.25500000920E-02 0. -1.
</event>
<event>
 5   0  0.1435301E-05  0.1700269E+04  0.7818609E-02  0.8761211E-01
        2   -1    0    0  501    0  0.00000000000E+00  0.00000000000E+00  0.98569076497E+03  0.98569076497E+03  0.25500000920E-02 0.  1.
       -2   -1    0    0    0  501  0.00000000000E+00  0.00000000000E+00 -0.73322043938E+03  0.73322043939E+03  0.25500000920E-02 0. -1.
    10030    2    1    2    0    0  0.00000000000E+00  0.00000000000E+00  0.25247032558E+03  0.17189112044E+04  0.17002689385E+04 0.  0.
        2    1    3    3  502    0 -0.67870392428E+03  0.39848765799E+03 -0.19868754631E+03  0.81173158831E+03  0.25500000920E-02 0. -1.
       -2    1    3    3    0  502  0.67870392428E+03 -0.39848765799E+03  0.45115787189E+03  0.90717961605E+03  0.25500000920E-02 0.  1.
</event>
<event>
 5   0  0.1374441E-05  0.1701395E+04  0.7818609E-02  0.8760569E-01
       -2   -1    0    0    0  501  0.00000000000E+00  0.00000000000E+00  0.58319586819E+03  0.58319586820E+03  0.25500000920E-02 0.  1.
        2   -1    0    0  501    0  0.00000000000E+00  0.00000000000E+00 -0.12408977095E+04  0.12408977095E+04  0.25500000920E-02 0. -1.
    10030    2    1    2    0    0  0.00000000000E+00  0.00000000000E+00 -0.65770184135E+03  0.18240935777E+04  0.17013952122E+04 0.  0.
        1    1    3    3  502    0 -0.80075015494E+02  0.84149484443E+03 -0.43146559135E+03  0.94904590924E+03  0.50400001928E-02 0.  1.
       -1    1    3    3    0  502  0.80075015494E+02 -0.84149484443E+03 -0.22623625000E+03  0.87504766850E+03  0.50400001928E-02 0. -1.
</event>
<event>
 5   0  0.7583716E-06  0.1698740E+04  0.7818609E-02  0.8762084E-01
       -1   -1    0    0    0  501  0.00000000000E+00  0.00000000000E+00  0.66274107559E+03  0.66274107561E+03  0.50400001928E-02 0.  1.
        1   -1    0    0  501    0  0.00000000000E+00  0.00000000000E+00 -0.10885534698E+04  0.10885534698E+04  0.50400001928E-02 0. -1.
    10030    2    1    2    0    0  0.00000000000E+00  0.00000000000E+00 -0.42581239417E+03  0.17512945454E+04  0.16987396474E+04 0.  0.
        5    1    3    3  502    0  0.21213474800E+03 -0.37409414631E+03 -0.96799983688E+03  0.10592418779E+04  0.46999998093E+01 0. -1.
       -5    1    3    3    0  502 -0.21213474800E+03  0.37409414631E+03  0.54218744271E+03  0.69205266753E+03  0.46999998093E+01 0.  1.
</event>
<event>
 5   0  0.7082527E-06  0.1698583E+04  0.7818609E-02  0.8762173E-01
        1   -1    0    0  501    0  0.00000000000E+00  0.00000000000E+00  0.84971422743E+03  0.84971422745E+03  0.50400001928E-02 0. -1.
       -1   -1    0    0    0  501  0.00000000000E+00  0.00000000000E+00 -0.84886910972E+03  0.84886910973E+03  0.50400001928E-02 0.  1.
    10030    2    1    2    0    0  0.00000000000E+00  0.00000000000E+00  0.84511771276E+00  0.16985833372E+04  0.16985831269E+04 0.  0.
        1    1    3    3  502    0 -0.13426076345E+01 -0.55910135149E+03 -0.63887403670E+03  0.84897359125E+03  0.50400001928E-02 0.  1.
       -1    1    3    3    0  502  0.13426076345E+01  0.55910135149E+03  0.63971915442E+03  0.84960974593E+03  0.50400001928E-02 0. -1.
</event>
<event>
 5   0  0.1374441E-05  0.1699159E+04  0.7818609E-02  0.8761844E-01
       -2   -1    0    0    0  501  0.00000000000E+00  0.00000000000E+00  0.93190037154E+03  0.93190037154E+03  0.25500000920E-02 0.  1.
        2   -1    0    0  501    0  0.00000000000E+00  0.00000000000E+00 -0.77453092091E+03  0.77453092092E+03  0.25500000920E-02 0. -1.
    10030    2    1    2    0    0  0.00000000000E+00  0.00000000000E+00  0.15736945063E+03  0.17064312925E+04  0.16991593839E+04 0.  0.
        1    1    3    3  502    0 -0.10169034055E+03 -0.83977045294E+03  0.15795487065E+03  0.86052604852E+03  0.50400001928E-02 0.  1.
       -1    1    3    3    0  502  0.10169034055E+03  0.83977045294E+03 -0.58542002592E+00  0.84590524394E+03  0.50400001928E-02 0. -1.
</event>
<event>
 5   0  0.7476457E-06  0.1692964E+04  0.7818609E-02  0.8765387E-01
       -1   -1    0    0    0  501  0.00000000000E+00  0.00000000000E+00  0.92362950038E+03  0.92362950039E+03  0.50400001928E-02 0. -1.
        1   -1    0    0  501    0  0.00000000000E+00  0.00000000000E+00 -0.77577869954E+03  0.77577869956E+03  0.50400001928E-02 0.  1.
    10030    2    1    2    0    0  0.00000000000E+00  0.00000000000E+00  0.14785080084E+03  0.16994081999E+04  0.16929643737E+04 0.  0.
        2    1    3    3  502    0  0.96886377268E+02 -0.34282443305E+03 -0.69686219355E+03  0.78264454180E+03  0.25500000920E-02 0.  1.
       -2    1    3    3    0  502 -0.96886377268E+02  0.34282443305E+03  0.84471299439E+03  0.91676365815E+03  0.25500000920E-02 0. -1.
</event>
<event>
 5   0  0.7461128E-06  0.1698664E+04  0.7818609E-02  0.8762127E-01
        1   -1    0    0  501    0  0.00000000000E+00  0.00000000000E+00  0.11238594253E+04  0.11238594253E+04  0.50400001928E-02 0. -1.
       -1   -1    0    0    0  501  0.00000000000E+00  0.00000000000E+00 -0.64186375973E+03  0.64186375975E+03  0.50400001928E-02 0.  1.
    10030    2    1    2    0    0  0.00000000000E+00  0.00000000000E+00  0.48199566557E+03  0.17657231851E+04  0.16986637527E+04 0.  0.
        3    1    3    3  502    0 -0.19417768313E+03 -0.36474401332E+03  0.10123305733E+04  0.10934150025E+04  0.10100000352E+00 0. -1.
       -3    1    3    3    0  502  0.19417768313E+03  0.36474401332E+03 -0.53033490768E+03  0.67230818259E+03  0.10100000352E+00 0.  1.
</event>
<event>
 5   0  0.7455669E-06  0.1703639E+04  0.7818609E-02  0.8759292E-01
       -1   -1    0    0    0  501  0.00000000000E+00  0.00000000000E+00  0.33440155014E+03  0.33440155017E+03  0.50400001928E-02 0. -1.
        1   -1    0    0  501    0  0.00000000000E+00  0.00000000000E+00 -0.21698360951E+04  0.21698360951E+04  0.50400001928E-02 0.  1.
    10030    2    1    2    0    0  0.00000000000E+00  0.00000000000E+00 -0.18354345450E+04  0.25042376453E+04  0.17036391095E+04 0.  0.
        4    1    3    3  502    0 -0.40692124777E+01 -0.25967573191E+03  0.27478539013E+03  0.37809610916E+03  0.12699999809E+01 0. -1.
       -4    1    3    3    0  502  0.40692124777E+01  0.25967573191E+03 -0.21102199351E+04  0.21261415362E+04  0.12699999809E+01 0.  1.
</event>
<event>
 5   0  0.1374441E-05  0.1699660E+04  0.7818609E-02  0.8761558E-01
       -2   -1    0    0    0  501  0.00000000000E+00  0.00000000000E+00  0.86315349399E+03  0.86315349400E+03  0.25500000920E-02 0.  1.
        2   -1    0    0  501    0  0.00000000000E+00  0.00000000000E+00 -0.83671191250E+03  0.83671191250E+03  0.25500000920E-02 0. -1.
    10030    2    1    2    0    0  0.00000000000E+00  0.00000000000E+00  0.26441581495E+02  0.16998654065E+04  0.16996597433E+04 0.  0.
        1    1    3    3  502    0 -0.35123361424E+03 -0.22000804843E+03  0.75522849656E+03  0.86147470954E+03  0.50400001928E-02 0.  1.
       -1    1    3    3    0  502  0.35123361424E+03  0.22000804843E+03 -0.72878691506E+03  0.83839069695E+03  0.50400001928E-02 0. -1.
</event>
<event>
 5   0  0.7476457E-06  0.1700236E+04  0.7818609E-02  0.8761230E-01
        1   -1    0    0  501    0  0.00000000000E+00  0.00000000000E+00  0.10343901298E+04  0.10343901298E+04  0.50400001928E-02 0.  1.
       -1   -1    0    0    0  501  0.00000000000E+00  0.00000000000E+00 -0.69867349493E+03  0.69867349494E+03  0.50400001928E-02 0. -1.
    10030    2    1    2    0    0  0.00000000000E+00  0.00000000000E+00  0.33571663483E+03  0.17330636247E+04  0.17002364154E+04 0.  0.
        2    1    3    3  502    0 -0.38007368314E+03  0.56811957923E+02  0.94079812201E+03  0.10162601584E+04  0.25500000920E-02 0.  1.
       -2    1    3    3    0  502  0.38007368314E+03 -0.56811957923E+02 -0.60508148718E+03  0.71680346631E+03  0.25500000920E-02 0. -1.
</event>
<event>
 5   0  0.7461128E-06  0.1699915E+04  0.7818609E-02  0.8761413E-01
       -1   -1    0    0    0  501  0.00000000000E+00  0.00000000000E+00  0.79858759960E+03  0.79858759961E+03  0.50400001928E-02 0.  1.
        1   -1    0    0  501    0  0.00000000000E+00  0.00000000000E+00 -0.90463232594E+03  0.90463232596E+03  0.50400001928E-02 0. -1.
    10030    2    1    2    0    0  0.00000000000E+00  0.00000000000E+00 -0.10604472635E+03  0.17032199256E+04  0.16999154776E+04 0.  0.
        3    1    3    3  502    0  0.22665309368E+03  0.72532295103E+03 -0.43450273200E+03  0.87536143534E+03  0.10100000352E+00 0. -1.
       -3    1    3    3    0  502 -0.22665309368E+03 -0.72532295103E+03  0.32845800565E+03  0.82785849023E+03  0.10100000352E+00 0.  1.
</event>
<event>
 5   0  0.7583716E-06  0.1700843E+04  0.7818609E-02  0.8760884E-01
       -1   -1    0    0    0  501  0.00000000000E+00  0.00000000000E+00  0.11336813521E+04  0.11336813521E+04  0.50400001928E-02 0. -1.
        1   -1    0    0  501    0  0.00000000000E+00  0.00000000000E+00 -0.63793642117E+03  0.63793642119E+03  0.50400001928E-02 0.  1.
    10030    2    1    2    0    0  0.00000000000E+00  0.00000000000E+00  0.49574493095E+03  0.17716177733E+04  0.17008428787E+04 0.  0.
        5    1    3    3  502    0 -0.27344852960E+03 -0.58173073881E+03  0.82782644477E+03  0.10480951595E+04  0.46999998093E+01 0.  1.
       -5    1    3    3    0  502  0.27344852960E+03  0.58173073881E+03 -0.33208151382E+03  0.72352261377E+03  0.46999998093E+01 0. -1.
</event>
<event>
 5   0  0.1374441E-05  0.1700007E+04  0.7818609E-02  0.8761360E-01
       -2   -1    0    0    0  501  0.00000000000E+00  0.00000000000E+00  0.42672634495E+03  0.42672634496E+03  0.25500000920E-02 0.  1.
        2   -1    0    0  501    0  0.00000000000E+00  0.00000000000E+00 -0.16931362748E+04  0.16931362748E+04  0.25500000920E-02 0. -1.
    10030    2    1    2    0    0  0.00000000000E+00  0.00000000000E+00 -0.12664099298E+04  0.21198626197E+04  0.17000068871E+04 0.  0.
        1    1    3    3  502    0 -0.21592802177E+03  0.21272598380E+03  0.35704279172E+03  0.46835543117E+03  0.50400001928E-02 0.  1.
       -1    1    3    3    0  502  0.21592802177E+03 -0.21272598380E+03 -0.16234527215E+04  0.16515071886E+04  0.50400001928E-02 0. -1.
</event>
<event>
 5   0  0.7583716E-06  0.1701120E+04  0.7818609E-02  0.8760726E-01
       -1   -1    0    0    0  501  0.00000000000E+00  0.00000000000E+00  0.11148062132E+04  0.11148062132E+04  0.50400001928E-02 0.  1.
        1   -1    0    0  501    0  0.00000000000E+00  0.00000000000E+00 -0.64894886790E+03  0.64894886792E+03  0.50400001928E-02 0. -1.
    10030    2    1    2    0    0  0.00000000000E+00  0.00000000000E+00  0.46585734528E+03  0.17637550811E+04  0.17011199017E+04 0.  0.
        5    1    3    3  502    0  0.13220010919E+03  0.82667922331E+03  0.38864071335E+03  0.92300547192E+03  0.46999998093E+01 0.  1.
       -5    1    3    3    0  502 -0.13220010919E+03 -0.82667922331E+03  0.77216631928E+02  0.84074960920E+03  0.46999998093E+01 0. -1.
</event>
<event>
 5   0  0.1435301E-05  0.1699184E+04  0.7818609E-02  0.8761830E-01
       -2   -1    0    0    0  501  0.00000000000E+00  0.00000000000E+00  0.61947268311E+03  0.61947268312E+03  0.25500000920E-02 0.  1.
        2   -1    0    0  501    0  0.00000000000E+00  0.00000000000E+00 -0.11651956226E+04  0.11651956226E+04  0.25500000920E-02 0. -1.
    10030    2    1    2    0    0  0.00000000000E+00  0.00000000000E+00 -0.54572293947E+03  0.17846683057E+04  0.16991843440E+04 0.  0.
        2    1    3    3  502    0 -0.64470298180E+02 -0.78517840087E+03  0.61171939023E+02  0.79019209479E+03  0.25500000920E-02 0.  1.
       -2    1    3    3    0  502  0.64470298180E+02  0.78517840087E+03 -0.60689487849E+03  0.99447621092E+03  0.25500000920E-02 0. -1.
</event>
<event>
 5   0  0.7476457E-06  0.1701057E+04  0.7818609E-02  0.8760762E-01
        1   -1    0    0  501    0  0.00000000000E+00  0.00000000000E+00  0.23214289073E+04  0.23214289073E+04  0.50400001928E-02 0.  1.
       -1   -1    0    0    0  501  0.00000000000E+00  0.00000000000E+00 -0.31161798808E+03  0.31161798812E+03  0.50400001928E-02 0. -1.
    10030    2    1    2    0    0  0.00000000000E+00  0.00000000000E+00  0.20098109193E+04  0.26330468955E+04  0.17010573249E+04 0.  0.
        2    1    3    3  502    0 -0.77550876049E+03  0.30269308913E+03  0.12746205682E+04  0.15223976276E+04  0.25500000920E-02 0.  1.
       -2    1    3    3    0  502  0.77550876049E+03 -0.30269308913E+03  0.73519035109E+03  0.11106492678E+04  0.25500000920E-02 0. -1.
</event>
<event>
 5   0  0.1441756E-05  0.1699384E+04  0.7818609E-02  0.8761716E-01
       -2   -1    0    0    0  501  0.00000000000E+00  0.00000000000E+00  0.86900000557E+03  0.86900000557E+03  0.25500000920E-02 0. -1.
        2   -1    0    0  501    0  0.00000000000E+00  0.00000000000E+00 -0.83081297901E+03  0.83081297902E+03  0.25500000920E-02 0.  1.
    10030    2    1    2    0    0  0.00000000000E+00  0.00000000000E+00  0.38187026555E+02  0.16998129846E+04  0.16993839865E+04 0.  0.
        5    1    3    3  502    0 -0.72858110750E+03  0.33222393365E+03 -0.26514581625E+03  0.84352093405E+03  0.46999998093E+01 0. -1.
       -5    1    3    3    0  502  0.72858110750E+03 -0.33222393365E+03  0.30333284281E+03  0.85629205054E+03  0.46999998093E+01 0.  1.
</event>
<event>
 5   0  0.1419012E-05  0.1704328E+04  0.7818609E-02  0.8758900E-01
       -2   -1    0    0    0  501  0.00000000000E+00  0.00000000000E+00  0.49043700543E+03  0.49043700544E+03  0.25500000920E-02 0.  1.
        2   -1    0    0  501    0  0.00000000000E+00  0.00000000000E+00 -0.14806858741E+04  0.14806858741E+04  0.25500000920E-02 0. -1.
    10030    2    1    2    0    0  0.00000000000E+00  0.00000000000E+00 -0.99024886863E+03  0.19711228795E+04  0.17043276047E+04 0.  0.
        4    1    3    3  502    0 -0.13913056175E+03  0.46276042452E+03  0.31666196155E+03  0.57773777314E+03  0.12699999809E+01 0.  1.
       -4    1    3    3    0  502  0.13913056175E+03 -0.46276042452E+03 -0.13069108302E+04  0.13933851064E+04  0.12699999809E+01 0. -1.
</event>
<event>
 5   0  0.1419012E-05  0.1701182E+04  0.7818609E-02  0.8760690E-01
        2   -1    0    0  501    0  0.00000000000E+00  0.00000000000E+00  0.85859042037E+03  0.85859042037E+03  0.25500000920E-02 0.  1.
       -2   -1    0    0    0  501  0.00000000000E+00  0.00000000000E+00 -0.84266640379E+03  0.84266640380E+03  0.25500000920E-02 0. -1.
    10030    2    1    2    0    0  0.00000000000E+00  0.00000000000E+00  0.15924016579E+02  0.17012568242E+04  0.17011822970E+04 0.  0.
        4    1    3    3  502    0 -0.51473939342E+03  0.31122378283E+00 -0.66922860511E+03  0.84428980735E+03  0.12699999809E+01 0. -1.
       -4    1    3    3    0  502  0.51473939342E+03 -0.31122378283E+00  0.68515262169E+03  0.85696701682E+03  0.12699999809E+01 0.  1.
</event>
<event>
 5   0  0.7583716E-06  0.1700199E+04  0.7818609E-02  0.8761251E-01
        1   -1    0    0  501    0  0.00000000000E+00  0.00000000000E+00  0.16318394544E+04  0.16318394544E+04  0.50400001928E-02 0. -1.
       -1   -1    0    0    0  501  0.00000000000E+00  0.00000000000E+00 -0.44285559191E+03  0.44285559193E+03  0.50400001928E-02 0.  1.
    10030    2    1    2    0    0  0.00000000000E+00  0.00000000000E+00  0.11889838625E+04  0.20746950463E+04  0.17001990795E+04 0.  0.
        5    1    3    3  502    0  0.24943284738E+03 -0.32980876143E+03  0.15008272242E+04  0.15567578525E+04  0.46999998093E+01 0. -1.
       -5    1    3    3    0  502 -0.24943284738E+03  0.32980876143E+03 -0.31184336173E+03  0.51793719380E+03  0.46999998093E+01 0.  1.
</event>
<event>
 5   0  0.5229750E-06  0.1699959E+04  0.7818609E-02  0.8761388E-01
        3   -1    0    0  501    0  0.00000000000E+00  0.00000000000E+00  0.15854241830E+04  0.15854241863E+04  0.10100000352E+00 0. -1.
       -3   -1    0    0    0  501  0.00000000000E+00  0.00000000000E+00 -0.45569205689E+03  0.45569206808E+03  0.10100000352E+00 0.  1.
    10030    2    1    2    0    0  0.00000000000E+00  0.00000000000E+00  0.11297321262E+04  0.20411162543E+04  0.16999590839E+04 0.  0.
        2    1    3    3  502    0 -0.51058089960E+03  0.56212038525E+03  0.10233220698E+04  0.12743077498E+04  0.25500000920E-02 0. -1.
       -2    1    3    3    0  502  0.51058089960E+03 -0.56212038525E+03  0.10641005631E+03  0.76680850454E+03  0.25500000920E-02 0.  1.
</event>
<event>
 5   0  0.7583716E-06  0.1694570E+04  0.7818609E-02  0.8764467E-01
       -1   -1    0    0    0  501  0.00000000000E+00  0.00000000000E+00  0.89141546502E+03  0.89141546503E+03  0.50400001928E-02 0. -1.
        1   -1    0    0  501    0  0.00000000000E+00  0.00000000000E+00 -0.80533925417E+03  0.80533925418E+03  0.50400001928E-02 0.  1.
    10030    2    1    2    0    0  0.00000000000E+00  0.00000000000E+00  0.86076210851E+02  0.16967547192E+04  0.16945699936E+04 0.  0.
        5    1    3    3  502    0  0.21404391672E+03  0.98837557258E+02  0.85789694065E+03  0.88971507337E+03  0.46999998093E+01 0. -1.
       -5    1    3    3    0  502 -0.21404391672E+03 -0.98837557258E+02 -0.77182072980E+03  0.80703964584E+03  0.46999998093E+01 0.  1.
</event>
<event>
 5   0  0.1419012E-05  0.1695037E+04  0.7818609E-02  0.8764200E-01
       -2   -1    0    0    0  501  0.00000000000E+00  0.00000000000E+00  0.38936462306E+03  0.38936462307E+03  0.25500000920E-02 0. -1.
        2   -1    0    0  501    0  0.00000000000E+00  0.00000000000E+00 -0.18447679816E+04  0.18447679816E+04  0.25500000920E-02 0.  1.
    10030    2    1    2    0    0  0.00000000000E+00  0.00000000000E+00 -0.14554033586E+04  0.22341326047E+04  0.16950367427E+04 0.  0.
        4    1    3    3  502    0  0.22024028853E+03 -0.61139572569E+02  0.34797219353E+03  0.41632930763E+03  0.12699999809E+01 0. -1.
       -4    1    3    3    0  502 -0.22024028853E+03  0.61139572569E+02 -0.18033755521E+04  0.18178032971E+04  0.12699999809E+01 0.  1.
</event>
<event>
 5   0  0.1441756E-05  0.1700605E+04  0.7818609E-02  0.8761020E-01
       -2   -1    0    0    0  501  0.00000000000E+00  0.00000000000E+00  0.63021763290E+03  0.63021763290E+03  0.25500000920E-02 0.  1.
        2   -1    0    0  501    0  0.00000000000E+00  0.00000000000E+00 -0.11472448792E+04  0.11472448792E+04  0.25500000920E-02 0. -1.
    10030    2    1    2    0    0  0.00000000000E+00  0.00000000000E+00 -0.51702724635E+03  0.17774625121E+04  0.17006045421E+04 0.  0.
        5    1    3    3  502    0  0.31828067785E+03  0.18737001420E+03  0.54198647352E+03  0.65588226046E+03  0.46999998093E+01 0.  1.
       -5    1    3    3    0  502 -0.31828067785E+03 -0.18737001420E+03 -0.10590137199E+04  0.11215802517E+04  0.46999998093E+01 0. -1.
</event>
<event>
 5   0  0.7461128E-06  0.1699928E+04  0.7818609E-02  0.8761406E-01
        1   -1    0    0  501    0  0.00000000000E+00  0.00000000000E+00  0.12708652298E+04  0.12708652299E+04  0.50400001928E-02 0. -1.
       -1   -1    0    0    0  501  0.00000000000E+00  0.00000000000E+00 -0.56846190580E+03  0.56846190582E+03  0.50400001928E-02 0.  1.
    10030    2    1    2    0    0  0.00000000000E+00  0.00000000000E+00  0.70240332405E+03  0.18393271357E+04  0.16999276109E+04 0.  0.
        3    1    3    3  502    0  0.80744984629E+03  0.26345090029E+03  0.38637640768E+03  0.93309612032E+03  0.10100000352E+00 0. -1.
       -3    1    3    3    0  502 -0.80744984629E+03 -0.26345090029E+03  0.31602691637E+03  0.90623101536E+03  0.10100000352E+00 0.  1.
</event>
<event>
 5   0  0.1419012E-05  0.1700866E+04  0.7818609E-02  0.8760871E-01
        2   -1    0    0  501    0  0.00000000000E+00  0.00000000000E+00  0.13093554637E+04  0.13093554637E+04  0.25500000920E-02 0.  1.
       -2   -1    0    0    0  501  0.00000000000E+00  0.00000000000E+00 -0.55236028964E+03  0.55236028964E+03  0.25500000920E-02 0. -1.
    10030    2    1    2    0    0  0.00000000000E+00  0.00000000000E+00  0.75699517407E+03  0.18617157533E+04  0.17008656186E+04 0.  0.
        4    1    3    3  502    0 -0.53975616407E+03  0.20598566848E+02  0.10974834495E+04  0.12232058504E+04  0.12699999809E+01 0.  1.
       -4    1    3    3    0  502  0.53975616407E+03 -0.20598566848E+02 -0.34048827541E+03  0.63850990298E+03  0.12699999809E+01 0. -1.
</event>
<event>
 5   0  0.1374441E-05  0.1700256E+04  0.7818609E-02  0.8761219E-01
       -2   -1    0    0    0  501  0.00000000000E+00  0.00000000000E+00  0.30153747400E+03  0.30153747401E+03  0.25500000920E-02 0. -1.
        2   -1    0    0  501    0  0.00000000000E+00  0.00000000000E+00 -0.23967746481E+04  0.23967746481E+04  0.25500000920E-02 0.  1.
    10030    2    1    2    0    0  0.00000000000E+00  0.00000000000E+00 -0.20952371741E+04  0.26983121221E+04  0.17002557139E+04 0.  0.
        1    1    3    3  502    0 -0.57339202491E+03  0.57973706001E+02 -0.55800932276E+02  0.57901045663E+03  0.50400001928E-02 0. -1.
       -1    1    3    3    0  502  0.57339202491E+03 -0.57973706001E+02 -0.20394362419E+04  0.21193016655E+04  0.50400001928E-02 0.  1.
</event>
<event>
 5   0  0.7461128E-06  0.1702220E+04  0.7818609E-02  0.8760099E-01
       -1   -1    0    0    0  501  0.00000000000E+00  0.00000000000E+00  0.69978908540E+03  0.69978908541E+03  0.50400001928E-02 0. -1.
        1   -1    0    0  501    0  0.00000000000E+00  0.00000000000E+00 -0.10351521445E+04  0.10351521445E+04  0.50400001928E-02 0.  1.
    10030    2    1    2    0    0  0.00000000000E+00  0.00000000000E+00 -0.33536305909E+03  0.17349412299E+04  0.17022199299E+04 0.  0.
        3    1    3    3  502    0 -0.41893964069E+03 -0.29288391228E+03 -0.86127495077E+03  0.10015417913E+04  0.10100000352E+00 0.  1.
       -3    1    3    3    0  502  0.41893964069E+03  0.29288391228E+03  0.52591189168E+03  0.73339943866E+03  0.10100000352E+00 0. -1.
</event>
<event>
 5   0  0.1423543E-05  0.1700722E+04  0.7818609E-02  0.8760953E-01
        2   -1    0    0  501    0  0.00000000000E+00  0.00000000000E+00  0.10638294076E+04  0.10638294076E+04  0.25500000920E-02 0. -1.
       -2   -1    0    0    0  501  0.00000000000E+00  0.00000000000E+00 -0.67972700889E+03  0.67972700889E+03  0.25500000920E-02 0.  1.
    10030    2    1    2    0    0  0.00000000000E+00  0.00000000000E+00  0.38410239869E+03  0.17435564165E+04  0.17007217070E+04 0.  0.
        3    1    3    3  502    0 -0.44570274467E+03  0.23102308689E+03  0.89569868217E+03  0.10267905058E+04  0.10100000352E+00 0. -1.
       -3    1    3    3    0  502  0.44570274467E+03 -0.23102308689E+03 -0.51159628348E+03  0.71676591071E+03  0.10100000352E+00 0.  1.
</event>
<event>
 5   0  0.7461128E-06  0.1700027E+04  0.7818609E-02  0.8761349E-01
       -1   -1    0    0    0  501  0.00000000000E+00  0.00000000000E+00  0.91650593509E+03  0.91650593511E+03  0.50400001928E-02 0. -1.
        1   -1    0    0  501    0  0.00000000000E+00  0.00000000000E+00 -0.78834531105E+03  0.78834531107E+03  0.50400001928E-02 0.  1.
    10030    2    1    2    0    0  0.00000000000E+00  0.00000000000E+00  0.12816062404E+03  0.17048512462E+04  0.17000272427E+04 0.  0.
        3    1    3    3  502    0 -0.44310502795E+03 -0.99931605936E+02  0.78458598392E+03  0.90658897414E+03  0.10100000352E+00 0. -1.
       -3    1    3    3    0  502  0.44310502795E+03  0.99931605936E+02 -0.65642535988E+03  0.79826227203E+03  0.10100000352E+00 0.  1.
</event>
<event>
 5   0  0.7583716E-06  0.1699617E+04  0.7818609E-02  0.8761583E-01
       -1   -1    0    0    0  501  0.00000000000E+00  0.00000000000E+00  0.57688894049E+03  0.57688894051E+03  0.50400001928E-02 0.  1.
        1   -1    0    0  501    0  0.00000000000E+00  0.00000000000E+00 -0.12518435662E+04  0.12518435662E+04  0.50400001928E-02 0. -1.
    10030    2    1    2    0    0  0.00000000000E+00  0.00000000000E+00 -0.67495462570E+03  0.18287325067E+04  0.16996172611E+04 0.  0.
        5    1    3    3  502    0  0.84091218463E+03 -0.31180459784E+02 -0.20995319871E+03  0.86729923267E+03  0.46999998093E+01 0.  1.
       -5    1    3    3    0  502 -0.84091218463E+03  0.31180459784E+02 -0.46500142699E+03  0.96143327404E+03  0.46999998093E+01 0. -1.
</event>
<event>
 5   0  0.7082527E-06  0.1700777E+04  0.7818609E-02  0.8760921E-01
        1   -1    0    0  501    0  0.00000000000E+00  0.00000000000E+00  0.79661899918E+03  0.79661899920E+03  0.50400001928E-02 0. -1.
       -1   -1    0    0    0  501  0.00000000000E+00  0.00000000000E+00 -0.90778736221E+03  0.90778736222E+03  0.50400001928E-02 0.  1.
    10030    2    1    2    0    0  0.00000000000E+00  0.00000000000E+00 -0.11116836303E+03  0.17044063614E+04  0.17007770694E+04 0.  0.
        1    1    3    3  502    0  0.67006334436E+03  0.16470681127E+03 -0.55368348479E+03  0.88469125716E+03  0.50400001928E-02 0.  1.
       -1    1    3    3    0  502 -0.67006334436E+03 -0.16470681127E+03  0.44251512176E+03  0.81971510426E+03  0.50400001928E-02 0. -1.
</event>
<event>
 5   0  0.7082527E-06  0.1700065E+04  0.7818609E-02  0.8761327E-01
       -1   -1    0    0    0  501  0.00000000000E+00  0.00000000000E+00  0.65353372664E+03  0.65353372666E+03  0.50400001928E-02 0. -1.
        1   -1    0    0  501    0  0.00000000000E+00  0.00000000000E+00 -0.11056130271E+04  0.11056130272E+04  0.50400001928E-02 0.  1.
    10030    2    1    2    0    0  0.00000000000E+00  0.00000000000E+00 -0.45207930050E+03  0.17591467538E+04  0.17000651774E+04 0.  0.
        1    1    3    3  502    0 -0.40598323282E+03  0.69327624335E+03  0.61280902632E+02  0.80573549256E+03  0.50400001928E-02 0. -1.
       -1    1    3    3    0  502  0.40598323282E+03 -0.69327624335E+03 -0.51336020314E+03  0.95341126126E+03  0.50400001928E-02 0.  1.
</event>
<event>
 5   0  0.1423543E-05  0.1699708E+04  0.7818609E-02  0.8761531E-01
        2   -1    0    0  501    0  0.00000000000E+00  0.00000000000E+00  0.95211253104E+03  0.95211253105E+03  0.25500000920E-02 0. -1.
       -2   -1    0    0    0  501  0.00000000000E+00  0.00000000000E+00 -0.75857807655E+03  0.75857807656E+03  0.25500000920E-02 0.  1.
    10030    2    1    2    0    0  0.00000000000E+00  0.00000000000E+00  0.19353445449E+03  0.17106906076E+04  0.16997078484E+04 0.  0.
        3    1    3    3  502    0  0.82882944255E+02 -0.41115356225E+03  0.84068792601E+03  0.93950680324E+03  0.10100000352E+00 0. -1.
       -3    1    3    3    0  502 -0.82882944255E+02  0.41115356225E+03 -0.64715347152E+03  0.77118380436E+03  0.10100000352E+00 0.  1.
</event>
<event>
 5   0  0.7082527E-06  0.1706617E+04  0.7818609E-02  0.8757600E-01
        1   -1    0    0  501    0  0.00000000000E+00  0.00000000000E+00  0.83513917576E+03  0.83513917577E+03  0.50400001928E-02 0. -1.
       -1   -1    0    0    0  501  0.00000000000E+00  0.00000000000E+00 -0.87187290427E+03  0.87187290428E+03  0.50400001928E-02 0.  1.
    10030    2    1    2    0    0  0.00000000000E+00  0.00000000000E+00 -0.36733728514E+02  0.17070120801E+04  0.17066167920E+04 0.  0.
        1    1    3    3  502    0 -0.25718564632E+03 -0.74005029409E+03  0.31981841987E+03  0.84622852479E+03  0.50400001928E-02 0. -1.
       -1    1    3    3    0  502  0.25718564632E+03  0.74005029409E+03 -0.35655214839E+03  0.86078355526E+03  0.50400001928E-02 0.  1.
</event>
<event>
 5   0  0.7476457E-06  0.1699660E+04  0.7818609E-02  0.8761558E-01
        1   -1    0    0  501    0  0.00000000000E+00  0.00000000000E+00  0.12895194149E+04  0.12895194149E+04  0.50400001928E-02 0. -1.
       -1   -1    0    0    0  501  0.00000000000E+00  0.00000000000E+00 -0.56006237599E+03  0.56006237602E+03  0.50400001928E-02 0.  1.
    10030    2    1    2    0    0  0.00000000000E+00  0.00000000000E+00  0.72945703891E+03  0.18495817909E+04  0.16996603277E+04 0.  0.
        2    1    3    3  502    0  0.29100371674E+03  0.79296431058E+03  0.26301904439E+03  0.88467766940E+03  0.25500000920E-02 0. -1.
       -2    1    3    3    0  502 -0.29100371674E+03 -0.79296431058E+03  0.46643799452E+03  0.96490412153E+03  0.25500000920E-02 0.  1.
</event>
<event>
 5   0  0.7583716E-06  0.1699894E+04  0.7818609E-02  0.8761425E-01
        1   -1    0    0  501    0  0.00000000000E+00  0.00000000000E+00  0.10847743964E+04  0.10847743964E+04  0.50400001928E-02 0.  1.
       -1   -1    0    0    0  501  0.00000000000E+00  0.00000000000E+00 -0.66595379154E+03  0.66595379156E+03  0.50400001928E-02 0. -1.
    10030    2    1    2    0    0  0.00000000000E+00  0.00000000000E+00  0.41882060484E+03  0.17507281880E+04  0.16998936699E+04 0.  0.
        5    1    3    3  502    0 -0.79354442156E+03 -0.27196312840E+03  0.68532161841E+02  0.84166230723E+03  0.46999998093E+01 0.  1.
       -5    1    3    3    0  502  0.79354442156E+03  0.27196312840E+03  0.35028844300E+03  0.90906588073E+03  0.46999998093E+01 0. -1.
</event>
<event>
 5   0  0.1374441E-05  0.1700433E+04  0.7818609E-02  0.8761118E-01
        2   -1    0    0  501    0  0.00000000000E+00  0.00000000000E+00  0.13307109294E+04  0.13307109294E+04  0.25500000920E-02 0. -1.
       -2   -1    0    0    0  501  0.00000000000E+00  0.00000000000E+00 -0.54321925501E+03  0.54321925502E+03  0.25500000920E-02 0.  1.
    10030    2    1    2    0    0  0.00000000000E+00  0.00000000000E+00  0.78749167438E+03  0.18739301844E+04  0.17004326505E+04 0.  0.
        1    1    3    3  502    0  0.11016351133E+03  0.82503129094E+03  0.20269296919E+03  0.85667792667E+03  0.50400001928E-02 0.  1.
       -1    1    3    3    0  502 -0.11016351133E+03 -0.82503129094E+03  0.58479870519E+03  0.10172522577E+04  0.50400001928E-02 0. -1.
</event>
<event>
 5   0  0.1423543E-05  0.1700423E+04  0.7818609E-02  0.8761123E-01
       -2   -1    0    0    0  501  0.00000000000E+00  0.00000000000E+00  0.32341303917E+03  0.32341303918E+03  0.25500000920E-02 0. -1.
        2   -1    0    0  501    0  0.00000000000E+00  0.00000000000E+00 -0.22350967397E+04  0.22350967397E+04  0.25500000920E-02 0.  1.
    10030    2    1    2    0    0  0.00000000000E+00  0.00000000000E+00 -0.19116837006E+04  0.25585097789E+04  0.17004228056E+04 0.  0.
        3    1    3    3  502    0 -0.16777540934E+03 -0.42558036725E+02 -0.22083060751E+04  0.22150791196E+04  0.10100000352E+00 0.  1.
       -3    1    3    3    0  502  0.16777540934E+03  0.42558036725E+02  0.29662237456E+03  0.34343065931E+03  0.10100000352E+00 0. -1.
</event>
<event>
 5   0  0.7455669E-06  0.1699284E+04  0.7818609E-02  0.8761773E-01
        1   -1    0    0  501    0  0.00000000000E+00  0.00000000000E+00  0.18522505540E+04  0.18522505540E+04  0.50400001928E-02 0.  1.
       -1   -1    0    0    0  501  0.00000000000E+00  0.00000000000E+00 -0.38973743076E+03  0.38973743079E+03  0.50400001928E-02 0. -1.
    10030    2    1    2    0    0  0.00000000000E+00  0.00000000000E+00  0.14625131232E+04  0.22419879848E+04  0.16992838163E+04 0.  0.
        4    1    3    3  502    0  0.27069426762E+03  0.14744129930E+03 -0.31336259471E+03  0.43955892884E+03  0.12699999809E+01 0. -1.
       -4    1    3    3    0  502 -0.27069426762E+03 -0.14744129930E+03  0.17758757179E+04  0.18024290559E+04  0.12699999809E+01 0.  1.
</event>
<event>
 5   0  0.7476457E-06  0.1699494E+04  0.7818609E-02  0.8761653E-01
        1   -1    0    0  501    0  0.00000000000E+00  0.00000000000E+00  0.42361312970E+03  0.42361312973E+03  0.50400001928E-02 0.  1.
       -1   -1    0    0    0  501  0.00000000000E+00  0.00000000000E+00 -0.17045506594E+04  0.17045506594E+04  0.50400001928E-02 0. -1.
    10030    2    1    2    0    0  0.00000000000E+00  0.00000000000E+00 -0.12809375297E+04  0.21281637892E+04  0.16994940890E+04 0.  0.
        2    1    3    3  502    0 -0.36998104096E+03 -0.60048565926E+03 -0.12339285217E+04  0.14212841357E+04  0.25500000920E-02 0. -1.
       -2    1    3    3    0  502  0.36998104096E+03  0.60048565926E+03 -0.47009007997E+02  0.70687965347E+03  0.25500000920E-02 0.  1.
</event>
<event>
 5   0  0.7455669E-06  0.1700421E+04  0.7818609E-02  0.8761124E-01
        1   -1    0    0  501    0  0.00000000000E+00  0.00000000000E+00  0.89252128440E+03  0.89252128441E+03  0.50400001928E-02 0. -1.
       -1   -1    0    0    0  501  0.00000000000E+00  0.00000000000E+00 -0.80990513761E+03  0.80990513763E+03  0.50400001928E-02 0.  1.
    10030    2    1    2    0    0  0.00000000000E+00  0.00000000000E+00  0.82616146783E+02  0.17024264220E+04  0.17004206229E+04 0.  0.
        4    1    3    3  502    0 -0.24667258072E+03 -0.67721564138E+03 -0.41020901895E+03  0.82930177808E+03  0.12699999809E+01 0.  1.
       -4    1    3    3    0  502  0.24667258072E+03  0.67721564138E+03  0.49282516573E+03  0.87312464396E+03  0.12699999809E+01 0. -1.
</event>
<event>
 5   0  0.7082527E-06  0.1700019E+04  0.7818609E-02  0.8761353E-01
       -1   -1    0    0    0  501  0.00000000000E+00  0.00000000000E+00  0.18719496763E+04  0.18719496763E+04  0.50400001928E-02 0. -1.
        1   -1    0    0  501    0  0.00000000000E+00  0.00000000000E+00 -0.38597000060E+03  0.38597000063E+03  0.50400001928E-02 0.  1.
    10030    2    1    2    0    0  0.00000000000E+00  0.00000000000E+00  0.14859796757E+04  0.22579196769E+04  0.17000193149E+04 0.  0.
        1    1    3    3  502    0  0.48815754589E+03  0.85713386862E+02 -0.17419205643E+03  0.52534507407E+03  0.50400001928E-02 0.  1.
       -1    1    3    3    0  502 -0.48815754589E+03 -0.85713386862E+02  0.16601717321E+04  0.17325746029E+04  0.50400001928E-02 0. -1.
</event>
<event>
 5   0  0.5229750E-06  0.1699757E+04  0.7818609E-02  0.8761503E-01
       -3   -1    0    0    0  501  0.00000000000E+00  0.00000000000E+00  0.96365154451E+03  0.96365154981E+03  0.10100000352E+00 0. -1.
        3   -1    0    0  501    0  0.00000000000E+00  0.00000000000E+00 -0.74953824144E+03  0.74953824825E+03  0.10100000352E+00 0.  1.
    10030    2    1    2    0    0  0.00000000000E+00  0.00000000000E+00  0.21411330307E+03  0.17131897981E+04  0.16997572702E+04 0.  0.
        3    1    3    3  502    0 -0.25945540519E+02  0.49617722208E+03  0.80201897315E+03  0.94345082028E+03  0.10100000352E+00 0. -1.
       -3    1    3    3    0  502  0.25945540519E+02 -0.49617722208E+03 -0.58790567008E+03  0.76973897777E+03  0.10100000352E+00 0.  1.
</event>
<event>
 5   0  0.7082527E-06  0.1700068E+04  0.7818609E-02  0.8761326E-01
       -1   -1    0    0    0  501  0.00000000000E+00  0.00000000000E+00  0.17210718028E+04  0.17210718028E+04  0.50400001928E-02 0. -1.
        1   -1    0    0  501    0  0.00000000000E+00  0.00000000000E+00 -0.41983017218E+03  0.41983017221E+03  0.50400001928E-02 0.  1.
    10030    2    1    2    0    0  0.00000000000E+00  0.00000000000E+00  0.13012416306E+04  0.21409019750E+04  0.17000680826E+04 0.  0.
        1    1    3    3  502    0  0.72779857374E+03  0.34280858315E+03  0.99629768316E+03  0.12805536155E+04  0.50400001928E-02 0. -1.
       -1    1    3    3    0  502 -0.72779857374E+03 -0.34280858315E+03  0.30494394746E+03  0.86034835953E+03  0.50400001928E-02 0.  1.
</event>
<event>
 5   0  0.1419012E-05  0.1700517E+04  0.7818609E-02  0.8761070E-01
       -2   -1    0    0    0  501  0.00000000000E+00  0.00000000000E+00  0.83538774341E+03  0.83538774342E+03  0.25500000920E-02 0.  1.
        2   -1    0    0  501    0  0.00000000000E+00  0.00000000000E+00 -0.86539352378E+03  0.86539352378E+03  0.25500000920E-02 0. -1.
    10030    2    1    2    0    0  0.00000000000E+00  0.00000000000E+00 -0.30005780362E+02  0.17007812672E+04  0.17005165603E+04 0.  0.
        4    1    3    3  502    0  0.79604889139E+03  0.20957370088E+03  0.19792119881E+03  0.84663415205E+03  0.12699999809E+01 0. -1.
       -4    1    3    3    0  502 -0.79604889139E+03 -0.20957370088E+03 -0.22792697917E+03  0.85414711515E+03  0.12699999809E+01 0.  1.
</event>
<event>
 5   0  0.1419012E-05  0.1699835E+04  0.7818609E-02  0.8761458E-01
       -2   -1    0    0    0  501  0.00000000000E+00  0.00000000000E+00  0.49048042241E+03  0.49048042242E+03  0.25500000920E-02 0. -1.
        2   -1    0    0  501    0  0.00000000000E+00  0.00000000000E+00 -0.14727599759E+04  0.14727599759E+04  0.25500000920E-02 0.  1.
    10030    2    1    2    0    0  0.00000000000E+00  0.00000000000E+00 -0.98227955352E+03  0.19632403984E+04  0.16998352098E+04 0.  0.
        4    1    3    3  502    0  0.68855033950E+03 -0.45769210195E+03 -0.71856615731E+03  0.10954097706E+04  0.12699999809E+01 0. -1.
       -4    1    3    3    0  502 -0.68855033950E+03  0.45769210195E+03 -0.26371339621E+03  0.86783062775E+03  0.12699999809E+01 0.  1.
</event>
<event>
 5   0  0.7082527E-06  0.1701386E+04  0.7818609E-02  0.8760574E-01
       -1   -1    0    0    0  501  0.00000000000E+00  0.00000000000E+00  0.47456112053E+03  0.47456112056E+03  0.50400001928E-02 0.  1.
        1   -1    0    0  501    0  0.00000000000E+00  0.00000000000E+00 -0.15249422065E+04  0.15249422065E+04  0.50400001928E-02 0. -1.
    10030    2    1    2    0    0  0.00000000000E+00  0.00000000000E+00 -0.10503810860E+04  0.19995033271E+04  0.17013856498E+04 0.  0.
        1    1    3    3  502    0 -0.26355681412E+03  0.76722162237E+03 -0.82616419723E+03  0.11578594444E+04  0.50400001928E-02 0. -1.
       -1    1    3    3    0  502  0.26355681412E+03 -0.76722162237E+03 -0.22421688875E+03  0.84164388272E+03  0.50400001928E-02 0.  1.
</event>
<event>
 5   0  0.7455669E-06  0.1700122E+04  0.7818609E-02  0.8761295E-01
       -1   -1    0    0    0  501  0.00000000000E+00  0.00000000000E+00  0.46125582765E+03  0.46125582768E+03  0.50400001928E-02 0. -1.
        1   -1    0    0  501    0  0.00000000000E+00  0.00000000000E+00 -0.15666011096E+04  0.15666011096E+04  0.50400001928E-02 0.  1.
    10030    2    1    2    0    0  0.00000000000E+00  0.00000000000E+00 -0.11053452819E+04  0.20278569373E+04  0.17001222208E+04 0.  0.
        4    1    3    3  502    0  0.64199209531E+03  0.15672207995E+03 -0.11904279498E+04  0.13615564540E+04  0.12699999809E+01 0.  1.
       -4    1    3    3    0  502 -0.64199209531E+03 -0.15672207995E+03  0.85082667859E+02  0.66630048330E+03  0.12699999809E+01 0. -1.
</event>
<event>
 5   0  0.1419012E-05  0.1699522E+04  0.7818609E-02  0.8761637E-01
       -2   -1    0    0    0  501  0.00000000000E+00  0.00000000000E+00  0.86268354129E+03  0.86268354129E+03  0.25500000920E-02 0. -1.
        2   -1    0    0  501    0  0.00000000000E+00  0.00000000000E+00 -0.83703211724E+03  0.83703211724E+03  0.25500000920E-02 0.  1.
    10030    2    1    2    0    0  0.00000000000E+00  0.00000000000E+00  0.25651424048E+02  0.16997156585E+04  0.16995220870E+04 0.  0.
        4    1    3    3  502    0 -0.12975811994E+02 -0.63790197020E+03  0.57414263106E+03  0.85832899810E+03  0.12699999809E+01 0. -1.
       -4    1    3    3    0  502  0.12975811994E+02  0.63790197020E+03 -0.54849120701E+03  0.84138666043E+03  0.12699999809E+01 0.  1.
</event>
<event>
 5   0  0.1419012E-05  0.1699536E+04  0.7818609E-02  0.8761629E-01
       -2   -1    0    0    0  501  0.00000000000E+00  0.00000000000E+00  0.15966230488E+04  0.15966230488E+04  0.25500000920E-02 0. -1.
        2   -1    0    0  501    0  0.00000000000E+00  0.00000000000E+00 -0.45227040549E+03  0.45227040549E+03  0.25500000920E-02 0.  1.
    10030    2    1    2    0    0  0.00000000000E+00  0.00000000000E+00  0.11443526433E+04  0.20488934543E+04  0.16995356468E+04 0.  0.
        4    1    3    3  502    0  0.19277324646E+03 -0.69494222223E+03  0.11140051647E+04  0.13270702079E+04  0.12699999809E+01 0.  1.
       -4    1    3    3    0  502 -0.19277324646E+03  0.69494222223E+03  0.30347478684E+02  0.72182324647E+03  0.12699999809E+01 0. -1.
</event>
<event>
 5   0  0.1441756E-05  0.1700090E+04  0.7818609E-02  0.8761313E-01
       -2   -1    0    0    0  501  0.00000000000E+00  0.00000000000E+00  0.65703304595E+03  0.65703304595E+03  0.25500000920E-02 0.  1.
        2   -1    0    0  501    0  0.00000000000E+00  0.00000000000E+00 -0.10997568666E+04  0.10997568666E+04  0.25500000920E-02 0. -1.
    10030    2    1    2    0    0  0.00000000000E+00  0.00000000000E+00 -0.44272382069E+03  0.17567899126E+04  0.17000901198E+04 0.  0.
        5    1    3    3  502    0 -0.17479627378E+03 -0.81970231619E+03 -0.74899610422E+02  0.84148539270E+03  0.46999998093E+01 0.  1.
       -5    1    3    3    0  502  0.17479627378E+03  0.81970231619E+03 -0.36782421027E+03  0.91530451990E+03  0.46999998093E+01 0. -1.
</event>
<event>
 5   0  0.1374441E-05  0.1700528E+04  0.7818609E-02  0.8761063E-01
       -2   -1    0    0    0  501  0.00000000000E+00  0.00000000000E+00  0.93192169258E+03  0.93192169259E+03  0.25500000920E-02 0.  1.
        2   -1    0    0  501    0  0.00000000000E+00  0.00000000000E+00 -0.77576143104E+03  0.77576143104E+03  0.25500000920E-02 0. -1.
    10030    2    1    2    0    0  0.00000000000E+00  0.00000000000E+00  0.15616026154E+03  0.17076831236E+04  0.17005280425E+04 0.  0.
        1    1    3    3  502    0 -0.36344792920E+03  0.57321490460E+02  0.84783569201E+03  0.92423239025E+03  0.50400001928E-02 0.  1.
       -1    1    3    3    0  502  0.36344792920E+03 -0.57321490460E+02 -0.69167543046E+03  0.78345073339E+03  0.50400001928E-02 0. -1.
</event>
<event>
 5   0  0.7583716E-06  0.1700249E+04  0.7818609E-02  0.8761222E-01
        1   -1    0    0  501    0  0.00000000000E+00  0.00000000000E+00  0.60139667889E+03  0.60139667891E+03  0.50400001928E-02 0.  1.
       -1   -1    0    0    0  501  0.00000000000E+00  0.00000000000E+00 -0.12017217488E+04  0.12017217488E+04  0.50400001928E-02 0. -1.
    10030    2    1    2    0    0  0.00000000000E+00  0.00000000000E+00 -0.60032506986E+03  0.18031184277E+04  0.17002487685E+04 0.  0.
        5    1    3    3  502    0 -0.44267919242E+03  0.42357234693E+03 -0.92514961347E+03  0.11096406165E+04  0.46999998093E+01 0. -1.
       -5    1    3    3    0  502  0.44267919242E+03 -0.42357234693E+03  0.32482454361E+03  0.69347781118E+03  0.46999998093E+01 0.  1.
</event>
<event>
 5   0  0.1441756E-05  0.1698075E+04  0.7818609E-02  0.8762463E-01
       -2   -1    0    0    0  501  0.00000000000E+00  0.00000000000E+00  0.58988246851E+03  0.58988246852E+03  0.25500000920E-02 0. -1.
        2   -1    0    0  501    0  0.00000000000E+00  0.00000000000E+00 -0.12220480365E+04  0.12220480365E+04  0.25500000920E-02 0.  1.
    10030    2    1    2    0    0  0.00000000000E+00  0.00000000000E+00 -0.63216556800E+03  0.18119305050E+04  0.16980750424E+04 0.  0.
        5    1    3    3  502    0 -0.44140751568E+03  0.71970771470E+03 -0.41165871383E+03  0.93931079850E+03  0.46999998093E+01 0.  1.
       -5    1    3    3    0  502  0.44140751568E+03 -0.71970771470E+03 -0.22050685418E+03  0.87261970654E+03  0.46999998093E+01 0. -1.
</event>
<event>
 5   0  0.7476457E-06  0.1700561E+04  0.7818609E-02  0.8761045E-01
       -1   -1    0    0    0  501  0.00000000000E+00  0.00000000000E+00  0.96916776259E+03  0.96916776260E+03  0.50400001928E-02 0. -1.
        1   -1    0    0  501    0  0.00000000000E+00  0.00000000000E+00 -0.74597691468E+03  0.74597691469E+03  0.50400001928E-02 0.  1.
    10030    2    1    2    0    0  0.00000000000E+00  0.00000000000E+00  0.22319084791E+03  0.17151446773E+04  0.17005608220E+04 0.  0.
        2    1    3    3  502    0  0.17019527028E+03 -0.67828253330E+03  0.59942009376E+03  0.92105269872E+03  0.25500000920E-02 0. -1.
       -2    1    3    3    0  502 -0.17019527028E+03  0.67828253330E+03 -0.37622924585E+03  0.79409197858E+03  0.25500000920E-02 0.  1.
</event>
<event>
 5   0  0.1441756E-05  0.1700200E+04  0.7818609E-02  0.8761251E-01
        2   -1    0    0  501    0  0.00000000000E+00  0.00000000000E+00  0.12098041373E+04  0.12098041373E+04  0.25500000920E-02 0.  1.
       -2   -1    0    0    0  501  0.00000000000E+00  0.00000000000E+00 -0.59734436182E+03  0.59734436183E+03  0.25500000920E-02 0. -1.
    10030    2    1    2    0    0  0.00000000000E+00  0.00000000000E+00  0.61245977544E+03  0.18071484991E+04  0.17001996122E+04 0.  0.
        5    1    3    3  502    0  0.48975967973E+03  0.54904092659E+03 -0.14639379141E+03  0.75017578948E+03  0.46999998093E+01 0. -1.
       -5    1    3    3    0  502 -0.48975967973E+03 -0.54904092659E+03  0.75885356685E+03  0.10569727096E+04  0.46999998093E+01 0.  1.
</event>
<event>
 5   0  0.7461128E-06  0.1699914E+04  0.7818609E-02  0.8761414E-01
        1   -1    0    0  501    0  0.00000000000E+00  0.00000000000E+00  0.26264398880E+04  0.26264398880E+04  0.50400001928E-02 0.  1.
       -1   -1    0    0    0  501  0.00000000000E+00  0.00000000000E+00 -0.27505923326E+03  0.27505923330E+03  0.50400001928E-02 0. -1.
    10030    2    1    2    0    0  0.00000000000E+00  0.00000000000E+00  0.23513806547E+04  0.29014991213E+04  0.16999135765E+04 0.  0.
        3    1    3    3  502    0  0.17103841315E+03  0.29400589905E+03  0.25052088192E+04  0.25281939889E+04  0.10100000352E+00 0.  1.
       -3    1    3    3    0  502 -0.17103841315E+03 -0.29400589905E+03 -0.15382816451E+03  0.37330513237E+03  0.10100000352E+00 0. -1.
</event>
<event>
 5   0  0.7455669E-06  0.1699474E+04  0.7818609E-02  0.8761664E-01
       -1   -1    0    0    0  501  0.00000000000E+00  0.00000000000E+00  0.11746773183E+04  0.11746773183E+04  0.50400001928E-02 0.  1.
        1   -1    0    0  501    0  0.00000000000E+00  0.00000000000E+00 -0.61468216438E+03  0.61468216440E+03  0.50400001928E-02 0. -1.
    10030    2    1    2    0    0  0.00000000000E+00  0.00000000000E+00  0.55999515391E+03  0.17893594827E+04  0.16994742675E+04 0.  0.
        4    1    3    3  502    0  0.43782338060E+03 -0.44667057738E+03  0.88561316338E+03  0.10842122511E+04  0.12699999809E+01 0.  1.
       -4    1    3    3    0  502 -0.43782338060E+03  0.44667057738E+03 -0.32561800947E+03  0.70514723164E+03  0.12699999809E+01 0. -1.
</event>
<event>
 5   0  0.7461128E-06  0.1699515E+04  0.7818609E-02  0.8761641E-01
       -1   -1    0    0    0  501  0.00000000000E+00  0.00000000000E+00  0.10799822510E+04  0.10799822510E+04  0.50400001928E-02 0. -1.
        1   -1    0    0  501    0  0.00000000000E+00  0.00000000000E+00 -0.66861069986E+03  0.66861069988E+03  0.50400001928E-02 0.  1.
    10030    2    1    2    0    0  0.00000000000E+00  0.00000000000E+00  0.41137155114E+03  0.17485929509E+04  0.16995148587E+04 0.  0.
        3    1    3    3  502    0 -0.10644856108E+03  0.24924290709E+03 -0.62295009854E+03  0.67935274958E+03  0.10100000352E+00 0.  1.
       -3    1    3    3    0  502  0.10644856108E+03 -0.24924290709E+03  0.10343216497E+04  0.10692402013E+04  0.10100000352E+00 0. -1.
</event>
<event>
 5   0  0.7461128E-06  0.1699731E+04  0.7818609E-02  0.8761518E-01
        1   -1    0    0  501    0  0.00000000000E+00  0.00000000000E+00  0.63919404099E+03  0.63919404101E+03  0.50400001928E-02 0.  1.
       -1   -1    0    0    0  501  0.00000000000E+00  0.00000000000E+00 -0.11299721808E+04  0.11299721808E+04  0.50400001928E-02 0. -1.
    10030    2    1    2    0    0  0.00000000000E+00  0.00000000000E+00 -0.49077813980E+03  0.17691662218E+04  0.16997311369E+04 0.  0.
        3    1    3    3  502    0 -0.78581176033E+03  0.92392529423E+02  0.77501135375E+02  0.79501128190E+03  0.10100000352E+00 0.  1.
       -3    1    3    3    0  502  0.78581176033E+03 -0.92392529423E+02 -0.56827927518E+03  0.97415493991E+03  0.10100000352E+00 0. -1.
</event>
<event>
 5   0  0.1435301E-05  0.1699979E+04  0.7818609E-02  0.8761376E-01
       -2   -1    0    0    0  501  0.00000000000E+00  0.00000000000E+00  0.76092152518E+03  0.76092152518E+03  0.25500000920E-02 0.  1.
        2   -1    0    0  501    0  0.00000000000E+00  0.00000000000E+00 -0.94948336068E+03  0.94948336068E+03  0.25500000920E-02 0. -1.
    10030    2    1    2    0    0  0.00000000000E+00  0.00000000000E+00 -0.18856183550E+03  0.17104048859E+04  0.16999792080E+04 0.  0.
        2    1    3    3  502    0 -0.82446861271E+03 -0.20262207130E+03 -0.53064703777E+02  0.85065860362E+03  0.25500000920E-02 0. -1.
       -2    1    3    3    0  502  0.82446861271E+03  0.20262207130E+03 -0.13549713172E+03  0.85974628224E+03  0.25500000920E-02 0.  1.
</event>
<event>
 5   0  0.7583716E-06  0.1699565E+04  0.7818609E-02  0.8761613E-01
        1   -1    0    0  501    0  0.00000000000E+00  0.00000000000E+00  0.11471554150E+04  0.11471554150E+04  0.50400001928E-02 0. -1.
       -1   -1    0    0    0  501  0.00000000000E+00  0.00000000000E+00 -0.62949638249E+03  0.62949638251E+03  0.50400001928E-02 0.  1.
    10030    2    1    2    0    0  0.00000000000E+00  0.00000000000E+00  0.51765903254E+03  0.17766517976E+04  0.16995648666E+04 0.  0.
        5    1    3    3  502    0  0.66376857182E+03 -0.35253060406E+03  0.67335213513E+03  0.10091044206E+04  0.46999998093E+01 0. -1.
       -5    1    3    3    0  502 -0.66376857182E+03  0.35253060406E+03 -0.15569310259E+03  0.76754737699E+03  0.46999998093E+01 0.  1.
</event>
<event>
 5   0  0.7476457E-06  0.1699910E+04  0.7818609E-02  0.8761416E-01
       -1   -1    0    0    0  501  0.00000000000E+00  0.00000000000E+00  0.54604263108E+03  0.54604263110E+03  0.50400001928E-02 0.  1.
        1   -1    0    0  501    0  0.00000000000E+00  0.00000000000E+00 -0.13230160756E+04  0.13230160756E+04  0.50400001928E-02 0. -1.
    10030    2    1    2    0    0  0.00000000000E+00  0.00000000000E+00 -0.77697344453E+03  0.18690587067E+04  0.16999096199E+04 0.  0.
        2    1    3    3  502    0  0.16158930999E+03  0.31437242589E+01 -0.13059654251E+04  0.13159280679E+04  0.25500000920E-02 0. -1.
       -2    1    3    3    0  502 -0.16158930999E+03 -0.31437242589E+01  0.52899198061E+03  0.55313063887E+03  0.25500000920E-02 0.  1.
</event>
<event>
 5   0  0.7461128E-06  0.1699257E+04  0.7818609E-02  0.8761788E-01
       -1   -1    0    0    0  501  0.00000000000E+00  0.00000000000E+00  0.34956019795E+03  0.34956019798E+03  0.50400001928E-02 0. -1.
        1   -1    0    0  501    0  0.00000000000E+00  0.00000000000E+00 -0.20650763294E+04  0.20650763294E+04  0.50400001928E-02 0.  1.
    10030    2    1    2    0    0  0.00000000000E+00  0.00000000000E+00 -0.17155161315E+04  0.24146365274E+04  0.16992568853E+04 0.  0.
        3    1    3    3  502    0  0.72906786119E+02 -0.55390183119E+03  0.51840999826E+02  0.56107943959E+03  0.10100000352E+00 0. -1.
       -3    1    3    3    0  502 -0.72906786119E+02  0.55390183119E+03 -0.17673571313E+04  0.18535570878E+04  0.10100000352E+00 0.  1.
</event>
<event>
 5   0  0.1374441E-05  0.1699382E+04  0.7818609E-02  0.8761717E-01
        2   -1    0    0  501    0  0.00000000000E+00  0.00000000000E+00  0.25462269473E+04  0.25462269473E+04  0.25500000920E-02 0. -1.
       -2   -1    0    0    0  501  0.00000000000E+00  0.00000000000E+00 -0.28354680459E+03  0.28354680460E+03  0.25500000920E-02 0.  1.
    10030    2    1    2    0    0  0.00000000000E+00  0.00000000000E+00  0.22626801427E+04  0.28297737519E+04  0.16993816695E+04 0.  0.
        1    1    3    3  502    0  0.69843391432E+03 -0.22678254199E+03  0.18431610359E+04  0.19840571711E+04  0.50400001928E-02 0. -1.
       -1    1    3    3    0  502 -0.69843391432E+03  0.22678254199E+03  0.41951910685E+03  0.84571658081E+03  0.50400001928E-02 0.  1.
</event>
<event>
 5   0  0.1435301E-05  0.1700016E+04  0.7818609E-02  0.8761355E-01
       -2   -1    0    0    0  501  0.00000000000E+00  0.00000000000E+00  0.82293694336E+03  0.82293694336E+03  0.25500000920E-02 0.  1.
        2   -1    0    0  501    0  0.00000000000E+00  0.00000000000E+00 -0.87796968248E+03  0.87796968249E+03  0.25500000920E-02 0. -1.
    10030    2    1    2    0    0  0.00000000000E+00  0.00000000000E+00 -0.55032739127E+02  0.17009066258E+04  0.17000161021E+04 0.  0.
        2    1    3    3  502    0  0.26060068444E+03 -0.56672993337E+03  0.55020982405E+03  0.83176101411E+03  0.25500000920E-02 0.  1.
       -2    1    3    3    0  502 -0.26060068444E+03  0.56672993337E+03 -0.60524256318E+03  0.86914561174E+03  0.25500000920E-02 0. -1.
</event>
<event>
 5   0  0.7461128E-06  0.1700261E+04  0.7818609E-02  0.8761215E-01
        1   -1    0    0  501    0  0.00000000000E+00  0.00000000000E+00  0.25077961755E+04  0.25077961755E+04  0.50400001928E-02 0. -1.
       -1   -1    0    0    0  501  0.00000000000E+00  0.00000000000E+00 -0.28819018091E+03  0.28819018095E+03  0.50400001928E-02 0.  1.
    10030    2    1    2    0    0  0.00000000000E+00  0.00000000000E+00  0.22196059946E+04  0.27959863565E+04  0.17002614312E+04 0.  0.
        3    1    3    3  502    0 -0.42761555274E+03  0.73372559348E+03  0.10458191691E+04  0.13471993364E+04  0.10100000352E+00 0.  1.
       -3    1    3    3    0  502  0.42761555274E+03 -0.73372559348E+03  0.11737868255E+04  0.14487870200E+04  0.10100000352E+00 0. -1.
</event>
<event>
 5   0  0.1374441E-05  0.1702312E+04  0.7818609E-02  0.8760047E-01
        2   -1    0    0  501    0  0.00000000000E+00  0.00000000000E+00  0.13192666911E+04  0.13192666911E+04  0.25500000920E-02 0.  1.
       -2   -1    0    0    0  501  0.00000000000E+00  0.00000000000E+00 -0.54914347973E+03  0.54914347974E+03  0.25500000920E-02 0. -1.
    10030    2    1    2    0    0  0.00000000000E+00  0.00000000000E+00  0.77012321139E+03  0.18684101709E+04  0.17023121940E+04 0.  0.
        1    1    3    3  502    0  0.40157675207E+03 -0.48370005978E+03 -0.24471623269E+03  0.67462261317E+03  0.50400001928E-02 0. -1.
       -1    1    3    3    0  502 -0.40157675207E+03  0.48370005978E+03  0.10148394441E+04  0.11937875577E+04  0.50400001928E-02 0.  1.
</event>
<event>
 5   0  0.7082527E-06  0.1699314E+04  0.7818609E-02  0.8761756E-01
        1   -1    0    0  501    0  0.00000000000E+00  0.00000000000E+00  0.25717782045E+03  0.25717782050E+03  0.50400001928E-02 0. -1.
       -1   -1    0    0    0  501  0.00000000000E+00  0.00000000000E+00 -0.28070731839E+04  0.28070731839E+04  0.50400001928E-02 0.  1.
    10030    2    1    2    0    0  0.00000000000E+00  0.00000000000E+00 -0.25498953634E+04  0.30642510044E+04  0.16993139361E+04 0.  0.
        1    1    3    3  502    0  0.32130224516E+03  0.51763941460E+03 -0.23428658130E+04  0.24207862182E+04  0.50400001928E-02 0.  1.
       -1    1    3    3    0  502 -0.32130224516E+03 -0.51763941460E+03 -0.20702955040E+03  0.64346478618E+03  0.50400001928E-02 0. -1.
</event>
<event>
 5   0  0.7461128E-06  0.1700349E+04  0.7818609E-02  0.8761165E-01
       -1   -1    0    0    0  501  0.00000000000E+00  0.00000000000E+00  0.98056381992E+03  0.98056381994E+03  0.50400001928E-02 0.  1.
        1   -1    0    0  501    0  0.00000000000E+00  0.00000000000E+00 -0.73712365070E+03  0.73712365072E+03  0.50400001928E-02 0. -1.
    10030    2    1    2    0    0  0.00000000000E+00  0.00000000000E+00  0.24344016922E+03  0.17176874707E+04  0.17003491203E+04 0.  0.
        3    1    3    3  502    0  0.39103941966E+03 -0.73928922930E+03 -0.32600120871E+02  0.83697262223E+03  0.10100000352E+00 0. -1.
       -3    1    3    3    0  502 -0.39103941966E+03  0.73928922930E+03  0.27604029009E+03  0.88071484843E+03  0.10100000352E+00 0.  1.
</event>
<event>
 5   0  0.1419012E-05  0.1700167E+04  0.7818609E-02  0.8761269E-01
       -2   -1    0    0    0  501  0.00000000000E+00  0.00000000000E+00  0.78125364789E+03  0.78125364790E+03  0.25500000920E-02 0. -1.
        2   -1    0    0  501    0  0.00000000000E+00  0.00000000000E+00 -0.92497769092E+03  0.92497769092E+03  0.25500000920E-02 0.  1.
    10030    2    1    2    0    0  0.00000000000E+00  0.00000000000E+00 -0.14372404303E+03  0.17062313388E+04  0.17001672803E+04 0.  0.
        4    1    3    3  502    0  0.38021341221E+03  0.66292599907E+03  0.30176611020E+03  0.82164318121E+03  0.12699999809E+01 0. -1.
       -4    1    3    3    0  502 -0.38021341221E+03 -0.66292599907E+03 -0.44549015322E+03  0.88458815761E+03  0.12699999809E+01 0.  1.
</event>
<event>
 5   0  0.1441756E-05  0.1702239E+04  0.7818609E-02  0.8760089E-01
       -2   -1    0    0    0  501  0.00000000000E+00  0.00000000000E+00  0.10013301510E+04  0.10013301510E+04  0.25500000920E-02 0.  1.
        2   -1    0    0  501    0  0.00000000000E+00  0.00000000000E+00 -0.72344195181E+03  0.72344195181E+03  0.25500000920E-02 0. -1.
    10030    2    1    2    0    0  0.00000000000E+00  0.00000000000E+00  0.27788819915E+03  0.17247721028E+04  0.17022388068E+04 0.  0.
        5    1    3    3  502    0 -0.55395693997E+02 -0.16093008470E+03  0.98389845873E+03  0.99852162829E+03  0.46999998093E+01 0.  1.
       -5    1    3    3    0  502  0.55395693997E+02  0.16093008470E+03 -0.70601025957E+03  0.72625047449E+03  0.46999998093E+01 0. -1.
</event>
<event>
 5   0  0.1374441E-05  0.1700804E+04  0.7818609E-02  0.8760906E-01
       -2   -1    0    0    0  501  0.00000000000E+00  0.00000000000E+00  0.81718044161E+03  0.81718044161E+03  0.25500000920E-02 0. -1.
        2   -1    0    0  501    0  0.00000000000E+00  0.00000000000E+00 -0.88497401825E+03  0.88497401826E+03  0.25500000920E-02 0.  1.
    10030    2    1    2    0    0  0.00000000000E+00  0.00000000000E+00 -0.67793576646E+02  0.17021544599E+04  0.17008038794E+04 0.  0.
        1    1    3    3  502    0 -0.20163673842E+02 -0.67886030154E+03  0.47829626420E+03  0.83067755424E+03  0.50400001928E-02 0. -1.
       -1    1    3    3    0  502  0.20163673842E+02  0.67886030154E+03 -0.54608984084E+03  0.87147690563E+03  0.50400001928E-02 0.  1.
</event>
<event>
 5   0  0.1441756E-05  0.1700731E+04  0.7818609E-02  0.8760948E-01
       -2   -1    0    0    0  501  0.00000000000E+00  0.00000000000E+00  0.31758420003E+03  0.31758420004E+03  0.25500000920E-02 0.  1.
        2   -1    0    0  501    0  0.00000000000E+00  0.00000000000E+00 -0.22769442106E+04  0.22769442106E+04  0.25500000920E-02 0. -1.
    10030    2    1    2    0    0  0.00000000000E+00  0.00000000000E+00 -0.19593600106E+04  0.25945284106E+04  0.17007310259E+04 0.  0.
        5    1    3    3  502    0  0.58988602860E+03  0.10462907552E+03 -0.59050680428E+02  0.60201481962E+03  0.46999998093E+01 0.  1.
       -5    1    3    3    0  502 -0.58988602860E+03 -0.10462907552E+03 -0.19003093301E+04  0.19925135910E+04  0.46999998093E+01 0. -1.
</event>
<event>
 5   0  0.1419012E-05  0.1712593E+04  0.7818609E-02  0.8754215E-01
       -2   -1    0    0    0  501  0.00000000000E+00  0.00000000000E+00  0.83017189189E+03  0.83017189189E+03  0.25500000920E-02 0.  1.
        2   -1    0    0  501    0  0.00000000000E+00  0.00000000000E+00 -0.88324281508E+03  0.88324281509E+03  0.25500000920E-02 0. -1.
    10030    2    1    2    0    0  0.00000000000E+00  0.00000000000E+00 -0.53070923198E+02  0.17134147070E+04  0.17125926063E+04 0.  0.
        4    1    3    3  502    0  0.44195905834E+02 -0.86447952402E+02 -0.87771716738E+03  0.88307166491E+03  0.12699999809E+01 0. -1.
       -4    1    3    3    0  502 -0.44195905834E+02  0.86447952402E+02  0.82464624418E+03  0.83034304206E+03  0.12699999809E+01 0.  1.
</event>
<event>
 5   0  0.7461128E-06  0.1699949E+04  0.7818609E-02  0.8761394E-01
        1   -1    0    0  501    0  0.00000000000E+00  0.00000000000E+00  0.11431186415E+04  0.11431186415E+04  0.50400001928E-02 0. -1.
       -1   -1    0    0    0  501  0.00000000000E+00  0.00000000000E+00 -0.63200485054E+03  0.63200485056E+03  0.50400001928E-02 0.  1.
    10030    2    1    2    0    0  0.00000000000E+00  0.00000000000E+00  0.51111379092E+03  0.17751234920E+04  0.16999488535E+04 0.  0.
        3    1    3    3  502    0  0.71769708324E+02 -0.62693832631E+03 -0.33905742019E+03  0.71635361409E+03  0.10100000352E+00 0.  1.
       -3    1    3    3    0  502 -0.71769708324E+02  0.62693832631E+03  0.85017121111E+03  0.10587698779E+04  0.10100000352E+00 0. -1.
</event>
<event>
 5   0  0.7461128E-06  0.1700212E+04  0.7818609E-02  0.8761244E-01
       -1   -1    0    0    0  501  0.00000000000E+00  0.00000000000E+00  0.10953704947E+04  0.10953704947E+04  0.50400001928E-02 0.  1.
        1   -1    0    0  501    0  0.00000000000E+00  0.00000000000E+00 -0.65975833359E+03  0.65975833361E+03  0.50400001928E-02 0. -1.
    10030    2    1    2    0    0  0.00000000000E+00  0.00000000000E+00  0.43561216114E+03  0.17551288283E+04  0.17002115307E+04 0.  0.
        3    1    3    3  502    0 -0.22094159953E+03  0.30251756056E+03 -0.56995993012E+03  0.68204574406E+03  0.10100000352E+00 0. -1.
       -3    1    3    3    0  502  0.22094159953E+03 -0.30251756056E+03  0.10055720913E+04  0.10730830843E+04  0.10100000352E+00 0.  1.
</event>
<event>
 5   0  0.1423543E-05  0.1700170E+04  0.7818609E-02  0.8761268E-01
       -2   -1    0    0    0  501  0.00000000000E+00  0.00000000000E+00  0.45173521330E+03  0.45173521331E+03  0.25500000920E-02 0.  1.
        2   -1    0    0  501    0  0.00000000000E+00  0.00000000000E+00 -0.15997077680E+04  0.15997077680E+04  0.25500000920E-02 0. -1.
    10030    2    1    2    0    0  0.00000000000E+00  0.00000000000E+00 -0.11479725547E+04  0.20514429813E+04  0.17001697913E+04 0.  0.
        3    1    3    3  502    0  0.66888626083E+03 -0.12103163188E+03  0.41960786997E+02  0.68104199848E+03  0.10100000352E+00 0. -1.
       -3    1    3    3    0  502 -0.66888626083E+03  0.12103163188E+03 -0.11899333417E+04  0.13704009828E+04  0.10100000352E+00 0.  1.
</event>
<event>
 5   0  0.1419012E-05  0.1701693E+04  0.7818609E-02  0.8760399E-01
       -2   -1    0    0    0  501  0.00000000000E+00  0.00000000000E+00  0.11879016408E+04  0.11879016408E+04  0.25500000920E-02 0.  1.
        2   -1    0    0  501    0  0.00000000000E+00  0.00000000000E+00 -0.60942736441E+03  0.60942736442E+03  0.25500000920E-02 0. -1.
    10030    2    1    2    0    0  0.00000000000E+00  0.00000000000E+00  0.57847427635E+03  0.17973290052E+04  0.17016929995E+04 0.  0.
        4    1    3    3  502    0 -0.45516710898E+03 -0.32123013556E+03  0.96847528635E+03  0.11172787881E+04  0.12699999809E+01 0.  1.
       -4    1    3    3    0  502  0.45516710898E+03  0.32123013556E+03 -0.39000101000E+03  0.68005021711E+03  0.12699999809E+01 0. -1.
</event>
<event>
 5   0  0.7476457E-06  0.1699827E+04  0.7818609E-02  0.8761463E-01
        1   -1    0    0  501    0  0.00000000000E+00  0.00000000000E+00  0.17090593191E+04  0.17090593191E+04  0.50400001928E-02 0. -1.
       -1   -1    0    0    0  501  0.00000000000E+00  0.00000000000E+00 -0.42266110161E+03  0.42266110164E+03  0.50400001928E-02 0.  1.
    10030    2    1    2    0    0  0.00000000000E+00  0.00000000000E+00  0.12863982175E+04  0.21317204207E+04  0.16998269260E+04 0.  0.
        2    1    3    3  502    0 -0.17320319782E+03  0.35340176594E+03  0.15878980980E+04  0.16359439249E+04  0.25500000920E-02 0. -1.
       -2    1    3    3    0  502  0.17320319782E+03 -0.35340176594E+03 -0.30149988048E+03  0.49577649585E+03  0.25500000920E-02 0.  1.
</event>
<event>
 5   0  0.7082527E-06  0.1699542E+04  0.7818609E-02  0.8761626E-01
       -1   -1    0    0    0  501  0.00000000000E+00  0.00000000000E+00  0.43742908053E+03  0.43742908056E+03  0.50400001928E-02 0. -1.
        1   -1    0    0  501    0  0.00000000000E+00  0.00000000000E+00 -0.16508060804E+04  0.16508060804E+04  0.50400001928E-02 0.  1.
    10030    2    1    2    0    0  0.00000000000E+00  0.00000000000E+00 -0.12133769999E+04  0.20882351610E+04  0.16995418041E+04 0.  0.
        1    1    3    3  502    0 -0.17260259412E+03  0.19811730629E+03 -0.15996374218E+04  0.16210743363E+04  0.50400001928E-02 0.  1.
       -1    1    3    3    0  502  0.17260259412E+03 -0.19811730629E+03  0.38626042192E+03  0.46716082468E+03  0.50400001928E-02 0. -1.
</event>
<event>
 5   0  0.7476457E-06  0.1699665E+04  0.7818609E-02  0.8761555E-01
        1   -1    0    0  501    0  0.00000000000E+00  0.00000000000E+00  0.13004056369E+04  0.13004056369E+04  0.50400001928E-02 0.  1.
       -1   -1    0    0    0  501  0.00000000000E+00  0.00000000000E+00 -0.55537704218E+03  0.55537704220E+03  0.50400001928E-02 0. -1.
    10030    2    1    2    0    0  0.00000000000E+00  0.00000000000E+00  0.74502859474E+03  0.18557826791E+04  0.16996651862E+04 0.  0.
        2    1    3    3  502    0 -0.68735336206E+03  0.44492719230E+03  0.62101697484E+03  0.10276560387E+04  0.25500000920E-02 0.  1.
       -2    1    3    3    0  502  0.68735336206E+03 -0.44492719230E+03  0.12401161990E+03  0.82812664047E+03  0.25500000920E-02 0. -1.
</event>
<event>
 5   0  0.1419012E-05  0.1699131E+04  0.7818609E-02  0.8761860E-01
       -2   -1    0    0    0  501  0.00000000000E+00  0.00000000000E+00  0.44656986119E+03  0.44656986119E+03  0.25500000920E-02 0. -1.
        2   -1    0    0  501    0  0.00000000000E+00  0.00000000000E+00 -0.16162336098E+04  0.16162336098E+04  0.25500000920E-02 0.  1.
    10030    2    1    2    0    0  0.00000000000E+00  0.00000000000E+00 -0.11696637486E+04  0.20628034710E+04  0.16991306233E+04 0.  0.
        4    1    3    3  502    0 -0.55030644252E+03 -0.15158606749E+03 -0.13487521171E+04  0.14645645779E+04  0.12699999809E+01 0.  1.
       -4    1    3    3    0  502  0.55030644252E+03  0.15158606749E+03  0.17908836852E+03  0.59823889307E+03  0.12699999809E+01 0. -1.
</event>
<event>
 5   0  0.1419012E-05  0.1699962E+04  0.7818609E-02  0.8761386E-01
       -2   -1    0    0    0  501  0.00000000000E+00  0.00000000000E+00  0.33225583709E+03  0.33225583710E+03  0.25500000920E-02 0. -1.
        2   -1    0    0  501    0  0.00000000000E+00  0.00000000000E+00 -0.21744325797E+04  0.21744325797E+04  0.25500000920E-02 0.  1.
    10030    2    1    2    0    0  0.00000000000E+00  0.00000000000E+00 -0.18421767426E+04  0.25066884168E+04  0.16999622548E+04 0.  0.
        4    1    3    3  502    0 -0.61172249437E+01  0.94740379459E+02 -0.21665885772E+04  0.21686679865E+04  0.12699999809E+01 0.  1.
       -4    1    3    3    0  502  0.61172249437E+01 -0.94740379459E+02  0.32441183461E+03  0.33802043027E+03  0.12699999809E+01 0. -1.
</event>
<event>
 5   0  0.1441756E-05  0.1701522E+04  0.7818609E-02  0.8760497E-01
        2   -1    0    0  501    0  0.00000000000E+00  0.00000000000E+00  0.49510055906E+03  0.49510055907E+03  0.25500000920E-02 0.  1.
       -2   -1    0    0    0  501  0.00000000000E+00  0.00000000000E+00 -0.14619136011E+04  0.14619136011E+04  0.25500000920E-02 0. -1.
    10030    2    1    2    0    0  0.00000000000E+00  0.00000000000E+00 -0.96681304207E+03  0.19570141602E+04  0.17015219555E+04 0.  0.
        5    1    3    3  502    0 -0.32327412724E+03  0.69093249301E+02 -0.13850078998E+04  0.14239202965E+04  0.46999998093E+01 0. -1.
       -5    1    3    3    0  502  0.32327412724E+03 -0.69093249301E+02  0.41819485772E+03  0.53309386365E+03  0.46999998093E+01 0.  1.
</event>
<event>
 5   0  0.7461128E-06  0.1700335E+04  0.7818609E-02  0.8761173E-01
        1   -1    0    0  501    0  0.00000000000E+00  0.00000000000E+00  0.24755220005E+03  0.24755220011E+03  0.50400001928E-02 0. -1.
       -1   -1    0    0    0  501  0.00000000000E+00  0.00000000000E+00 -0.29197275305E+04  0.29197275305E+04  0.50400001928E-02 0.  1.
    10030    2    1    2    0    0  0.00000000000E+00  0.00000000000E+00 -0.26721753304E+04  0.31672797306E+04  0.17003352303E+04 0.  0.
        3    1    3    3  502    0 -0.53885387443E+03  0.37538463183E+03 -0.33036788750E+03  0.73513268945E+03  0.10100000352E+00 0. -1.
       -3    1    3    3    0  502  0.53885387443E+03 -0.37538463183E+03 -0.23418074429E+04  0.24321470411E+04  0.10100000352E+00 0.  1.
</event>
<event>
 5   0  0.7476457E-06  0.1713106E+04  0.7818609E-02  0.8753924E-01
        1   -1    0    0  501    0  0.00000000000E+00  0.00000000000E+00  0.17590826337E+04  0.17590826337E+04  0.50400001928E-02 0.  1.
       -1   -1    0    0    0  501  0.00000000000E+00  0.00000000000E+00 -0.41708299446E+03  0.41708299449E+03  0.50400001928E-02 0. -1.
    10030    2    1    2    0    0  0.00000000000E+00  0.00000000000E+00  0.13419996393E+04  0.21761656282E+04  0.17131064794E+04 0.  0.
        2    1    3    3  502    0 -0.23860071623E+03 -0.36570225187E+03  0.16070809861E+04  0.16653461305E+04  0.25500000920E-02 0.  1.
       -2    1    3    3    0  502  0.23860071623E+03  0.36570225187E+03 -0.26508134677E+03  0.51081949769E+03  0.25500000920E-02 0. -1.
</event>
<event>
 5   0  0.1374441E-05  0.1700090E+04  0.7818609E-02  0.8761313E-01
       -2   -1    0    0    0  501  0.00000000000E+00  0.00000000000E+00  0.35418472834E+03  0.35418472835E+03  0.25500000920E-02 0.  1.
        2   -1    0    0  501    0  0.00000000000E+00  0.00000000000E+00 -0.20401114855E+04  0.20401114855E+04  0.25500000920E-02 0. -1.
    10030    2    1    2    0    0  0.00000000000E+00  0.00000000000E+00 -0.16859267572E+04  0.23942962139E+04  0.17000898003E+04 0.  0.
        1    1    3    3  502    0 -0.22223888244E+03 -0.67184345206E+03 -0.15062467518E+04  0.16641944064E+04  0.50400001928E-02 0. -1.
       -1    1    3    3    0  502  0.22223888244E+03  0.67184345206E+03 -0.17968000540E+03  0.73010180750E+03  0.50400001928E-02 0.  1.
</event>
<event>
 5   0  0.7455669E-06  0.1699634E+04  0.7818609E-02  0.8761573E-01
        1   -1    0    0  501    0  0.00000000000E+00  0.00000000000E+00  0.86683047130E+03  0.86683047131E+03  0.50400001928E-02 0.  1.
       -1   -1    0    0    0  501  0.00000000000E+00  0.00000000000E+00 -0.83313745401E+03  0.83313745403E+03  0.50400001928E-02 0. -1.
    10030    2    1    2    0    0  0.00000000000E+00  0.00000000000E+00  0.33693017283E+02  0.16999679253E+04  0.16996339982E+04 0.  0.
        4    1    3    3  502    0 -0.45482172365E+03 -0.23303715545E+03  0.69596312104E+03  0.86344391531E+03  0.12699999809E+01 0.  1.
       -4    1    3    3    0  502  0.45482172365E+03  0.23303715545E+03 -0.66227010376E+03  0.83652401003E+03  0.12699999809E+01 0. -1.
</event>
<event>
 5   0  0.1419012E-05  0.1699859E+04  0.7818609E-02  0.8761445E-01
       -2   -1    0    0    0  501  0.00000000000E+00  0.00000000000E+00  0.70264518376E+03  0.70264518376E+03  0.25500000920E-02 0.  1.
        2   -1    0    0  501    0  0.00000000000E+00  0.00000000000E+00 -0.10280869752E+04  0.10280869752E+04  0.25500000920E-02 0. -1.
    10030    2    1    2    0    0  0.00000000000E+00  0.00000000000E+00 -0.32544179140E+03  0.17307321589E+04  0.16998592431E+04 0.  0.
        4    1    3    3  502    0  0.61585320966E+03 -0.48840142606E+03 -0.49196310992E+03  0.92727581833E+03  0.12699999809E+01 0. -1.
       -4    1    3    3    0  502 -0.61585320966E+03  0.48840142606E+03  0.16652131852E+03  0.80345634060E+03  0.12699999809E+01 0.  1.
</event>
<event>
 5   0  0.5229750E-06  0.1700458E+04  0.7818609E-02  0.8761103E-01
       -3   -1    0    0    0  501  0.00000000000E+00  0.00000000000E+00  0.28677110511E+03  0.28677112290E+03  0.10100000352E+00 0. -1.
        3   -1    0    0  501    0  0.00000000000E+00  0.00000000000E+00 -0.25207889162E+04  0.25207889182E+04  0.10100000352E+00 0.  1.
    10030    2    1    2    0    0  0.00000000000E+00  0.00000000000E+00 -0.22340178111E+04  0.28075600411E+04  0.17004581160E+04 0.  0.
        5    1    3    3  502    0 -0.76574792092E+03  0.14362438282E+02 -0.17265416286E+04  0.18887943888E+04  0.46999998093E+01 0.  1.
       -5    1    3    3    0  502  0.76574792092E+03 -0.14362438282E+02 -0.50747618248E+03  0.91876565228E+03  0.46999998093E+01 0. -1.
</event>
<event>
 5   0  0.1435301E-05  0.1698737E+04  0.7818609E-02  0.8762085E-01
        2   -1    0    0  501    0  0.00000000000E+00  0.00000000000E+00  0.94519094831E+03  0.94519094831E+03  0.25500000920E-02 0. -1.
       -2   -1    0    0    0  501  0.00000000000E+00  0.00000000000E+00 -0.76326029293E+03  0.76326029293E+03  0.25500000920E-02 0.  1.
    10030    2    1    2    0    0  0.00000000000E+00  0.00000000000E+00  0.18193065538E+03  0.17084512412E+04  0.16987368485E+04 0.  0.
        2    1    3    3  502    0 -0.12581338791E+03  0.65439451173E+03  0.62063209924E+03  0.91062911670E+03  0.25500000920E-02 0. -1.
       -2    1    3    3    0  502  0.12581338791E+03 -0.65439451173E+03 -0.43870144386E+03  0.79782212454E+03  0.25500000920E-02 0.  1.
</event>
<event>
 5   0  0.7455669E-06  0.1699988E+04  0.7818609E-02  0.8761371E-01
        1   -1    0    0  501    0  0.00000000000E+00  0.00000000000E+00  0.19591897440E+04  0.19591897440E+04  0.50400001928E-02 0.  1.
       -1   -1    0    0    0  501  0.00000000000E+00  0.00000000000E+00 -0.36876977026E+03  0.36876977029E+03  0.50400001928E-02 0. -1.
    10030    2    1    2    0    0  0.00000000000E+00  0.00000000000E+00  0.15904199738E+04  0.23279595143E+04  0.16999881786E+04 0.  0.
        4    1    3    3  502    0 -0.24778447593E+02 -0.74379246747E+03  0.13575759182E+04  0.15481780236E+04  0.12699999809E+01 0.  1.
       -4    1    3    3    0  502  0.24778447593E+02  0.74379246747E+03  0.23284405552E+03  0.77978149069E+03  0.12699999809E+01 0. -1.
</event>
<event>
 5   0  0.1419012E-05  0.1702177E+04  0.7818609E-02  0.8760123E-01
       -2   -1    0    0    0  501  0.00000000000E+00  0.00000000000E+00  0.79581892670E+03  0.79581892670E+03  0.25500000920E-02 0.  1.
        2   -1    0    0  501    0  0.00000000000E+00  0.00000000000E+00 -0.91019697585E+03  0.91019697585E+03  0.25500000920E-02 0. -1.
    10030    2    1    2    0    0  0.00000000000E+00  0.00000000000E+00 -0.11437804915E+03  0.17060159026E+04  0.17021774060E+04 0.  0.
        4    1    3    3  502    0 -0.33240407819E+02  0.47376497518E+03  0.65065582497E+03  0.80555123480E+03  0.12699999809E+01 0.  1.
       -4    1    3    3    0  502  0.33240407819E+02 -0.47376497518E+03 -0.76503387412E+03  0.90046466775E+03  0.12699999809E+01 0. -1.
</event>
<event>
 5   0  0.7461128E-06  0.1700365E+04  0.7818609E-02  0.8761156E-01
        1   -1    0    0  501    0  0.00000000000E+00  0.00000000000E+00  0.58388428062E+03  0.58388428064E+03  0.50400001928E-02 0. -1.
       -1   -1    0    0    0  501  0.00000000000E+00  0.00000000000E+00 -0.12379334987E+04  0.12379334987E+04  0.50400001928E-02 0.  1.
    10030    2    1    2    0    0  0.00000000000E+00  0.00000000000E+00 -0.65404921806E+03  0.18218177793E+04  0.17003645613E+04 0.  0.
        3    1    3    3  502    0 -0.20381270505E+03 -0.51167438825E+03  0.36689308454E+03  0.66178610141E+03  0.10100000352E+00 0. -1.
       -3    1    3    3    0  502  0.20381270505E+03  0.51167438825E+03 -0.10209423026E+04  0.11600316779E+04  0.10100000352E+00 0.  1.
</event>
<event>
 5   0  0.1441756E-05  0.1702105E+04  0.7818609E-02  0.8760165E-01
       -2   -1    0    0    0  501  0.00000000000E+00  0.00000000000E+00  0.36964418835E+03  0.36964418836E+03  0.25500000920E-02 0. -1.
        2   -1    0    0  501    0  0.00000000000E+00  0.00000000000E+00 -0.19594253135E+04  0.19594253135E+04  0.25500000920E-02 0.  1.
    10030    2    1    2    0    0  0.00000000000E+00  0.00000000000E+00 -0.15897811252E+04  0.23290695019E+04  0.17021047907E+04 0.  0.
        5    1    3    3  502    0  0.16555881361E+03 -0.58364160746E+03 -0.16115778924E+04  0.17219908943E+04  0.46999998093E+01 0.  1.
       -5    1    3    3    0  502 -0.16555881361E+03  0.58364160746E+03  0.21796767242E+02  0.60707860759E+03  0.46999998093E+01 0. -1.
</event>
<event>
 5   0  0.1441756E-05  0.1696122E+04  0.7818609E-02  0.8763579E-01
       -2   -1    0    0    0  501  0.00000000000E+00  0.00000000000E+00  0.51805084375E+03  0.51805084376E+03  0.25500000920E-02 0.  1.
        2   -1    0    0  501    0  0.00000000000E+00  0.00000000000E+00 -0.13882952633E+04  0.13882952634E+04  0.25500000920E-02 0. -1.
    10030    2    1    2    0    0  0.00000000000E+00  0.00000000000E+00 -0.87024441960E+03  0.19063461071E+04  0.16961220859E+04 0.  0.
        5    1    3    3  502    0  0.34560011365E+03  0.32696431991E+03  0.35391551122E+03  0.59297840107E+03  0.46999998093E+01 0.  1.
       -5    1    3    3    0  502 -0.34560011365E+03 -0.32696431991E+03 -0.12241599308E+04  0.13133677060E+04  0.46999998093E+01 0. -1.
</event>
<event>
 5   0  0.1374441E-05  0.1699934E+04  0.7818609E-02  0.8761402E-01
        2   -1    0    0  501    0  0.00000000000E+00  0.00000000000E+00  0.11700262661E+04  0.11700262661E+04  0.25500000920E-02 0.  1.
       -2   -1    0    0    0  501  0.00000000000E+00  0.00000000000E+00 -0.61745928863E+03  0.61745928864E+03  0.25500000920E-02 0. -1.
    10030    2    1    2    0    0  0.00000000000E+00  0.00000000000E+00  0.55256697749E+03  0.17874855548E+04  0.16999336293E+04 0.  0.
        1    1    3    3  502    0 -0.22755490120E+03  0.67545828098E+03 -0.21061863087E+03  0.74322629805E+03  0.50400001928E-02 0. -1.
       -1    1    3    3    0  502  0.22755490120E+03 -0.67545828098E+03  0.76318560836E+03  0.10442592567E+04  0.50400001928E-02 0.  1.
</event>
<event>
 5   0  0.7476457E-06  0.1700107E+04  0.7818609E-02  0.8761304E-01
       -1   -1    0    0    0  501  0.00000000000E+00  0.00000000000E+00  0.10910474940E+04  0.10910474940E+04  0.50400001928E-02 0.  1.
        1   -1    0    0  501    0  0.00000000000E+00  0.00000000000E+00 -0.66229065967E+03  0.66229065969E+03  0.50400001928E-02 0. -1.
    10030    2    1    2    0    0  0.00000000000E+00  0.00000000000E+00  0.42875683434E+03  0.17533381537E+04  0.17001065432E+04 0.  0.
        2    1    3    3  502    0 -0.54801821208E+03  0.52420978018E+03 -0.18166466381E+03  0.77982171327E+03  0.25500000920E-02 0. -1.
       -2    1    3    3    0  502  0.54801821208E+03 -0.52420978018E+03  0.61042149816E+03  0.97351644045E+03  0.25500000920E-02 0.  1.
</event>
<event>
 5   0  0.7461128E-06  0.1700578E+04  0.7818609E-02  0.8761035E-01
       -1   -1    0    0    0  501  0.00000000000E+00  0.00000000000E+00  0.13525327308E+04  0.13525327309E+04  0.50400001928E-02 0. -1.
        1   -1    0    0  501    0  0.00000000000E+00  0.00000000000E+00 -0.53454636164E+03  0.53454636166E+03  0.50400001928E-02 0.  1.
    10030    2    1    2    0    0  0.00000000000E+00  0.00000000000E+00  0.81798636921E+03  0.18870790925E+04  0.17005780785E+04 0.  0.
        3    1    3    3  502    0 -0.92852923124E+02  0.83611157521E+03  0.27179207553E+03  0.88406740357E+03  0.10100000352E+00 0.  1.
       -3    1    3    3    0  502  0.92852923124E+02 -0.83611157521E+03  0.54619429368E+03  0.10030116890E+04  0.10100000352E+00 0. -1.
</event>
<event>
 5   0  0.7461128E-06  0.1700123E+04  0.7818609E-02  0.8761294E-01
        1   -1    0    0  501    0  0.00000000000E+00  0.00000000000E+00  0.62450219098E+03  0.62450219100E+03  0.50400001928E-02 0. -1.
       -1   -1    0    0    0  501  0.00000000000E+00  0.00000000000E+00 -0.11570893211E+04  0.11570893211E+04  0.50400001928E-02 0.  1.
    10030    2    1    2    0    0  0.00000000000E+00  0.00000000000E+00 -0.53258713008E+03  0.17815915121E+04  0.17001233087E+04 0.  0.
        3    1    3    3  502    0  0.38763471934E+03  0.43293370413E+03  0.38384921264E+03  0.69644274427E+03  0.10100000352E+00 0. -1.
       -3    1    3    3    0  502 -0.38763471934E+03 -0.43293370413E+03 -0.91643634271E+03  0.10851487678E+04  0.10100000352E+00 0.  1.
</event>
<event>
 5   0  0.1419012E-05  0.1701315E+04  0.7818609E-02  0.8760615E-01
        2   -1    0    0  501    0  0.00000000000E+00  0.00000000000E+00  0.92387521782E+03  0.92387521783E+03  0.25500000920E-02 0. -1.
       -2   -1    0    0    0  501  0.00000000000E+00  0.00000000000E+00 -0.78324238311E+03  0.78324238312E+03  0.25500000920E-02 0.  1.
    10030    2    1    2    0    0  0.00000000000E+00  0.00000000000E+00  0.14063283471E+03  0.17071176009E+04  0.17013150529E+04 0.  0.
        4    1    3    3  502    0 -0.52033443527E+03  0.61108977566E+03 -0.21249229247E+03  0.83026093832E+03  0.12699999809E+01 0.  1.
       -4    1    3    3    0  502  0.52033443527E+03 -0.61108977566E+03  0.35312512718E+03  0.87685666262E+03  0.12699999809E+01 0. -1.
</event>
<event>
 5   0  0.7583716E-06  0.1699548E+04  0.7818609E-02  0.8761622E-01
        1   -1    0    0  501    0  0.00000000000E+00  0.00000000000E+00  0.67016007706E+03  0.67016007708E+03  0.50400001928E-02 0.  1.
       -1   -1    0    0    0  501  0.00000000000E+00  0.00000000000E+00 -0.10775279017E+04  0.10775279018E+04  0.50400001928E-02 0. -1.
    10030    2    1    2    0    0  0.00000000000E+00  0.00000000000E+00 -0.40736782469E+03  0.17476879788E+04  0.16995483891E+04 0.  0.
        5    1    3    3  502    0  0.41331218411E+03 -0.67286886204E+03 -0.52644466411E+03  0.94907615153E+03  0.46999998093E+01 0.  1.
       -5    1    3    3    0  502 -0.41331218411E+03  0.67286886204E+03  0.11907683943E+03  0.79861182731E+03  0.46999998093E+01 0. -1.
</event>
<event>
 5   0  0.7455669E-06  0.1699520E+04  0.7818609E-02  0.8761638E-01
        1   -1    0    0  501    0  0.00000000000E+00  0.00000000000E+00  0.63845366022E+03  0.63845366024E+03  0.50400001928E-02 0. -1.
       -1   -1    0    0    0  501  0.00000000000E+00  0.00000000000E+00 -0.11310009024E+04  0.11310009024E+04  0.50400001928E-02 0.  1.
    10030    2    1    2    0    0  0.00000000000E+00  0.00000000000E+00 -0.49254724221E+03  0.17694545627E+04  0.16995195390E+04 0.  0.
        4    1    3    3  502    0 -0.84745494686E+03 -0.39296209987E+02 -0.29691648178E+03  0.89882428156E+03  0.12699999809E+01 0.  1.
       -4    1    3    3    0  502  0.84745494686E+03  0.39296209987E+02 -0.19563076043E+03  0.87063028112E+03  0.12699999809E+01 0. -1.
</event>
<event>
 5   0  0.7476457E-06  0.1699828E+04  0.7818609E-02  0.8761463E-01
       -1   -1    0    0    0  501  0.00000000000E+00  0.00000000000E+00  0.83510713380E+03  0.83510713381E+03  0.50400001928E-02 0.  1.
        1   -1    0    0  501    0  0.00000000000E+00  0.00000000000E+00 -0.86498307120E+03  0.86498307121E+03  0.50400001928E-02 0. -1.
    10030    2    1    2    0    0  0.00000000000E+00  0.00000000000E+00 -0.29875937398E+02  0.17000902050E+04  0.16998276776E+04 0.  0.
        2    1    3    3  502    0 -0.82053356496E+03  0.16541424312E+03 -0.16232534520E+03  0.85263516275E+03  0.25500000920E-02 0. -1.
       -2    1    3    3    0  502  0.82053356496E+03 -0.16541424312E+03  0.13244940780E+03  0.84745504228E+03  0.25500000920E-02 0.  1.
</event>
<event>
 5   0  0.1423543E-05  0.1698358E+04  0.7818609E-02  0.8762301E-01
       -2   -1    0    0    0  501  0.00000000000E+00  0.00000000000E+00  0.31439887623E+03  0.31439887624E+03  0.25500000920E-02 0.  1.
        2   -1    0    0  501    0  0.00000000000E+00  0.00000000000E+00 -0.22935993758E+04  0.22935993758E+04  0.25500000920E-02 0. -1.
    10030    2    1    2    0    0  0.00000000000E+00  0.00000000000E+00 -0.19792004996E+04  0.26079982521E+04  0.16983581086E+04 0.  0.
        3    1    3    3  502    0 -0.66954170411E+03 -0.46406775717E+03 -0.62150421644E+03  0.10246523694E+04  0.10100000352E+00 0.  1.
       -3    1    3    3    0  502  0.66954170411E+03  0.46406775717E+03 -0.13576962832E+04  0.15833458827E+04  0.10100000352E+00 0. -1.
</event>
<event>
 5   0  0.1419012E-05  0.1700332E+04  0.7818609E-02  0.8761175E-01
        2   -1    0    0  501    0  0.00000000000E+00  0.00000000000E+00  0.77667833869E+03  0.77667833869E+03  0.25500000920E-02 0. -1.
       -2   -1    0    0    0  501  0.00000000000E+00  0.00000000000E+00 -0.93060682081E+03  0.93060682081E+03  0.25500000920E-02 0.  1.
    10030    2    1    2    0    0  0.00000000000E+00  0.00000000000E+00 -0.15392848212E+03  0.17072851595E+04  0.17003319200E+04 0.  0.
        4    1    3    3  502    0  0.55084946286E+03  0.63835381991E+02  0.57008581158E+03  0.79530467884E+03  0.12699999809E+01 0. -1.
       -4    1    3    3    0  502 -0.55084946286E+03 -0.63835381991E+02 -0.72401429370E+03  0.91198048066E+03  0.12699999809E+01 0.  1.
</event>
<event>
 5   0  0.1374441E-05  0.1699877E+04  0.7818609E-02  0.8761434E-01
        2   -1    0    0  501    0  0.00000000000E+00  0.00000000000E+00  0.54850529264E+03  0.54850529265E+03  0.25500000920E-02 0. -1.
       -2   -1    0    0    0  501  0.00000000000E+00  0.00000000000E+00 -0.13170256329E+04  0.13170256329E+04  0.25500000920E-02 0.  1.
    10030    2    1    2    0    0  0.00000000000E+00  0.00000000000E+00 -0.76852034021E+03  0.18655309255E+04  0.16998770899E+04 0.  0.
        1    1    3    3  502    0  0.48469653301E+03 -0.50903777895E+03  0.14016195890E+03  0.71672558505E+03  0.50400001928E-02 0. -1.
       -1    1    3    3    0  502 -0.48469653301E+03  0.50903777895E+03 -0.90868229911E+03  0.11488053405E+04  0.50400001928E-02 0.  1.
</event>
<event>
 5   0  0.1423543E-05  0.1698929E+04  0.7818609E-02  0.8761976E-01
        2   -1    0    0  501    0  0.00000000000E+00  0.00000000000E+00  0.82747862715E+03  0.82747862716E+03  0.25500000920E-02 0. -1.
       -2   -1    0    0    0  501  0.00000000000E+00  0.00000000000E+00 -0.87203412990E+03  0.87203412991E+03  0.25500000920E-02 0.  1.
    10030    2    1    2    0    0  0.00000000000E+00  0.00000000000E+00 -0.44555502751E+02  0.16995127571E+04  0.16989286090E+04 0.  0.
        3    1    3    3  502    0  0.32116047937E+03 -0.42729262320E+02  0.76324363767E+03  0.82916265232E+03  0.10100000352E+00 0. -1.
       -3    1    3    3    0  502 -0.32116047937E+03  0.42729262320E+02 -0.80779914042E+03  0.87035010474E+03  0.10100000352E+00 0.  1.
</event>
<event>
 5   0  0.7583716E-06  0.1697788E+04  0.7818609E-02  0.8762627E-01
       -1   -1    0    0    0  501  0.00000000000E+00  0.00000000000E+00  0.40656437874E+03  0.40656437877E+03  0.50400001928E-02 0.  1.
        1   -1    0    0  501    0  0.00000000000E+00  0.00000000000E+00 -0.17724653168E+04  0.17724653168E+04  0.50400001928E-02 0. -1.
    10030    2    1    2    0    0  0.00000000000E+00  0.00000000000E+00 -0.13659009381E+04  0.21790296956E+04  0.16977882794E+04 0.  0.
        5    1    3    3  502    0 -0.53423402872E+03  0.53167841972E+03 -0.11841729373E+04  0.14037006714E+04  0.46999998093E+01 0. -1.
       -5    1    3    3    0  502  0.53423402872E+03 -0.53167841972E+03 -0.18172800072E+03  0.77532902415E+03  0.46999998093E+01 0.  1.
</event>
<event>
 5   0  0.7455669E-06  0.1698355E+04  0.7818609E-02  0.8762303E-01
       -1   -1    0    0    0  501  0.00000000000E+00  0.00000000000E+00  0.11316491390E+04  0.11316491390E+04  0.50400001928E-02 0. -1.
        1   -1    0    0  501    0  0.00000000000E+00  0.00000000000E+00 -0.63721359320E+03  0.63721359322E+03  0.50400001928E-02 0.  1.
    10030    2    1    2    0    0  0.00000000000E+00  0.00000000000E+00  0.49443554581E+03  0.17688627322E+04  0.16983547499E+04 0.  0.
        4    1    3    3  502    0 -0.73811095567E+03 -0.24373919708E+03  0.60329425922E+03  0.98396247651E+03  0.12699999809E+01 0. -1.
       -4    1    3    3    0  502  0.73811095567E+03  0.24373919708E+03 -0.10885871341E+03  0.78490025574E+03  0.12699999809E+01 0.  1.
</event>
<event>
 5   0  0.7583716E-06  0.1700315E+04  0.7818609E-02  0.8761185E-01
       -1   -1    0    0    0  501  0.00000000000E+00  0.00000000000E+00  0.59554085022E+03  0.59554085025E+03  0.50400001928E-02 0. -1.
        1   -1    0    0  501    0  0.00000000000E+00  0.00000000000E+00 -0.12136323802E+04  0.12136323802E+04  0.50400001928E-02 0.  1.
    10030    2    1    2    0    0  0.00000000000E+00  0.00000000000E+00 -0.61809153001E+03  0.18091732305E+04  0.17003148645E+04 0.  0.
        5    1    3    3  502    0 -0.23302780431E+03 -0.58617635024E+03 -0.91548341067E+03  0.11117718455E+04  0.46999998093E+01 0.  1.
       -5    1    3    3    0  502  0.23302780431E+03  0.58617635024E+03  0.29739188066E+03  0.69740138503E+03  0.46999998093E+01 0. -1.
</event>
<event>
 5   0  0.7082527E-06  0.1700348E+04  0.7818609E-02  0.8761166E-01
        1   -1    0    0  501    0  0.00000000000E+00  0.00000000000E+00  0.14854674860E+04  0.14854674860E+04  0.50400001928E-02 0.  1.
       -1   -1    0    0    0  501  0.00000000000E+00  0.00000000000E+00 -0.48657774009E+03  0.48657774011E+03  0.50400001928E-02 0. -1.
    10030    2    1    2    0    0  0.00000000000E+00  0.00000000000E+00  0.99888974588E+03  0.19720452261E+04  0.17003475084E+04 0.  0.
        1    1    3    3  502    0  0.19477664002E+03  0.59411447224E+03 -0.16870409023E+03  0.64758861610E+03  0.50400001928E-02 0. -1.
       -1    1    3    3    0  502 -0.19477664002E+03 -0.59411447224E+03  0.11675938361E+04  0.13244566100E+04  0.50400001928E-02 0.  1.
</event>
<event>
 5   0  0.1419012E-05  0.1699591E+04  0.7818609E-02  0.8761598E-01
       -2   -1    0    0    0  501  0.00000000000E+00  0.00000000000E+00  0.67362782069E+03  0.67362782069E+03  0.25500000920E-02 0. -1.
        2   -1    0    0  501    0  0.00000000000E+00  0.00000000000E+00 -0.10720343430E+04  0.10720343430E+04  0.25500000920E-02 0.  1.
    10030    2    1    2    0    0  0.00000000000E+00  0.00000000000E+00 -0.39840652230E+03  0.17456621637E+04  0.16995907251E+04 0.  0.
        4    1    3    3  502    0  0.40216533166E+03  0.58875288046E+03  0.27569773128E+03  0.76444604792E+03  0.12699999809E+01 0. -1.
       -4    1    3    3    0  502 -0.40216533166E+03 -0.58875288046E+03 -0.67410425358E+03  0.98121611576E+03  0.12699999809E+01 0.  1.
</event>
<event>
 5   0  0.1374441E-05  0.1699632E+04  0.7818609E-02  0.8761574E-01
       -2   -1    0    0    0  501  0.00000000000E+00  0.00000000000E+00  0.69565749029E+03  0.69565749029E+03  0.25500000920E-02 0.  1.
        2   -1    0    0  501    0  0.00000000000E+00  0.00000000000E+00 -0.10381359688E+04  0.10381359688E+04  0.25500000920E-02 0. -1.
    10030    2    1    2    0    0  0.00000000000E+00  0.00000000000E+00 -0.34247847848E+03  0.17337934591E+04  0.16996317985E+04 0.  0.
        1    1    3    3  502    0 -0.12137907009E+03 -0.71753538081E+03  0.27644051380E+03  0.77846596526E+03  0.50400001928E-02 0.  1.
       -1    1    3    3    0  502  0.12137907009E+03  0.71753538081E+03 -0.61891899228E+03  0.95532749380E+03  0.50400001928E-02 0. -1.
</event>
<event>
 5   0  0.1435301E-05  0.1700982E+04  0.7818609E-02  0.8760804E-01
       -2   -1    0    0    0  501  0.00000000000E+00  0.00000000000E+00  0.11809219769E+04  0.11809219769E+04  0.25500000920E-02 0.  1.
        2   -1    0    0  501    0  0.00000000000E+00  0.00000000000E+00 -0.61251739019E+03  0.61251739020E+03  0.25500000920E-02 0. -1.
    10030    2    1    2    0    0  0.00000000000E+00  0.00000000000E+00  0.56840458670E+03  0.17934393671E+04  0.17009823601E+04 0.  0.
        2    1    3    3  502    0 -0.10029331398E+03  0.60272770056E+03  0.90796343482E+03  0.10944117273E+04  0.25500000920E-02 0.  1.
       -2    1    3    3    0  502  0.10029331398E+03 -0.60272770056E+03 -0.33955884813E+03  0.69902763980E+03  0.25500000920E-02 0. -1.
</event>
<event>
 5   0  0.7461128E-06  0.1711312E+04  0.7818609E-02  0.8754939E-01
        1   -1    0    0  501    0  0.00000000000E+00  0.00000000000E+00  0.18711338212E+04  0.18711338212E+04  0.50400001928E-02 0. -1.
       -1   -1    0    0    0  501  0.00000000000E+00  0.00000000000E+00 -0.39128528798E+03  0.39128528801E+03  0.50400001928E-02 0.  1.
    10030    2    1    2    0    0  0.00000000000E+00  0.00000000000E+00  0.14798485332E+04  0.22624191092E+04  0.17113119366E+04 0.  0.
        3    1    3    3  502    0  0.43604913509E+03 -0.72418404053E+03  0.91514168134E+03  0.12458192806E+04  0.10100000352E+00 0. -1.
       -3    1    3    3    0  502 -0.43604913509E+03  0.72418404053E+03  0.56470685187E+03  0.10165998286E+04  0.10100000352E+00 0.  1.
</event>
<event>
 5   0  0.1423543E-05  0.1700296E+04  0.7818609E-02  0.8761196E-01
        2   -1    0    0  501    0  0.00000000000E+00  0.00000000000E+00  0.10388398878E+04  0.10388398878E+04  0.25500000920E-02 0.  1.
       -2   -1    0    0    0  501  0.00000000000E+00  0.00000000000E+00 -0.69572945670E+03  0.69572945671E+03  0.25500000920E-02 0. -1.
    10030    2    1    2    0    0  0.00000000000E+00  0.00000000000E+00  0.34311043114E+03  0.17345693446E+04  0.17002958693E+04 0.  0.
        3    1    3    3  502    0 -0.39783976656E+03 -0.69297896529E+03 -0.12456322792E+03  0.80871029061E+03  0.10100000352E+00 0. -1.
       -3    1    3    3    0  502  0.39783976656E+03  0.69297896529E+03  0.46767365906E+03  0.92585905394E+03  0.10100000352E+00 0.  1.
</event>
<event>
 5   0  0.1441756E-05  0.1700469E+04  0.7818609E-02  0.8761097E-01
        2   -1    0    0  501    0  0.00000000000E+00  0.00000000000E+00  0.79647471185E+03  0.79647471186E+03  0.25500000920E-02 0. -1.
       -2   -1    0    0    0  501  0.00000000000E+00  0.00000000000E+00 -0.90762294622E+03  0.90762294622E+03  0.25500000920E-02 0.  1.
    10030    2    1    2    0    0  0.00000000000E+00  0.00000000000E+00 -0.11114823436E+03  0.17040976581E+04  0.17004690230E+04 0.  0.
        5    1    3    3  502    0 -0.14131333769E+03 -0.80630110379E+03  0.17466754854E+03  0.83703152384E+03  0.46999998093E+01 0.  1.
       -5    1    3    3    0  502  0.14131333769E+03  0.80630110379E+03 -0.28581578290E+03  0.86706613424E+03  0.46999998093E+01 0. -1.
</event>
<event>
 5   0  0.1374441E-05  0.1700018E+04  0.7818609E-02  0.8761354E-01
       -2   -1    0    0    0  501  0.00000000000E+00  0.00000000000E+00  0.34531459034E+03  0.34531459034E+03  0.25500000920E-02 0.  1.
        2   -1    0    0  501    0  0.00000000000E+00  0.00000000000E+00 -0.20923403700E+04  0.20923403700E+04  0.25500000920E-02 0. -1.
    10030    2    1    2    0    0  0.00000000000E+00  0.00000000000E+00 -0.17470257797E+04  0.24376549604E+04  0.17000184208E+04 0.  0.
        1    1    3    3  502    0 -0.22512476863E+01  0.83202269493E+03 -0.62412643674E+03  0.10400964581E+04  0.50400001928E-02 0. -1.
       -1    1    3    3    0  502  0.22512476863E+01 -0.83202269493E+03 -0.11228993430E+04  0.13975585023E+04  0.50400001928E-02 0.  1.
</event>
<event>
 5   0  0.7461128E-06  0.1699279E+04  0.7818609E-02  0.8761775E-01
       -1   -1    0    0    0  501  0.00000000000E+00  0.00000000000E+00  0.76488335019E+03  0.76488335020E+03  0.50400001928E-02 0.  1.
        1   -1    0    0  501    0  0.00000000000E+00  0.00000000000E+00 -0.94378781909E+03  0.94378781910E+03  0.50400001928E-02 0. -1.
    10030    2    1    2    0    0  0.00000000000E+00  0.00000000000E+00 -0.17890446890E+03  0.17086711693E+04  0.16992793637E+04 0.  0.
        3    1    3    3  502    0  0.79173310420E+03  0.15406760917E+03  0.17906194728E+03  0.82622111304E+03  0.10100000352E+00 0.  1.
       -3    1    3    3    0  502 -0.79173310420E+03 -0.15406760917E+03 -0.35796641619E+03  0.88245005626E+03  0.10100000352E+00 0. -1.
</event>
<event>
 5   0  0.7455669E-06  0.1700338E+04  0.7818609E-02  0.8761172E-01
       -1   -1    0    0    0  501  0.00000000000E+00  0.00000000000E+00  0.12648148562E+04  0.12648148562E+04  0.50400001928E-02 0. -1.
        1   -1    0    0  501    0  0.00000000000E+00  0.00000000000E+00 -0.57145694098E+03  0.57145694100E+03  0.50400001928E-02 0.  1.
    10030    2    1    2    0    0  0.00000000000E+00  0.00000000000E+00  0.69335791519E+03  0.18362717972E+04  0.17003378825E+04 0.  0.
        4    1    3    3  502    0  0.18082548852E+03 -0.58158565944E+03  0.98726573176E+03  0.11600150751E+04  0.12699999809E+01 0. -1.
       -4    1    3    3    0  502 -0.18082548852E+03  0.58158565944E+03 -0.29390781657E+03  0.67625672204E+03  0.12699999809E+01 0.  1.
</event>
<event>
 5   0  0.7461128E-06  0.1699923E+04  0.7818609E-02  0.8761408E-01
        1   -1    0    0  501    0  0.00000000000E+00  0.00000000000E+00  0.21381073034E+04  0.21381073034E+04  0.50400001928E-02 0.  1.
       -1   -1    0    0    0  501  0.00000000000E+00  0.00000000000E+00 -0.33788499632E+03  0.33788499636E+03  0.50400001928E-02 0. -1.
    10030    2    1    2    0    0  0.00000000000E+00  0.00000000000E+00  0.18002223070E+04  0.24759922997E+04  0.16999227964E+04 0.  0.
        3    1    3    3  502    0 -0.13240114638E+03 -0.74633616249E+03  0.33998666727E+03  0.83074585471E+03  0.10100000352E+00 0. -1.
       -3    1    3    3    0  502  0.13240114638E+03  0.74633616249E+03  0.14602356398E+04  0.16452464450E+04  0.10100000352E+00 0.  1.
</event>
<event>
 5   0  0.1419012E-05  0.1699845E+04  0.7818609E-02  0.8761453E-01
        2   -1    0    0  501    0  0.00000000000E+00  0.00000000000E+00  0.14092453134E+04  0.14092453134E+04  0.25500000920E-02 0.  1.
       -2   -1    0    0    0  501  0.00000000000E+00  0.00000000000E+00 -0.51259247882E+03  0.51259247883E+03  0.25500000920E-02 0. -1.
    10030    2    1    2    0    0  0.00000000000E+00  0.00000000000E+00  0.89665283453E+03  0.19218377922E+04  0.16998453441E+04 0.  0.
        4    1    3    3  502    0  0.11821392576E+03 -0.21205157975E+02 -0.50294924754E+03  0.51709162579E+03  0.12699999809E+01 0. -1.
       -4    1    3    3    0  502 -0.11821392576E+03  0.21205157975E+02  0.13996020821E+04  0.14047461664E+04  0.12699999809E+01 0.  1.
</event>
<event>
 5   0  0.1441756E-05  0.1701766E+04  0.7818609E-02  0.8760358E-01
       -2   -1    0    0    0  501  0.00000000000E+00  0.00000000000E+00  0.10842506453E+04  0.10842506453E+04  0.25500000920E-02 0. -1.
        2   -1    0    0  501    0  0.00000000000E+00  0.00000000000E+00 -0.66774402045E+03  0.66774402046E+03  0.25500000920E-02 0.  1.
    10030    2    1    2    0    0  0.00000000000E+00  0.00000000000E+00  0.41650662482E+03  0.17519946657E+04  0.17017660063E+04 0.  0.
        5    1    3    3  502    0  0.33154735175E+01  0.82206281758E+03  0.43423498242E+03  0.92972059156E+03  0.46999998093E+01 0. -1.
       -5    1    3    3    0  502 -0.33154735175E+01 -0.82206281758E+03 -0.17728357594E+02  0.82227407418E+03  0.46999998093E+01 0.  1.
</event>
<event>
 5   0  0.1435301E-05  0.1699892E+04  0.7818609E-02  0.8761426E-01
        2   -1    0    0  501    0  0.00000000000E+00  0.00000000000E+00  0.15664452046E+04  0.15664452046E+04  0.25500000920E-02 0. -1.
       -2   -1    0    0    0  501  0.00000000000E+00  0.00000000000E+00 -0.46117687682E+03  0.46117687683E+03  0.25500000920E-02 0.  1.
    10030    2    1    2    0    0  0.00000000000E+00  0.00000000000E+00  0.11052683277E+04  0.20276220814E+04  0.16998921226E+04 0.  0.
        2    1    3    3  502    0 -0.88859255981E+01  0.81269281494E+03  0.84930146587E+03  0.11755260742E+04  0.25500000920E-02 0. -1.
       -2    1    3    3    0  502  0.88859255981E+01 -0.81269281494E+03  0.25596686187E+03  0.85209600721E+03  0.25500000920E-02 0.  1.
</event>
<event>
 5   0  0.1423543E-05  0.1700908E+04  0.7818609E-02  0.8760847E-01
       -2   -1    0    0    0  501  0.00000000000E+00  0.00000000000E+00  0.44709008937E+03  0.44709008938E+03  0.25500000920E-02 0.  1.
        2   -1    0    0  501    0  0.00000000000E+00  0.00000000000E+00 -0.16177321253E+04  0.16177321253E+04  0.25500000920E-02 0. -1.
    10030    2    1    2    0    0  0.00000000000E+00  0.00000000000E+00 -0.11706420359E+04  0.20648222146E+04  0.17009079934E+04 0.  0.
        3    1    3    3  502    0  0.86514193571E+02  0.49055829069E+03  0.25146144362E+03  0.55800090509E+03  0.10100000352E+00 0.  1.
       -3    1    3    3    0  502 -0.86514193571E+02 -0.49055829069E+03 -0.14221034795E+04  0.15068213096E+04  0.10100000352E+00 0. -1.
</event>
<event>
 5   0  0.1435301E-05  0.1700151E+04  0.7818609E-02  0.8761278E-01
       -2   -1    0    0    0  501  0.00000000000E+00  0.00000000000E+00  0.74797424869E+03  0.74797424870E+03  0.25500000920E-02 0.  1.
        2   -1    0    0  501    0  0.00000000000E+00  0.00000000000E+00 -0.96611399832E+03  0.96611399832E+03  0.25500000920E-02 0. -1.
    10030    2    1    2    0    0  0.00000000000E+00  0.00000000000E+00 -0.21813974963E+03  0.17140882470E+04  0.17001510428E+04 0.  0.
        2    1    3    3  502    0  0.27045977199E+03  0.21599244970E+03  0.67371437433E+03  0.75742477170E+03  0.25500000920E-02 0.  1.
       -2    1    3    3    0  502 -0.27045977199E+03 -0.21599244970E+03 -0.89185412396E+03  0.95666347532E+03  0.25500000920E-02 0. -1.
</event>
<event>
 5   0  0.1423543E-05  0.1700239E+04  0.7818609E-02  0.8761228E-01
        2   -1    0    0  501    0  0.00000000000E+00  0.00000000000E+00  0.12451788369E+04  0.12451788369E+04  0.25500000920E-02 0.  1.
       -2   -1    0    0    0  501  0.00000000000E+00  0.00000000000E+00 -0.58040092715E+03  0.58040092715E+03  0.25500000920E-02 0. -1.
    10030    2    1    2    0    0  0.00000000000E+00  0.00000000000E+00  0.66477790977E+03  0.18255797641E+04  0.17002387496E+04 0.  0.
        3    1    3    3  502    0  0.59374342178E+03  0.52655782670E+03  0.51095070880E+01  0.79361231911E+03  0.10100000352E+00 0. -1.
       -3    1    3    3    0  502 -0.59374342178E+03 -0.52655782670E+03  0.65966840268E+03  0.10319674450E+04  0.10100000352E+00 0.  1.
</event>
<event>
 5   0  0.1423543E-05  0.1698987E+04  0.7818609E-02  0.8761942E-01
       -2   -1    0    0    0  501  0.00000000000E+00  0.00000000000E+00  0.72515938684E+03  0.72515938685E+03  0.25500000920E-02 0.  1.
        2   -1    0    0  501    0  0.00000000000E+00  0.00000000000E+00 -0.99514612753E+03  0.99514612753E+03  0.25500000920E-02 0. -1.
    10030    2    1    2    0    0  0.00000000000E+00  0.00000000000E+00 -0.26998674069E+03  0.17203055144E+04  0.16989874110E+04 0.  0.
        3    1    3    3  502    0  0.25307702190E+03 -0.68817059926E+03  0.29935623268E+03  0.79198542723E+03  0.10100000352E+00 0.  1.
       -3    1    3    3    0  502 -0.25307702190E+03  0.68817059926E+03 -0.56934297337E+03  0.92832008716E+03  0.10100000352E+00 0. -1.
</event>
<event>
 5   0  0.1419012E-05  0.1699614E+04  0.7818609E-02  0.8761585E-01
        2   -1    0    0  501    0  0.00000000000E+00  0.00000000000E+00  0.15913634884E+04  0.15913634884E+04  0.25500000920E-02 0.  1.
       -2   -1    0    0    0  501  0.00000000000E+00  0.00000000000E+00 -0.45380694172E+03  0.45380694173E+03  0.25500000920E-02 0. -1.
    10030    2    1    2    0    0  0.00000000000E+00  0.00000000000E+00  0.11375565467E+04  0.20451704301E+04  0.16996138360E+04 0.  0.
        4    1    3    3  502    0  0.19098302864E+03 -0.28519979940E+03  0.15042398044E+04  0.15429039001E+04  0.12699999809E+01 0.  1.
       -4    1    3    3    0  502 -0.19098302864E+03  0.28519979940E+03 -0.36668325774E+03  0.50226653005E+03  0.12699999809E+01 0. -1.
</event>
<event>
 5   0  0.7461128E-06  0.1698976E+04  0.7818609E-02  0.8761948E-01
        1   -1    0    0  501    0  0.00000000000E+00  0.00000000000E+00  0.10973062592E+04  0.10973062592E+04  0.50400001928E-02 0. -1.
       -1   -1    0    0    0  501  0.00000000000E+00  0.00000000000E+00 -0.65763782246E+03  0.65763782247E+03  0.50400001928E-02 0.  1.
    10030    2    1    2    0    0  0.00000000000E+00  0.00000000000E+00  0.43966843670E+03  0.17549440816E+04  0.16989762787E+04 0.  0.
        3    1    3    3  502    0  0.30371075753E+03 -0.74456327919E+03 -0.63077636993E+02  0.80659376358E+03  0.10100000352E+00 0.  1.
       -3    1    3    3    0  502 -0.30371075753E+03  0.74456327919E+03  0.50274607369E+03  0.94835031806E+03  0.10100000352E+00 0. -1.
</event>
<event>
 5   0  0.7476457E-06  0.1699601E+04  0.7818609E-02  0.8761592E-01
        1   -1    0    0  501    0  0.00000000000E+00  0.00000000000E+00  0.11461214546E+04  0.11461214547E+04  0.50400001928E-02 0.  1.
       -1   -1    0    0    0  501  0.00000000000E+00  0.00000000000E+00 -0.63009102065E+03  0.63009102067E+03  0.50400001928E-02 0. -1.
    10030    2    1    2    0    0  0.00000000000E+00  0.00000000000E+00  0.51603043399E+03  0.17762124753E+04  0.16996009381E+04 0.  0.
        2    1    3    3  502    0  0.29997196508E+03  0.39886391523E+03 -0.46080064263E+03  0.67927375554E+03  0.25500000920E-02 0. -1.
       -2    1    3    3    0  502 -0.29997196508E+03 -0.39886391523E+03  0.97683107662E+03  0.10969387198E+04  0.25500000920E-02 0.  1.
</event>
<event>
 5   0  0.7476457E-06  0.1699312E+04  0.7818609E-02  0.8761757E-01
       -1   -1    0    0    0  501  0.00000000000E+00  0.00000000000E+00  0.39866826998E+03  0.39866827001E+03  0.50400001928E-02 0.  1.
        1   -1    0    0  501    0  0.00000000000E+00  0.00000000000E+00 -0.18108174165E+04  0.18108174165E+04  0.50400001928E-02 0. -1.
    10030    2    1    2    0    0  0.00000000000E+00  0.00000000000E+00 -0.14121491465E+04  0.22094856865E+04  0.16993121511E+04 0.  0.
        2    1    3    3  502    0  0.45131410088E+03  0.63835681651E+03 -0.11387416255E+04  0.13812734460E+04  0.25500000920E-02 0.  1.
       -2    1    3    3    0  502 -0.45131410088E+03 -0.63835681651E+03 -0.27340752098E+03  0.82821224053E+03  0.25500000920E-02 0. -1.
</event>
<event>
 5   0  0.7461128E-06  0.1698907E+04  0.7818609E-02  0.8761988E-01
        1   -1    0    0  501    0  0.00000000000E+00  0.00000000000E+00  0.20795307825E+04  0.20795307825E+04  0.50400001928E-02 0.  1.
       -1   -1    0    0    0  501  0.00000000000E+00  0.00000000000E+00 -0.34698756759E+03  0.34698756762E+03  0.50400001928E-02 0. -1.
    10030    2    1    2    0    0  0.00000000000E+00  0.00000000000E+00  0.17325432149E+04  0.24265183501E+04  0.16989070934E+04 0.  0.
        3    1    3    3  502    0  0.47184085717E+03 -0.46419825517E+03  0.16266993084E+04  0.17562074093E+04  0.10100000352E+00 0.  1.
       -3    1    3    3    0  502 -0.47184085717E+03  0.46419825517E+03  0.10584390656E+03  0.67031094080E+03  0.10100000352E+00 0. -1.
</event>
<event>
 5   0  0.1374441E-05  0.1700385E+04  0.7818609E-02  0.8761145E-01
       -2   -1    0    0    0  501  0.00000000000E+00  0.00000000000E+00  0.56848940317E+03  0.56848940317E+03  0.25500000920E-02 0. -1.
        2   -1    0    0  501    0  0.00000000000E+00  0.00000000000E+00 -0.12714875336E+04  0.12714875336E+04  0.25500000920E-02 0.  1.
    10030    2    1    2    0    0  0.00000000000E+00  0.00000000000E+00 -0.70299813043E+03  0.18399769368E+04  0.17003848848E+04 0.  0.
        1    1    3    3  502    0  0.74612824870E+03 -0.78996971117E+02 -0.78417353317E+03  0.10852999655E+04  0.50400001928E-02 0.  1.
       -1    1    3    3    0  502 -0.74612824870E+03  0.78996971117E+02  0.81175402735E+02  0.75467697128E+03  0.50400001928E-02 0. -1.
</event>
<event>
 5   0  0.7461128E-06  0.1700435E+04  0.7818609E-02  0.8761116E-01
        1   -1    0    0  501    0  0.00000000000E+00  0.00000000000E+00  0.94879227673E+03  0.94879227675E+03  0.50400001928E-02 0. -1.
       -1   -1    0    0    0  501  0.00000000000E+00  0.00000000000E+00 -0.76188400813E+03  0.76188400814E+03  0.50400001928E-02 0.  1.
    10030    2    1    2    0    0  0.00000000000E+00  0.00000000000E+00  0.18690826861E+03  0.17106762849E+04  0.17004348417E+04 0.  0.
        3    1    3    3  502    0  0.25571829921E+03 -0.42195750874E+03  0.79003299565E+03  0.93144625832E+03  0.10100000352E+00 0. -1.
       -3    1    3    3    0  502 -0.25571829921E+03  0.42195750874E+03 -0.60312472704E+03  0.77923002657E+03  0.10100000352E+00 0.  1.
</event>
<event>
 5   0  0.1423543E-05  0.1698797E+04  0.7818609E-02  0.8762051E-01
       -2   -1    0    0    0  501  0.00000000000E+00  0.00000000000E+00  0.81523137500E+03  0.81523137501E+03  0.25500000920E-02 0. -1.
        2   -1    0    0  501    0  0.00000000000E+00  0.00000000000E+00 -0.88499748602E+03  0.88499748603E+03  0.25500000920E-02 0.  1.
    10030    2    1    2    0    0  0.00000000000E+00  0.00000000000E+00 -0.69766111024E+02  0.17002288610E+04  0.16987968889E+04 0.  0.
        3    1    3    3  502    0  0.44351588331E+03  0.82421757779E+02  0.68543050955E+03  0.82055754126E+03  0.10100000352E+00 0. -1.
       -3    1    3    3    0  502 -0.44351588331E+03 -0.82421757779E+02 -0.75519662057E+03  0.87967131977E+03  0.10100000352E+00 0.  1.
</event>
<event>
 5   0  0.7082527E-06  0.1700904E+04  0.7818609E-02  0.8760849E-01
       -1   -1    0    0    0  501  0.00000000000E+00  0.00000000000E+00  0.32163974292E+03  0.32163974296E+03  0.50400001928E-02 0.  1.
        1   -1    0    0  501    0  0.00000000000E+00  0.00000000000E+00 -0.22486921227E+04  0.22486921227E+04  0.50400001928E-02 0. -1.
    10030    2    1    2    0    0  0.00000000000E+00  0.00000000000E+00 -0.19270523797E+04  0.25703318656E+04  0.17009041787E+04 0.  0.
        1    1    3    3  502    0  0.30701261818E+03 -0.73570865198E+03 -0.14111570470E+04  0.16207677748E+04  0.50400001928E-02 0. -1.
       -1    1    3    3    0  502 -0.30701261818E+03  0.73570865198E+03 -0.51589533273E+03  0.94956409087E+03  0.50400001928E-02 0.  1.
</event>
<event>
 5   0  0.1419012E-05  0.1700208E+04  0.7818609E-02  0.8761246E-01
       -2   -1    0    0    0  501  0.00000000000E+00  0.00000000000E+00  0.41429964004E+03  0.41429964005E+03  0.25500000920E-02 0.  1.
        2   -1    0    0  501    0  0.00000000000E+00  0.00000000000E+00 -0.17443337887E+04  0.17443337887E+04  0.25500000920E-02 0. -1.
    10030    2    1    2    0    0  0.00000000000E+00  0.00000000000E+00 -0.13300341486E+04  0.21586334287E+04  0.17002080588E+04 0.  0.
        4    1    3    3  502    0  0.16526463508E+03 -0.67543857673E+03 -0.44136596373E+02  0.69676346244E+03  0.12699999809E+01 0.  1.
       -4    1    3    3    0  502 -0.16526463508E+03  0.67543857673E+03 -0.12858975523E+04  0.14618699663E+04  0.12699999809E+01 0. -1.
</event>
<event>
 5   0  0.1419012E-05  0.1700213E+04  0.7818609E-02  0.8761243E-01
       -2   -1    0    0    0  501  0.00000000000E+00  0.00000000000E+00  0.76766419704E+03  0.76766419704E+03  0.25500000920E-02 0. -1.
        2   -1    0    0  501    0  0.00000000000E+00  0.00000000000E+00 -0.94140313833E+03  0.94140313834E+03  0.25500000920E-02 0.  1.
    10030    2    1    2    0    0  0.00000000000E+00  0.00000000000E+00 -0.17373894129E+03  0.17090673354E+04  0.17002134975E+04 0.  0.
        4    1    3    3  502    0 -0.22681108689E+03  0.78512441256E+03  0.14847847465E+03  0.83060886262E+03  0.12699999809E+01 0. -1.
       -4    1    3    3    0  502  0.22681108689E+03 -0.78512441256E+03 -0.32221741594E+03  0.87845847276E+03  0.12699999809E+01 0.  1.
</event>
<event>
 5   0  0.7583716E-06  0.1700575E+04  0.7818609E-02  0.8761037E-01
       -1   -1    0    0    0  501  0.00000000000E+00  0.00000000000E+00  0.67290259183E+03  0.67290259185E+03  0.50400001928E-02 0. -1.
        1   -1    0    0  501    0  0.00000000000E+00  0.00000000000E+00 -0.10744327985E+04  0.10744327985E+04  0.50400001928E-02 0.  1.
    10030    2    1    2    0    0  0.00000000000E+00  0.00000000000E+00 -0.40153020663E+03  0.17473353903E+04  0.17005747439E+04 0.  0.
        5    1    3    3  502    0 -0.26078565880E+03 -0.73011578312E+03  0.15795983779E+03  0.79123423646E+03  0.46999998093E+01 0. -1.
       -5    1    3    3    0  502  0.26078565880E+03  0.73011578312E+03 -0.55949004442E+03  0.95610115386E+03  0.46999998093E+01 0.  1.
</event>
<event>
 5   0  0.7461128E-06  0.1700073E+04  0.7818609E-02  0.8761323E-01
       -1   -1    0    0    0  501  0.00000000000E+00  0.00000000000E+00  0.10508074466E+04  0.10508074466E+04  0.50400001928E-02 0.  1.
        1   -1    0    0  501    0  0.00000000000E+00  0.00000000000E+00 -0.68762555855E+03  0.68762555857E+03  0.50400001928E-02 0. -1.
    10030    2    1    2    0    0  0.00000000000E+00  0.00000000000E+00  0.36318188802E+03  0.17384330052E+04  0.17000730071E+04 0.  0.
        3    1    3    3  502    0  0.43111216701E+03 -0.72443592322E+03  0.70056753694E+02  0.84591551962E+03  0.10100000352E+00 0.  1.
       -3    1    3    3    0  502 -0.43111216701E+03  0.72443592322E+03  0.29312513433E+03  0.89251748553E+03  0.10100000352E+00 0. -1.
</event>
<event>
 5   0  0.7476457E-06  0.1699717E+04  0.7818609E-02  0.8761526E-01
        1   -1    0    0  501    0  0.00000000000E+00  0.00000000000E+00  0.10800100823E+04  0.10800100824E+04  0.50400001928E-02 0. -1.
       -1   -1    0    0    0  501  0.00000000000E+00  0.00000000000E+00 -0.66875280886E+03  0.66875280888E+03  0.50400001928E-02 0.  1.
    10030    2    1    2    0    0  0.00000000000E+00  0.00000000000E+00  0.41125727349E+03  0.17487628912E+04  0.16997173603E+04 0.  0.
        2    1    3    3  502    0  0.68477422463E+01  0.30467043975E+03  0.10218608427E+04  0.10663351022E+04  0.25500000920E-02 0. -1.
       -2    1    3    3    0  502 -0.68477422463E+01 -0.30467043975E+03 -0.61060356922E+03  0.68242778899E+03  0.25500000920E-02 0.  1.
</event>
<event>
 5   0  0.1419012E-05  0.1699976E+04  0.7818609E-02  0.8761378E-01
        2   -1    0    0  501    0  0.00000000000E+00  0.00000000000E+00  0.81458346936E+03  0.81458346936E+03  0.25500000920E-02 0.  1.
       -2   -1    0    0    0  501  0.00000000000E+00  0.00000000000E+00 -0.88693183840E+03  0.88693183840E+03  0.25500000920E-02 0. -1.
    10030    2    1    2    0    0  0.00000000000E+00  0.00000000000E+00 -0.72348369039E+02  0.17015153078E+04  0.16999764869E+04 0.  0.
        4    1    3    3  502    0 -0.78322621564E+03 -0.40334188439E+02  0.29185445700E+03  0.83680988797E+03  0.12699999809E+01 0.  1.
       -4    1    3    3    0  502  0.78322621564E+03  0.40334188439E+02 -0.36420282604E+03  0.86470541979E+03  0.12699999809E+01 0. -1.
</event>
<event>
 5   0  0.7461128E-06  0.1699928E+04  0.7818609E-02  0.8761406E-01
       -1   -1    0    0    0  501  0.00000000000E+00  0.00000000000E+00  0.37290724568E+03  0.37290724571E+03  0.50400001928E-02 0.  1.
        1   -1    0    0  501    0  0.00000000000E+00  0.00000000000E+00 -0.19373144558E+04  0.19373144558E+04  0.50400001928E-02 0. -1.
    10030    2    1    2    0    0  0.00000000000E+00  0.00000000000E+00 -0.15644072101E+04  0.23102217015E+04  0.16999277606E+04 0.  0.
        3    1    3    3  502    0  0.60682685519E+03  0.57992436415E+03 -0.96396341579E+03  0.12781926997E+04  0.10100000352E+00 0. -1.
       -3    1    3    3    0  502 -0.60682685519E+03 -0.57992436415E+03 -0.60044379432E+03  0.10320290018E+04  0.10100000352E+00 0.  1.
</event>
<event>
 5   0  0.1435301E-05  0.1700420E+04  0.7818609E-02  0.8761125E-01
       -2   -1    0    0    0  501  0.00000000000E+00  0.00000000000E+00  0.53817566994E+03  0.53817566995E+03  0.25500000920E-02 0. -1.
        2   -1    0    0  501    0  0.00000000000E+00  0.00000000000E+00 -0.13431616940E+04  0.13431616940E+04  0.25500000920E-02 0.  1.
    10030    2    1    2    0    0  0.00000000000E+00  0.00000000000E+00 -0.80498602410E+03  0.18813373640E+04  0.17004198829E+04 0.  0.
        2    1    3    3  502    0 -0.25707642920E+03  0.44232307839E+03 -0.11537992430E+04  0.12621373496E+04  0.25500000920E-02 0.  1.
       -2    1    3    3    0  502  0.25707642920E+03 -0.44232307839E+03  0.34881321890E+03  0.61920001439E+03  0.25500000920E-02 0. -1.
</event>
<event>
 5   0  0.1419012E-05  0.1699957E+04  0.7818609E-02  0.8761389E-01
        2   -1    0    0  501    0  0.00000000000E+00  0.00000000000E+00  0.20247024895E+04  0.20247024895E+04  0.25500000920E-02 0.  1.
       -2   -1    0    0    0  501  0.00000000000E+00  0.00000000000E+00 -0.35682434355E+03  0.35682434356E+03  0.25500000920E-02 0. -1.
    10030    2    1    2    0    0  0.00000000000E+00  0.00000000000E+00  0.16678781459E+04  0.23815268330E+04  0.16999566309E+04 0.  0.
        4    1    3    3  502    0  0.26062109661E+03  0.80268342074E+03  0.97568626511E+03  0.12900346239E+04  0.12699999809E+01 0. -1.
       -4    1    3    3    0  502 -0.26062109661E+03 -0.80268342074E+03  0.69219188080E+03  0.10914922092E+04  0.12699999809E+01 0.  1.
</event>
<event>
 5   0  0.7583716E-06  0.1699744E+04  0.7818609E-02  0.8761511E-01
        1   -1    0    0  501    0  0.00000000000E+00  0.00000000000E+00  0.11509538448E+04  0.11509538448E+04  0.50400001928E-02 0.  1.
       -1   -1    0    0    0  501  0.00000000000E+00  0.00000000000E+00 -0.62755085186E+03  0.62755085188E+03  0.50400001928E-02 0. -1.
    10030    2    1    2    0    0  0.00000000000E+00  0.00000000000E+00  0.52340299291E+03  0.17785046967E+04  0.16997435874E+04 0.  0.
        5    1    3    3  502    0  0.10899011112E+03  0.54367359043E+03 -0.41219168454E+03  0.69092973018E+03  0.46999998093E+01 0. -1.
       -5    1    3    3    0  502 -0.10899011112E+03 -0.54367359043E+03  0.93559467745E+03  0.10875749665E+04  0.46999998093E+01 0.  1.
</event>
<event>
 5   0  0.5229750E-06  0.1700101E+04  0.7818609E-02  0.8761307E-01
       -4   -1    0    0    0  501  0.00000000000E+00  0.00000000000E+00  0.60257346465E+03  0.60257480299E+03  0.12699999809E+01 0.  1.
        4   -1    0    0  501    0  0.00000000000E+00  0.00000000000E+00 -0.11991635486E+04  0.11991642211E+04  0.12699999809E+01 0. -1.
    10030    2    1    2    0    0  0.00000000000E+00  0.00000000000E+00 -0.59659008398E+03  0.18017390241E+04  0.17001011096E+04 0.  0.
        5    1    3    3  502    0  0.59743642373E+03 -0.47613305513E+03  0.96722645129E+02  0.77007163736E+03  0.46999998093E+01 0.  1.
       -5    1    3    3    0  502 -0.59743642373E+03  0.47613305513E+03 -0.69331272911E+03  0.10316673868E+04  0.46999998093E+01 0. -1.
</event>
<event>
 5   0  0.1435301E-05  0.1699473E+04  0.7818609E-02  0.8761665E-01
        2   -1    0    0  501    0  0.00000000000E+00  0.00000000000E+00  0.20615027877E+04  0.20615027877E+04  0.25500000920E-02 0.  1.
       -2   -1    0    0    0  501  0.00000000000E+00  0.00000000000E+00 -0.35025502204E+03  0.35025502205E+03  0.25500000920E-02 0. -1.
    10030    2    1    2    0    0  0.00000000000E+00  0.00000000000E+00  0.17112477657E+04  0.24117578097E+04  0.16994725115E+04 0.  0.
        2    1    3    3  502    0  0.67219939623E+03 -0.44784554589E+03  0.12301053719E+04  0.14715899182E+04  0.25500000920E-02 0. -1.
       -2    1    3    3    0  502 -0.67219939623E+03  0.44784554589E+03  0.48114239375E+03  0.94016789157E+03  0.25500000920E-02 0.  1.
</event>
<event>
 5   0  0.1423543E-05  0.1695556E+04  0.7818609E-02  0.8763903E-01
       -2   -1    0    0    0  501  0.00000000000E+00  0.00000000000E+00  0.72166230624E+03  0.72166230624E+03  0.25500000920E-02 0.  1.
        2   -1    0    0  501    0  0.00000000000E+00  0.00000000000E+00 -0.99593298003E+03  0.99593298003E+03  0.25500000920E-02 0. -1.
    10030    2    1    2    0    0  0.00000000000E+00  0.00000000000E+00 -0.27427067379E+03  0.17175952863E+04  0.16955557098E+04 0.  0.
        3    1    3    3  502    0  0.32780801202E+02  0.77377776487E+03  0.21219592351E+03  0.80301539866E+03  0.10100000352E+00 0. -1.
       -3    1    3    3    0  502 -0.32780801202E+02 -0.77377776487E+03 -0.48646659730E+03  0.91457988761E+03  0.10100000352E+00 0.  1.
</event>
<event>
 5   0  0.1441756E-05  0.1700000E+04  0.7818609E-02  0.8761365E-01
       -2   -1    0    0    0  501  0.00000000000E+00  0.00000000000E+00  0.93230409418E+03  0.93230409418E+03  0.25500000920E-02 0.  1.
        2   -1    0    0  501    0  0.00000000000E+00  0.00000000000E+00 -0.77496131116E+03  0.77496131117E+03  0.25500000920E-02 0. -1.
    10030    2    1    2    0    0  0.00000000000E+00  0.00000000000E+00  0.15734278301E+03  0.17072654053E+04  0.16999995332E+04 0.  0.
        5    1    3    3  502    0  0.59220011341E+02 -0.84078272669E+03  0.18893551364E+03  0.86379472188E+03  0.46999998093E+01 0.  1.
       -5    1    3    3    0  502 -0.59220011341E+02  0.84078272669E+03 -0.31592730623E+02  0.84347068347E+03  0.46999998093E+01 0. -1.
</event>
<event>
 5   0  0.7476457E-06  0.1699268E+04  0.7818609E-02  0.8761782E-01
       -1   -1    0    0    0  501  0.00000000000E+00  0.00000000000E+00  0.38730967428E+03  0.38730967431E+03  0.50400001928E-02 0.  1.
        1   -1    0    0  501    0  0.00000000000E+00  0.00000000000E+00 -0.18638254060E+04  0.18638254060E+04  0.50400001928E-02 0. -1.
    10030    2    1    2    0    0  0.00000000000E+00  0.00000000000E+00 -0.14765157317E+04  0.22511350803E+04  0.16992676198E+04 0.  0.
        2    1    3    3  502    0  0.27904373399E+03 -0.21132472345E+03  0.28735037592E+03  0.45287281081E+03  0.25500000920E-02 0.  1.
       -2    1    3    3    0  502 -0.27904373399E+03  0.21132472345E+03 -0.17638661076E+04  0.17982622695E+04  0.25500000920E-02 0. -1.
</event>
<event>
 5   0  0.1435301E-05  0.1700424E+04  0.7818609E-02  0.8761122E-01
       -2   -1    0    0    0  501  0.00000000000E+00  0.00000000000E+00  0.36308512525E+03  0.36308512525E+03  0.25500000920E-02 0.  1.
        2   -1    0    0  501    0  0.00000000000E+00  0.00000000000E+00 -0.19908849507E+04  0.19908849507E+04  0.25500000920E-02 0. -1.
    10030    2    1    2    0    0  0.00000000000E+00  0.00000000000E+00 -0.16277998254E+04  0.23539700759E+04  0.17004243137E+04 0.  0.
        2    1    3    3  502    0  0.13412016540E+03 -0.71759823708E+03 -0.14172022389E+04  0.15941761617E+04  0.25500000920E-02 0. -1.
       -2    1    3    3    0  502 -0.13412016540E+03  0.71759823708E+03 -0.21059758654E+03  0.75979391423E+03  0.25500000920E-02 0.  1.
</event>
<event>
 5   0  0.7476457E-06  0.1699041E+04  0.7818609E-02  0.8761912E-01
       -1   -1    0    0    0  501  0.00000000000E+00  0.00000000000E+00  0.84544665854E+03  0.84544665856E+03  0.50400001928E-02 0.  1.
        1   -1    0    0  501    0  0.00000000000E+00  0.00000000000E+00 -0.85361373302E+03  0.85361373304E+03  0.50400001928E-02 0. -1.
    10030    2    1    2    0    0  0.00000000000E+00  0.00000000000E+00 -0.81670744781E+01  0.16990603916E+04  0.16990407627E+04 0.  0.
        2    1    3    3  502    0 -0.51304876098E+03 -0.58166863691E+03 -0.35068160367E+03  0.85119622971E+03  0.25500000920E-02 0. -1.
       -2    1    3    3    0  502  0.51304876098E+03  0.58166863691E+03  0.34251452919E+03  0.84786416189E+03  0.25500000920E-02 0.  1.
</event>
<event>
 5   0  0.1441756E-05  0.1700234E+04  0.7818609E-02  0.8761231E-01
       -2   -1    0    0    0  501  0.00000000000E+00  0.00000000000E+00  0.43123918513E+03  0.43123918514E+03  0.25500000920E-02 0. -1.
        2   -1    0    0  501    0  0.00000000000E+00  0.00000000000E+00 -0.16758652007E+04  0.16758652007E+04  0.25500000920E-02 0.  1.
    10030    2    1    2    0    0  0.00000000000E+00  0.00000000000E+00 -0.12446260155E+04  0.21071043858E+04  0.17002337998E+04 0.  0.
        5    1    3    3  502    0 -0.49498623204E+03  0.20678809150E+02 -0.14784529600E+04  0.15592575888E+04  0.46999998093E+01 0.  1.
       -5    1    3    3    0  502  0.49498623204E+03 -0.20678809150E+02  0.23382694451E+03  0.54784679705E+03  0.46999998093E+01 0. -1.
</event>
<event>
 5   0  0.7082527E-06  0.1700062E+04  0.7818609E-02  0.8761329E-01
        1   -1    0    0  501    0  0.00000000000E+00  0.00000000000E+00  0.16538315258E+04  0.16538315259E+04  0.50400001928E-02 0. -1.
       -1   -1    0    0    0  501  0.00000000000E+00  0.00000000000E+00 -0.43689644711E+03  0.43689644714E+03  0.50400001928E-02 0.  1.
    10030    2    1    2    0    0  0.00000000000E+00  0.00000000000E+00  0.12169350787E+04  0.20907279730E+04  0.17000624904E+04 0.  0.
        1    1    3    3  502    0 -0.55422689900E+03 -0.22492407069E+03  0.13512420276E+04  0.14777054207E+04  0.50400001928E-02 0. -1.
       -1    1    3    3    0  502  0.55422689900E+03  0.22492407069E+03 -0.13430694882E+03  0.61302255234E+03  0.50400001928E-02 0.  1.
</event>
<event>
 5   0  0.7476457E-06  0.1698552E+04  0.7818609E-02  0.8762191E-01
       -1   -1    0    0    0  501  0.00000000000E+00  0.00000000000E+00  0.13940504459E+04  0.13940504459E+04  0.50400001928E-02 0.  1.
        1   -1    0    0  501    0  0.00000000000E+00  0.00000000000E+00 -0.51739110599E+03  0.51739110601E+03  0.50400001928E-02 0. -1.
    10030    2    1    2    0    0  0.00000000000E+00  0.00000000000E+00  0.87665933994E+03  0.19114415519E+04  0.16985515030E+04 0.  0.
        2    1    3    3  502    0 -0.84866948903E+03 -0.15015742716E+02  0.40642231138E+03  0.94108685536E+03  0.25500000920E-02 0.  1.
       -2    1    3    3    0  502  0.84866948903E+03  0.15015742716E+02  0.47023702857E+03  0.97035469659E+03  0.25500000920E-02 0. -1.
</event>
<event>
 5   0  0.7082527E-06  0.1699912E+04  0.7818609E-02  0.8761414E-01
        1   -1    0    0  501    0  0.00000000000E+00  0.00000000000E+00  0.98074195683E+03  0.98074195684E+03  0.50400001928E-02 0.  1.
       -1   -1    0    0    0  501  0.00000000000E+00  0.00000000000E+00 -0.73661102535E+03  0.73661102536E+03  0.50400001928E-02 0. -1.
    10030    2    1    2    0    0  0.00000000000E+00  0.00000000000E+00  0.24413093148E+03  0.17173529822E+04  0.16999121606E+04 0.  0.
        1    1    3    3  502    0  0.38830538596E+03 -0.27072344373E+03  0.83524958235E+03  0.96005943597E+03  0.50400001928E-02 0.  1.
       -1    1    3    3    0  502 -0.38830538596E+03  0.27072344373E+03 -0.59111865086E+03  0.75729354624E+03  0.50400001928E-02 0. -1.
</event>
<event>
 5   0  0.1441756E-05  0.1699775E+04  0.7818609E-02  0.8761492E-01
        2   -1    0    0  501    0  0.00000000000E+00  0.00000000000E+00  0.13703683282E+04  0.13703683282E+04  0.25500000920E-02 0. -1.
       -2   -1    0    0    0  501  0.00000000000E+00  0.00000000000E+00 -0.52709119784E+03  0.52709119785E+03  0.25500000920E-02 0.  1.
    10030    2    1    2    0    0  0.00000000000E+00  0.00000000000E+00  0.84327713033E+03  0.18974595260E+04  0.16997753776E+04 0.  0.
        5    1    3    3  502    0 -0.59477596723E+03 -0.60235366961E+03  0.50590702175E+03  0.98618071323E+03  0.46999998093E+01 0. -1.
       -5    1    3    3    0  502  0.59477596723E+03  0.60235366961E+03  0.33737010859E+03  0.91127881280E+03  0.46999998093E+01 0.  1.
</event>
<event>
 5   0  0.7583716E-06  0.1699539E+04  0.7818609E-02  0.8761628E-01
        1   -1    0    0  501    0  0.00000000000E+00  0.00000000000E+00  0.65109947225E+03  0.65109947227E+03  0.50400001928E-02 0.  1.
       -1   -1    0    0    0  501  0.00000000000E+00  0.00000000000E+00 -0.11090592632E+04  0.11090592633E+04  0.50400001928E-02 0. -1.
    10030    2    1    2    0    0  0.00000000000E+00  0.00000000000E+00 -0.45795979100E+03  0.17601587355E+04  0.16995386445E+04 0.  0.
        5    1    3    3  502    0  0.71520020398E+03 -0.37115208500E+03  0.50498309144E+02  0.80736445996E+03  0.46999998093E+01 0.  1.
       -5    1    3    3    0  502 -0.71520020398E+03  0.37115208500E+03 -0.50845810014E+03  0.95279427558E+03  0.46999998093E+01 0. -1.
</event>
<event>
 5   0  0.7461128E-06  0.1700014E+04  0.7818609E-02  0.8761357E-01
        1   -1    0    0  501    0  0.00000000000E+00  0.00000000000E+00  0.53874760318E+03  0.53874760321E+03  0.50400001928E-02 0. -1.
       -1   -1    0    0    0  501  0.00000000000E+00  0.00000000000E+00 -0.13410945989E+04  0.13410945989E+04  0.50400001928E-02 0.  1.
    10030    2    1    2    0    0  0.00000000000E+00  0.00000000000E+00 -0.80234699574E+03  0.18798422021E+04  0.17000135304E+04 0.  0.
        3    1    3    3  502    0 -0.58344067297E+03 -0.57767077745E+03 -0.15788931107E+03  0.83608348312E+03  0.10100000352E+00 0.  1.
       -3    1    3    3    0  502  0.58344067297E+03  0.57767077745E+03 -0.64445768467E+03  0.10437587190E+04  0.10100000352E+00 0. -1.
</event>
<event>
 5   0  0.1374441E-05  0.1699956E+04  0.7818609E-02  0.8761389E-01
       -2   -1    0    0    0  501  0.00000000000E+00  0.00000000000E+00  0.89710045640E+03  0.89710045640E+03  0.25500000920E-02 0. -1.
        2   -1    0    0  501    0  0.00000000000E+00  0.00000000000E+00 -0.80533093373E+03  0.80533093374E+03  0.25500000920E-02 0.  1.
    10030    2    1    2    0    0  0.00000000000E+00  0.00000000000E+00  0.91769522665E+02  0.17024313901E+04  0.16999561738E+04 0.  0.
        1    1    3    3  502    0 -0.23997359817E+02 -0.37405274523E+03 -0.71809652651E+03  0.81003330234E+03  0.50400001928E-02 0.  1.
       -1    1    3    3    0  502  0.23997359817E+02  0.37405274523E+03  0.80986604917E+03  0.89239808780E+03  0.50400001928E-02 0. -1.
</event>
<event>
 5   0  0.7082527E-06  0.1700066E+04  0.7818609E-02  0.8761327E-01
       -1   -1    0    0    0  501  0.00000000000E+00  0.00000000000E+00  0.45034446057E+03  0.45034446059E+03  0.50400001928E-02 0.  1.
        1   -1    0    0  501    0  0.00000000000E+00  0.00000000000E+00 -0.16044520950E+04  0.16044520950E+04  0.50400001928E-02 0. -1.
    10030    2    1    2    0    0  0.00000000000E+00  0.00000000000E+00 -0.11541076344E+04  0.20547965556E+04  0.17000660143E+04 0.  0.
        1    1    3    3  502    0 -0.75202809974E+02  0.43771001685E+03 -0.14530679692E+04  0.15194249059E+04  0.50400001928E-02 0. -1.
       -1    1    3    3    0  502  0.75202809974E+02 -0.43771001685E+03  0.29896033480E+03  0.53537164969E+03  0.50400001928E-02 0.  1.
</event>
<event>
 5   0  0.1423543E-05  0.1700490E+04  0.7818609E-02  0.8761085E-01
       -2   -1    0    0    0  501  0.00000000000E+00  0.00000000000E+00  0.56745949649E+03  0.56745949649E+03  0.25500000920E-02 0.  1.
        2   -1    0    0  501    0  0.00000000000E+00  0.00000000000E+00 -0.12739520944E+04  0.12739520944E+04  0.25500000920E-02 0. -1.
    10030    2    1    2    0    0  0.00000000000E+00  0.00000000000E+00 -0.70649259787E+03  0.18414115909E+04  0.17004895931E+04 0.  0.
        3    1    3    3  502    0  0.76186031537E+03 -0.37295238450E+03 -0.29018279586E+03  0.89651028241E+03  0.10100000352E+00 0.  1.
       -3    1    3    3    0  502 -0.76186031537E+03  0.37295238450E+03 -0.41630980201E+03  0.94490130845E+03  0.10100000352E+00 0. -1.
</event>
<event>
 5   0  0.7082527E-06  0.1699766E+04  0.7818609E-02  0.8761498E-01
        1   -1    0    0  501    0  0.00000000000E+00  0.00000000000E+00  0.43047683426E+03  0.43047683429E+03  0.50400001928E-02 0.  1.
       -1   -1    0    0    0  501  0.00000000000E+00  0.00000000000E+00 -0.16779086364E+04  0.16779086364E+04  0.50400001928E-02 0. -1.
    10030    2    1    2    0    0  0.00000000000E+00  0.00000000000E+00 -0.12474318021E+04  0.21083854707E+04  0.16997656286E+04 0.  0.
        1    1    3    3  502    0  0.28732866946E+03  0.67398688506E+02  0.36487445716E+03  0.46929065303E+03  0.50400001928E-02 0.  1.
       -1    1    3    3    0  502 -0.28732866946E+03 -0.67398688506E+02 -0.16123062593E+04  0.16390948177E+04  0.50400001928E-02 0. -1.
</event>
<event>
 5   0  0.7082527E-06  0.1699101E+04  0.7818609E-02  0.8761877E-01
        1   -1    0    0  501    0  0.00000000000E+00  0.00000000000E+00  0.65761613781E+03  0.65761613782E+03  0.50400001928E-02 0.  1.
       -1   -1    0    0    0  501  0.00000000000E+00  0.00000000000E+00 -0.10975030756E+04  0.10975030756E+04  0.50400001928E-02 0. -1.
    10030    2    1    2    0    0  0.00000000000E+00  0.00000000000E+00 -0.43988693775E+03  0.17551192134E+04  0.16991006254E+04 0.  0.
        1    1    3    3  502    0 -0.69279938479E+03 -0.20501878744E+03  0.24170499300E+03  0.76185628201E+03  0.50400001928E-02 0.  1.
       -1    1    3    3    0  502  0.69279938479E+03  0.20501878744E+03 -0.68159193075E+03  0.99326293138E+03  0.50400001928E-02 0. -1.
</event>
<event>
 5   0  0.1374441E-05  0.1699362E+04  0.7818609E-02  0.8761728E-01
        2   -1    0    0  501    0  0.00000000000E+00  0.00000000000E+00  0.13675445581E+04  0.13675445581E+04  0.25500000920E-02 0.  1.
       -2   -1    0    0    0  501  0.00000000000E+00  0.00000000000E+00 -0.52792251677E+03  0.52792251678E+03  0.25500000920E-02 0. -1.
    10030    2    1    2    0    0  0.00000000000E+00  0.00000000000E+00  0.83962204134E+03  0.18954670749E+04  0.16993617213E+04 0.  0.
        1    1    3    3  502    0  0.78041710658E+03 -0.24735932346E+03  0.67347567954E+03  0.10600976305E+04  0.50400001928E-02 0.  1.
       -1    1    3    3    0  502 -0.78041710658E+03  0.24735932346E+03  0.16614636180E+03  0.83536944444E+03  0.50400001928E-02 0. -1.
</event>
<event>
 5   0  0.7082527E-06  0.1700101E+04  0.7818609E-02  0.8761307E-01
       -1   -1    0    0    0  501  0.00000000000E+00  0.00000000000E+00  0.12324970742E+04  0.12324970742E+04  0.50400001928E-02 0.  1.
        1   -1    0    0  501    0  0.00000000000E+00  0.00000000000E+00 -0.58627804098E+03  0.58627804100E+03  0.50400001928E-02 0. -1.
    10030    2    1    2    0    0  0.00000000000E+00  0.00000000000E+00  0.64621903321E+03  0.18187751152E+04  0.17001011384E+04 0.  0.
        1    1    3    3  502    0  0.15644242027E+03 -0.79051840139E+03  0.33683725828E+02  0.80655326371E+03  0.50400001928E-02 0.  1.
       -1    1    3    3    0  502 -0.15644242027E+03  0.79051840139E+03  0.61253530739E+03  0.10122218515E+04  0.50400001928E-02 0. -1.
</event>
<event>
 5   0  0.7082527E-06  0.1694423E+04  0.7818609E-02  0.8764551E-01
        1   -1    0    0  501    0  0.00000000000E+00  0.00000000000E+00  0.54884773073E+03  0.54884773075E+03  0.50400001928E-02 0. -1.
       -1   -1    0    0    0  501  0.00000000000E+00  0.00000000000E+00 -0.13077715780E+04  0.13077715780E+04  0.50400001928E-02 0.  1.
    10030    2    1    2    0    0  0.00000000000E+00  0.00000000000E+00 -0.75892384725E+03  0.18566193087E+04  0.16944231619E+04 0.  0.
        1    1    3    3  502    0 -0.75012421134E+03 -0.70182795474E+02  0.45129887405E+02  0.75475072970E+03  0.50400001928E-02 0. -1.
       -1    1    3    3    0  502  0.75012421134E+03  0.70182795474E+02 -0.80405373466E+03  0.11018685790E+04  0.50400001928E-02 0.  1.
</event>
<event>
 5   0  0.1423543E-05  0.1697927E+04  0.7818609E-02  0.8762548E-01
        2   -1    0    0  501    0  0.00000000000E+00  0.00000000000E+00  0.17643577478E+04  0.17643577478E+04  0.25500000920E-02 0. -1.
       -2   -1    0    0    0  501  0.00000000000E+00  0.00000000000E+00 -0.40849925739E+03  0.40849925740E+03  0.25500000920E-02 0.  1.
    10030    2    1    2    0    0  0.00000000000E+00  0.00000000000E+00  0.13558584904E+04  0.21728570052E+04  0.16979267708E+04 0.  0.
        3    1    3    3  502    0 -0.53849742680E+03 -0.13901094203E+03 -0.14291917226E+03  0.57422070729E+03  0.10100000352E+00 0.  1.
       -3    1    3    3    0  502  0.53849742680E+03  0.13901094203E+03  0.14987776626E+04  0.15986362979E+04  0.10100000352E+00 0. -1.
</event>
<event>
 5   0  0.1441756E-05  0.1699896E+04  0.7818609E-02  0.8761424E-01
        2   -1    0    0  501    0  0.00000000000E+00  0.00000000000E+00  0.19242603873E+04  0.19242603873E+04  0.25500000920E-02 0.  1.
       -2   -1    0    0    0  501  0.00000000000E+00  0.00000000000E+00 -0.37542307730E+03  0.37542307730E+03  0.25500000920E-02 0. -1.
    10030    2    1    2    0    0  0.00000000000E+00  0.00000000000E+00  0.15488373100E+04  0.22996834646E+04  0.16998961805E+04 0.  0.
        5    1    3    3  502    0 -0.44775061590E+03  0.22391612554E+03  0.17036227401E+04  0.17756608843E+04  0.46999998093E+01 0.  1.
       -5    1    3    3    0  502  0.44775061590E+03 -0.22391612554E+03 -0.15478543011E+03  0.52402258033E+03  0.46999998093E+01 0. -1.
</event>
<event>
 5   0  0.1435301E-05  0.1699875E+04  0.7818609E-02  0.8761436E-01
        2   -1    0    0  501    0  0.00000000000E+00  0.00000000000E+00  0.10408104028E+04  0.10408104028E+04  0.25500000920E-02 0.  1.
       -2   -1    0    0    0  501  0.00000000000E+00  0.00000000000E+00 -0.69406835013E+03  0.69406835014E+03  0.25500000920E-02 0. -1.
    10030    2    1    2    0    0  0.00000000000E+00  0.00000000000E+00  0.34674205265E+03  0.17348787529E+04  0.16998747708E+04 0.  0.
        2    1    3    3  502    0 -0.33792412941E+03  0.45545777525E+03  0.81946229639E+03  0.99657059834E+03  0.25500000920E-02 0.  1.
       -2    1    3    3    0  502  0.33792412941E+03 -0.45545777525E+03 -0.47272024374E+03  0.73830815458E+03  0.25500000920E-02 0. -1.
</event>
<event>
 5   0  0.1435301E-05  0.1699231E+04  0.7818609E-02  0.8761803E-01
       -2   -1    0    0    0  501  0.00000000000E+00  0.00000000000E+00  0.28128432405E+03  0.28128432406E+03  0.25500000920E-02 0.  1.
        2   -1    0    0  501    0  0.00000000000E+00  0.00000000000E+00 -0.25662520471E+04  0.25662520471E+04  0.25500000920E-02 0. -1.
    10030    2    1    2    0    0  0.00000000000E+00  0.00000000000E+00 -0.22849677231E+04  0.28475363712E+04  0.16992309701E+04 0.  0.
        2    1    3    3  502    0  0.25773403168E+03 -0.72416568166E+03 -0.17490227587E+04  0.19104772640E+04  0.25500000920E-02 0. -1.
       -2    1    3    3    0  502 -0.25773403168E+03  0.72416568166E+03 -0.53594496432E+03  0.93705910719E+03  0.25500000920E-02 0.  1.
</event>
<event>
 5   0  0.1423543E-05  0.1700124E+04  0.7818609E-02  0.8761294E-01
       -2   -1    0    0    0  501  0.00000000000E+00  0.00000000000E+00  0.77217512285E+03  0.77217512286E+03  0.25500000920E-02 0. -1.
        2   -1    0    0  501    0  0.00000000000E+00  0.00000000000E+00 -0.93580526769E+03  0.93580526769E+03  0.25500000920E-02 0.  1.
    10030    2    1    2    0    0  0.00000000000E+00  0.00000000000E+00 -0.16363014484E+03  0.17079803905E+04  0.17001241691E+04 0.  0.
        3    1    3    3  502    0  0.74180982434E+03 -0.37795754123E+03 -0.25428195315E+03  0.87051309029E+03  0.10100000352E+00 0.  1.
       -3    1    3    3    0  502 -0.74180982434E+03  0.37795754123E+03  0.90651808312E+02  0.83746730026E+03  0.10100000352E+00 0. -1.
</event>
<event>
 5   0  0.7476457E-06  0.1700104E+04  0.7818609E-02  0.8761305E-01
        1   -1    0    0  501    0  0.00000000000E+00  0.00000000000E+00  0.80773244706E+03  0.80773244707E+03  0.50400001928E-02 0. -1.
       -1   -1    0    0    0  501  0.00000000000E+00  0.00000000000E+00 -0.89458908508E+03  0.89458908510E+03  0.50400001928E-02 0.  1.
    10030    2    1    2    0    0  0.00000000000E+00  0.00000000000E+00 -0.86856638026E+02  0.17023215322E+04  0.17001042684E+04 0.  0.
        2    1    3    3  502    0 -0.77234123370E+03  0.34506149643E+03 -0.12726453135E+03  0.85543829616E+03  0.25500000920E-02 0.  1.
       -2    1    3    3    0  502  0.77234123370E+03 -0.34506149643E+03  0.40407893329E+02  0.84688323601E+03  0.25500000920E-02 0. -1.
</event>
<event>
 5   0  0.1374441E-05  0.1699970E+04  0.7818609E-02  0.8761381E-01
        2   -1    0    0  501    0  0.00000000000E+00  0.00000000000E+00  0.13272102495E+04  0.13272102495E+04  0.25500000920E-02 0.  1.
       -2   -1    0    0    0  501  0.00000000000E+00  0.00000000000E+00 -0.54435573061E+03  0.54435573061E+03  0.25500000920E-02 0. -1.
    10030    2    1    2    0    0  0.00000000000E+00  0.00000000000E+00  0.78285451887E+03  0.18715659801E+04  0.16999700057E+04 0.  0.
        1    1    3    3  502    0 -0.52625620713E+03 -0.11506242825E+03 -0.33242719402E+03  0.63300299943E+03  0.50400001928E-02 0. -1.
       -1    1    3    3    0  502  0.52625620713E+03  0.11506242825E+03  0.11152817129E+04  0.12385629807E+04  0.50400001928E-02 0.  1.
</event>
<event>
 5   0  0.7461128E-06  0.1700249E+04  0.7818609E-02  0.8761222E-01
        1   -1    0    0  501    0  0.00000000000E+00  0.00000000000E+00  0.16096306755E+04  0.16096306755E+04  0.50400001928E-02 0. -1.
       -1   -1    0    0    0  501  0.00000000000E+00  0.00000000000E+00 -0.44899227686E+03  0.44899227689E+03  0.50400001928E-02 0.  1.
    10030    2    1    2    0    0  0.00000000000E+00  0.00000000000E+00  0.11606383986E+04  0.20586229524E+04  0.17002490899E+04 0.  0.
        3    1    3    3  502    0  0.14798795518E+03 -0.44208180726E+02  0.15925007072E+04  0.15999729094E+04  0.10100000352E+00 0. -1.
       -3    1    3    3    0  502 -0.14798795518E+03  0.44208180726E+02 -0.43186230861E+03  0.45865004297E+03  0.10100000352E+00 0.  1.
</event>
<event>
 5   0  0.7461128E-06  0.1698384E+04  0.7818609E-02  0.8762286E-01
        1   -1    0    0  501    0  0.00000000000E+00  0.00000000000E+00  0.70533636449E+03  0.70533636450E+03  0.50400001928E-02 0.  1.
       -1   -1    0    0    0  501  0.00000000000E+00  0.00000000000E+00 -0.10223876740E+04  0.10223876740E+04  0.50400001928E-02 0. -1.
    10030    2    1    2    0    0  0.00000000000E+00  0.00000000000E+00 -0.31705130950E+03  0.17277240385E+04  0.16983841793E+04 0.  0.
        3    1    3    3  502    0  0.58948535871E+03  0.74487512498E+02  0.45865596247E+03  0.75060420980E+03  0.10100000352E+00 0.  1.
       -3    1    3    3    0  502 -0.58948535871E+03 -0.74487512498E+02 -0.77570727197E+03  0.97711982870E+03  0.10100000352E+00 0. -1.
</event>
<event>
 5   0  0.7455669E-06  0.1699939E+04  0.7818609E-02  0.8761399E-01
       -1   -1    0    0    0  501  0.00000000000E+00  0.00000000000E+00  0.53419858984E+03  0.53419858986E+03  0.50400001928E-02 0.  1.
        1   -1    0    0  501    0  0.00000000000E+00  0.00000000000E+00 -0.13523960573E+04  0.13523960573E+04  0.50400001928E-02 0. -1.
    10030    2    1    2    0    0  0.00000000000E+00  0.00000000000E+00 -0.81819746748E+03  0.18865946472E+04  0.16999389010E+04 0.  0.
        4    1    3    3  502    0 -0.24081016890E+03 -0.24076132710E+03  0.45518717031E+03  0.56846506224E+03  0.12699999809E+01 0.  1.
       -4    1    3    3    0  502  0.24081016890E+03  0.24076132710E+03 -0.12733846378E+04  0.13181295850E+04  0.12699999809E+01 0. -1.
</event>
<event>
 5   0  0.1419012E-05  0.1700144E+04  0.7818609E-02  0.8761282E-01
        2   -1    0    0  501    0  0.00000000000E+00  0.00000000000E+00  0.81103418426E+03  0.81103418426E+03  0.25500000920E-02 0.  1.
       -2   -1    0    0    0  501  0.00000000000E+00  0.00000000000E+00 -0.89098844566E+03  0.89098844566E+03  0.25500000920E-02 0. -1.
    10030    2    1    2    0    0  0.00000000000E+00  0.00000000000E+00 -0.79954261395E+02  0.17020226299E+04  0.17001436259E+04 0.  0.
        4    1    3    3  502    0 -0.45402467370E+03 -0.22854536078E+03 -0.72208843698E+03  0.88305419425E+03  0.12699999809E+01 0. -1.
       -4    1    3    3    0  502  0.45402467370E+03  0.22854536078E+03  0.64213417559E+03  0.81896843567E+03  0.12699999809E+01 0.  1.
</event>
<event>
 5   0  0.7461128E-06  0.1699621E+04  0.7818609E-02  0.8761580E-01
       -1   -1    0    0    0  501  0.00000000000E+00  0.00000000000E+00  0.84368222710E+03  0.84368222712E+03  0.50400001928E-02 0. -1.
        1   -1    0    0  501    0  0.00000000000E+00  0.00000000000E+00 -0.85598366300E+03  0.85598366301E+03  0.50400001928E-02 0.  1.
    10030    2    1    2    0    0  0.00000000000E+00  0.00000000000E+00 -0.12301435896E+02  0.16996658901E+04  0.16996213733E+04 0.  0.
        3    1    3    3  502    0  0.17892977264E+03  0.68333672078E+03 -0.47861759353E+03  0.85325245299E+03  0.10100000352E+00 0.  1.
       -3    1    3    3    0  502 -0.17892977264E+03 -0.68333672078E+03  0.46631615763E+03  0.84641343714E+03  0.10100000352E+00 0. -1.
</event>
<event>
 5   0  0.1441756E-05  0.1700752E+04  0.7818609E-02  0.8760935E-01
        2   -1    0    0  501    0  0.00000000000E+00  0.00000000000E+00  0.10600891213E+04  0.10600891213E+04  0.25500000920E-02 0.  1.
       -2   -1    0    0    0  501  0.00000000000E+00  0.00000000000E+00 -0.68214990786E+03  0.68214990786E+03  0.25500000920E-02 0. -1.
    10030    2    1    2    0    0  0.00000000000E+00  0.00000000000E+00  0.37793921347E+03  0.17422390292E+04  0.17007524175E+04 0.  0.
        5    1    3    3  502    0  0.34571910128E+03 -0.57585077670E+02  0.98264612379E+03  0.10432896207E+04  0.46999998093E+01 0.  1.
       -5    1    3    3    0  502 -0.34571910128E+03  0.57585077670E+02 -0.60470691033E+03  0.69894940844E+03  0.46999998093E+01 0. -1.
</event>
<event>
 5   0  0.7461128E-06  0.1698798E+04  0.7818609E-02  0.8762050E-01
       -1   -1    0    0    0  501  0.00000000000E+00  0.00000000000E+00  0.74254179587E+03  0.74254179589E+03  0.50400001928E-02 0.  1.
        1   -1    0    0  501    0  0.00000000000E+00  0.00000000000E+00 -0.97163383359E+03  0.97163383360E+03  0.50400001928E-02 0. -1.
    10030    2    1    2    0    0  0.00000000000E+00  0.00000000000E+00 -0.22909203771E+03  0.17141756295E+04  0.16987980831E+04 0.  0.
        3    1    3    3  502    0 -0.35039749282E+03  0.44000332824E+03 -0.75677999383E+03  0.94291956237E+03  0.10100000352E+00 0. -1.
       -3    1    3    3    0  502  0.35039749282E+03 -0.44000332824E+03  0.52768795612E+03  0.77125606712E+03  0.10100000352E+00 0.  1.
</event>
<event>
 5   0  0.1374441E-05  0.1700121E+04  0.7818609E-02  0.8761295E-01
       -2   -1    0    0    0  501  0.00000000000E+00  0.00000000000E+00  0.71725490885E+03  0.71725490885E+03  0.25500000920E-02 0. -1.
        2   -1    0    0  501    0  0.00000000000E+00  0.00000000000E+00 -0.10074562930E+04  0.10074562930E+04  0.25500000920E-02 0.  1.
    10030    2    1    2    0    0  0.00000000000E+00  0.00000000000E+00 -0.29020138419E+03  0.17247112019E+04  0.17001211388E+04 0.  0.
        1    1    3    3  502    0 -0.81286392750E+03  0.62845777313E+02 -0.38921703604E+03  0.90343082609E+03  0.50400001928E-02 0.  1.
       -1    1    3    3    0  502  0.81286392750E+03 -0.62845777313E+02  0.99015651857E+02  0.82128037581E+03  0.50400001928E-02 0. -1.
</event>
<event>
 5   0  0.7461128E-06  0.1699872E+04  0.7818609E-02  0.8761438E-01
       -1   -1    0    0    0  501  0.00000000000E+00  0.00000000000E+00  0.94862110740E+03  0.94862110741E+03  0.50400001928E-02 0.  1.
        1   -1    0    0  501    0  0.00000000000E+00  0.00000000000E+00 -0.76151683771E+03  0.76151683773E+03  0.50400001928E-02 0. -1.
    10030    2    1    2    0    0  0.00000000000E+00  0.00000000000E+00  0.18710426969E+03  0.17101379451E+04  0.16998716962E+04 0.  0.
        3    1    3    3  502    0  0.33592899303E+03  0.22040085227E+03 -0.65994796409E+03  0.77262937398E+03  0.10100000352E+00 0. -1.
       -3    1    3    3    0  502 -0.33592899303E+03 -0.22040085227E+03  0.84705223378E+03  0.93750857115E+03  0.10100000352E+00 0.  1.
</event>
<event>
 5   0  0.1441756E-05  0.1700583E+04  0.7818609E-02  0.8761032E-01
       -2   -1    0    0    0  501  0.00000000000E+00  0.00000000000E+00  0.70593525401E+03  0.70593525401E+03  0.25500000920E-02 0.  1.
        2   -1    0    0  501    0  0.00000000000E+00  0.00000000000E+00 -0.10241670808E+04  0.10241670808E+04  0.25500000920E-02 0. -1.
    10030    2    1    2    0    0  0.00000000000E+00  0.00000000000E+00 -0.31823182676E+03  0.17301023348E+04  0.17005830157E+04 0.  0.
        5    1    3    3  502    0 -0.80021193924E+03 -0.16773440145E+03 -0.39661969957E+03  0.90873717499E+03  0.46999998093E+01 0.  1.
       -5    1    3    3    0  502  0.80021193924E+03  0.16773440145E+03  0.78387872809E+02  0.82136515980E+03  0.46999998093E+01 0. -1.
</event>
<event>
 5   0  0.1423543E-05  0.1699725E+04  0.7818609E-02  0.8761521E-01
        2   -1    0    0  501    0  0.00000000000E+00  0.00000000000E+00  0.11368451412E+04  0.11368451412E+04  0.25500000920E-02 0.  1.
       -2   -1    0    0    0  501  0.00000000000E+00  0.00000000000E+00 -0.63532514587E+03  0.63532514588E+03  0.25500000920E-02 0. -1.
    10030    2    1    2    0    0  0.00000000000E+00  0.00000000000E+00  0.50151999528E+03  0.17721702870E+04  0.16997250426E+04 0.  0.
        3    1    3    3  502    0  0.77678969828E+03 -0.18033053415E+02 -0.10820918527E+03  0.78449771468E+03  0.10100000352E+00 0. -1.
       -3    1    3    3    0  502 -0.77678969828E+03  0.18033053415E+02  0.60972918055E+03  0.98767257235E+03  0.10100000352E+00 0.  1.
</event>
<event>
 5   0  0.1423543E-05  0.1699934E+04  0.7818609E-02  0.8761402E-01
        2   -1    0    0  501    0  0.00000000000E+00  0.00000000000E+00  0.23852636194E+04  0.23852636194E+04  0.25500000920E-02 0.  1.
       -2   -1    0    0    0  501  0.00000000000E+00  0.00000000000E+00 -0.30287815562E+03  0.30287815563E+03  0.25500000920E-02 0. -1.
    10030    2    1    2    0    0  0.00000000000E+00  0.00000000000E+00  0.20823854638E+04  0.26881417751E+04  0.16999344055E+04 0.  0.
        3    1    3    3  502    0 -0.59345089908E+03 -0.14791726551E+03  0.10783725506E+03  0.62104136000E+03  0.10100000352E+00 0. -1.
       -3    1    3    3    0  502  0.59345089908E+03  0.14791726551E+03  0.19745482087E+04  0.20671004151E+04  0.10100000352E+00 0.  1.
</event>
<event>
 5   0  0.7082527E-06  0.1700438E+04  0.7818609E-02  0.8761115E-01
       -1   -1    0    0    0  501  0.00000000000E+00  0.00000000000E+00  0.33151458738E+04  0.33151458738E+04  0.50400001928E-02 0.  1.
        1   -1    0    0  501    0  0.00000000000E+00  0.00000000000E+00 -0.21805140536E+03  0.21805140542E+03  0.50400001928E-02 0. -1.
    10030    2    1    2    0    0  0.00000000000E+00  0.00000000000E+00  0.30970944685E+04  0.35331972792E+04  0.17004378458E+04 0.  0.
        1    1    3    3  502    0 -0.58320527365E+03  0.80965949745E+02  0.27413541490E+03  0.64948756875E+03  0.50400001928E-02 0. -1.
       -1    1    3    3    0  502  0.58320527365E+03 -0.80965949745E+02  0.28229590536E+04  0.28837097105E+04  0.50400001928E-02 0.  1.
</event>
<event>
 5   0  0.7455669E-06  0.1702480E+04  0.7818609E-02  0.8759951E-01
        1   -1    0    0  501    0  0.00000000000E+00  0.00000000000E+00  0.42977303168E+03  0.42977303171E+03  0.50400001928E-02 0. -1.
       -1   -1    0    0    0  501  0.00000000000E+00  0.00000000000E+00 -0.16860280103E+04  0.16860280103E+04  0.50400001928E-02 0.  1.
    10030    2    1    2    0    0  0.00000000000E+00  0.00000000000E+00 -0.12562549786E+04  0.21158010420E+04  0.17024798025E+04 0.  0.
        4    1    3    3  502    0 -0.27547510126E+03  0.27395240255E+03  0.31316462929E+03  0.49900916646E+03  0.12699999809E+01 0. -1.
       -4    1    3    3    0  502  0.27547510126E+03 -0.27395240255E+03 -0.15694196079E+04  0.16167918755E+04  0.12699999809E+01 0.  1.
</event>
<event>
 5   0  0.7082527E-06  0.1700132E+04  0.7818609E-02  0.8761289E-01
       -1   -1    0    0    0  501  0.00000000000E+00  0.00000000000E+00  0.10561211142E+04  0.10561211142E+04  0.50400001928E-02 0. -1.
        1   -1    0    0  501    0  0.00000000000E+00  0.00000000000E+00 -0.68421324094E+03  0.68421324096E+03  0.50400001928E-02 0.  1.
    10030    2    1    2    0    0  0.00000000000E+00  0.00000000000E+00  0.37190787325E+03  0.17403343552E+04  0.17001318189E+04 0.  0.
        1    1    3    3  502    0 -0.40848351470E+03 -0.71939049653E+03 -0.14196044366E+02  0.82739530817E+03  0.50400001928E-02 0. -1.
       -1    1    3    3    0  502  0.40848351470E+03  0.71939049653E+03  0.38610391761E+03  0.91293904698E+03  0.50400001928E-02 0.  1.
</event>
<event>
 5   0  0.5229750E-06  0.1699898E+04  0.7818609E-02  0.8761422E-01
       -3   -1    0    0    0  501  0.00000000000E+00  0.00000000000E+00  0.41880375512E+03  0.41880376730E+03  0.10100000352E+00 0.  1.
        3   -1    0    0  501    0  0.00000000000E+00  0.00000000000E+00 -0.17249448670E+04  0.17249448700E+04  0.10100000352E+00 0. -1.
    10030    2    1    2    0    0  0.00000000000E+00  0.00000000000E+00 -0.13061411119E+04  0.21437486373E+04  0.16998981192E+04 0.  0.
        2    1    3    3  502    0  0.68867522061E+03 -0.28622336248E+02 -0.12802345528E+04  0.14539921966E+04  0.25500000920E-02 0. -1.
       -2    1    3    3    0  502 -0.68867522061E+03  0.28622336248E+02 -0.25906559079E+02  0.68975644065E+03  0.25500000920E-02 0.  1.
</event>
<event>
 5   0  0.7461128E-06  0.1699803E+04  0.7818609E-02  0.8761477E-01
       -1   -1    0    0    0  501  0.00000000000E+00  0.00000000000E+00  0.46455861232E+03  0.46455861235E+03  0.50400001928E-02 0. -1.
        1   -1    0    0  501    0  0.00000000000E+00  0.00000000000E+00 -0.15548797486E+04  0.15548797486E+04  0.50400001928E-02 0.  1.
    10030    2    1    2    0    0  0.00000000000E+00  0.00000000000E+00 -0.10903211363E+04  0.20194383609E+04  0.16998032573E+04 0.  0.
        3    1    3    3  502    0  0.19298307129E+02  0.84247969902E+03 -0.67632120498E+03  0.10805345207E+04  0.10100000352E+00 0.  1.
       -3    1    3    3    0  502 -0.19298307129E+02 -0.84247969902E+03 -0.41399993129E+03  0.93890384025E+03  0.10100000352E+00 0. -1.
</event>
<event>
 5   0  0.7455669E-06  0.1699366E+04  0.7818609E-02  0.8761726E-01
        1   -1    0    0  501    0  0.00000000000E+00  0.00000000000E+00  0.16198809222E+04  0.16198809223E+04  0.50400001928E-02 0.  1.
       -1   -1    0    0    0  501  0.00000000000E+00  0.00000000000E+00 -0.44568756482E+03  0.44568756485E+03  0.50400001928E-02 0. -1.
    10030    2    1    2    0    0  0.00000000000E+00  0.00000000000E+00  0.11741933574E+04  0.20655684871E+04  0.16993655093E+04 0.  0.
        4    1    3    3  502    0  0.28394051701E+03 -0.79427970840E+03  0.46280270044E+03  0.96212807090E+03  0.12699999809E+01 0.  1.
       -4    1    3    3    0  502 -0.28394051701E+03  0.79427970840E+03  0.71139065699E+03  0.11034404162E+04  0.12699999809E+01 0. -1.
</event>
<event>
 5   0  0.7476457E-06  0.1700131E+04  0.7818609E-02  0.8761290E-01
        1   -1    0    0  501    0  0.00000000000E+00  0.00000000000E+00  0.10537295791E+04  0.10537295791E+04  0.50400001928E-02 0.  1.
       -1   -1    0    0    0  501  0.00000000000E+00  0.00000000000E+00 -0.68576527835E+03  0.68576527837E+03  0.50400001928E-02 0. -1.
    10030    2    1    2    0    0  0.00000000000E+00  0.00000000000E+00  0.36796430073E+03  0.17394948575E+04  0.17001307692E+04 0.  0.
        2    1    3    3  502    0 -0.19138228589E+03 -0.70885388281E+02  0.10282910762E+04  0.10483484416E+04  0.25500000920E-02 0.  1.
       -2    1    3    3    0  502  0.19138228589E+03  0.70885388281E+02 -0.66032677551E+03  0.69114641581E+03  0.25500000920E-02 0. -1.
</event>
<event>
 5   0  0.1435301E-05  0.1699567E+04  0.7818609E-02  0.8761611E-01
       -2   -1    0    0    0  501  0.00000000000E+00  0.00000000000E+00  0.78343773787E+03  0.78343773788E+03  0.25500000920E-02 0.  1.
        2   -1    0    0  501    0  0.00000000000E+00  0.00000000000E+00 -0.92174782272E+03  0.92174782272E+03  0.25500000920E-02 0. -1.
    10030    2    1    2    0    0  0.00000000000E+00  0.00000000000E+00 -0.13831008484E+03  0.17051855606E+04  0.16995670380E+04 0.  0.
        2    1    3    3  502    0  0.37911954286E+03 -0.41652657632E+03  0.56927080213E+03  0.80080913002E+03  0.25500000920E-02 0.  1.
       -2    1    3    3    0  502 -0.37911954286E+03  0.41652657632E+03 -0.70758088698E+03  0.90437643058E+03  0.25500000920E-02 0. -1.
</event>
<event>
 5   0  0.7583716E-06  0.1700513E+04  0.7818609E-02  0.8761072E-01
       -1   -1    0    0    0  501  0.00000000000E+00  0.00000000000E+00  0.59512168136E+03  0.59512168138E+03  0.50400001928E-02 0. -1.
        1   -1    0    0  501    0  0.00000000000E+00  0.00000000000E+00 -0.12147697710E+04  0.12147697710E+04  0.50400001928E-02 0.  1.
    10030    2    1    2    0    0  0.00000000000E+00  0.00000000000E+00 -0.61964808962E+03  0.18098914524E+04  0.17005126622E+04 0.  0.
        5    1    3    3  502    0  0.19067649081E+03  0.71253801601E+03  0.14027907152E+03  0.75084502816E+03  0.46999998093E+01 0. -1.
       -5    1    3    3    0  502 -0.19067649081E+03 -0.71253801601E+03 -0.75992716114E+03  0.10590464242E+04  0.46999998093E+01 0.  1.
</event>
<event>
 5   0  0.7461128E-06  0.1698556E+04  0.7818609E-02  0.8762188E-01
       -1   -1    0    0    0  501  0.00000000000E+00  0.00000000000E+00  0.78822998406E+03  0.78822998407E+03  0.50400001928E-02 0.  1.
        1   -1    0    0  501    0  0.00000000000E+00  0.00000000000E+00 -0.91505456075E+03  0.91505456077E+03  0.50400001928E-02 0. -1.
    10030    2    1    2    0    0  0.00000000000E+00  0.00000000000E+00 -0.12682457670E+03  0.17032845448E+04  0.16985563775E+04 0.  0.
        3    1    3    3  502    0  0.79065844959E+03 -0.30720375917E+03 -0.10546346875E+03  0.85477335417E+03  0.10100000352E+00 0. -1.
       -3    1    3    3    0  502 -0.79065844959E+03  0.30720375917E+03 -0.21361107942E+02  0.84851119067E+03  0.10100000352E+00 0.  1.
</event>
<event>
 5   0  0.1435301E-05  0.1700003E+04  0.7818609E-02  0.8761362E-01
       -2   -1    0    0    0  501  0.00000000000E+00  0.00000000000E+00  0.55626987138E+03  0.55626987139E+03  0.25500000920E-02 0.  1.
        2   -1    0    0  501    0  0.00000000000E+00  0.00000000000E+00 -0.12988350198E+04  0.12988350198E+04  0.25500000920E-02 0. -1.
    10030    2    1    2    0    0  0.00000000000E+00  0.00000000000E+00 -0.74256514840E+03  0.18551048912E+04  0.17000032817E+04 0.  0.
        2    1    3    3  502    0 -0.38565221555E+03  0.32356587030E+03  0.37609885300E+03  0.62838909205E+03  0.25500000920E-02 0.  1.
       -2    1    3    3    0  502  0.38565221555E+03 -0.32356587030E+03 -0.11186640014E+04  0.12267157991E+04  0.25500000920E-02 0. -1.
</event>
<event>
 5   0  0.7476457E-06  0.1699765E+04  0.7818609E-02  0.8761498E-01
        1   -1    0    0  501    0  0.00000000000E+00  0.00000000000E+00  0.13040128278E+04  0.13040128278E+04  0.50400001928E-02 0. -1.
       -1   -1    0    0    0  501  0.00000000000E+00  0.00000000000E+00 -0.55390584546E+03  0.55390584548E+03  0.50400001928E-02 0.  1.
    10030    2    1    2    0    0  0.00000000000E+00  0.00000000000E+00  0.75010698230E+03  0.18579186732E+04  0.16997650754E+04 0.  0.
        2    1    3    3  502    0  0.17418523866E+03  0.55746923465E+02  0.12822487980E+04  0.12952259250E+04  0.25500000920E-02 0. -1.
       -2    1    3    3    0  502 -0.17418523866E+03 -0.55746923465E+02 -0.53214181572E+03  0.56269274821E+03  0.25500000920E-02 0.  1.
</event>
<event>
 5   0  0.7583716E-06  0.1699624E+04  0.7818609E-02  0.8761579E-01
        1   -1    0    0  501    0  0.00000000000E+00  0.00000000000E+00  0.11046815921E+04  0.11046815921E+04  0.50400001928E-02 0.  1.
       -1   -1    0    0    0  501  0.00000000000E+00  0.00000000000E+00 -0.65374521563E+03  0.65374521565E+03  0.50400001928E-02 0. -1.
    10030    2    1    2    0    0  0.00000000000E+00  0.00000000000E+00  0.45093637651E+03  0.17584268078E+04  0.16996238474E+04 0.  0.
        5    1    3    3  502    0 -0.16318491253E+03 -0.40161459485E+03  0.98166961600E+03  0.10731360228E+04  0.46999998093E+01 0.  1.
       -5    1    3    3    0  502  0.16318491253E+03  0.40161459485E+03 -0.53073323950E+03  0.68529078498E+03  0.46999998093E+01 0. -1.
</event>
<event>
 5   0  0.1374441E-05  0.1699960E+04  0.7818609E-02  0.8761387E-01
        2   -1    0    0  501    0  0.00000000000E+00  0.00000000000E+00  0.81648176462E+03  0.81648176463E+03  0.25500000920E-02 0. -1.
       -2   -1    0    0    0  501  0.00000000000E+00  0.00000000000E+00 -0.88485215875E+03  0.88485215875E+03  0.25500000920E-02 0.  1.
    10030    2    1    2    0    0  0.00000000000E+00  0.00000000000E+00 -0.68370394128E+02  0.17013339234E+04  0.16999595901E+04 0.  0.
        1    1    3    3  502    0  0.12787187758E+03 -0.24022713885E+03 -0.84007240244E+03  0.88305262396E+03  0.50400001928E-02 0.  1.
       -1    1    3    3    0  502 -0.12787187758E+03  0.24022713885E+03  0.77170200832E+03  0.81828129942E+03  0.50400001928E-02 0. -1.
</event>
<event>
 5   0  0.1435301E-05  0.1699789E+04  0.7818609E-02  0.8761485E-01
        2   -1    0    0  501    0  0.00000000000E+00  0.00000000000E+00  0.80155491309E+03  0.80155491309E+03  0.25500000920E-02 0.  1.
       -2   -1    0    0    0  501  0.00000000000E+00  0.00000000000E+00 -0.90114886090E+03  0.90114886090E+03  0.25500000920E-02 0. -1.
    10030    2    1    2    0    0  0.00000000000E+00  0.00000000000E+00 -0.99593947809E+02  0.17027037740E+04  0.16997885714E+04 0.  0.
        2    1    3    3  502    0 -0.57505427783E+03 -0.23958575963E+03  0.52932215124E+03  0.81747825566E+03  0.25500000920E-02 0.  1.
       -2    1    3    3    0  502  0.57505427783E+03  0.23958575963E+03 -0.62891609905E+03  0.88522551834E+03  0.25500000920E-02 0. -1.
</event>
<event>
 5   0  0.1419012E-05  0.1699967E+04  0.7818609E-02  0.8761383E-01
       -2   -1    0    0    0  501  0.00000000000E+00  0.00000000000E+00  0.33101749117E+03  0.33101749118E+03  0.25500000920E-02 0. -1.
        2   -1    0    0  501    0  0.00000000000E+00  0.00000000000E+00 -0.21825806521E+04  0.21825806521E+04  0.25500000920E-02 0.  1.
    10030    2    1    2    0    0  0.00000000000E+00  0.00000000000E+00 -0.18515631609E+04  0.25135981432E+04  0.16999674958E+04 0.  0.
        4    1    3    3  502    0  0.71413818456E+03 -0.45974593015E+03 -0.97506833485E+03  0.12931046120E+04  0.12699999809E+01 0.  1.
       -4    1    3    3    0  502 -0.71413818456E+03  0.45974593015E+03 -0.87649482605E+03  0.12204935313E+04  0.12699999809E+01 0. -1.
</event>
<event>
 5   0  0.1441756E-05  0.1700491E+04  0.7818609E-02  0.8761085E-01
        2   -1    0    0  501    0  0.00000000000E+00  0.00000000000E+00  0.13642409410E+04  0.13642409410E+04  0.25500000920E-02 0. -1.
       -2   -1    0    0    0  501  0.00000000000E+00  0.00000000000E+00 -0.52990423708E+03  0.52990423709E+03  0.25500000920E-02 0.  1.
    10030    2    1    2    0    0  0.00000000000E+00  0.00000000000E+00  0.83433670396E+03  0.18941451781E+04  0.17004905822E+04 0.  0.
        5    1    3    3  502    0 -0.37897984714E+03 -0.30283377119E+03 -0.36060576763E+03  0.60447715189E+03  0.46999998093E+01 0.  1.
       -5    1    3    3    0  502  0.37897984714E+03  0.30283377119E+03  0.11949424716E+04  0.12896680262E+04  0.46999998093E+01 0. -1.
</event>
<event>
 5   0  0.1419012E-05  0.1699822E+04  0.7818609E-02  0.8761466E-01
       -2   -1    0    0    0  501  0.00000000000E+00  0.00000000000E+00  0.14466605824E+04  0.14466605824E+04  0.25500000920E-02 0.  1.
        2   -1    0    0  501    0  0.00000000000E+00  0.00000000000E+00 -0.49932129272E+03  0.49932129273E+03  0.25500000920E-02 0. -1.
    10030    2    1    2    0    0  0.00000000000E+00  0.00000000000E+00  0.94733928964E+03  0.19459818751E+04  0.16998216755E+04 0.  0.
        4    1    3    3  502    0  0.27793372319E+03  0.44250494596E+03 -0.29368890985E+03  0.59942686823E+03  0.12699999809E+01 0. -1.
       -4    1    3    3    0  502 -0.27793372319E+03 -0.44250494596E+03  0.12410281995E+04  0.13465550069E+04  0.12699999809E+01 0.  1.
</event>
<event>
 5   0  0.1374441E-05  0.1698895E+04  0.7818609E-02  0.8761995E-01
        2   -1    0    0  501    0  0.00000000000E+00  0.00000000000E+00  0.17362436375E+04  0.17362436375E+04  0.25500000920E-02 0.  1.
       -2   -1    0    0    0  501  0.00000000000E+00  0.00000000000E+00 -0.41558764516E+03  0.41558764517E+03  0.25500000920E-02 0. -1.
    10030    2    1    2    0    0  0.00000000000E+00  0.00000000000E+00  0.13206559924E+04  0.21518312827E+04  0.16988954114E+04 0.  0.
        1    1    3    3  502    0 -0.38657310411E+03  0.75307908521E+03  0.74984157980E+03  0.11308533363E+04  0.50400001928E-02 0.  1.
       -1    1    3    3    0  502  0.38657310411E+03 -0.75307908521E+03  0.57081441257E+03  0.10209779464E+04  0.50400001928E-02 0. -1.
</event>
<event>
 5   0  0.7476457E-06  0.1700370E+04  0.7818609E-02  0.8761153E-01
        1   -1    0    0  501    0  0.00000000000E+00  0.00000000000E+00  0.45129963037E+03  0.45129963040E+03  0.50400001928E-02 0. -1.
       -1   -1    0    0    0  501  0.00000000000E+00  0.00000000000E+00 -0.16016289555E+04  0.16016289555E+04  0.50400001928E-02 0.  1.
    10030    2    1    2    0    0  0.00000000000E+00  0.00000000000E+00 -0.11503293251E+04  0.20529285859E+04  0.17003700252E+04 0.  0.
        2    1    3    3  502    0 -0.26586569257E+03 -0.49157658680E+02  0.39801125137E+03  0.48115901541E+03  0.25500000920E-02 0. -1.
       -2    1    3    3    0  502  0.26586569257E+03  0.49157658680E+02 -0.15483405765E+04  0.15717695705E+04  0.25500000920E-02 0.  1.
</event>
<event>
 5   0  0.1435301E-05  0.1700541E+04  0.7818609E-02  0.8761056E-01
       -2   -1    0    0    0  501  0.00000000000E+00  0.00000000000E+00  0.31143447456E+03  0.31143447457E+03  0.25500000920E-02 0. -1.
        2   -1    0    0  501    0  0.00000000000E+00  0.00000000000E+00 -0.23213860717E+04  0.23213860717E+04  0.25500000920E-02 0.  1.
    10030    2    1    2    0    0  0.00000000000E+00  0.00000000000E+00 -0.20099515971E+04  0.26328205463E+04  0.17005406805E+04 0.  0.
        2    1    3    3  502    0 -0.81437120215E+03 -0.20229447253E+03 -0.79248984705E+03  0.11541939465E+04  0.25500000920E-02 0. -1.
       -2    1    3    3    0  502  0.81437120215E+03  0.20229447253E+03 -0.12174617501E+04  0.14786265997E+04  0.25500000920E-02 0.  1.
</event>
<event>
 5   0  0.1423543E-05  0.1697759E+04  0.7818609E-02  0.8762643E-01
       -2   -1    0    0    0  501  0.00000000000E+00  0.00000000000E+00  0.42851853397E+03  0.42851853397E+03  0.25500000920E-02 0.  1.
        2   -1    0    0  501    0  0.00000000000E+00  0.00000000000E+00 -0.16815997367E+04  0.16815997367E+04  0.25500000920E-02 0. -1.
    10030    2    1    2    0    0  0.00000000000E+00  0.00000000000E+00 -0.12530812028E+04  0.21101182707E+04  0.16977592926E+04 0.  0.
        3    1    3    3  502    0 -0.80302264531E+03  0.13614445054E+03 -0.32924444857E+03  0.87851158069E+03  0.10100000352E+00 0.  1.
       -3    1    3    3    0  502  0.80302264531E+03 -0.13614445054E+03 -0.92383675419E+03  0.12316066900E+04  0.10100000352E+00 0. -1.
</event>
<event>
 5   0  0.1441756E-05  0.1700642E+04  0.7818609E-02  0.8760998E-01
       -2   -1    0    0    0  501  0.00000000000E+00  0.00000000000E+00  0.67415215779E+03  0.67415215780E+03  0.25500000920E-02 0.  1.
        2   -1    0    0  501    0  0.00000000000E+00  0.00000000000E+00 -0.10725256741E+04  0.10725256741E+04  0.25500000920E-02 0. -1.
    10030    2    1    2    0    0  0.00000000000E+00  0.00000000000E+00 -0.39837351635E+03  0.17466778319E+04  0.17006416407E+04 0.  0.
        5    1    3    3  502    0  0.80311246000E+02 -0.28332481966E+03 -0.10184644917E+04  0.10601956709E+04  0.46999998093E+01 0. -1.
       -5    1    3    3    0  502 -0.80311246000E+02  0.28332481966E+03  0.62009097539E+03  0.68648216104E+03  0.46999998093E+01 0.  1.
</event>
<event>
 5   0  0.1374441E-05  0.1702900E+04  0.7818609E-02  0.8759712E-01
       -2   -1    0    0    0  501  0.00000000000E+00  0.00000000000E+00  0.38896641060E+03  0.38896641061E+03  0.25500000920E-02 0.  1.
        2   -1    0    0  501    0  0.00000000000E+00  0.00000000000E+00 -0.18638290200E+04  0.18638290200E+04  0.25500000920E-02 0. -1.
    10030    2    1    2    0    0  0.00000000000E+00  0.00000000000E+00 -0.14748626094E+04  0.22527954306E+04  0.17028997433E+04 0.  0.
        1    1    3    3  502    0 -0.18792336440E+03  0.36673004437E+03  0.24826257582E+03  0.48108255311E+03  0.50400001928E-02 0.  1.
       -1    1    3    3    0  502  0.18792336440E+03 -0.36673004437E+03 -0.17231251853E+04  0.17717128775E+04  0.50400001928E-02 0. -1.
</event>
<event>
 5   0  0.7082527E-06  0.1699912E+04  0.7818609E-02  0.8761414E-01
        1   -1    0    0  501    0  0.00000000000E+00  0.00000000000E+00  0.12222897561E+04  0.12222897561E+04  0.50400001928E-02 0.  1.
       -1   -1    0    0    0  501  0.00000000000E+00  0.00000000000E+00 -0.59104262369E+03  0.59104262371E+03  0.50400001928E-02 0. -1.
    10030    2    1    2    0    0  0.00000000000E+00  0.00000000000E+00  0.63124713241E+03  0.18133323798E+04  0.16999121676E+04 0.  0.
        1    1    3    3  502    0 -0.17002263969E+03 -0.30086228962E+03  0.11439650671E+04  0.11950238032E+04  0.50400001928E-02 0.  1.
       -1    1    3    3    0  502  0.17002263969E+03  0.30086228962E+03 -0.51271793473E+03  0.61830857664E+03  0.50400001928E-02 0. -1.
</event>
<event>
 5   0  0.1435301E-05  0.1694559E+04  0.7818609E-02  0.8764473E-01
       -2   -1    0    0    0  501  0.00000000000E+00  0.00000000000E+00  0.57826943708E+03  0.57826943708E+03  0.25500000920E-02 0. -1.
        2   -1    0    0  501    0  0.00000000000E+00  0.00000000000E+00 -0.12414330758E+04  0.12414330758E+04  0.25500000920E-02 0.  1.
    10030    2    1    2    0    0  0.00000000000E+00  0.00000000000E+00 -0.66316363872E+03  0.18197025129E+04  0.16945593007E+04 0.  0.
        2    1    3    3  502    0 -0.23829530820E+03  0.40042173975E+03  0.42832211183E+03  0.63291551969E+03  0.25500000920E-02 0. -1.
       -2    1    3    3    0  502  0.23829530820E+03 -0.40042173975E+03 -0.10914857505E+04  0.11867869932E+04  0.25500000920E-02 0.  1.
</event>
<event>
 5   0  0.7461128E-06  0.1698511E+04  0.7818609E-02  0.8762214E-01
        1   -1    0    0  501    0  0.00000000000E+00  0.00000000000E+00  0.91468338161E+03  0.91468338162E+03  0.50400001928E-02 0.  1.
       -1   -1    0    0    0  501  0.00000000000E+00  0.00000000000E+00 -0.78850753750E+03  0.78850753751E+03  0.50400001928E-02 0. -1.
    10030    2    1    2    0    0  0.00000000000E+00  0.00000000000E+00  0.12617584411E+03  0.17031909191E+04  0.16985108076E+04 0.  0.
        3    1    3    3  502    0 -0.16525502757E+03  0.73958917107E+03  0.44746300780E+03  0.88007074696E+03  0.10100000352E+00 0. -1.
       -3    1    3    3    0  502  0.16525502757E+03 -0.73958917107E+03 -0.32128716369E+03  0.82312017218E+03  0.10100000352E+00 0.  1.
</event>
<event>
 5   0  0.1441756E-05  0.1699671E+04  0.7818609E-02  0.8761552E-01
        2   -1    0    0  501    0  0.00000000000E+00  0.00000000000E+00  0.13377967954E+04  0.13377967955E+04  0.25500000920E-02 0. -1.
       -2   -1    0    0    0  501  0.00000000000E+00  0.00000000000E+00 -0.53985804323E+03  0.53985804324E+03  0.25500000920E-02 0.  1.
    10030    2    1    2    0    0  0.00000000000E+00  0.00000000000E+00  0.79793875222E+03  0.18776548387E+04  0.16996709802E+04 0.  0.
        5    1    3    3  502    0 -0.65870037911E+02  0.20422168224E+03  0.13073615061E+04  0.13248628438E+04  0.46999998093E+01 0. -1.
       -5    1    3    3    0  502  0.65870037911E+02 -0.20422168224E+03 -0.50942275388E+03  0.55279199484E+03  0.46999998093E+01 0.  1.
</event>
<event>
 5   0  0.7455669E-06  0.1699919E+04  0.7818609E-02  0.8761411E-01
       -1   -1    0    0    0  501  0.00000000000E+00  0.00000000000E+00  0.76141310728E+03  0.76141310730E+03  0.50400001928E-02 0.  1.
        1   -1    0    0  501    0  0.00000000000E+00  0.00000000000E+00 -0.94880266342E+03  0.94880266344E+03  0.50400001928E-02 0. -1.
    10030    2    1    2    0    0  0.00000000000E+00  0.00000000000E+00 -0.18738955614E+03  0.17102157707E+04  0.16999185677E+04 0.  0.
        4    1    3    3  502    0  0.55927141997E+02 -0.65217626431E+03  0.45177715513E+03  0.79534013839E+03  0.12699999809E+01 0.  1.
       -4    1    3    3    0  502 -0.55927141997E+02  0.65217626431E+03 -0.63916671128E+03  0.91487563234E+03  0.12699999809E+01 0. -1.
</event>
<event>
 5   0  0.1419012E-05  0.1699833E+04  0.7818609E-02  0.8761459E-01
       -2   -1    0    0    0  501  0.00000000000E+00  0.00000000000E+00  0.66652611811E+03  0.66652611811E+03  0.25500000920E-02 0. -1.
        2   -1    0    0  501    0  0.00000000000E+00  0.00000000000E+00 -0.10837661415E+04  0.10837661416E+04  0.25500000920E-02 0.  1.
    10030    2    1    2    0    0  0.00000000000E+00  0.00000000000E+00 -0.41724002344E+03  0.17502922597E+04  0.16998334498E+04 0.  0.
        4    1    3    3  502    0  0.13856164168E+03 -0.82919144350E+03 -0.80016376124E+02  0.84448920175E+03  0.12699999809E+01 0.  1.
       -4    1    3    3    0  502 -0.13856164168E+03  0.82919144350E+03 -0.33722364732E+03  0.90580305792E+03  0.12699999809E+01 0. -1.
</event>
<event>
 5   0  0.7082527E-06  0.1698345E+04  0.7818609E-02  0.8762309E-01
       -1   -1    0    0    0  501  0.00000000000E+00  0.00000000000E+00  0.34923005612E+03  0.34923005615E+03  0.50400001928E-02 0.  1.
        1   -1    0    0  501    0  0.00000000000E+00  0.00000000000E+00 -0.20648103201E+04  0.20648103202E+04  0.50400001928E-02 0. -1.
    10030    2    1    2    0    0  0.00000000000E+00  0.00000000000E+00 -0.17155802640E+04  0.24140403763E+04  0.16983448696E+04 0.  0.
        1    1    3    3  502    0 -0.46530444167E+03  0.37774684482E+02 -0.18660468581E+04  0.19235555690E+04  0.50400001928E-02 0. -1.
       -1    1    3    3    0  502  0.46530444167E+03 -0.37774684482E+02  0.15046659411E+03  0.49048480730E+03  0.50400001928E-02 0.  1.
</event>
<event>
 5   0  0.1374441E-05  0.1700562E+04  0.7818609E-02  0.8761044E-01
        2   -1    0    0  501    0  0.00000000000E+00  0.00000000000E+00  0.17114376118E+04  0.17114376118E+04  0.25500000920E-02 0. -1.
       -2   -1    0    0    0  501  0.00000000000E+00  0.00000000000E+00 -0.42243880906E+03  0.42243880907E+03  0.25500000920E-02 0.  1.
    10030    2    1    2    0    0  0.00000000000E+00  0.00000000000E+00  0.12889988027E+04  0.21338764208E+04  0.17005618677E+04 0.  0.
        1    1    3    3  502    0  0.35509943706E+02 -0.83614924979E+03  0.45598106488E+03  0.95306099259E+03  0.50400001928E-02 0.  1.
       -1    1    3    3    0  502 -0.35509943706E+02  0.83614924979E+03  0.83301773781E+03  0.11808154282E+04  0.50400001928E-02 0. -1.
</event>
<event>
 5   0  0.7455669E-06  0.1699782E+04  0.7818609E-02  0.8761489E-01
        1   -1    0    0  501    0  0.00000000000E+00  0.00000000000E+00  0.17525874654E+04  0.17525874654E+04  0.50400001928E-02 0.  1.
       -1   -1    0    0    0  501  0.00000000000E+00  0.00000000000E+00 -0.41214198985E+03  0.41214198988E+03  0.50400001928E-02 0. -1.
    10030    2    1    2    0    0  0.00000000000E+00  0.00000000000E+00  0.13404454756E+04  0.21647294553E+04  0.16997822042E+04 0.  0.
        4    1    3    3  502    0  0.46037271793E+03 -0.32975975301E+03 -0.13686869815E+03  0.58259693404E+03  0.12699999809E+01 0. -1.
       -4    1    3    3    0  502 -0.46037271793E+03  0.32975975301E+03  0.14773141737E+04  0.15821325213E+04  0.12699999809E+01 0.  1.
</event>
<event>
 5   0  0.1423543E-05  0.1700040E+04  0.7818609E-02  0.8761341E-01
        2   -1    0    0  501    0  0.00000000000E+00  0.00000000000E+00  0.16835108430E+04  0.16835108430E+04  0.25500000920E-02 0. -1.
       -2   -1    0    0    0  501  0.00000000000E+00  0.00000000000E+00 -0.42918304559E+03  0.42918304559E+03  0.25500000920E-02 0.  1.
    10030    2    1    2    0    0  0.00000000000E+00  0.00000000000E+00  0.12543277975E+04  0.21126938886E+04  0.17000403653E+04 0.  0.
        3    1    3    3  502    0 -0.14630256113E+03 -0.72043373529E+03  0.11574843681E+04  0.13712035877E+04  0.10100000352E+00 0.  1.
       -3    1    3    3    0  502  0.14630256113E+03  0.72043373529E+03  0.96843429333E+02  0.74149030091E+03  0.10100000352E+00 0. -1.
</event>
<event>
 5   0  0.7461128E-06  0.1700300E+04  0.7818609E-02  0.8761193E-01
       -1   -1    0    0    0  501  0.00000000000E+00  0.00000000000E+00  0.10812678506E+04  0.10812678507E+04  0.50400001928E-02 0. -1.
        1   -1    0    0  501    0  0.00000000000E+00  0.00000000000E+00 -0.66843307993E+03  0.66843307995E+03  0.50400001928E-02 0.  1.
    10030    2    1    2    0    0  0.00000000000E+00  0.00000000000E+00  0.41283477072E+03  0.17497009306E+04  0.17003002084E+04 0.  0.
        3    1    3    3  502    0 -0.12059956042E+02  0.55673290983E+02 -0.66646695405E+03  0.66889697930E+03  0.10100000352E+00 0.  1.
       -3    1    3    3    0  502  0.12059956042E+02 -0.55673290983E+02  0.10793017248E+04  0.10808039513E+04  0.10100000352E+00 0. -1.
</event>
<event>
 5   0  0.1374441E-05  0.1700282E+04  0.7818609E-02  0.8761203E-01
       -2   -1    0    0    0  501  0.00000000000E+00  0.00000000000E+00  0.74426456260E+03  0.74426456261E+03  0.25500000920E-02 0. -1.
        2   -1    0    0  501    0  0.00000000000E+00  0.00000000000E+00 -0.97107948590E+03  0.97107948591E+03  0.25500000920E-02 0.  1.
    10030    2    1    2    0    0  0.00000000000E+00  0.00000000000E+00 -0.22681492330E+03  0.17153440485E+04  0.17002823869E+04 0.  0.
        1    1    3    3  502    0  0.62603999691E+03  0.20239427575E+03  0.42973934700E+03  0.78585331136E+03  0.50400001928E-02 0. -1.
       -1    1    3    3    0  502 -0.62603999691E+03 -0.20239427575E+03 -0.65655427030E+03  0.92949073716E+03  0.50400001928E-02 0.  1.
</event>
<event>
 5   0  0.7455669E-06  0.1699284E+04  0.7818609E-02  0.8761773E-01
        1   -1    0    0  501    0  0.00000000000E+00  0.00000000000E+00  0.11581206723E+04  0.11581206723E+04  0.50400001928E-02 0.  1.
       -1   -1    0    0    0  501  0.00000000000E+00  0.00000000000E+00 -0.62333019714E+03  0.62333019716E+03  0.50400001928E-02 0. -1.
    10030    2    1    2    0    0  0.00000000000E+00  0.00000000000E+00  0.53479047515E+03  0.17814508695E+04  0.16992840693E+04 0.  0.
        4    1    3    3  502    0  0.14471968333E+03 -0.31847999047E+03  0.10791194491E+04  0.11344045528E+04  0.12699999809E+01 0.  1.
       -4    1    3    3    0  502 -0.14471968333E+03  0.31847999047E+03 -0.54432897398E+03  0.64704631665E+03  0.12699999809E+01 0. -1.
</event>
<event>
 5   0  0.1423543E-05  0.1699544E+04  0.7818609E-02  0.8761625E-01
       -2   -1    0    0    0  501  0.00000000000E+00  0.00000000000E+00  0.76359483469E+03  0.76359483469E+03  0.25500000920E-02 0. -1.
        2   -1    0    0  501    0  0.00000000000E+00  0.00000000000E+00 -0.94567448040E+03  0.94567448041E+03  0.25500000920E-02 0.  1.
    10030    2    1    2    0    0  0.00000000000E+00  0.00000000000E+00 -0.18207964572E+03  0.17092693151E+04  0.16995436429E+04 0.  0.
        3    1    3    3  502    0  0.46100434447E+03 -0.66882075821E+03 -0.34199918438E+03  0.88136806417E+03  0.10100000352E+00 0.  1.
       -3    1    3    3    0  502 -0.46100434447E+03  0.66882075821E+03  0.15991953866E+03  0.82790125092E+03  0.10100000352E+00 0. -1.
</event>
<event>
 5   0  0.7455669E-06  0.1700868E+04  0.7818609E-02  0.8760870E-01
       -1   -1    0    0    0  501  0.00000000000E+00  0.00000000000E+00  0.53541258763E+03  0.53541258765E+03  0.50400001928E-02 0.  1.
        1   -1    0    0  501    0  0.00000000000E+00  0.00000000000E+00 -0.13508048406E+04  0.13508048406E+04  0.50400001928E-02 0. -1.
    10030    2    1    2    0    0  0.00000000000E+00  0.00000000000E+00 -0.81539225299E+03  0.18862174283E+04  0.17008679139E+04 0.  0.
        4    1    3    3  502    0 -0.75790039001E+02  0.81841071729E+03 -0.16550263780E+03  0.83841097810E+03  0.12699999809E+01 0.  1.
       -4    1    3    3    0  502  0.75790039001E+02 -0.81841071729E+03 -0.64988961519E+03  0.10478064502E+04  0.12699999809E+01 0. -1.
</event>
<event>
 5   0  0.5229750E-06  0.1697471E+04  0.7818609E-02  0.8762808E-01
        3   -1    0    0  501    0  0.00000000000E+00  0.00000000000E+00  0.80868857739E+03  0.80868858370E+03  0.10100000352E+00 0. -1.
       -3   -1    0    0    0  501  0.00000000000E+00  0.00000000000E+00 -0.89076585109E+03  0.89076585682E+03  0.10100000352E+00 0.  1.
    10030    2    1    2    0    0  0.00000000000E+00  0.00000000000E+00 -0.82077273702E+02  0.16994544405E+04  0.16974712712E+04 0.  0.
        2    1    3    3  502    0 -0.60399601999E+03 -0.17312827004E+02  0.55567888450E+03  0.82090800266E+03  0.25500000920E-02 0. -1.
       -2    1    3    3    0  502  0.60399601999E+03  0.17312827004E+02 -0.63775615821E+03  0.87854643786E+03  0.25500000920E-02 0.  1.
</event>
<event>
 5   0  0.7455669E-06  0.1701355E+04  0.7818609E-02  0.8760592E-01
       -1   -1    0    0    0  501  0.00000000000E+00  0.00000000000E+00  0.83955180418E+03  0.83955180420E+03  0.50400001928E-02 0.  1.
        1   -1    0    0  501    0  0.00000000000E+00  0.00000000000E+00 -0.86195061669E+03  0.86195061671E+03  0.50400001928E-02 0. -1.
    10030    2    1    2    0    0  0.00000000000E+00  0.00000000000E+00 -0.22398812511E+02  0.17015024209E+04  0.17013549840E+04 0.  0.
        4    1    3    3  502    0  0.23256420786E+03  0.69091756410E+03  0.42724181427E+03  0.84497950976E+03  0.12699999809E+01 0.  1.
       -4    1    3    3    0  502 -0.23256420786E+03 -0.69091756410E+03 -0.44964062679E+03  0.85652291114E+03  0.12699999809E+01 0. -1.
</event>
<event>
 5   0  0.7583716E-06  0.1699596E+04  0.7818609E-02  0.8761595E-01
       -1   -1    0    0    0  501  0.00000000000E+00  0.00000000000E+00  0.26144507459E+03  0.26144507464E+03  0.50400001928E-02 0.  1.
        1   -1    0    0  501    0  0.00000000000E+00  0.00000000000E+00 -0.27621740997E+04  0.27621740997E+04  0.50400001928E-02 0. -1.
    10030    2    1    2    0    0  0.00000000000E+00  0.00000000000E+00 -0.25007290251E+04  0.30236191743E+04  0.16995962033E+04 0.  0.
        5    1    3    3  502    0  0.82242234305E+03  0.14824719733E+03 -0.15246974573E+04  0.17387007126E+04  0.46999998093E+01 0. -1.
       -5    1    3    3    0  502 -0.82242234305E+03 -0.14824719733E+03 -0.97603156782E+03  0.12849184617E+04  0.46999998093E+01 0.  1.
</event>
<event>
 5   0  0.1435301E-05  0.1697425E+04  0.7818609E-02  0.8762834E-01
        2   -1    0    0  501    0  0.00000000000E+00  0.00000000000E+00  0.12593718970E+04  0.12593718970E+04  0.25500000920E-02 0. -1.
       -2   -1    0    0    0  501  0.00000000000E+00  0.00000000000E+00 -0.57196214073E+03  0.57196214074E+03  0.25500000920E-02 0.  1.
    10030    2    1    2    0    0  0.00000000000E+00  0.00000000000E+00  0.68740975631E+03  0.18313340378E+04  0.16974251633E+04 0.  0.
        2    1    3    3  502    0 -0.40664064252E+03  0.54839308544E+03 -0.20027524858E+03  0.71147857558E+03  0.25500000920E-02 0.  1.
       -2    1    3    3    0  502  0.40664064252E+03 -0.54839308544E+03  0.88768500489E+03  0.11198554622E+04  0.25500000920E-02 0. -1.
</event>
<event>
 5   0  0.1419012E-05  0.1703545E+04  0.7818609E-02  0.8759345E-01
       -2   -1    0    0    0  501  0.00000000000E+00  0.00000000000E+00  0.41895941662E+03  0.41895941663E+03  0.25500000920E-02 0.  1.
        2   -1    0    0  501    0  0.00000000000E+00  0.00000000000E+00 -0.17317112704E+04  0.17317112704E+04  0.25500000920E-02 0. -1.
    10030    2    1    2    0    0  0.00000000000E+00  0.00000000000E+00 -0.13127518538E+04  0.21506706870E+04  0.17035454131E+04 0.  0.
        4    1    3    3  502    0  0.73728689223E+03  0.20780181970E+03 -0.11266201916E+04  0.13623686089E+04  0.12699999809E+01 0. -1.
       -4    1    3    3    0  502 -0.73728689223E+03 -0.20780181970E+03 -0.18613166224E+03  0.78830207809E+03  0.12699999809E+01 0.  1.
</event>
<event>
 5   0  0.1441756E-05  0.1701924E+04  0.7818609E-02  0.8760268E-01
        2   -1    0    0  501    0  0.00000000000E+00  0.00000000000E+00  0.89789890395E+03  0.89789890395E+03  0.25500000920E-02 0.  1.
       -2   -1    0    0    0  501  0.00000000000E+00  0.00000000000E+00 -0.80647852953E+03  0.80647852953E+03  0.25500000920E-02 0. -1.
    10030    2    1    2    0    0  0.00000000000E+00  0.00000000000E+00  0.91420374424E+02  0.17043774335E+04  0.17019238382E+04 0.  0.
        5    1    3    3  502    0  0.43189178588E+03 -0.58548885909E+03  0.48769255694E+03  0.87589602061E+03  0.46999998093E+01 0.  1.
       -5    1    3    3    0  502 -0.43189178588E+03  0.58548885909E+03 -0.39627218252E+03  0.82848141287E+03  0.46999998093E+01 0. -1.
</event>
<event>
 5   0  0.1441756E-05  0.1700762E+04  0.7818609E-02  0.8760930E-01
        2   -1    0    0  501    0  0.00000000000E+00  0.00000000000E+00  0.16835767416E+04  0.16835767416E+04  0.25500000920E-02 0.  1.
       -2   -1    0    0    0  501  0.00000000000E+00  0.00000000000E+00 -0.42953086260E+03  0.42953086260E+03  0.25500000920E-02 0. -1.
    10030    2    1    2    0    0  0.00000000000E+00  0.00000000000E+00  0.12540458790E+04  0.21131076043E+04  0.17007623821E+04 0.  0.
        5    1    3    3  502    0 -0.46065448518E+03 -0.41389618150E+02  0.15136206686E+04  0.15827145269E+04  0.46999998093E+01 0.  1.
       -5    1    3    3    0  502  0.46065448518E+03  0.41389618150E+02 -0.25957478951E+03  0.53039307740E+03  0.46999998093E+01 0. -1.
</event>
<event>
 5   0  0.7455669E-06  0.1701118E+04  0.7818609E-02  0.8760727E-01
       -1   -1    0    0    0  501  0.00000000000E+00  0.00000000000E+00  0.49876707092E+03  0.49876707095E+03  0.50400001928E-02 0. -1.
        1   -1    0    0  501    0  0.00000000000E+00  0.00000000000E+00 -0.14504782405E+04  0.14504782405E+04  0.50400001928E-02 0.  1.
    10030    2    1    2    0    0  0.00000000000E+00  0.00000000000E+00 -0.95171116957E+03  0.19492453114E+04  0.17011182010E+04 0.  0.
        4    1    3    3  502    0  0.18318666052E+03  0.79382386044E+03 -0.19579741510E+03  0.83788538277E+03  0.12699999809E+01 0.  1.
       -4    1    3    3    0  502 -0.18318666052E+03 -0.79382386044E+03 -0.75591375446E+03  0.11113599287E+04  0.12699999809E+01 0. -1.
</event>
<event>
 5   0  0.7082527E-06  0.1700462E+04  0.7818609E-02  0.8761101E-01
       -1   -1    0    0    0  501  0.00000000000E+00  0.00000000000E+00  0.32124080096E+03  0.32124080099E+03  0.50400001928E-02 0.  1.
        1   -1    0    0  501    0  0.00000000000E+00  0.00000000000E+00 -0.22503144730E+04  0.22503144731E+04  0.50400001928E-02 0. -1.
    10030    2    1    2    0    0  0.00000000000E+00  0.00000000000E+00 -0.19290736721E+04  0.25715552740E+04  0.17004620828E+04 0.  0.
        1    1    3    3  502    0 -0.28421648591E+03  0.77384719025E+02  0.24161028882E+03  0.38097629492E+03  0.50400001928E-02 0.  1.
       -1    1    3    3    0  502  0.28421648591E+03 -0.77384719025E+02 -0.21706839609E+04  0.21905789791E+04  0.50400001928E-02 0. -1.
</event>
<event>
 5   0  0.1423543E-05  0.1699860E+04  0.7818609E-02  0.8761444E-01
        2   -1    0    0  501    0  0.00000000000E+00  0.00000000000E+00  0.96962228981E+03  0.96962228981E+03  0.25500000920E-02 0. -1.
       -2   -1    0    0    0  501  0.00000000000E+00  0.00000000000E+00 -0.74501278612E+03  0.74501278613E+03  0.25500000920E-02 0.  1.
    10030    2    1    2    0    0  0.00000000000E+00  0.00000000000E+00  0.22460950369E+03  0.17146350759E+04  0.16998599985E+04 0.  0.
        3    1    3    3  502    0  0.64435909138E+03  0.90655688619E+02  0.66383320880E+03  0.92956529186E+03  0.10100000352E+00 0. -1.
       -3    1    3    3    0  502 -0.64435909138E+03 -0.90655688619E+02 -0.43922370512E+03  0.78506978407E+03  0.10100000352E+00 0.  1.
</event>
<event>
 5   0  0.1374441E-05  0.1700564E+04  0.7818609E-02  0.8761043E-01
       -2   -1    0    0    0  501  0.00000000000E+00  0.00000000000E+00  0.11377116034E+04  0.11377116034E+04  0.25500000920E-02 0. -1.
        2   -1    0    0  501    0  0.00000000000E+00  0.00000000000E+00 -0.63546792147E+03  0.63546792147E+03  0.25500000920E-02 0.  1.
    10030    2    1    2    0    0  0.00000000000E+00  0.00000000000E+00  0.50224368196E+03  0.17731795249E+04  0.17005637040E+04 0.  0.
        1    1    3    3  502    0 -0.67803978606E+03 -0.17955675893E+03 -0.25002661906E+03  0.74464212306E+03  0.50400001928E-02 0.  1.
       -1    1    3    3    0  502  0.67803978606E+03  0.17955675893E+03  0.75227030103E+03  0.10285374018E+04  0.50400001928E-02 0. -1.
</event>
<event>
 5   0  0.1441756E-05  0.1700581E+04  0.7818609E-02  0.8761033E-01
        2   -1    0    0  501    0  0.00000000000E+00  0.00000000000E+00  0.10502226788E+04  0.10502226788E+04  0.25500000920E-02 0. -1.
       -2   -1    0    0    0  501  0.00000000000E+00  0.00000000000E+00 -0.68841985648E+03  0.68841985648E+03  0.25500000920E-02 0.  1.
    10030    2    1    2    0    0  0.00000000000E+00  0.00000000000E+00  0.36180282232E+03  0.17386425353E+04  0.17005812487E+04 0.  0.
        5    1    3    3  502    0 -0.78032469013E+01 -0.25505704382E+02 -0.68797875487E+03  0.68851164752E+03  0.46999998093E+01 0.  1.
       -5    1    3    3    0  502  0.78032469013E+01  0.25505704382E+02  0.10497815772E+04  0.10501308878E+04  0.46999998093E+01 0. -1.
</event>
<event>
 5   0  0.7461128E-06  0.1699638E+04  0.7818609E-02  0.8761571E-01
       -1   -1    0    0    0  501  0.00000000000E+00  0.00000000000E+00  0.60448018922E+03  0.60448018924E+03  0.50400001928E-02 0.  1.
        1   -1    0    0  501    0  0.00000000000E+00  0.00000000000E+00 -0.11947322288E+04  0.11947322288E+04  0.50400001928E-02 0. -1.
    10030    2    1    2    0    0  0.00000000000E+00  0.00000000000E+00 -0.59025203961E+03  0.17992124181E+04  0.16996375658E+04 0.  0.
        3    1    3    3  502    0 -0.13674027951E+03  0.39465092080E+03  0.48833106207E+03  0.64258422772E+03  0.10100000352E+00 0.  1.
       -3    1    3    3    0  502  0.13674027951E+03 -0.39465092080E+03 -0.10785831017E+04  0.11566281904E+04  0.10100000352E+00 0. -1.
</event>
<event>
 5   0  0.1435301E-05  0.1700821E+04  0.7818609E-02  0.8760896E-01
        2   -1    0    0  501    0  0.00000000000E+00  0.00000000000E+00  0.92079993122E+03  0.92079993122E+03  0.25500000920E-02 0.  1.
       -2   -1    0    0    0  501  0.00000000000E+00  0.00000000000E+00 -0.78540201011E+03  0.78540201012E+03  0.25500000920E-02 0. -1.
    10030    2    1    2    0    0  0.00000000000E+00  0.00000000000E+00  0.13539792111E+03  0.17062019413E+04  0.17008211157E+04 0.  0.
        2    1    3    3  502    0 -0.13519277850E+03 -0.83176760616E+03  0.18244474276E+03  0.86220677461E+03  0.25500000920E-02 0.  1.
       -2    1    3    3    0  502  0.13519277850E+03  0.83176760616E+03 -0.47046821651E+02  0.84399516672E+03  0.25500000920E-02 0. -1.
</event>
<event>
 5   0  0.7082527E-06  0.1699066E+04  0.7818609E-02  0.8761897E-01
        1   -1    0    0  501    0  0.00000000000E+00  0.00000000000E+00  0.50429911842E+03  0.50429911844E+03  0.50400001928E-02 0. -1.
       -1   -1    0    0    0  501  0.00000000000E+00  0.00000000000E+00 -0.14311081170E+04  0.14311081170E+04  0.50400001928E-02 0.  1.
    10030    2    1    2    0    0  0.00000000000E+00  0.00000000000E+00 -0.92680899854E+03  0.19354072354E+04  0.16990662869E+04 0.  0.
        1    1    3    3  502    0 -0.44242031505E+03 -0.53282588932E+03  0.97036874393E+02  0.69932490197E+03  0.50400001928E-02 0. -1.
       -1    1    3    3    0  502  0.44242031505E+03  0.53282588932E+03 -0.10238458729E+04  0.12360823334E+04  0.50400001928E-02 0.  1.
</event>
<event>
 5   0  0.1423543E-05  0.1699036E+04  0.7818609E-02  0.8761914E-01
        2   -1    0    0  501    0  0.00000000000E+00  0.00000000000E+00  0.68833309715E+03  0.68833309716E+03  0.25500000920E-02 0.  1.
       -2   -1    0    0    0  501  0.00000000000E+00  0.00000000000E+00 -0.10484472060E+04  0.10484472060E+04  0.25500000920E-02 0. -1.
    10030    2    1    2    0    0  0.00000000000E+00  0.00000000000E+00 -0.36011410884E+03  0.17367803031E+04  0.16990360944E+04 0.  0.
        3    1    3    3  502    0 -0.51426292173E+03 -0.51190144594E+03  0.27153930760E+03  0.77475354068E+03  0.10100000352E+00 0.  1.
       -3    1    3    3    0  502  0.51426292173E+03  0.51190144594E+03 -0.63165341644E+03  0.96202676247E+03  0.10100000352E+00 0. -1.
</event>
<event>
 5   0  0.1435301E-05  0.1699422E+04  0.7818609E-02  0.8761694E-01
        2   -1    0    0  501    0  0.00000000000E+00  0.00000000000E+00  0.13839336649E+04  0.13839336649E+04  0.25500000920E-02 0.  1.
       -2   -1    0    0    0  501  0.00000000000E+00  0.00000000000E+00 -0.52170763797E+03  0.52170763798E+03  0.25500000920E-02 0. -1.
    10030    2    1    2    0    0  0.00000000000E+00  0.00000000000E+00  0.86222602695E+03  0.19056413029E+04  0.16994219764E+04 0.  0.
        2    1    3    3  502    0 -0.76016336842E+03 -0.37967673640E+03  0.42836798294E+03  0.95157863556E+03  0.25500000920E-02 0.  1.
       -2    1    3    3    0  502  0.76016336842E+03  0.37967673640E+03  0.43385804400E+03  0.95406266733E+03  0.25500000920E-02 0. -1.
</event>
<event>
 5   0  0.7082527E-06  0.1700293E+04  0.7818609E-02  0.8761197E-01
       -1   -1    0    0    0  501  0.00000000000E+00  0.00000000000E+00  0.80412217210E+03  0.80412217211E+03  0.50400001928E-02 0.  1.
        1   -1    0    0  501    0  0.00000000000E+00  0.00000000000E+00 -0.89880474250E+03  0.89880474252E+03  0.50400001928E-02 0. -1.
    10030    2    1    2    0    0  0.00000000000E+00  0.00000000000E+00 -0.94682570407E+02  0.17029269146E+04  0.17002927064E+04 0.  0.
        1    1    3    3  502    0  0.35610254605E+03 -0.40090096200E+03 -0.70807406076E+03  0.88820013521E+03  0.50400001928E-02 0. -1.
       -1    1    3    3    0  502 -0.35610254605E+03  0.40090096200E+03  0.61339149035E+03  0.81472677942E+03  0.50400001928E-02 0.  1.
</event>
<event>
 5   0  0.1441756E-05  0.1699042E+04  0.7818609E-02  0.8761911E-01
        2   -1    0    0  501    0  0.00000000000E+00  0.00000000000E+00  0.74600999466E+03  0.74600999466E+03  0.25500000920E-02 0. -1.
       -2   -1    0    0    0  501  0.00000000000E+00  0.00000000000E+00 -0.96739451360E+03  0.96739451360E+03  0.25500000920E-02 0.  1.
    10030    2    1    2    0    0  0.00000000000E+00  0.00000000000E+00 -0.22138451894E+03  0.17134045083E+04  0.16990420547E+04 0.  0.
        5    1    3    3  502    0 -0.21412643628E+03 -0.65863165191E+03  0.38541970664E+03  0.79260092346E+03  0.46999998093E+01 0. -1.
       -5    1    3    3    0  502  0.21412643628E+03  0.65863165191E+03 -0.60680422558E+03  0.92080358481E+03  0.46999998093E+01 0.  1.
</event>
<event>
 5   0  0.1435301E-05  0.1707258E+04  0.7818609E-02  0.8757235E-01
       -2   -1    0    0    0  501  0.00000000000E+00  0.00000000000E+00  0.55697109469E+03  0.55697109469E+03  0.25500000920E-02 0. -1.
        2   -1    0    0  501    0  0.00000000000E+00  0.00000000000E+00 -0.13082956758E+04  0.13082956758E+04  0.25500000920E-02 0.  1.
    10030    2    1    2    0    0  0.00000000000E+00  0.00000000000E+00 -0.75132458114E+03  0.18652667705E+04  0.17072584746E+04 0.  0.
        2    1    3    3  502    0  0.49373069887E+03  0.44388055602E+03  0.21054285815E+03  0.69651148314E+03  0.25500000920E-02 0. -1.
       -2    1    3    3    0  502 -0.49373069887E+03 -0.44388055602E+03 -0.96186743929E+03  0.11687552874E+04  0.25500000920E-02 0.  1.
</event>
<event>
 5   0  0.1441756E-05  0.1698393E+04  0.7818609E-02  0.8762281E-01
        2   -1    0    0  501    0  0.00000000000E+00  0.00000000000E+00  0.62494078315E+03  0.62494078315E+03  0.25500000920E-02 0. -1.
       -2   -1    0    0    0  501  0.00000000000E+00  0.00000000000E+00 -0.11539251390E+04  0.11539251390E+04  0.25500000920E-02 0.  1.
    10030    2    1    2    0    0  0.00000000000E+00  0.00000000000E+00 -0.52898435587E+03  0.17788659222E+04  0.16983932172E+04 0.  0.
        5    1    3    3  502    0 -0.24705990644E+03 -0.54375462221E+03  0.36776998689E+03  0.70141609605E+03  0.46999998093E+01 0. -1.
       -5    1    3    3    0  502  0.24705990644E+03  0.54375462221E+03 -0.89675434277E+03  0.10774498261E+04  0.46999998093E+01 0.  1.
</event>
<event>
 5   0  0.7082527E-06  0.1700249E+04  0.7818609E-02  0.8761222E-01
       -1   -1    0    0    0  501  0.00000000000E+00  0.00000000000E+00  0.11166483621E+04  0.11166483621E+04  0.50400001928E-02 0. -1.
        1   -1    0    0  501    0  0.00000000000E+00  0.00000000000E+00 -0.64721510923E+03  0.64721510925E+03  0.50400001928E-02 0.  1.
    10030    2    1    2    0    0  0.00000000000E+00  0.00000000000E+00  0.46943325284E+03  0.17638634713E+04  0.17002490308E+04 0.  0.
        1    1    3    3  502    0  0.58539734925E+03 -0.46785800119E+03  0.65114598747E+03  0.99275992204E+03  0.50400001928E-02 0. -1.
       -1    1    3    3    0  502 -0.58539734925E+03  0.46785800119E+03 -0.18171273463E+03  0.77110354930E+03  0.50400001928E-02 0.  1.
</event>
<event>
 5   0  0.1419012E-05  0.1702443E+04  0.7818609E-02  0.8759972E-01
       -2   -1    0    0    0  501  0.00000000000E+00  0.00000000000E+00  0.10508369524E+04  0.10508369524E+04  0.25500000920E-02 0.  1.
        2   -1    0    0  501    0  0.00000000000E+00  0.00000000000E+00 -0.68952501077E+03  0.68952501078E+03  0.25500000920E-02 0. -1.
    10030    2    1    2    0    0  0.00000000000E+00  0.00000000000E+00  0.36131194158E+03  0.17403619631E+04  0.17024433746E+04 0.  0.
        4    1    3    3  502    0 -0.50743897331E+02 -0.14249500979E+03 -0.67567511573E+03  0.69240035084E+03  0.12699999809E+01 0. -1.
       -4    1    3    3    0  502  0.50743897331E+02  0.14249500979E+03  0.10369870573E+04  0.10479616123E+04  0.12699999809E+01 0.  1.
</event>
<event>
 5   0  0.1423543E-05  0.1700235E+04  0.7818609E-02  0.8761230E-01
        2   -1    0    0  501    0  0.00000000000E+00  0.00000000000E+00  0.17213284064E+04  0.17213284064E+04  0.25500000920E-02 0.  1.
       -2   -1    0    0    0  501  0.00000000000E+00  0.00000000000E+00 -0.41985025685E+03  0.41985025686E+03  0.25500000920E-02 0. -1.
    10030    2    1    2    0    0  0.00000000000E+00  0.00000000000E+00  0.13014781495E+04  0.21411786632E+04  0.17002354820E+04 0.  0.
        3    1    3    3  502    0 -0.35767537306E+03  0.43944288269E+03 -0.14738843895E+03  0.58546142638E+03  0.10100000352E+00 0. -1.
       -3    1    3    3    0  502  0.35767537306E+03 -0.43944288269E+03  0.14488665885E+04  0.15557172368E+04  0.10100000352E+00 0.  1.
</event>
<event>
 5   0  0.1441756E-05  0.1700082E+04  0.7818609E-02  0.8761317E-01
        2   -1    0    0  501    0  0.00000000000E+00  0.00000000000E+00  0.54656827916E+03  0.54656827917E+03  0.25500000920E-02 0. -1.
       -2   -1    0    0    0  501  0.00000000000E+00  0.00000000000E+00 -0.13220124145E+04  0.13220124145E+04  0.25500000920E-02 0.  1.
    10030    2    1    2    0    0  0.00000000000E+00  0.00000000000E+00 -0.77544413533E+03  0.18685806937E+04  0.17000824103E+04 0.  0.
        5    1    3    3  502    0  0.67107753076E+03 -0.14239801118E+03 -0.93939049936E+03  0.11632277705E+04  0.46999998093E+01 0.  1.
       -5    1    3    3    0  502 -0.67107753076E+03  0.14239801118E+03  0.16394636403E+03  0.70535292312E+03  0.46999998093E+01 0. -1.
</event>
<event>
 5   0  0.1423543E-05  0.1698896E+04  0.7818609E-02  0.8761994E-01
        2   -1    0    0  501    0  0.00000000000E+00  0.00000000000E+00  0.22590615131E+04  0.22590615131E+04  0.25500000920E-02 0. -1.
       -2   -1    0    0    0  501  0.00000000000E+00  0.00000000000E+00 -0.31940776859E+03  0.31940776860E+03  0.25500000920E-02 0.  1.
    10030    2    1    2    0    0  0.00000000000E+00  0.00000000000E+00  0.19396537446E+04  0.25784692817E+04  0.16988958732E+04 0.  0.
        3    1    3    3  502    0  0.42650595136E+03  0.53747042140E+03  0.20977776190E+03  0.71748763057E+03  0.10100000352E+00 0.  1.
       -3    1    3    3    0  502 -0.42650595136E+03 -0.53747042140E+03  0.17298759827E+04  0.18609816512E+04  0.10100000352E+00 0. -1.
</event>
<event>
 5   0  0.7461128E-06  0.1700093E+04  0.7818609E-02  0.8761311E-01
        1   -1    0    0  501    0  0.00000000000E+00  0.00000000000E+00  0.12692695566E+04  0.12692695566E+04  0.50400001928E-02 0. -1.
       -1   -1    0    0    0  501  0.00000000000E+00  0.00000000000E+00 -0.56928742066E+03  0.56928742068E+03  0.50400001928E-02 0.  1.
    10030    2    1    2    0    0  0.00000000000E+00  0.00000000000E+00  0.69998213591E+03  0.18385569773E+04  0.17000931645E+04 0.  0.
        3    1    3    3  502    0  0.21546505752E+03 -0.39934383673E+03 -0.42735528129E+03  0.62332434382E+03  0.10100000352E+00 0.  1.
       -3    1    3    3    0  502 -0.21546505752E+03  0.39934383673E+03  0.11273374172E+04  0.12152326334E+04  0.10100000352E+00 0. -1.
</event>
<event>
 5   0  0.7461128E-06  0.1700458E+04  0.7818609E-02  0.8761103E-01
        1   -1    0    0  501    0  0.00000000000E+00  0.00000000000E+00  0.85415529740E+03  0.85415529742E+03  0.50400001928E-02 0. -1.
       -1   -1    0    0    0  501  0.00000000000E+00  0.00000000000E+00 -0.84632113542E+03  0.84632113543E+03  0.50400001928E-02 0.  1.
    10030    2    1    2    0    0  0.00000000000E+00  0.00000000000E+00  0.78341619831E+01  0.17004764328E+04  0.17004583866E+04 0.  0.
        3    1    3    3  502    0  0.57240434978E+03 -0.49186544699E+03 -0.38763696052E+03  0.84843431151E+03  0.10100000352E+00 0.  1.
       -3    1    3    3    0  502 -0.57240434978E+03  0.49186544699E+03  0.39547112251E+03  0.85204212133E+03  0.10100000352E+00 0. -1.
</event>
<event>
 5   0  0.1419012E-05  0.1699841E+04  0.7818609E-02  0.8761455E-01
        2   -1    0    0  501    0  0.00000000000E+00  0.00000000000E+00  0.86427551102E+03  0.86427551102E+03  0.25500000920E-02 0.  1.
       -2   -1    0    0    0  501  0.00000000000E+00  0.00000000000E+00 -0.83580368697E+03  0.83580368697E+03  0.25500000920E-02 0. -1.
    10030    2    1    2    0    0  0.00000000000E+00  0.00000000000E+00  0.28471824053E+02  0.17000791980E+04  0.16998407674E+04 0.  0.
        4    1    3    3  502    0  0.87146439187E+02  0.64821804945E+03 -0.52859421790E+03  0.84094863196E+03  0.12699999809E+01 0. -1.
       -4    1    3    3    0  502 -0.87146439187E+02 -0.64821804945E+03  0.55706604195E+03  0.85913056603E+03  0.12699999809E+01 0.  1.
</event>
<event>
 5   0  0.7583716E-06  0.1699950E+04  0.7818609E-02  0.8761393E-01
       -1   -1    0    0    0  501  0.00000000000E+00  0.00000000000E+00  0.97443210224E+03  0.97443210226E+03  0.50400001928E-02 0.  1.
        1   -1    0    0  501    0  0.00000000000E+00  0.00000000000E+00 -0.74141429013E+03  0.74141429015E+03  0.50400001928E-02 0. -1.
    10030    2    1    2    0    0  0.00000000000E+00  0.00000000000E+00  0.23301781211E+03  0.17158463924E+04  0.16999504527E+04 0.  0.
        5    1    3    3  502    0 -0.32013545623E+02  0.43721828639E+03  0.85150144560E+03  0.95773769839E+03  0.46999998093E+01 0.  1.
       -5    1    3    3    0  502  0.32013545623E+02 -0.43721828639E+03 -0.61848363349E+03  0.75810869402E+03  0.46999998093E+01 0. -1.
</event>
<event>
 5   0  0.5229750E-06  0.1699940E+04  0.7818609E-02  0.8761398E-01
       -3   -1    0    0    0  501  0.00000000000E+00  0.00000000000E+00  0.82059222597E+03  0.82059223219E+03  0.10100000352E+00 0. -1.
        3   -1    0    0  501    0  0.00000000000E+00  0.00000000000E+00 -0.88039990464E+03  0.88039991044E+03  0.10100000352E+00 0.  1.
    10030    2    1    2    0    0  0.00000000000E+00  0.00000000000E+00 -0.59807678675E+02  0.17009921426E+04  0.16999403845E+04 0.  0.
        5    1    3    3  502    0 -0.16223848223E+02  0.84974619336E+03 -0.39678779563E+02  0.85083976278E+03  0.46999998093E+01 0. -1.
       -5    1    3    3    0  502  0.16223848223E+02 -0.84974619336E+03 -0.20128899112E+02  0.85015237985E+03  0.46999998093E+01 0.  1.
</event>
<event>
 5   0  0.7461128E-06  0.1700003E+04  0.7818609E-02  0.8761363E-01
       -1   -1    0    0    0  501  0.00000000000E+00  0.00000000000E+00  0.11325116453E+04  0.11325116453E+04  0.50400001928E-02 0.  1.
        1   -1    0    0  501    0  0.00000000000E+00  0.00000000000E+00 -0.63796456603E+03  0.63796456605E+03  0.50400001928E-02 0. -1.
    10030    2    1    2    0    0  0.00000000000E+00  0.00000000000E+00  0.49454707929E+03  0.17704762114E+04  0.17000027063E+04 0.  0.
        3    1    3    3  502    0 -0.50602987525E+03  0.78516878519E+02  0.95383079862E+03  0.10826007285E+04  0.10100000352E+00 0.  1.
       -3    1    3    3    0  502  0.50602987525E+03 -0.78516878519E+02 -0.45928371933E+03  0.68787548284E+03  0.10100000352E+00 0. -1.
</event>
<event>
 5   0  0.5229750E-06  0.1698691E+04  0.7818609E-02  0.8762111E-01
       -3   -1    0    0    0  501  0.00000000000E+00  0.00000000000E+00  0.14148119079E+04  0.14148119115E+04  0.10100000352E+00 0.  1.
        3   -1    0    0  501    0  0.00000000000E+00  0.00000000000E+00 -0.50988243119E+03  0.50988244119E+03  0.10100000352E+00 0. -1.
    10030    2    1    2    0    0  0.00000000000E+00  0.00000000000E+00  0.90492947671E+03  0.19246943527E+04  0.16986909647E+04 0.  0.
        4    1    3    3  502    0 -0.61451500724E+02 -0.13582521374E+03  0.13998706808E+04  0.14077870263E+04  0.12699999809E+01 0.  1.
       -4    1    3    3    0  502  0.61451500724E+02  0.13582521374E+03 -0.49494120410E+03  0.51690732636E+03  0.12699999809E+01 0. -1.
</event>
<event>
 5   0  0.7461128E-06  0.1699615E+04  0.7818609E-02  0.8761584E-01
       -1   -1    0    0    0  501  0.00000000000E+00  0.00000000000E+00  0.86826274469E+03  0.86826274470E+03  0.50400001928E-02 0.  1.
        1   -1    0    0  501    0  0.00000000000E+00  0.00000000000E+00 -0.83174496828E+03  0.83174496830E+03  0.50400001928E-02 0. -1.
    10030    2    1    2    0    0  0.00000000000E+00  0.00000000000E+00  0.36517776404E+02  0.17000077130E+04  0.16996154495E+04 0.  0.
        3    1    3    3  502    0  0.75202813076E+03  0.31303380503E+01 -0.37758117008E+03  0.84150083700E+03  0.10100000352E+00 0. -1.
       -3    1    3    3    0  502 -0.75202813076E+03 -0.31303380503E+01  0.41409894648E+03  0.85850687600E+03  0.10100000352E+00 0.  1.
</event>
<event>
 5   0  0.1374441E-05  0.1700555E+04  0.7818609E-02  0.8761048E-01
        2   -1    0    0  501    0  0.00000000000E+00  0.00000000000E+00  0.11792378150E+04  0.11792378150E+04  0.25500000920E-02 0. -1.
       -2   -1    0    0    0  501  0.00000000000E+00  0.00000000000E+00 -0.61308395797E+03  0.61308395798E+03  0.25500000920E-02 0.  1.
    10030    2    1    2    0    0  0.00000000000E+00  0.00000000000E+00  0.56615385700E+03  0.17923217730E+04  0.17005549530E+04 0.  0.
        1    1    3    3  502    0  0.40227588401E+03 -0.70812334819E+03  0.54061340489E+03  0.97751082689E+03  0.50400001928E-02 0. -1.
       -1    1    3    3    0  502 -0.40227588401E+03  0.70812334819E+03  0.25540452104E+02  0.81481094606E+03  0.50400001928E-02 0.  1.
</event>
<event>
 5   0  0.7476457E-06  0.1700946E+04  0.7818609E-02  0.8760825E-01
        1   -1    0    0  501    0  0.00000000000E+00  0.00000000000E+00  0.60667752039E+03  0.60667752041E+03  0.50400001928E-02 0.  1.
       -1   -1    0    0    0  501  0.00000000000E+00  0.00000000000E+00 -0.11922383115E+04  0.11922383115E+04  0.50400001928E-02 0. -1.
    10030    2    1    2    0    0  0.00000000000E+00  0.00000000000E+00 -0.58556079109E+03  0.17989158319E+04  0.17009458340E+04 0.  0.
        2    1    3    3  502    0  0.21891741726E+03 -0.86025462477E+02 -0.11571545128E+04  0.11808182681E+04  0.25500000920E-02 0. -1.
       -2    1    3    3    0  502 -0.21891741726E+03  0.86025462477E+02  0.57159372167E+03  0.61809756384E+03  0.25500000920E-02 0.  1.
</event>
<event>
 5   0  0.7461128E-06  0.1699554E+04  0.7818609E-02  0.8761619E-01
        1   -1    0    0  501    0  0.00000000000E+00  0.00000000000E+00  0.19584963403E+04  0.19584963403E+04  0.50400001928E-02 0. -1.
       -1   -1    0    0    0  501  0.00000000000E+00  0.00000000000E+00 -0.36871196332E+03  0.36871196335E+03  0.50400001928E-02 0.  1.
    10030    2    1    2    0    0  0.00000000000E+00  0.00000000000E+00  0.15897843770E+04  0.23272083036E+04  0.16995540954E+04 0.  0.
        3    1    3    3  502    0  0.66759211443E+03  0.21280767197E+03  0.14532342676E+04  0.16133369713E+04  0.10100000352E+00 0. -1.
       -3    1    3    3    0  502 -0.66759211443E+03 -0.21280767197E+03  0.13655010941E+03  0.71387133230E+03  0.10100000352E+00 0.  1.
</event>
<event>
 5   0  0.7476457E-06  0.1699807E+04  0.7818609E-02  0.8761474E-01
       -1   -1    0    0    0  501  0.00000000000E+00  0.00000000000E+00  0.35856099233E+03  0.35856099236E+03  0.50400001928E-02 0. -1.
        1   -1    0    0  501    0  0.00000000000E+00  0.00000000000E+00 -0.20145424073E+04  0.20145424073E+04  0.50400001928E-02 0.  1.
    10030    2    1    2    0    0  0.00000000000E+00  0.00000000000E+00 -0.16559814149E+04  0.23731033996E+04  0.16998074299E+04 0.  0.
        2    1    3    3  502    0 -0.11508702319E+03 -0.47771407321E+03 -0.17961248834E+04  0.18621279106E+04  0.25500000920E-02 0.  1.
       -2    1    3    3    0  502  0.11508702319E+03  0.47771407321E+03  0.14014346846E+03  0.51097548904E+03  0.25500000920E-02 0. -1.
</event>
<event>
 5   0  0.7461128E-06  0.1696330E+04  0.7818609E-02  0.8763460E-01
        1   -1    0    0  501    0  0.00000000000E+00  0.00000000000E+00  0.68300328857E+03  0.68300328859E+03  0.50400001928E-02 0. -1.
       -1   -1    0    0    0  501  0.00000000000E+00  0.00000000000E+00 -0.10532654102E+04  0.10532654102E+04  0.50400001928E-02 0.  1.
    10030    2    1    2    0    0  0.00000000000E+00  0.00000000000E+00 -0.37026212164E+03  0.17362686988E+04  0.16963298487E+04 0.  0.
        3    1    3    3  502    0 -0.42139289001E+03  0.38899998379E+03  0.45447418992E+03  0.73173749026E+03  0.10100000352E+00 0. -1.
       -3    1    3    3    0  502  0.42139289001E+03 -0.38899998379E+03 -0.82473631156E+03  0.10045312085E+04  0.10100000352E+00 0.  1.
</event>
<event>
 5   0  0.1441756E-05  0.1700209E+04  0.7818609E-02  0.8761245E-01
        2   -1    0    0  501    0  0.00000000000E+00  0.00000000000E+00  0.69385120495E+03  0.69385120496E+03  0.25500000920E-02 0. -1.
       -2   -1    0    0    0  501  0.00000000000E+00  0.00000000000E+00 -0.10415453428E+04  0.10415453428E+04  0.25500000920E-02 0.  1.
    10030    2    1    2    0    0  0.00000000000E+00  0.00000000000E+00 -0.34769413786E+03  0.17353965478E+04  0.17002088003E+04 0.  0.
        5    1    3    3  502    0  0.45276088377E+03 -0.71924896566E+03 -0.19277564838E+03  0.87149069593E+03  0.46999998093E+01 0.  1.
       -5    1    3    3    0  502 -0.45276088377E+03  0.71924896566E+03 -0.15491848949E+03  0.86390585185E+03  0.46999998093E+01 0. -1.
</event>
<event>
 5   0  0.1374441E-05  0.1703578E+04  0.7818609E-02  0.8759326E-01
        2   -1    0    0  501    0  0.00000000000E+00  0.00000000000E+00  0.18393106202E+04  0.18393106202E+04  0.25500000920E-02 0. -1.
       -2   -1    0    0    0  501  0.00000000000E+00  0.00000000000E+00 -0.39446561624E+03  0.39446561625E+03  0.25500000920E-02 0.  1.
    10030    2    1    2    0    0  0.00000000000E+00  0.00000000000E+00  0.14448450040E+04  0.22337762365E+04  0.17035783484E+04 0.  0.
        1    1    3    3  502    0  0.15840855358E+03 -0.14368538873E+03  0.18035329465E+04  0.18161690037E+04  0.50400001928E-02 0. -1.
       -1    1    3    3    0  502 -0.15840855358E+03  0.14368538873E+03 -0.35868794250E+03  0.41760723281E+03  0.50400001928E-02 0.  1.
</event>
<event>
 5   0  0.7082527E-06  0.1702035E+04  0.7818609E-02  0.8760205E-01
       -1   -1    0    0    0  501  0.00000000000E+00  0.00000000000E+00  0.55648783417E+03  0.55648783420E+03  0.50400001928E-02 0.  1.
        1   -1    0    0  501    0  0.00000000000E+00  0.00000000000E+00 -0.13014308948E+04  0.13014308948E+04  0.50400001928E-02 0. -1.
    10030    2    1    2    0    0  0.00000000000E+00  0.00000000000E+00 -0.74494306066E+03  0.18579187290E+04  0.17020346178E+04 0.  0.
        1    1    3    3  502    0  0.57667455451E+03  0.49524245008E+03  0.45211098767E+02  0.76148714346E+03  0.50400001928E-02 0.  1.
       -1    1    3    3    0  502 -0.57667455451E+03 -0.49524245008E+03 -0.79015415943E+03  0.10964315856E+04  0.50400001928E-02 0. -1.
</event>
<event>
 5   0  0.1435301E-05  0.1698268E+04  0.7818609E-02  0.8762353E-01
       -2   -1    0    0    0  501  0.00000000000E+00  0.00000000000E+00  0.27091917035E+03  0.27091917036E+03  0.25500000920E-02 0. -1.
        2   -1    0    0  501    0  0.00000000000E+00  0.00000000000E+00 -0.26614154708E+04  0.26614154708E+04  0.25500000920E-02 0.  1.
    10030    2    1    2    0    0  0.00000000000E+00  0.00000000000E+00 -0.23904963005E+04  0.29323346412E+04  0.16982679074E+04 0.  0.
        2    1    3    3  502    0 -0.58761219854E+03 -0.49945565632E+03 -0.58165257375E+03  0.96595225816E+03  0.25500000920E-02 0. -1.
       -2    1    3    3    0  502  0.58761219854E+03  0.49945565632E+03 -0.18088437267E+04  0.19663823830E+04  0.25500000920E-02 0.  1.
</event>
<event>
 5   0  0.1441756E-05  0.1700373E+04  0.7818609E-02  0.8761152E-01
       -2   -1    0    0    0  501  0.00000000000E+00  0.00000000000E+00  0.63161661118E+03  0.63161661118E+03  0.25500000920E-02 0. -1.
        2   -1    0    0  501    0  0.00000000000E+00  0.00000000000E+00 -0.11443916998E+04  0.11443916998E+04  0.25500000920E-02 0.  1.
    10030    2    1    2    0    0  0.00000000000E+00  0.00000000000E+00 -0.51277508864E+03  0.17760083110E+04  0.17003726736E+04 0.  0.
        5    1    3    3  502    0 -0.28611655395E+03 -0.77287760528E+03 -0.47446234309E+03  0.95096744434E+03  0.46999998093E+01 0. -1.
       -5    1    3    3    0  502  0.28611655395E+03  0.77287760528E+03 -0.38312745551E+02  0.82504086666E+03  0.46999998093E+01 0.  1.
</event>
<event>
 5   0  0.7476457E-06  0.1699730E+04  0.7818609E-02  0.8761518E-01
       -1   -1    0    0    0  501  0.00000000000E+00  0.00000000000E+00  0.52221214794E+03  0.52221214797E+03  0.50400001928E-02 0.  1.
        1   -1    0    0  501    0  0.00000000000E+00  0.00000000000E+00 -0.13830979908E+04  0.13830979908E+04  0.50400001928E-02 0. -1.
    10030    2    1    2    0    0  0.00000000000E+00  0.00000000000E+00 -0.86088584283E+03  0.19053101387E+04  0.16997300640E+04 0.  0.
        2    1    3    3  502    0 -0.32351796138E+02 -0.59475330192E+03  0.24908910400E+03  0.64561870373E+03  0.25500000920E-02 0.  1.
       -2    1    3    3    0  502  0.32351796138E+02  0.59475330192E+03 -0.11099749468E+04  0.12596914350E+04  0.25500000920E-02 0. -1.
</event>
<event>
 5   0  0.1435301E-05  0.1700023E+04  0.7818609E-02  0.8761351E-01
        2   -1    0    0  501    0  0.00000000000E+00  0.00000000000E+00  0.15218040343E+04  0.15218040343E+04  0.25500000920E-02 0. -1.
       -2   -1    0    0    0  501  0.00000000000E+00  0.00000000000E+00 -0.47477841897E+03  0.47477841897E+03  0.25500000920E-02 0.  1.
    10030    2    1    2    0    0  0.00000000000E+00  0.00000000000E+00  0.10470256154E+04  0.19965824533E+04  0.17000231921E+04 0.  0.
        2    1    3    3  502    0  0.30646546831E+03  0.61053420980E+03 -0.70536147422E+02  0.68676666540E+03  0.25500000920E-02 0.  1.
       -2    1    3    3    0  502 -0.30646546831E+03 -0.61053420980E+03  0.11175617628E+04  0.13098157879E+04  0.25500000920E-02 0. -1.
</event>
<event>
 5   0  0.1423543E-05  0.1700078E+04  0.7818609E-02  0.8761320E-01
       -2   -1    0    0    0  501  0.00000000000E+00  0.00000000000E+00  0.43095588752E+03  0.43095588753E+03  0.25500000920E-02 0.  1.
        2   -1    0    0  501    0  0.00000000000E+00  0.00000000000E+00 -0.16766599890E+04  0.16766599890E+04  0.25500000920E-02 0. -1.
    10030    2    1    2    0    0  0.00000000000E+00  0.00000000000E+00 -0.12457041015E+04  0.21076158766E+04  0.17000782260E+04 0.  0.
        3    1    3    3  502    0  0.98147277281E+02  0.60747004199E+03 -0.13498736642E+04  0.14835132825E+04  0.10100000352E+00 0.  1.
       -3    1    3    3    0  502 -0.98147277281E+02 -0.60747004199E+03  0.10416956265E+03  0.62410259407E+03  0.10100000352E+00 0. -1.
</event>
<event>
 5   0  0.5229750E-06  0.1699545E+04  0.7818609E-02  0.8761624E-01
        3   -1    0    0  501    0  0.00000000000E+00  0.00000000000E+00  0.10593957851E+04  0.10593957900E+04  0.10100000352E+00 0. -1.
       -3   -1    0    0    0  501  0.00000000000E+00  0.00000000000E+00 -0.68162775343E+03  0.68162776091E+03  0.10100000352E+00 0.  1.
    10030    2    1    2    0    0  0.00000000000E+00  0.00000000000E+00  0.37776803172E+03  0.17410235509E+04  0.16995453271E+04 0.  0.
        2    1    3    3  502    0 -0.19441633993E+03 -0.69244438488E+03  0.65251848479E+03  0.97111138001E+03  0.25500000920E-02 0. -1.
       -2    1    3    3    0  502  0.19441633993E+03  0.69244438488E+03 -0.27475045307E+03  0.76991217087E+03  0.25500000920E-02 0.  1.
</event>
<event>
 5   0  0.7583716E-06  0.1699427E+04  0.7818609E-02  0.8761691E-01
       -1   -1    0    0    0  501  0.00000000000E+00  0.00000000000E+00  0.72979661582E+03  0.72979661584E+03  0.50400001928E-02 0. -1.
        1   -1    0    0  501    0  0.00000000000E+00  0.00000000000E+00 -0.98933418962E+03  0.98933418963E+03  0.50400001928E-02 0.  1.
    10030    2    1    2    0    0  0.00000000000E+00  0.00000000000E+00 -0.25953757380E+03  0.17191308055E+04  0.16994266604E+04 0.  0.
        5    1    3    3  502    0 -0.13373541973E+03 -0.80884383976E+03 -0.35569011913E+03  0.89367279832E+03  0.46999998093E+01 0.  1.
       -5    1    3    3    0  502  0.13373541973E+03  0.80884383976E+03  0.96152545330E+02  0.82545800716E+03  0.46999998093E+01 0. -1.
</event>
<event>
 5   0  0.1374441E-05  0.1700051E+04  0.7818609E-02  0.8761335E-01
       -2   -1    0    0    0  501  0.00000000000E+00  0.00000000000E+00  0.46314014179E+03  0.46314014180E+03  0.25500000920E-02 0. -1.
        2   -1    0    0  501    0  0.00000000000E+00  0.00000000000E+00 -0.15600965608E+04  0.15600965608E+04  0.25500000920E-02 0.  1.
    10030    2    1    2    0    0  0.00000000000E+00  0.00000000000E+00 -0.10969564190E+04  0.20232367026E+04  0.17000509903E+04 0.  0.
        1    1    3    3  502    0  0.36111230654E+03  0.53853742882E+03 -0.12026224743E+04  0.13662816239E+04  0.50400001928E-02 0.  1.
       -1    1    3    3    0  502 -0.36111230654E+03 -0.53853742882E+03  0.10566605525E+03  0.65695507871E+03  0.50400001928E-02 0. -1.
</event>
<event>
 5   0  0.7455669E-06  0.1700626E+04  0.7818609E-02  0.8761007E-01
        1   -1    0    0  501    0  0.00000000000E+00  0.00000000000E+00  0.64163131226E+03  0.64163131228E+03  0.50400001928E-02 0.  1.
       -1   -1    0    0    0  501  0.00000000000E+00  0.00000000000E+00 -0.11268653558E+04  0.11268653558E+04  0.50400001928E-02 0. -1.
    10030    2    1    2    0    0  0.00000000000E+00  0.00000000000E+00 -0.48523404355E+03  0.17684966681E+04  0.17006258813E+04 0.  0.
        4    1    3    3  502    0  0.39890083284E+03  0.42275334273E+02 -0.10222864828E+04  0.10981713637E+04  0.12699999809E+01 0. -1.
       -4    1    3    3    0  502 -0.39890083284E+03 -0.42275334273E+02  0.53705243921E+03  0.67032530438E+03  0.12699999809E+01 0.  1.
</event>
<event>
 5   0  0.7476457E-06  0.1698927E+04  0.7818609E-02  0.8761977E-01
       -1   -1    0    0    0  501  0.00000000000E+00  0.00000000000E+00  0.44334268707E+03  0.44334268710E+03  0.50400001928E-02 0.  1.
        1   -1    0    0  501    0  0.00000000000E+00  0.00000000000E+00 -0.16276076993E+04  0.16276076993E+04  0.50400001928E-02 0. -1.
    10030    2    1    2    0    0  0.00000000000E+00  0.00000000000E+00 -0.11842650123E+04  0.20709503864E+04  0.16989266858E+04 0.  0.
        2    1    3    3  502    0 -0.84431491419E+02  0.85989120578E+02 -0.16171346586E+04  0.16216187313E+04  0.25500000920E-02 0. -1.
       -2    1    3    3    0  502  0.84431491419E+02 -0.85989120578E+02  0.43286964634E+03  0.44933165516E+03  0.25500000920E-02 0.  1.
</event>
<event>
 5   0  0.1419012E-05  0.1703990E+04  0.7818609E-02  0.8759092E-01
       -2   -1    0    0    0  501  0.00000000000E+00  0.00000000000E+00  0.58658061550E+03  0.58658061551E+03  0.25500000920E-02 0. -1.
        2   -1    0    0  501    0  0.00000000000E+00  0.00000000000E+00 -0.12375027236E+04  0.12375027236E+04  0.25500000920E-02 0.  1.
    10030    2    1    2    0    0  0.00000000000E+00  0.00000000000E+00 -0.65092210810E+03  0.18240833391E+04  0.17039895649E+04 0.  0.
        4    1    3    3  502    0  0.42589666802E+03 -0.17422423236E+02  0.46423106889E+03  0.63024091496E+03  0.12699999809E+01 0. -1.
       -4    1    3    3    0  502 -0.42589666802E+03  0.17422423236E+02 -0.11151531770E+04  0.11938424242E+04  0.12699999809E+01 0.  1.
</event>
<event>
 5   0  0.1435301E-05  0.1699140E+04  0.7818609E-02  0.8761855E-01
        2   -1    0    0  501    0  0.00000000000E+00  0.00000000000E+00  0.26731142956E+04  0.26731142956E+04  0.25500000920E-02 0. -1.
       -2   -1    0    0    0  501  0.00000000000E+00  0.00000000000E+00 -0.27001048333E+03  0.27001048334E+03  0.25500000920E-02 0.  1.
    10030    2    1    2    0    0  0.00000000000E+00  0.00000000000E+00  0.24031038122E+04  0.29431247789E+04  0.16991396446E+04 0.  0.
        2    1    3    3  502    0 -0.60154506807E+03 -0.26060383923E+03  0.21375383956E+04  0.22358088520E+04  0.25500000920E-02 0. -1.
       -2    1    3    3    0  502  0.60154506807E+03  0.26060383923E+03  0.26556541662E+03  0.70731592690E+03  0.25500000920E-02 0.  1.
</event>
<event>
 5   0  0.1423543E-05  0.1699265E+04  0.7818609E-02  0.8761784E-01
       -2   -1    0    0    0  501  0.00000000000E+00  0.00000000000E+00  0.66178129144E+03  0.66178129144E+03  0.25500000920E-02 0. -1.
        2   -1    0    0  501    0  0.00000000000E+00  0.00000000000E+00 -0.10908064088E+04  0.10908064088E+04  0.25500000920E-02 0.  1.
    10030    2    1    2    0    0  0.00000000000E+00  0.00000000000E+00 -0.42902511732E+03  0.17525877002E+04  0.16992648692E+04 0.  0.
        3    1    3    3  502    0 -0.59620841892E+03  0.26964993336E+03  0.34443418562E+03  0.73946635067E+03  0.10100000352E+00 0. -1.
       -3    1    3    3    0  502  0.59620841892E+03 -0.26964993336E+03 -0.77345930294E+03  0.10131213495E+04  0.10100000352E+00 0.  1.
</event>
<event>
 5   0  0.5229750E-06  0.1700066E+04  0.7818609E-02  0.8761327E-01
        4   -1    0    0  501    0  0.00000000000E+00  0.00000000000E+00  0.11926114468E+04  0.11926121230E+04  0.12699999809E+01 0. -1.
       -4   -1    0    0    0  501  0.00000000000E+00  0.00000000000E+00 -0.60585905664E+03  0.60586038772E+03  0.12699999809E+01 0.  1.
    10030    2    1    2    0    0  0.00000000000E+00  0.00000000000E+00  0.58675239013E+03  0.17984725107E+04  0.17000661765E+04 0.  0.
        3    1    3    3  502    0 -0.19411693106E+03 -0.13019785254E+03  0.11579484593E+04  0.11813033092E+04  0.10100000352E+00 0. -1.
       -3    1    3    3    0  502  0.19411693106E+03  0.13019785254E+03 -0.57119606913E+03  0.61716920153E+03  0.10100000352E+00 0.  1.
</event>
<event>
 5   0  0.1419012E-05  0.1699061E+04  0.7818609E-02  0.8761900E-01
       -2   -1    0    0    0  501  0.00000000000E+00  0.00000000000E+00  0.44392581869E+03  0.44392581870E+03  0.25500000920E-02 0.  1.
        2   -1    0    0  501    0  0.00000000000E+00  0.00000000000E+00 -0.16257262611E+04  0.16257262611E+04  0.25500000920E-02 0. -1.
    10030    2    1    2    0    0  0.00000000000E+00  0.00000000000E+00 -0.11818004424E+04  0.20696520798E+04  0.16990607540E+04 0.  0.
        4    1    3    3  502    0  0.11785329177E+03  0.52660199824E+03 -0.13901372779E+04  0.14912016387E+04  0.12699999809E+01 0.  1.
       -4    1    3    3    0  502 -0.11785329177E+03 -0.52660199824E+03  0.20833683547E+03  0.57845044113E+03  0.12699999809E+01 0. -1.
</event>
<event>
 5   0  0.1423543E-05  0.1699909E+04  0.7818609E-02  0.8761416E-01
       -2   -1    0    0    0  501  0.00000000000E+00  0.00000000000E+00  0.69919434878E+03  0.69919434878E+03  0.25500000920E-02 0.  1.
        2   -1    0    0  501    0  0.00000000000E+00  0.00000000000E+00 -0.10332214268E+04  0.10332214268E+04  0.25500000920E-02 0. -1.
    10030    2    1    2    0    0  0.00000000000E+00  0.00000000000E+00 -0.33402707803E+03  0.17324157756E+04  0.16999089183E+04 0.  0.
        3    1    3    3  502    0 -0.32169367280E+03  0.45070111667E+03 -0.82417326975E+03  0.99291485258E+03  0.10100000352E+00 0. -1.
       -3    1    3    3    0  502  0.32169367280E+03 -0.45070111667E+03  0.49014619172E+03  0.73950092302E+03  0.10100000352E+00 0.  1.
</event>
<event>
 5   0  0.7461128E-06  0.1699804E+04  0.7818609E-02  0.8761476E-01
        1   -1    0    0  501    0  0.00000000000E+00  0.00000000000E+00  0.11937218304E+04  0.11937218304E+04  0.50400001928E-02 0.  1.
       -1   -1    0    0    0  501  0.00000000000E+00  0.00000000000E+00 -0.60511032563E+03  0.60511032565E+03  0.50400001928E-02 0. -1.
    10030    2    1    2    0    0  0.00000000000E+00  0.00000000000E+00  0.58861150479E+03  0.17988321561E+04  0.16998039952E+04 0.  0.
        3    1    3    3  502    0  0.13437224493E+03 -0.38738180190E+03 -0.49351984300E+03  0.64162481739E+03  0.10100000352E+00 0. -1.
       -3    1    3    3    0  502 -0.13437224493E+03  0.38738180190E+03  0.10821313478E+04  0.11572073387E+04  0.10100000352E+00 0.  1.
</event>
<event>
 5   0  0.1423543E-05  0.1700174E+04  0.7818609E-02  0.8761265E-01
        2   -1    0    0  501    0  0.00000000000E+00  0.00000000000E+00  0.11280877644E+04  0.11280877644E+04  0.25500000920E-02 0.  1.
       -2   -1    0    0    0  501  0.00000000000E+00  0.00000000000E+00 -0.64059568871E+03  0.64059568872E+03  0.25500000920E-02 0. -1.
    10030    2    1    2    0    0  0.00000000000E+00  0.00000000000E+00  0.48749207570E+03  0.17686834531E+04  0.17001742950E+04 0.  0.
        3    1    3    3  502    0 -0.49041506371E+03  0.64063833375E+03 -0.34858462333E+02  0.80755156615E+03  0.10100000352E+00 0.  1.
       -3    1    3    3    0  502  0.49041506371E+03 -0.64063833375E+03  0.52235053803E+03  0.96113188698E+03  0.10100000352E+00 0. -1.
</event>
<event>
 5   0  0.7476457E-06  0.1699796E+04  0.7818609E-02  0.8761481E-01
       -1   -1    0    0    0  501  0.00000000000E+00  0.00000000000E+00  0.98129647512E+03  0.98129647513E+03  0.50400001928E-02 0. -1.
        1   -1    0    0  501    0  0.00000000000E+00  0.00000000000E+00 -0.73609396458E+03  0.73609396460E+03  0.50400001928E-02 0.  1.
    10030    2    1    2    0    0  0.00000000000E+00  0.00000000000E+00  0.24520251054E+03  0.17173904397E+04  0.16997957675E+04 0.  0.
        2    1    3    3  502    0  0.65385672767E+03  0.36920792651E+03 -0.27961910400E+03  0.80126771846E+03  0.25500000920E-02 0.  1.
       -2    1    3    3    0  502 -0.65385672767E+03 -0.36920792651E+03  0.52482161454E+03  0.91612272126E+03  0.25500000920E-02 0. -1.
</event>
<event>
 5   0  0.7082527E-06  0.1700219E+04  0.7818609E-02  0.8761239E-01
        1   -1    0    0  501    0  0.00000000000E+00  0.00000000000E+00  0.20558763744E+04  0.20558763744E+04  0.50400001928E-02 0. -1.
       -1   -1    0    0    0  501  0.00000000000E+00  0.00000000000E+00 -0.35152232313E+03  0.35152232317E+03  0.50400001928E-02 0.  1.
    10030    2    1    2    0    0  0.00000000000E+00  0.00000000000E+00  0.17043540512E+04  0.24073986975E+04  0.17002193261E+04 0.  0.
        1    1    3    3  502    0  0.55743555644E+03  0.35540126610E+03  0.95424132490E+02  0.66794477662E+03  0.50400001928E-02 0.  1.
       -1    1    3    3    0  502 -0.55743555644E+03 -0.35540126610E+03  0.16089299187E+04  0.17394539209E+04  0.50400001928E-02 0. -1.
</event>
<event>
 5   0  0.1419012E-05  0.1699926E+04  0.7818609E-02  0.8761407E-01
        2   -1    0    0  501    0  0.00000000000E+00  0.00000000000E+00  0.80602296856E+03  0.80602296857E+03  0.25500000920E-02 0.  1.
       -2   -1    0    0    0  501  0.00000000000E+00  0.00000000000E+00 -0.89629826262E+03  0.89629826262E+03  0.25500000920E-02 0. -1.
    10030    2    1    2    0    0  0.00000000000E+00  0.00000000000E+00 -0.90275294054E+02  0.17023212312E+04  0.16999258647E+04 0.  0.
        4    1    3    3  502    0  0.56741162052E+03  0.13691760290E+01 -0.67886232950E+03  0.88476748192E+03  0.12699999809E+01 0. -1.
       -4    1    3    3    0  502 -0.56741162052E+03 -0.13691760290E+01  0.58858703545E+03  0.81755374927E+03  0.12699999809E+01 0.  1.
</event>
<event>
 5   0  0.1419012E-05  0.1700570E+04  0.7818609E-02  0.8761039E-01
       -2   -1    0    0    0  501  0.00000000000E+00  0.00000000000E+00  0.50438072200E+03  0.50438072201E+03  0.25500000920E-02 0. -1.
        2   -1    0    0  501    0  0.00000000000E+00  0.00000000000E+00 -0.14334101456E+04  0.14334101456E+04  0.25500000920E-02 0.  1.
    10030    2    1    2    0    0  0.00000000000E+00  0.00000000000E+00 -0.92902942361E+03  0.19377908676E+04  0.17005698388E+04 0.  0.
        4    1    3    3  502    0  0.22008016148E+03  0.46577832860E+03 -0.12353374905E+04  0.13384487503E+04  0.12699999809E+01 0.  1.
       -4    1    3    3    0  502 -0.22008016148E+03 -0.46577832860E+03  0.30630806688E+03  0.59934211733E+03  0.12699999809E+01 0. -1.
</event>
<event>
 5   0  0.1419012E-05  0.1699248E+04  0.7818609E-02  0.8761793E-01
        2   -1    0    0  501    0  0.00000000000E+00  0.00000000000E+00  0.85187540339E+03  0.85187540339E+03  0.25500000920E-02 0. -1.
       -2   -1    0    0    0  501  0.00000000000E+00  0.00000000000E+00 -0.84737877317E+03  0.84737877317E+03  0.25500000920E-02 0.  1.
    10030    2    1    2    0    0  0.00000000000E+00  0.00000000000E+00  0.44966302224E+01  0.16992541766E+04  0.16992482270E+04 0.  0.
        4    1    3    3  502    0 -0.82093790598E+03  0.17592410007E+03 -0.12802564894E+03  0.84928235242E+03  0.12699999809E+01 0. -1.
       -4    1    3    3    0  502  0.82093790598E+03 -0.17592410007E+03  0.13252227917E+03  0.84997182414E+03  0.12699999809E+01 0.  1.
</event>
<event>
 5   0  0.5229750E-06  0.1699965E+04  0.7818609E-02  0.8761384E-01
       -3   -1    0    0    0  501  0.00000000000E+00  0.00000000000E+00  0.42099531702E+03  0.42099532914E+03  0.10100000352E+00 0.  1.
        3   -1    0    0  501    0  0.00000000000E+00  0.00000000000E+00 -0.17161001291E+04  0.17161001320E+04  0.10100000352E+00 0. -1.
    10030    2    1    2    0    0  0.00000000000E+00  0.00000000000E+00 -0.12951048120E+04  0.21370954612E+04  0.16999648632E+04 0.  0.
        5    1    3    3  502    0  0.25996574227E+03  0.75055188328E+03 -0.26720186367E+03  0.83805085920E+03  0.46999998093E+01 0. -1.
       -5    1    3    3    0  502 -0.25996574227E+03 -0.75055188328E+03 -0.10279029484E+04  0.12990446020E+04  0.46999998093E+01 0.  1.
</event>
<event>
 5   0  0.7082527E-06  0.1700041E+04  0.7818609E-02  0.8761341E-01
        1   -1    0    0  501    0  0.00000000000E+00  0.00000000000E+00  0.11291050422E+04  0.11291050423E+04  0.50400001928E-02 0. -1.
       -1   -1    0    0    0  501  0.00000000000E+00  0.00000000000E+00 -0.63991835028E+03  0.63991835030E+03  0.50400001928E-02 0.  1.
    10030    2    1    2    0    0  0.00000000000E+00  0.00000000000E+00  0.48918669196E+03  0.17690233926E+04  0.17000412183E+04 0.  0.
        1    1    3    3  502    0  0.72366107990E+03 -0.42784001869E+03  0.11378413074E+03  0.84833912358E+03  0.50400001928E-02 0. -1.
       -1    1    3    3    0  502 -0.72366107990E+03  0.42784001869E+03  0.37540256122E+03  0.92068426898E+03  0.50400001928E-02 0.  1.
</event>
<event>
 5   0  0.1423543E-05  0.1700542E+04  0.7818609E-02  0.8761055E-01
        2   -1    0    0  501    0  0.00000000000E+00  0.00000000000E+00  0.10078244918E+04  0.10078244918E+04  0.25500000920E-02 0. -1.
       -2   -1    0    0    0  501  0.00000000000E+00  0.00000000000E+00 -0.71734793618E+03  0.71734793618E+03  0.25500000920E-02 0.  1.
    10030    2    1    2    0    0  0.00000000000E+00  0.00000000000E+00  0.29047655565E+03  0.17251724280E+04  0.17005420539E+04 0.  0.
        3    1    3    3  502    0  0.56996012842E+03  0.59267599427E+03 -0.74325244971E+02  0.82561712338E+03  0.10100000352E+00 0.  1.
       -3    1    3    3    0  502 -0.56996012842E+03 -0.59267599427E+03  0.36480180062E+03  0.89955530464E+03  0.10100000352E+00 0. -1.
</event>
<event>
 5   0  0.1374441E-05  0.1702924E+04  0.7818609E-02  0.8759698E-01
       -2   -1    0    0    0  501  0.00000000000E+00  0.00000000000E+00  0.38149721522E+03  0.38149721523E+03  0.25500000920E-02 0.  1.
        2   -1    0    0  501    0  0.00000000000E+00  0.00000000000E+00 -0.19003743101E+04  0.19003743101E+04  0.25500000920E-02 0. -1.
    10030    2    1    2    0    0  0.00000000000E+00  0.00000000000E+00 -0.15188770949E+04  0.22818715253E+04  0.17029239645E+04 0.  0.
        1    1    3    3  502    0 -0.43705974174E+03  0.22607490101E+03  0.17167992069E+03  0.52115743678E+03  0.50400001928E-02 0.  1.
       -1    1    3    3    0  502  0.43705974174E+03 -0.22607490101E+03 -0.16905570155E+04  0.17607140885E+04  0.50400001928E-02 0. -1.
</event>
<event>
 5   0  0.5229750E-06  0.1700453E+04  0.7818609E-02  0.8761106E-01
        4   -1    0    0  501    0  0.00000000000E+00  0.00000000000E+00  0.40455582449E+03  0.40455781791E+03  0.12699999809E+01 0.  1.
       -4   -1    0    0    0  501  0.00000000000E+00  0.00000000000E+00 -0.17868536852E+04  0.17868541365E+04  0.12699999809E+01 0. -1.
    10030    2    1    2    0    0  0.00000000000E+00  0.00000000000E+00 -0.13822978607E+04  0.21914119544E+04  0.17004525804E+04 0.  0.
        5    1    3    3  502    0  0.22735161459E+02 -0.30223635123E+03  0.33255370415E+03  0.44997528345E+03  0.46999998093E+01 0.  1.
       -5    1    3    3    0  502 -0.22735161459E+02  0.30223635123E+03 -0.17148515648E+04  0.17414366710E+04  0.46999998093E+01 0. -1.
</event>
<event>
 5   0  0.7082527E-06  0.1699564E+04  0.7818609E-02  0.8761613E-01
        1   -1    0    0  501    0  0.00000000000E+00  0.00000000000E+00  0.99884621818E+03  0.99884621819E+03  0.50400001928E-02 0.  1.
       -1   -1    0    0    0  501  0.00000000000E+00  0.00000000000E+00 -0.72296360638E+03  0.72296360640E+03  0.50400001928E-02 0. -1.
    10030    2    1    2    0    0  0.00000000000E+00  0.00000000000E+00  0.27588261179E+03  0.17218098246E+04  0.16995640196E+04 0.  0.
        1    1    3    3  502    0  0.32957155116E+03  0.60163756910E+03 -0.37016535340E+03  0.77949186061E+03  0.50400001928E-02 0. -1.
       -1    1    3    3    0  502 -0.32957155116E+03 -0.60163756910E+03  0.64604796519E+03  0.94231796398E+03  0.50400001928E-02 0.  1.
</event>
<event>
 5   0  0.7476457E-06  0.1699111E+04  0.7818609E-02  0.8761871E-01
        1   -1    0    0  501    0  0.00000000000E+00  0.00000000000E+00  0.15460874129E+04  0.15460874129E+04  0.50400001928E-02 0.  1.
       -1   -1    0    0    0  501  0.00000000000E+00  0.00000000000E+00 -0.46682012209E+03  0.46682012212E+03  0.50400001928E-02 0. -1.
    10030    2    1    2    0    0  0.00000000000E+00  0.00000000000E+00  0.10792672908E+04  0.20129075350E+04  0.16991111969E+04 0.  0.
        2    1    3    3  502    0 -0.63527615334E+03  0.49683157983E+03  0.22323841221E+03  0.83681108884E+03  0.25500000920E-02 0. -1.
       -2    1    3    3    0  502  0.63527615334E+03 -0.49683157983E+03  0.85602887860E+03  0.11760964462E+04  0.25500000920E-02 0.  1.
</event>
<event>
 5   0  0.1423543E-05  0.1700459E+04  0.7818609E-02  0.8761103E-01
        2   -1    0    0  501    0  0.00000000000E+00  0.00000000000E+00  0.99748415591E+03  0.99748415592E+03  0.25500000920E-02 0.  1.
       -2   -1    0    0    0  501  0.00000000000E+00  0.00000000000E+00 -0.72471362426E+03  0.72471362427E+03  0.25500000920E-02 0. -1.
    10030    2    1    2    0    0  0.00000000000E+00  0.00000000000E+00  0.27277053165E+03  0.17221977802E+04  0.17004591824E+04 0.  0.
        3    1    3    3  502    0 -0.47129723906E+03 -0.30066644218E+03  0.78517513578E+03  0.96385756264E+03  0.10100000352E+00 0.  1.
       -3    1    3    3    0  502  0.47129723906E+03  0.30066644218E+03 -0.51240460413E+03  0.75834021754E+03  0.10100000352E+00 0. -1.
</event>
<event>
 5   0  0.7476457E-06  0.1700095E+04  0.7818609E-02  0.8761310E-01
        1   -1    0    0  501    0  0.00000000000E+00  0.00000000000E+00  0.13452042913E+04  0.13452042913E+04  0.50400001928E-02 0.  1.
       -1   -1    0    0    0  501  0.00000000000E+00  0.00000000000E+00 -0.53715347649E+03  0.53715347651E+03  0.50400001928E-02 0. -1.
    10030    2    1    2    0    0  0.00000000000E+00  0.00000000000E+00  0.80805081480E+03  0.18823577678E+04  0.17000954817E+04 0.  0.
        2    1    3    3  502    0  0.33063988062E+03 -0.44561514998E+03 -0.30897260402E+03  0.63510602468E+03  0.25500000920E-02 0. -1.
       -2    1    3    3    0  502 -0.33063988062E+03  0.44561514998E+03  0.11170234188E+04  0.12472517431E+04  0.25500000920E-02 0.  1.
</event>
<event>
 5   0  0.1419012E-05  0.1699576E+04  0.7818609E-02  0.8761606E-01
       -2   -1    0    0    0  501  0.00000000000E+00  0.00000000000E+00  0.46065210859E+03  0.46065210860E+03  0.25500000920E-02 0. -1.
        2   -1    0    0  501    0  0.00000000000E+00  0.00000000000E+00 -0.15676457157E+04  0.15676457157E+04  0.25500000920E-02 0.  1.
    10030    2    1    2    0    0  0.00000000000E+00  0.00000000000E+00 -0.11069936071E+04  0.20282978243E+04  0.16995755993E+04 0.  0.
        4    1    3    3  502    0  0.72490350366E+03 -0.24024668019E+02 -0.10819454762E+04  0.13025628203E+04  0.12699999809E+01 0.  1.
       -4    1    3    3    0  502 -0.72490350366E+03  0.24024668019E+02 -0.25048130866E+02  0.72573500402E+03  0.12699999809E+01 0. -1.
</event>
<event>
 5   0  0.7461128E-06  0.1700099E+04  0.7818609E-02  0.8761308E-01
        1   -1    0    0  501    0  0.00000000000E+00  0.00000000000E+00  0.12600038076E+04  0.12600038076E+04  0.50400001928E-02 0. -1.
       -1   -1    0    0    0  501  0.00000000000E+00  0.00000000000E+00 -0.57347777011E+03  0.57347777013E+03  0.50400001928E-02 0.  1.
    10030    2    1    2    0    0  0.00000000000E+00  0.00000000000E+00  0.68652603751E+03  0.18334815778E+04  0.17000990253E+04 0.  0.
        3    1    3    3  502    0 -0.48603804641E+03  0.19022025411E+03  0.10668477106E+04  0.11876787341E+04  0.10100000352E+00 0. -1.
       -3    1    3    3    0  502  0.48603804641E+03 -0.19022025411E+03 -0.38032167311E+03  0.64580284365E+03  0.10100000352E+00 0.  1.
</event>
<event>
 5   0  0.7082527E-06  0.1699467E+04  0.7818609E-02  0.8761669E-01
       -1   -1    0    0    0  501  0.00000000000E+00  0.00000000000E+00  0.27902876761E+03  0.27902876766E+03  0.50400001928E-02 0.  1.
        1   -1    0    0  501    0  0.00000000000E+00  0.00000000000E+00 -0.25877145058E+04  0.25877145058E+04  0.50400001928E-02 0. -1.
    10030    2    1    2    0    0  0.00000000000E+00  0.00000000000E+00 -0.23086857382E+04  0.28667432735E+04  0.16994667276E+04 0.  0.
        1    1    3    3  502    0 -0.62213614484E+02 -0.49713453096E+03 -0.23120588810E+04  0.23657196675E+04  0.50400001928E-02 0. -1.
       -1    1    3    3    0  502  0.62213614484E+02  0.49713453096E+03  0.33731427894E+01  0.50102360605E+03  0.50400001928E-02 0.  1.
</event>
<event>
 5   0  0.1419012E-05  0.1705061E+04  0.7818609E-02  0.8758483E-01
       -2   -1    0    0    0  501  0.00000000000E+00  0.00000000000E+00  0.52652148097E+03  0.52652148097E+03  0.25500000920E-02 0. -1.
        2   -1    0    0  501    0  0.00000000000E+00  0.00000000000E+00 -0.13803965980E+04  0.13803965980E+04  0.25500000920E-02 0.  1.
    10030    2    1    2    0    0  0.00000000000E+00  0.00000000000E+00 -0.85387511705E+03  0.19069180790E+04  0.17050612436E+04 0.  0.
        4    1    3    3  502    0  0.20567207893E+03  0.64097344405E+03  0.15811762619E+03  0.69148445871E+03  0.12699999809E+01 0. -1.
       -4    1    3    3    0  502 -0.20567207893E+03 -0.64097344405E+03 -0.10119927432E+04  0.12154336203E+04  0.12699999809E+01 0.  1.
</event>
<event>
 5   0  0.1441756E-05  0.1698695E+04  0.7818609E-02  0.8762109E-01
       -2   -1    0    0    0  501  0.00000000000E+00  0.00000000000E+00  0.47806449609E+03  0.47806449609E+03  0.25500000920E-02 0. -1.
        2   -1    0    0  501    0  0.00000000000E+00  0.00000000000E+00 -0.15089833643E+04  0.15089833643E+04  0.25500000920E-02 0.  1.
    10030    2    1    2    0    0  0.00000000000E+00  0.00000000000E+00 -0.10309188683E+04  0.19870478604E+04  0.16986952307E+04 0.  0.
        5    1    3    3  502    0 -0.39831841732E+03  0.59819469629E+03  0.14005446375E+02  0.71882730803E+03  0.46999998093E+01 0. -1.
       -5    1    3    3    0  502  0.39831841732E+03 -0.59819469629E+03 -0.10449243146E+04  0.12682205524E+04  0.46999998093E+01 0.  1.
</event>
<event>
 5   0  0.7476457E-06  0.1704094E+04  0.7818609E-02  0.8759033E-01
        1   -1    0    0  501    0  0.00000000000E+00  0.00000000000E+00  0.20856207014E+04  0.20856207014E+04  0.50400001928E-02 0. -1.
       -1   -1    0    0    0  501  0.00000000000E+00  0.00000000000E+00 -0.34809029781E+03  0.34809029784E+03  0.50400001928E-02 0.  1.
    10030    2    1    2    0    0  0.00000000000E+00  0.00000000000E+00  0.17375304036E+04  0.24337109992E+04  0.17040942827E+04 0.  0.
        2    1    3    3  502    0 -0.54597747717E+03  0.65124756205E+03  0.95644902419E+03  0.12794567318E+04  0.25500000920E-02 0.  1.
       -2    1    3    3    0  502  0.54597747717E+03 -0.65124756205E+03  0.78108137937E+03  0.11542542674E+04  0.25500000920E-02 0. -1.
</event>
<event>
 5   0  0.7476457E-06  0.1702281E+04  0.7818609E-02  0.8760065E-01
        1   -1    0    0  501    0  0.00000000000E+00  0.00000000000E+00  0.64327058647E+03  0.64327058649E+03  0.50400001928E-02 0. -1.
       -1   -1    0    0    0  501  0.00000000000E+00  0.00000000000E+00 -0.11261819704E+04  0.11261819704E+04  0.50400001928E-02 0.  1.
    10030    2    1    2    0    0  0.00000000000E+00  0.00000000000E+00 -0.48291138390E+03  0.17694525569E+04  0.17022805134E+04 0.  0.
        2    1    3    3  502    0 -0.10524867414E+03  0.84453747164E+03 -0.25279067638E+03  0.88781977365E+03  0.25500000920E-02 0. -1.
       -2    1    3    3    0  502  0.10524867414E+03 -0.84453747164E+03 -0.23012070753E+03  0.88163278322E+03  0.25500000920E-02 0.  1.
</event>
<event>
 5   0  0.7082527E-06  0.1699074E+04  0.7818609E-02  0.8761893E-01
       -1   -1    0    0    0  501  0.00000000000E+00  0.00000000000E+00  0.50769288905E+03  0.50769288907E+03  0.50400001928E-02 0.  1.
        1   -1    0    0  501    0  0.00000000000E+00  0.00000000000E+00 -0.14215540917E+04  0.14215540917E+04  0.50400001928E-02 0. -1.
    10030    2    1    2    0    0  0.00000000000E+00  0.00000000000E+00 -0.91386120261E+03  0.19292469807E+04  0.16990737521E+04 0.  0.
        1    1    3    3  502    0 -0.12085594148E+03  0.38517038383E+03 -0.13056899460E+04  0.13666706327E+04  0.50400001928E-02 0. -1.
       -1    1    3    3    0  502  0.12085594148E+03 -0.38517038383E+03  0.39182874341E+03  0.56257634802E+03  0.50400001928E-02 0.  1.
</event>
<event>
 5   0  0.7583716E-06  0.1700651E+04  0.7818609E-02  0.8760993E-01
       -1   -1    0    0    0  501  0.00000000000E+00  0.00000000000E+00  0.10641844206E+04  0.10641844206E+04  0.50400001928E-02 0. -1.
        1   -1    0    0  501    0  0.00000000000E+00  0.00000000000E+00 -0.67944414174E+03  0.67944414176E+03  0.50400001928E-02 0.  1.
    10030    2    1    2    0    0  0.00000000000E+00  0.00000000000E+00  0.38474027884E+03  0.17436285623E+04  0.17006514873E+04 0.  0.
        5    1    3    3  502    0 -0.35242137964E+03  0.75670330233E+03  0.35842309218E+03  0.90845468770E+03  0.46999998093E+01 0.  1.
       -5    1    3    3    0  502  0.35242137964E+03 -0.75670330233E+03  0.26317186654E+02  0.83517387465E+03  0.46999998093E+01 0. -1.
</event>
<event>
 5   0  0.7461128E-06  0.1699223E+04  0.7818609E-02  0.8761808E-01
        1   -1    0    0  501    0  0.00000000000E+00  0.00000000000E+00  0.12961043092E+04  0.12961043092E+04  0.50400001928E-02 0.  1.
       -1   -1    0    0    0  501  0.00000000000E+00  0.00000000000E+00 -0.55693022293E+03  0.55693022295E+03  0.50400001928E-02 0. -1.
    10030    2    1    2    0    0  0.00000000000E+00  0.00000000000E+00  0.73917408628E+03  0.18530345322E+04  0.16992229541E+04 0.  0.
        3    1    3    3  502    0 -0.54749481674E+03 -0.49034125081E+03 -0.95202414579E+02  0.74111309970E+03  0.10100000352E+00 0. -1.
       -3    1    3    3    0  502  0.54749481674E+03  0.49034125081E+03  0.83437650086E+03  0.11119214325E+04  0.10100000352E+00 0.  1.
</event>
<event>
 5   0  0.1374441E-05  0.1700500E+04  0.7818609E-02  0.8761079E-01
       -2   -1    0    0    0  501  0.00000000000E+00  0.00000000000E+00  0.51285310350E+03  0.51285310350E+03  0.25500000920E-02 0. -1.
        2   -1    0    0  501    0  0.00000000000E+00  0.00000000000E+00 -0.14096136099E+04  0.14096136099E+04  0.25500000920E-02 0.  1.
    10030    2    1    2    0    0  0.00000000000E+00  0.00000000000E+00 -0.89676050644E+03  0.19224667134E+04  0.17004995908E+04 0.  0.
        1    1    3    3  502    0 -0.51542457791E+03  0.65215396400E+03 -0.65048112884E+03  0.10555060337E+04  0.50400001928E-02 0.  1.
       -1    1    3    3    0  502  0.51542457791E+03 -0.65215396400E+03 -0.24627937759E+03  0.86696067969E+03  0.50400001928E-02 0. -1.
</event>
<event>
 5   0  0.7583716E-06  0.1702833E+04  0.7818609E-02  0.8759750E-01
        1   -1    0    0  501    0  0.00000000000E+00  0.00000000000E+00  0.18936675372E+04  0.18936675372E+04  0.50400001928E-02 0.  1.
       -1   -1    0    0    0  501  0.00000000000E+00  0.00000000000E+00 -0.38280756862E+03  0.38280756865E+03  0.50400001928E-02 0. -1.
    10030    2    1    2    0    0  0.00000000000E+00  0.00000000000E+00  0.15108599686E+04  0.22764751059E+04  0.17028332458E+04 0.  0.
        5    1    3    3  502    0 -0.50606432325E+03  0.30275325837E+03  0.15764143930E+04  0.16831117203E+04  0.46999998093E+01 0.  1.
       -5    1    3    3    0  502  0.50606432325E+03 -0.30275325837E+03 -0.65554424405E+02  0.59336338552E+03  0.46999998093E+01 0. -1.
</event>
<event>
 5   0  0.7082527E-06  0.1698512E+04  0.7818609E-02  0.8762213E-01
        1   -1    0    0  501    0  0.00000000000E+00  0.00000000000E+00  0.11544095470E+04  0.11544095470E+04  0.50400001928E-02 0. -1.
       -1   -1    0    0    0  501  0.00000000000E+00  0.00000000000E+00 -0.62476626623E+03  0.62476626625E+03  0.50400001928E-02 0.  1.
    10030    2    1    2    0    0  0.00000000000E+00  0.00000000000E+00  0.52964328073E+03  0.17791758132E+04  0.16985124579E+04 0.  0.
        1    1    3    3  502    0  0.28300328590E+03  0.44503958316E+03 -0.43243663729E+03  0.68202092029E+03  0.50400001928E-02 0.  1.
       -1    1    3    3    0  502 -0.28300328590E+03 -0.44503958316E+03  0.96207991802E+03  0.10971548929E+04  0.50400001928E-02 0. -1.
</event>
<event>
 5   0  0.7082527E-06  0.1700286E+04  0.7818609E-02  0.8761202E-01
        1   -1    0    0  501    0  0.00000000000E+00  0.00000000000E+00  0.12639511590E+04  0.12639511590E+04  0.50400001928E-02 0. -1.
       -1   -1    0    0    0  501  0.00000000000E+00  0.00000000000E+00 -0.57181225069E+03  0.57181225071E+03  0.50400001928E-02 0.  1.
    10030    2    1    2    0    0  0.00000000000E+00  0.00000000000E+00  0.69213890830E+03  0.18357634097E+04  0.17002855725E+04 0.  0.
        1    1    3    3  502    0  0.74095682542E+03 -0.26762706270E+03  0.10759716964E+01  0.78780861861E+03  0.50400001928E-02 0. -1.
       -1    1    3    3    0  502 -0.74095682542E+03  0.26762706270E+03  0.69106293660E+03  0.10479547911E+04  0.50400001928E-02 0.  1.
</event>
<event>
 5   0  0.7455669E-06  0.1699581E+04  0.7818609E-02  0.8761603E-01
        1   -1    0    0  501    0  0.00000000000E+00  0.00000000000E+00  0.11765776525E+04  0.11765776525E+04  0.50400001928E-02 0.  1.
       -1   -1    0    0    0  501  0.00000000000E+00  0.00000000000E+00 -0.61376653520E+03  0.61376653522E+03  0.50400001928E-02 0. -1.
    10030    2    1    2    0    0  0.00000000000E+00  0.00000000000E+00  0.56281111725E+03  0.17903441877E+04  0.16995811121E+04 0.  0.
        4    1    3    3  502    0  0.35266306739E+03 -0.66388363074E+02  0.10928431623E+04  0.11502549474E+04  0.12699999809E+01 0.  1.
       -4    1    3    3    0  502 -0.35266306739E+03  0.66388363074E+02 -0.53003204502E+03  0.64008924026E+03  0.12699999809E+01 0. -1.
</event>
<event>
 5   0  0.7461128E-06  0.1700438E+04  0.7818609E-02  0.8761114E-01
       -1   -1    0    0    0  501  0.00000000000E+00  0.00000000000E+00  0.69126740089E+03  0.69126740091E+03  0.50400001928E-02 0.  1.
        1   -1    0    0  501    0  0.00000000000E+00  0.00000000000E+00 -0.10457205599E+04  0.10457205599E+04  0.50400001928E-02 0. -1.
    10030    2    1    2    0    0  0.00000000000E+00  0.00000000000E+00 -0.35445315904E+03  0.17369879608E+04  0.17004382183E+04 0.  0.
        3    1    3    3  502    0 -0.19376169349E+03  0.20577270401E+03 -0.99632650475E+03  0.10356411125E+04  0.10100000352E+00 0. -1.
       -3    1    3    3    0  502  0.19376169349E+03 -0.20577270401E+03  0.64187334572E+03  0.70134684837E+03  0.10100000352E+00 0.  1.
</event>
<event>
 5   0  0.1374441E-05  0.1700679E+04  0.7818609E-02  0.8760977E-01
        2   -1    0    0  501    0  0.00000000000E+00  0.00000000000E+00  0.15991184138E+04  0.15991184139E+04  0.25500000920E-02 0. -1.
       -2   -1    0    0    0  501  0.00000000000E+00  0.00000000000E+00 -0.45217238605E+03  0.45217238606E+03  0.25500000920E-02 0.  1.
    10030    2    1    2    0    0  0.00000000000E+00  0.00000000000E+00  0.11469460278E+04  0.20512907999E+04  0.17006789101E+04 0.  0.
        1    1    3    3  502    0 -0.55265264183E+03  0.52927571658E+03  0.12618528002E+03  0.77555170789E+03  0.50400001928E-02 0.  1.
       -1    1    3    3    0  502  0.55265264183E+03 -0.52927571658E+03  0.10207607478E+04  0.12757390920E+04  0.50400001928E-02 0. -1.
</event>
<event>
 5   0  0.1423543E-05  0.1699214E+04  0.7818609E-02  0.8761813E-01
        2   -1    0    0  501    0  0.00000000000E+00  0.00000000000E+00  0.10639153630E+04  0.10639153630E+04  0.25500000920E-02 0.  1.
       -2   -1    0    0    0  501  0.00000000000E+00  0.00000000000E+00 -0.67846757442E+03  0.67846757442E+03  0.25500000920E-02 0. -1.
    10030    2    1    2    0    0  0.00000000000E+00  0.00000000000E+00  0.38544778858E+03  0.17423829374E+04  0.16992140250E+04 0.  0.
        3    1    3    3  502    0  0.10941044123E+03 -0.10835306289E+03 -0.66403946963E+03  0.68165934184E+03  0.10100000352E+00 0. -1.
       -3    1    3    3    0  502 -0.10941044123E+03  0.10835306289E+03  0.10494872582E+04  0.10607235956E+04  0.10100000352E+00 0.  1.
</event>
<event>
 5   0  0.7461128E-06  0.1700822E+04  0.7818609E-02  0.8760896E-01
        1   -1    0    0  501    0  0.00000000000E+00  0.00000000000E+00  0.67668038503E+03  0.67668038505E+03  0.50400001928E-02 0.  1.
       -1   -1    0    0    0  501  0.00000000000E+00  0.00000000000E+00 -0.10687452235E+04  0.10687452235E+04  0.50400001928E-02 0. -1.
    10030    2    1    2    0    0  0.00000000000E+00  0.00000000000E+00 -0.39206483846E+03  0.17454256086E+04  0.17008220711E+04 0.  0.
        3    1    3    3  502    0  0.22066444715E+03 -0.45119985216E+03  0.50820362318E+03  0.71452434362E+03  0.10100000352E+00 0.  1.
       -3    1    3    3    0  502 -0.22066444715E+03  0.45119985216E+03 -0.90026846163E+03  0.10309012649E+04  0.10100000352E+00 0. -1.
</event>
<event>
 5   0  0.1441756E-05  0.1700548E+04  0.7818609E-02  0.8761052E-01
       -2   -1    0    0    0  501  0.00000000000E+00  0.00000000000E+00  0.13321949578E+04  0.13321949578E+04  0.25500000920E-02 0. -1.
        2   -1    0    0  501    0  0.00000000000E+00  0.00000000000E+00 -0.54268747289E+03  0.54268747290E+03  0.25500000920E-02 0.  1.
    10030    2    1    2    0    0  0.00000000000E+00  0.00000000000E+00  0.78950748489E+03  0.18748824307E+04  0.17005475766E+04 0.  0.
        5    1    3    3  502    0 -0.45910904542E+03  0.29499181805E+03 -0.32411951530E+03  0.63472579789E+03  0.46999998093E+01 0.  1.
       -5    1    3    3    0  502  0.45910904542E+03 -0.29499181805E+03  0.11136270002E+04  0.12401566328E+04  0.46999998093E+01 0. -1.
</event>
<event>
 5   0  0.7455669E-06  0.1699521E+04  0.7818609E-02  0.8761638E-01
        1   -1    0    0  501    0  0.00000000000E+00  0.00000000000E+00  0.42283672620E+03  0.42283672623E+03  0.50400001928E-02 0. -1.
       -1   -1    0    0    0  501  0.00000000000E+00  0.00000000000E+00 -0.17077348056E+04  0.17077348056E+04  0.50400001928E-02 0.  1.
    10030    2    1    2    0    0  0.00000000000E+00  0.00000000000E+00 -0.12848980794E+04  0.21305715318E+04  0.16995211025E+04 0.  0.
        4    1    3    3  502    0  0.31741159504E+03  0.59857155970E+03 -0.12854201736E+04  0.14530466849E+04  0.12699999809E+01 0.  1.
       -4    1    3    3    0  502 -0.31741159504E+03 -0.59857155970E+03  0.52209424180E+00  0.67752484694E+03  0.12699999809E+01 0. -1.
</event>
<event>
 5   0  0.7476457E-06  0.1700263E+04  0.7818609E-02  0.8761214E-01
       -1   -1    0    0    0  501  0.00000000000E+00  0.00000000000E+00  0.81525815735E+03  0.81525815736E+03  0.50400001928E-02 0.  1.
        1   -1    0    0  501    0  0.00000000000E+00  0.00000000000E+00 -0.88649683672E+03  0.88649683673E+03  0.50400001928E-02 0. -1.
    10030    2    1    2    0    0  0.00000000000E+00  0.00000000000E+00 -0.71238679371E+02  0.17017549941E+04  0.17002632474E+04 0.  0.
        2    1    3    3  502    0 -0.68670827569E+03  0.15870768474E+03 -0.51139667936E+03  0.87079443543E+03  0.25500000920E-02 0. -1.
       -2    1    3    3    0  502  0.68670827569E+03 -0.15870768474E+03  0.44015799999E+03  0.83096055867E+03  0.25500000920E-02 0.  1.
</event>
<event>
 5   0  0.7082527E-06  0.1699406E+04  0.7818609E-02  0.8761703E-01
       -1   -1    0    0    0  501  0.00000000000E+00  0.00000000000E+00  0.60080520012E+03  0.60080520014E+03  0.50400001928E-02 0. -1.
        1   -1    0    0  501    0  0.00000000000E+00  0.00000000000E+00 -0.12017126134E+04  0.12017126134E+04  0.50400001928E-02 0.  1.
    10030    2    1    2    0    0  0.00000000000E+00  0.00000000000E+00 -0.60090741324E+03  0.18025178135E+04  0.16994059988E+04 0.  0.
        1    1    3    3  502    0  0.75685331520E+03 -0.15301505628E+03 -0.67658929439E+03  0.10266516554E+04  0.50400001928E-02 0.  1.
       -1    1    3    3    0  502 -0.75685331520E+03  0.15301505628E+03  0.75681881144E+02  0.77586615814E+03  0.50400001928E-02 0. -1.
</event>
<event>
 5   0  0.7583716E-06  0.1699873E+04  0.7818609E-02  0.8761437E-01
        1   -1    0    0  501    0  0.00000000000E+00  0.00000000000E+00  0.12814624808E+04  0.12814624808E+04  0.50400001928E-02 0.  1.
       -1   -1    0    0    0  501  0.00000000000E+00  0.00000000000E+00 -0.56372479105E+03  0.56372479107E+03  0.50400001928E-02 0. -1.
    10030    2    1    2    0    0  0.00000000000E+00  0.00000000000E+00  0.71773768976E+03  0.18451872719E+04  0.16998731356E+04 0.  0.
        5    1    3    3  502    0 -0.58005975257E+03  0.42138475432E+03  0.85432558094E+03  0.11153155231E+04  0.46999998093E+01 0.  1.
       -5    1    3    3    0  502  0.58005975257E+03 -0.42138475432E+03 -0.13658789118E+03  0.72987174883E+03  0.46999998093E+01 0. -1.
</event>
<event>
 5   0  0.1441756E-05  0.1700115E+04  0.7818609E-02  0.8761299E-01
       -2   -1    0    0    0  501  0.00000000000E+00  0.00000000000E+00  0.10239215886E+04  0.10239215886E+04  0.25500000920E-02 0. -1.
        2   -1    0    0  501    0  0.00000000000E+00  0.00000000000E+00 -0.70571592199E+03  0.70571592200E+03  0.25500000920E-02 0.  1.
    10030    2    1    2    0    0  0.00000000000E+00  0.00000000000E+00  0.31820566656E+03  0.17296375106E+04  0.17001150172E+04 0.  0.
        5    1    3    3  502    0 -0.30742549520E+03  0.52798980934E+03  0.76037501820E+03  0.97543627786E+03  0.46999998093E+01 0. -1.
       -5    1    3    3    0  502  0.30742549520E+03 -0.52798980934E+03 -0.44216935164E+03  0.75420123269E+03  0.46999998093E+01 0.  1.
</event>
<event>
 5   0  0.1419012E-05  0.1699798E+04  0.7818609E-02  0.8761480E-01
        2   -1    0    0  501    0  0.00000000000E+00  0.00000000000E+00  0.21736698153E+04  0.21736698153E+04  0.25500000920E-02 0.  1.
       -2   -1    0    0    0  501  0.00000000000E+00  0.00000000000E+00 -0.33230815952E+03  0.33230815953E+03  0.25500000920E-02 0. -1.
    10030    2    1    2    0    0  0.00000000000E+00  0.00000000000E+00  0.18413616558E+04  0.25059779748E+04  0.16997978889E+04 0.  0.
        4    1    3    3  502    0 -0.30411729368E+03 -0.79044517546E+03  0.81606199991E+03  0.11761163651E+04  0.12699999809E+01 0.  1.
       -4    1    3    3    0  502  0.30411729368E+03  0.79044517546E+03  0.10252996558E+04  0.13298616097E+04  0.12699999809E+01 0. -1.
</event>
<event>
 5   0  0.7583716E-06  0.1698403E+04  0.7818609E-02  0.8762276E-01
       -1   -1    0    0    0  501  0.00000000000E+00  0.00000000000E+00  0.89093509427E+03  0.89093509429E+03  0.50400001928E-02 0. -1.
        1   -1    0    0  501    0  0.00000000000E+00  0.00000000000E+00 -0.80942262846E+03  0.80942262848E+03  0.50400001928E-02 0.  1.
    10030    2    1    2    0    0  0.00000000000E+00  0.00000000000E+00  0.81512465814E+02  0.17003577228E+04  0.16984028095E+04 0.  0.
        5    1    3    3  502    0 -0.74631086809E+03  0.19863413828E+03 -0.31275855025E+03  0.83323192058E+03  0.46999998093E+01 0.  1.
       -5    1    3    3    0  502  0.74631086809E+03 -0.19863413828E+03  0.39427101606E+03  0.86712580219E+03  0.46999998093E+01 0. -1.
</event>
<event>
 5   0  0.5229750E-06  0.1700614E+04  0.7818609E-02  0.8761014E-01
       -3   -1    0    0    0  501  0.00000000000E+00  0.00000000000E+00  0.12083038603E+04  0.12083038645E+04  0.10100000352E+00 0.  1.
        3   -1    0    0  501    0  0.00000000000E+00  0.00000000000E+00 -0.59837774562E+03  0.59837775414E+03  0.10100000352E+00 0. -1.
    10030    2    1    2    0    0  0.00000000000E+00  0.00000000000E+00  0.60992611471E+03  0.18066816187E+04  0.17006141849E+04 0.  0.
        4    1    3    3  502    0  0.19687872187E+03 -0.73363789219E+03  0.71094239945E+03  0.10403972781E+04  0.12699999809E+01 0.  1.
       -4    1    3    3    0  502 -0.19687872187E+03  0.73363789219E+03 -0.10101628474E+03  0.76628434061E+03  0.12699999809E+01 0. -1.
</event>
<event>
 5   0  0.1374441E-05  0.1699250E+04  0.7818609E-02  0.8761792E-01
       -2   -1    0    0    0  501  0.00000000000E+00  0.00000000000E+00  0.91763939695E+03  0.91763939695E+03  0.25500000920E-02 0. -1.
        2   -1    0    0  501    0  0.00000000000E+00  0.00000000000E+00 -0.78665173059E+03  0.78665173059E+03  0.25500000920E-02 0.  1.
    10030    2    1    2    0    0  0.00000000000E+00  0.00000000000E+00  0.13098766636E+03  0.17042911275E+04  0.16992499753E+04 0.  0.
        1    1    3    3  502    0 -0.26673479109E+03  0.20264917869E+03 -0.71762245838E+03  0.79195715238E+03  0.50400001928E-02 0.  1.
       -1    1    3    3    0  502  0.26673479109E+03 -0.20264917869E+03  0.84861012474E+03  0.91233397516E+03  0.50400001928E-02 0. -1.
</event>
<event>
 5   0  0.1419012E-05  0.1699845E+04  0.7818609E-02  0.8761452E-01
        2   -1    0    0  501    0  0.00000000000E+00  0.00000000000E+00  0.22842054770E+04  0.22842054770E+04  0.25500000920E-02 0.  1.
       -2   -1    0    0    0  501  0.00000000000E+00  0.00000000000E+00 -0.31624505028E+03  0.31624505029E+03  0.25500000920E-02 0. -1.
    10030    2    1    2    0    0  0.00000000000E+00  0.00000000000E+00  0.19679604267E+04  0.26004505273E+04  0.16998454941E+04 0.  0.
        4    1    3    3  502    0 -0.20435686590E+03  0.40240161286E+03 -0.11778276996E+03  0.46643668431E+03  0.12699999809E+01 0. -1.
       -4    1    3    3    0  502  0.20435686590E+03 -0.40240161286E+03  0.20857431967E+04  0.21340138430E+04  0.12699999809E+01 0.  1.
</event>
<event>
 5   0  0.1419012E-05  0.1700558E+04  0.7818609E-02  0.8761046E-01
        2   -1    0    0  501    0  0.00000000000E+00  0.00000000000E+00  0.10995672938E+04  0.10995672938E+04  0.25500000920E-02 0. -1.
       -2   -1    0    0    0  501  0.00000000000E+00  0.00000000000E+00 -0.65750769471E+03  0.65750769471E+03  0.25500000920E-02 0.  1.
    10030    2    1    2    0    0  0.00000000000E+00  0.00000000000E+00  0.44205959913E+03  0.17570749885E+04  0.17005575045E+04 0.  0.
        4    1    3    3  502    0 -0.39154028303E+03 -0.96973609713E+02 -0.55235493010E+03  0.68396290537E+03  0.12699999809E+01 0.  1.
       -4    1    3    3    0  502  0.39154028303E+03  0.96973609713E+02  0.99441452923E+03  0.10731120832E+04  0.12699999809E+01 0. -1.
</event>
<event>
 5   0  0.7455669E-06  0.1700062E+04  0.7818609E-02  0.8761329E-01
       -1   -1    0    0    0  501  0.00000000000E+00  0.00000000000E+00  0.51158488258E+03  0.51158488260E+03  0.50400001928E-02 0.  1.
        1   -1    0    0  501    0  0.00000000000E+00  0.00000000000E+00 -0.14123814047E+04  0.14123814047E+04  0.50400001928E-02 0. -1.
    10030    2    1    2    0    0  0.00000000000E+00  0.00000000000E+00 -0.90079652214E+03  0.19239662873E+04  0.17000623225E+04 0.  0.
        4    1    3    3  502    0 -0.17453342913E+03 -0.67514985292E+03  0.99686563574E+02  0.70443471354E+03  0.12699999809E+01 0.  1.
       -4    1    3    3    0  502  0.17453342913E+03  0.67514985292E+03 -0.10004830857E+04  0.12195315738E+04  0.12699999809E+01 0. -1.
</event>
<event>
 5   0  0.7461128E-06  0.1700853E+04  0.7818609E-02  0.8760878E-01
       -1   -1    0    0    0  501  0.00000000000E+00  0.00000000000E+00  0.99839984527E+03  0.99839984528E+03  0.50400001928E-02 0.  1.
        1   -1    0    0  501    0  0.00000000000E+00  0.00000000000E+00 -0.72438413003E+03  0.72438413005E+03  0.50400001928E-02 0. -1.
    10030    2    1    2    0    0  0.00000000000E+00  0.00000000000E+00  0.27401571524E+03  0.17227839753E+04  0.17008527313E+04 0.  0.
        3    1    3    3  502    0  0.56492585391E+03  0.45627711446E+03 -0.31129938112E+03  0.79008691957E+03  0.10100000352E+00 0. -1.
       -3    1    3    3    0  502 -0.56492585391E+03 -0.45627711446E+03  0.58531509635E+03  0.93269705576E+03  0.10100000352E+00 0.  1.
</event>
<event>
 5   0  0.7461128E-06  0.1695653E+04  0.7818609E-02  0.8763848E-01
       -1   -1    0    0    0  501  0.00000000000E+00  0.00000000000E+00  0.10018803723E+04  0.10018803723E+04  0.50400001928E-02 0.  1.
        1   -1    0    0  501    0  0.00000000000E+00  0.00000000000E+00 -0.71746046069E+03  0.71746046071E+03  0.50400001928E-02 0. -1.
    10030    2    1    2    0    0  0.00000000000E+00  0.00000000000E+00  0.28441991160E+03  0.17193408330E+04  0.16956527398E+04 0.  0.
        3    1    3    3  502    0 -0.74803992389E+03  0.13082196665E+03 -0.24005996110E+03  0.79643387034E+03  0.10100000352E+00 0. -1.
       -3    1    3    3    0  502  0.74803992389E+03 -0.13082196665E+03  0.52447987270E+03  0.92290696268E+03  0.10100000352E+00 0.  1.
</event>
<event>
 5   0  0.1419012E-05  0.1699155E+04  0.7818609E-02  0.8761846E-01
       -2   -1    0    0    0  501  0.00000000000E+00  0.00000000000E+00  0.92400922757E+03  0.92400922758E+03  0.25500000920E-02 0. -1.
        2   -1    0    0  501    0  0.00000000000E+00  0.00000000000E+00 -0.78114154685E+03  0.78114154685E+03  0.25500000920E-02 0.  1.
    10030    2    1    2    0    0  0.00000000000E+00  0.00000000000E+00  0.14286768073E+03  0.17051507744E+04  0.16991550810E+04 0.  0.
        4    1    3    3  502    0 -0.98208151671E+02  0.84375363987E+03  0.56707640510E+02  0.85134153854E+03  0.12699999809E+01 0. -1.
       -4    1    3    3    0  502  0.98208151671E+02 -0.84375363987E+03  0.86160040218E+02  0.85380923589E+03  0.12699999809E+01 0.  1.
</event>
<event>
 5   0  0.7455669E-06  0.1700150E+04  0.7818609E-02  0.8761279E-01
        1   -1    0    0  501    0  0.00000000000E+00  0.00000000000E+00  0.34701350105E+03  0.34701350109E+03  0.50400001928E-02 0. -1.
       -1   -1    0    0    0  501  0.00000000000E+00  0.00000000000E+00 -0.20824185203E+04  0.20824185203E+04  0.50400001928E-02 0.  1.
    10030    2    1    2    0    0  0.00000000000E+00  0.00000000000E+00 -0.17354050193E+04  0.24294320214E+04  0.17001498069E+04 0.  0.
        4    1    3    3  502    0 -0.79549943617E+02  0.82525138044E+03 -0.11360172387E+04  0.14063800389E+04  0.12699999809E+01 0.  1.
       -4    1    3    3    0  502  0.79549943617E+02 -0.82525138044E+03 -0.59938778060E+03  0.10230519825E+04  0.12699999809E+01 0. -1.
</event>
<event>
 5   0  0.1374441E-05  0.1704719E+04  0.7818609E-02  0.8758677E-01
       -2   -1    0    0    0  501  0.00000000000E+00  0.00000000000E+00  0.76633044779E+03  0.76633044779E+03  0.25500000920E-02 0.  1.
        2   -1    0    0  501    0  0.00000000000E+00  0.00000000000E+00 -0.94804644855E+03  0.94804644855E+03  0.25500000920E-02 0. -1.
    10030    2    1    2    0    0  0.00000000000E+00  0.00000000000E+00 -0.18171600076E+03  0.17143768963E+04  0.17047191668E+04 0.  0.
        1    1    3    3  502    0 -0.42282363731E+03  0.61535446090E+03  0.32265992379E+03  0.81335746586E+03  0.50400001928E-02 0.  1.
       -1    1    3    3    0  502  0.42282363731E+03 -0.61535446090E+03 -0.50437592455E+03  0.90101943048E+03  0.50400001928E-02 0. -1.
</event>
<event>
 5   0  0.7583716E-06  0.1700011E+04  0.7818609E-02  0.8761358E-01
        1   -1    0    0  501    0  0.00000000000E+00  0.00000000000E+00  0.73834005042E+03  0.73834005043E+03  0.50400001928E-02 0.  1.
       -1   -1    0    0    0  501  0.00000000000E+00  0.00000000000E+00 -0.97855960833E+03  0.97855960834E+03  0.50400001928E-02 0. -1.
    10030    2    1    2    0    0  0.00000000000E+00  0.00000000000E+00 -0.24021955791E+03  0.17168996588E+04  0.17000114712E+04 0.  0.
        5    1    3    3  502    0 -0.17297256869E+02 -0.81173595760E+03  0.13393072414E+03  0.82290582014E+03  0.46999998093E+01 0.  1.
       -5    1    3    3    0  502  0.17297256869E+02  0.81173595760E+03 -0.37415028205E+03  0.89399383863E+03  0.46999998093E+01 0. -1.
</event>
<event>
 5   0  0.1423543E-05  0.1702148E+04  0.7818609E-02  0.8760141E-01
        2   -1    0    0  501    0  0.00000000000E+00  0.00000000000E+00  0.16475146421E+04  0.16475146421E+04  0.25500000920E-02 0.  1.
       -2   -1    0    0    0  501  0.00000000000E+00  0.00000000000E+00 -0.43964800729E+03  0.43964800730E+03  0.25500000920E-02 0. -1.
    10030    2    1    2    0    0  0.00000000000E+00  0.00000000000E+00  0.12078666348E+04  0.20871626494E+04  0.17021475017E+04 0.  0.
        3    1    3    3  502    0 -0.79243101967E+03  0.21702305858E+03  0.33172771881E+03  0.88605260482E+03  0.10100000352E+00 0. -1.
       -3    1    3    3    0  502  0.79243101967E+03 -0.21702305858E+03  0.87613891604E+03  0.12011100446E+04  0.10100000352E+00 0.  1.
</event>
<event>
 5   0  0.1374441E-05  0.1698203E+04  0.7818609E-02  0.8762390E-01
        2   -1    0    0  501    0  0.00000000000E+00  0.00000000000E+00  0.11453220301E+04  0.11453220301E+04  0.25500000920E-02 0. -1.
       -2   -1    0    0    0  501  0.00000000000E+00  0.00000000000E+00 -0.62949433599E+03  0.62949433599E+03  0.25500000920E-02 0.  1.
    10030    2    1    2    0    0  0.00000000000E+00  0.00000000000E+00  0.51582769412E+03  0.17748163661E+04  0.16982034399E+04 0.  0.
        1    1    3    3  502    0  0.19087322718E+03  0.44590276467E+03 -0.47045785632E+03  0.67571625627E+03  0.50400001928E-02 0.  1.
       -1    1    3    3    0  502 -0.19087322718E+03 -0.44590276467E+03  0.98628555045E+03  0.10991001098E+04  0.50400001928E-02 0. -1.
</event>
<event>
 5   0  0.7583716E-06  0.1698536E+04  0.7818609E-02  0.8762200E-01
        1   -1    0    0  501    0  0.00000000000E+00  0.00000000000E+00  0.57013079499E+03  0.57013079501E+03  0.50400001928E-02 0. -1.
       -1   -1    0    0    0  501  0.00000000000E+00  0.00000000000E+00 -0.12650716919E+04  0.12650716919E+04  0.50400001928E-02 0.  1.
    10030    2    1    2    0    0  0.00000000000E+00  0.00000000000E+00 -0.69494089687E+03  0.18352024869E+04  0.16985362280E+04 0.  0.
        5    1    3    3  502    0  0.14305361708E+03  0.13449486000E+03 -0.12401962640E+04  0.12556520489E+04  0.46999998093E+01 0.  1.
       -5    1    3    3    0  502 -0.14305361708E+03 -0.13449486000E+03  0.54525536714E+03  0.57955043794E+03  0.46999998093E+01 0. -1.
</event>
<event>
 5   0  0.7476457E-06  0.1705452E+04  0.7818609E-02  0.8758261E-01
        1   -1    0    0  501    0  0.00000000000E+00  0.00000000000E+00  0.97307727934E+03  0.97307727936E+03  0.50400001928E-02 0.  1.
       -1   -1    0    0    0  501  0.00000000000E+00  0.00000000000E+00 -0.74725994880E+03  0.74725994882E+03  0.50400001928E-02 0. -1.
    10030    2    1    2    0    0  0.00000000000E+00  0.00000000000E+00  0.22581733054E+03  0.17203372282E+04  0.17054520550E+04 0.  0.
        2    1    3    3  502    0  0.78633294336E+03 -0.21478302261E+03 -0.13965723159E+03  0.82701595327E+03  0.25500000920E-02 0.  1.
       -2    1    3    3    0  502 -0.78633294336E+03  0.21478302261E+03  0.36547456214E+03  0.89332127490E+03  0.25500000920E-02 0. -1.
</event>
<event>
 5   0  0.1435301E-05  0.1701013E+04  0.7818609E-02  0.8760787E-01
        2   -1    0    0  501    0  0.00000000000E+00  0.00000000000E+00  0.11790336195E+04  0.11790336195E+04  0.25500000920E-02 0. -1.
       -2   -1    0    0    0  501  0.00000000000E+00  0.00000000000E+00 -0.61352060407E+03  0.61352060408E+03  0.25500000920E-02 0.  1.
    10030    2    1    2    0    0  0.00000000000E+00  0.00000000000E+00  0.56551301538E+03  0.17925542235E+04  0.17010131316E+04 0.  0.
        2    1    3    3  502    0  0.42870668630E+03 -0.10728098518E+03 -0.48302948210E+03  0.65468779830E+03  0.25500000920E-02 0.  1.
       -2    1    3    3    0  502 -0.42870668630E+03  0.10728098518E+03  0.10485424975E+04  0.11378664252E+04  0.25500000920E-02 0. -1.
</event>
<event>
 5   0  0.1435301E-05  0.1699479E+04  0.7818609E-02  0.8761662E-01
       -2   -1    0    0    0  501  0.00000000000E+00  0.00000000000E+00  0.32441719762E+03  0.32441719763E+03  0.25500000920E-02 0.  1.
        2   -1    0    0  501    0  0.00000000000E+00  0.00000000000E+00 -0.22257048719E+04  0.22257048719E+04  0.25500000920E-02 0. -1.
    10030    2    1    2    0    0  0.00000000000E+00  0.00000000000E+00 -0.19012876743E+04  0.25501220695E+04  0.16994786698E+04 0.  0.
        2    1    3    3  502    0  0.40312219157E+03  0.59935903349E+03 -0.27905195204E+03  0.77434407359E+03  0.25500000920E-02 0.  1.
       -2    1    3    3    0  502 -0.40312219157E+03 -0.59935903349E+03 -0.16222357222E+04  0.17757779960E+04  0.25500000920E-02 0. -1.
</event>
<event>
 5   0  0.7461128E-06  0.1699583E+04  0.7818609E-02  0.8761602E-01
        1   -1    0    0  501    0  0.00000000000E+00  0.00000000000E+00  0.94512058962E+03  0.94512058963E+03  0.50400001928E-02 0. -1.
       -1   -1    0    0    0  501  0.00000000000E+00  0.00000000000E+00 -0.76407751801E+03  0.76407751802E+03  0.50400001928E-02 0.  1.
    10030    2    1    2    0    0  0.00000000000E+00  0.00000000000E+00  0.18104307161E+03  0.17091981077E+04  0.16995827657E+04 0.  0.
        3    1    3    3  502    0 -0.61105286691E+03  0.49330133614E+03  0.41703293280E+03  0.88918405949E+03  0.10100000352E+00 0. -1.
       -3    1    3    3    0  502  0.61105286691E+03 -0.49330133614E+03 -0.23598986119E+03  0.82001404817E+03  0.10100000352E+00 0.  1.
</event>
<event>
 5   0  0.7476457E-06  0.1699597E+04  0.7818609E-02  0.8761594E-01
       -1   -1    0    0    0  501  0.00000000000E+00  0.00000000000E+00  0.47003925248E+03  0.47003925251E+03  0.50400001928E-02 0. -1.
        1   -1    0    0  501    0  0.00000000000E+00  0.00000000000E+00 -0.15363765522E+04  0.15363765522E+04  0.50400001928E-02 0.  1.
    10030    2    1    2    0    0  0.00000000000E+00  0.00000000000E+00 -0.10663372997E+04  0.20064158047E+04  0.16995967594E+04 0.  0.
        2    1    3    3  502    0 -0.11858569814E+03  0.41787681215E+03  0.32907806397E+03  0.54495501661E+03  0.25500000920E-02 0. -1.
       -2    1    3    3    0  502  0.11858569814E+03 -0.41787681215E+03 -0.13954153637E+04  0.14614607881E+04  0.25500000920E-02 0.  1.
</event>
<event>
 5   0  0.1374441E-05  0.1700630E+04  0.7818609E-02  0.8761005E-01
        2   -1    0    0  501    0  0.00000000000E+00  0.00000000000E+00  0.69446951739E+03  0.69446951740E+03  0.25500000920E-02 0. -1.
       -2   -1    0    0    0  501  0.00000000000E+00  0.00000000000E+00 -0.10411336261E+04  0.10411336261E+04  0.25500000920E-02 0.  1.
    10030    2    1    2    0    0  0.00000000000E+00  0.00000000000E+00 -0.34666410871E+03  0.17356031435E+04  0.17006299620E+04 0.  0.
        1    1    3    3  502    0 -0.24518720581E+03 -0.72907890660E+03  0.19656145931E+03  0.79392016303E+03  0.50400001928E-02 0. -1.
       -1    1    3    3    0  502  0.24518720581E+03  0.72907890660E+03 -0.54322556802E+03  0.94168298048E+03  0.50400001928E-02 0.  1.
</event>
<event>
 5   0  0.7455669E-06  0.1699721E+04  0.7818609E-02  0.8761524E-01
        1   -1    0    0  501    0  0.00000000000E+00  0.00000000000E+00  0.80211973761E+03  0.80211973762E+03  0.50400001928E-02 0. -1.
       -1   -1    0    0    0  501  0.00000000000E+00  0.00000000000E+00 -0.90044262646E+03  0.90044262648E+03  0.50400001928E-02 0.  1.
    10030    2    1    2    0    0  0.00000000000E+00  0.00000000000E+00 -0.98322888856E+02  0.17025623641E+04  0.16997209221E+04 0.  0.
        4    1    3    3  502    0 -0.68042506067E+03  0.14794172359E+03 -0.53720913942E+03  0.87946591131E+03  0.12699999809E+01 0.  1.
       -4    1    3    3    0  502  0.68042506067E+03 -0.14794172359E+03  0.43888625056E+03  0.82309645280E+03  0.12699999809E+01 0. -1.
</event>
<event>
 5   0  0.1374441E-05  0.1699819E+04  0.7818609E-02  0.8761468E-01
       -2   -1    0    0    0  501  0.00000000000E+00  0.00000000000E+00  0.42514658254E+03  0.42514658255E+03  0.25500000920E-02 0.  1.
        2   -1    0    0  501    0  0.00000000000E+00  0.00000000000E+00 -0.16990511851E+04  0.16990511851E+04  0.25500000920E-02 0. -1.
    10030    2    1    2    0    0  0.00000000000E+00  0.00000000000E+00 -0.12739046026E+04  0.21241977676E+04  0.16998185843E+04 0.  0.
        1    1    3    3  502    0 -0.29336217276E+03  0.94450084402E+01  0.35980076431E+03  0.46433518347E+03  0.50400001928E-02 0.  1.
       -1    1    3    3    0  502  0.29336217276E+03 -0.94450084402E+01 -0.16337053669E+04  0.16598625842E+04  0.50400001928E-02 0. -1.
</event>
<event>
 5   0  0.7082527E-06  0.1700428E+04  0.7818609E-02  0.8761120E-01
       -1   -1    0    0    0  501  0.00000000000E+00  0.00000000000E+00  0.45424188428E+03  0.45424188431E+03  0.50400001928E-02 0.  1.
        1   -1    0    0  501    0  0.00000000000E+00  0.00000000000E+00 -0.15913632762E+04  0.15913632762E+04  0.50400001928E-02 0. -1.
    10030    2    1    2    0    0  0.00000000000E+00  0.00000000000E+00 -0.11371213919E+04  0.20456051605E+04  0.17004280087E+04 0.  0.
        1    1    3    3  502    0  0.46351623682E+03  0.13687826764E+03 -0.14100385450E+04  0.14905675632E+04  0.50400001928E-02 0. -1.
       -1    1    3    3    0  502 -0.46351623682E+03 -0.13687826764E+03  0.27291715311E+03  0.55503759731E+03  0.50400001928E-02 0.  1.
</event>
<event>
 5   0  0.1419012E-05  0.1700420E+04  0.7818609E-02  0.8761125E-01
        2   -1    0    0  501    0  0.00000000000E+00  0.00000000000E+00  0.17340229723E+04  0.17340229723E+04  0.25500000920E-02 0. -1.
       -2   -1    0    0    0  501  0.00000000000E+00  0.00000000000E+00 -0.41686699815E+03  0.41686699816E+03  0.25500000920E-02 0.  1.
    10030    2    1    2    0    0  0.00000000000E+00  0.00000000000E+00  0.13171559742E+04  0.21508899705E+04  0.17004198907E+04 0.  0.
        4    1    3    3  502    0  0.91308256391E+02 -0.82666055022E+03  0.88182947241E+03  0.12121591044E+04  0.12699999809E+01 0.  1.
       -4    1    3    3    0  502 -0.91308256391E+02  0.82666055022E+03  0.43532650176E+03  0.93873086612E+03  0.12699999809E+01 0. -1.
</event>
<event>
 5   0  0.5229750E-06  0.1697440E+04  0.7818609E-02  0.8762826E-01
       -3   -1    0    0    0  501  0.00000000000E+00  0.00000000000E+00  0.25983835501E+03  0.25983837464E+03  0.10100000352E+00 0.  1.
        3   -1    0    0  501    0  0.00000000000E+00  0.00000000000E+00 -0.27722058212E+04  0.27722058230E+04  0.10100000352E+00 0. -1.
    10030    2    1    2    0    0  0.00000000000E+00  0.00000000000E+00 -0.25123674662E+04  0.30320441976E+04  0.16974397578E+04 0.  0.
        4    1    3    3  502    0 -0.66341213639E+03 -0.48275900593E+03 -0.16440578088E+04  0.18374165592E+04  0.12699999809E+01 0. -1.
       -4    1    3    3    0  502  0.66341213639E+03  0.48275900593E+03 -0.86830965735E+03  0.11946276384E+04  0.12699999809E+01 0.  1.
</event>
<event>
 5   0  0.1423543E-05  0.1700136E+04  0.7818609E-02  0.8761287E-01
        2   -1    0    0  501    0  0.00000000000E+00  0.00000000000E+00  0.18059188907E+04  0.18059188907E+04  0.25500000920E-02 0. -1.
       -2   -1    0    0    0  501  0.00000000000E+00  0.00000000000E+00 -0.40013716058E+03  0.40013716059E+03  0.25500000920E-02 0.  1.
    10030    2    1    2    0    0  0.00000000000E+00  0.00000000000E+00  0.14057817301E+04  0.22060560513E+04  0.17001355913E+04 0.  0.
        3    1    3    3  502    0 -0.70102873860E+03 -0.18408374352E+03  0.12792356411E+04  0.14702965527E+04  0.10100000352E+00 0. -1.
       -3    1    3    3    0  502  0.70102873860E+03  0.18408374352E+03  0.12654608895E+03  0.73575949861E+03  0.10100000352E+00 0.  1.
</event>
<event>
 5   0  0.1435301E-05  0.1700306E+04  0.7818609E-02  0.8761190E-01
       -2   -1    0    0    0  501  0.00000000000E+00  0.00000000000E+00  0.68013685603E+03  0.68013685604E+03  0.25500000920E-02 0. -1.
        2   -1    0    0  501    0  0.00000000000E+00  0.00000000000E+00 -0.10626692710E+04  0.10626692710E+04  0.25500000920E-02 0.  1.
    10030    2    1    2    0    0  0.00000000000E+00  0.00000000000E+00 -0.38253241492E+03  0.17428061270E+04  0.17003064864E+04 0.  0.
        2    1    3    3  502    0  0.51194265754E+03  0.54803012327E+03 -0.60169745488E+03  0.96148953600E+03  0.25500000920E-02 0.  1.
       -2    1    3    3    0  502 -0.51194265754E+03 -0.54803012327E+03  0.21916503996E+03  0.78131659100E+03  0.25500000920E-02 0. -1.
</event>
<event>
 5   0  0.1374441E-05  0.1700250E+04  0.7818609E-02  0.8761222E-01
        2   -1    0    0  501    0  0.00000000000E+00  0.00000000000E+00  0.14128986803E+04  0.14128986803E+04  0.25500000920E-02 0. -1.
       -2   -1    0    0    0  501  0.00000000000E+00  0.00000000000E+00 -0.51151031731E+03  0.51151031731E+03  0.25500000920E-02 0.  1.
    10030    2    1    2    0    0  0.00000000000E+00  0.00000000000E+00  0.90138836296E+03  0.19244089976E+04  0.17002496902E+04 0.  0.
        1    1    3    3  502    0  0.52919632441E+03  0.33059172974E+03 -0.20281189848E+03  0.65610388487E+03  0.50400001928E-02 0.  1.
       -1    1    3    3    0  502 -0.52919632441E+03 -0.33059172974E+03  0.11042002614E+04  0.12683051127E+04  0.50400001928E-02 0. -1.
</event>
<event>
 5   0  0.7476457E-06  0.1700268E+04  0.7818609E-02  0.8761212E-01
       -1   -1    0    0    0  501  0.00000000000E+00  0.00000000000E+00  0.38970875049E+03  0.38970875052E+03  0.50400001928E-02 0.  1.
        1   -1    0    0  501    0  0.00000000000E+00  0.00000000000E+00 -0.18545330562E+04  0.18545330562E+04  0.50400001928E-02 0. -1.
    10030    2    1    2    0    0  0.00000000000E+00  0.00000000000E+00 -0.14648243058E+04  0.22442418068E+04  0.17002679320E+04 0.  0.
        2    1    3    3  502    0  0.42334759645E+03  0.68646075832E+03 -0.37755796095E+03  0.89050635821E+03  0.25500000920E-02 0.  1.
       -2    1    3    3    0  502 -0.42334759645E+03 -0.68646075832E+03 -0.10872663448E+04  0.13537354486E+04  0.25500000920E-02 0. -1.
</event>
<event>
 5   0  0.1435301E-05  0.1699502E+04  0.7818609E-02  0.8761648E-01
       -2   -1    0    0    0  501  0.00000000000E+00  0.00000000000E+00  0.60713346420E+03  0.60713346421E+03  0.25500000920E-02 0. -1.
        2   -1    0    0  501    0  0.00000000000E+00  0.00000000000E+00 -0.11893217608E+04  0.11893217608E+04  0.25500000920E-02 0.  1.
    10030    2    1    2    0    0  0.00000000000E+00  0.00000000000E+00 -0.58218829659E+03  0.17964552250E+04  0.16995023280E+04 0.  0.
        2    1    3    3  502    0  0.80166470542E+03  0.28044658408E+03 -0.32024365265E+03  0.90767427171E+03  0.25500000920E-02 0. -1.
       -2    1    3    3    0  502 -0.80166470542E+03 -0.28044658408E+03 -0.26194464394E+03  0.88878095329E+03  0.25500000920E-02 0.  1.
</event>
<event>
 5   0  0.7461128E-06  0.1698962E+04  0.7818609E-02  0.8761957E-01
       -1   -1    0    0    0  501  0.00000000000E+00  0.00000000000E+00  0.69518888595E+03  0.69518888596E+03  0.50400001928E-02 0.  1.
        1   -1    0    0  501    0  0.00000000000E+00  0.00000000000E+00 -0.10380170663E+04  0.10380170663E+04  0.50400001928E-02 0. -1.
    10030    2    1    2    0    0  0.00000000000E+00  0.00000000000E+00 -0.34282818037E+03  0.17332059523E+04  0.16989619513E+04 0.  0.
        3    1    3    3  502    0  0.64966852637E+03 -0.29198467997E+03  0.30083506601E+03  0.77319208133E+03  0.10100000352E+00 0.  1.
       -3    1    3    3    0  502 -0.64966852637E+03  0.29198467997E+03 -0.64366324638E+03  0.96001387096E+03  0.10100000352E+00 0. -1.
</event>
<event>
 5   0  0.7455669E-06  0.1699810E+04  0.7818609E-02  0.8761473E-01
        1   -1    0    0  501    0  0.00000000000E+00  0.00000000000E+00  0.10596904550E+04  0.10596904551E+04  0.50400001928E-02 0. -1.
       -1   -1    0    0    0  501  0.00000000000E+00  0.00000000000E+00 -0.68165067727E+03  0.68165067728E+03  0.50400001928E-02 0.  1.
    10030    2    1    2    0    0  0.00000000000E+00  0.00000000000E+00  0.37803977777E+03  0.17413411323E+04  0.16998102440E+04 0.  0.
        4    1    3    3  502    0  0.30259283382E+03 -0.22323164056E+03 -0.59179830081E+03  0.70115735050E+03  0.12699999809E+01 0.  1.
       -4    1    3    3    0  502 -0.30259283382E+03  0.22323164056E+03  0.96983807858E+03  0.10401837818E+04  0.12699999809E+01 0. -1.
</event>
<event>
 5   0  0.7476457E-06  0.1700626E+04  0.7818609E-02  0.8761008E-01
       -1   -1    0    0    0  501  0.00000000000E+00  0.00000000000E+00  0.30354080604E+03  0.30354080608E+03  0.50400001928E-02 0.  1.
        1   -1    0    0  501    0  0.00000000000E+00  0.00000000000E+00 -0.23819928441E+04  0.23819928441E+04  0.50400001928E-02 0. -1.
    10030    2    1    2    0    0  0.00000000000E+00  0.00000000000E+00 -0.20784520381E+04  0.26855336502E+04  0.17006258000E+04 0.  0.
        2    1    3    3  502    0  0.72606746692E+03  0.35502533762E+03 -0.14564760977E+04  0.16656949241E+04  0.25500000920E-02 0. -1.
       -2    1    3    3    0  502 -0.72606746692E+03 -0.35502533762E+03 -0.62197594033E+03  0.10198387261E+04  0.25500000920E-02 0.  1.
</event>
<event>
 5   0  0.7583716E-06  0.1703107E+04  0.7818609E-02  0.8759595E-01
        1   -1    0    0  501    0  0.00000000000E+00  0.00000000000E+00  0.16538095536E+04  0.16538095536E+04  0.50400001928E-02 0. -1.
       -1   -1    0    0    0  501  0.00000000000E+00  0.00000000000E+00 -0.43846824963E+03  0.43846824966E+03  0.50400001928E-02 0.  1.
    10030    2    1    2    0    0  0.00000000000E+00  0.00000000000E+00  0.12153413040E+04  0.20922778033E+04  0.17031065501E+04 0.  0.
        5    1    3    3  502    0 -0.58717109371E+03  0.52527688046E+03  0.21066108611E+03  0.81552797477E+03  0.46999998093E+01 0.  1.
       -5    1    3    3    0  502  0.58717109371E+03 -0.52527688046E+03  0.10046802178E+04  0.12767498285E+04  0.46999998093E+01 0. -1.
</event>
<event>
 5   0  0.1374441E-05  0.1700393E+04  0.7818609E-02  0.8761140E-01
       -2   -1    0    0    0  501  0.00000000000E+00  0.00000000000E+00  0.37767987151E+03  0.37767987152E+03  0.25500000920E-02 0. -1.
        2   -1    0    0  501    0  0.00000000000E+00  0.00000000000E+00 -0.19138805504E+04  0.19138805504E+04  0.25500000920E-02 0.  1.
    10030    2    1    2    0    0  0.00000000000E+00  0.00000000000E+00 -0.15362006789E+04  0.22915604219E+04  0.17003930844E+04 0.  0.
        1    1    3    3  502    0 -0.58426618295E+03  0.65745048526E+02 -0.15957299711E+04  0.17006009304E+04  0.50400001928E-02 0.  1.
       -1    1    3    3    0  502  0.58426618295E+03 -0.65745048526E+02  0.59529292174E+02  0.59095949151E+03  0.50400001928E-02 0. -1.
</event>
<event>
 5   0  0.1419012E-05  0.1700107E+04  0.7818609E-02  0.8761303E-01
        2   -1    0    0  501    0  0.00000000000E+00  0.00000000000E+00  0.10562827877E+04  0.10562827877E+04  0.25500000920E-02 0. -1.
       -2   -1    0    0    0  501  0.00000000000E+00  0.00000000000E+00 -0.68408885852E+03  0.68408885852E+03  0.25500000920E-02 0.  1.
    10030    2    1    2    0    0  0.00000000000E+00  0.00000000000E+00  0.37219392918E+03  0.17403716462E+04  0.17001073925E+04 0.  0.
        4    1    3    3  502    0 -0.54202912988E+03  0.38245466640E+03 -0.35801989433E+03  0.75382160166E+03  0.12699999809E+01 0.  1.
       -4    1    3    3    0  502  0.54202912988E+03 -0.38245466640E+03  0.73021382351E+03  0.98655004457E+03  0.12699999809E+01 0. -1.
</event>
<event>
 5   0  0.1423543E-05  0.1700525E+04  0.7818609E-02  0.8761065E-01
        2   -1    0    0  501    0  0.00000000000E+00  0.00000000000E+00  0.26805581725E+04  0.26805581725E+04  0.25500000920E-02 0. -1.
       -2   -1    0    0    0  501  0.00000000000E+00  0.00000000000E+00 -0.26969995310E+03  0.26969995312E+03  0.25500000920E-02 0.  1.
    10030    2    1    2    0    0  0.00000000000E+00  0.00000000000E+00  0.24108582194E+04  0.29502581256E+04  0.17005251112E+04 0.  0.
        3    1    3    3  502    0  0.18329423315E+02 -0.68122776314E+03  0.20875744432E+04  0.21959905052E+04  0.10100000352E+00 0. -1.
       -3    1    3    3    0  502 -0.18329423315E+02  0.68122776314E+03  0.32328377625E+03  0.75426762042E+03  0.10100000352E+00 0.  1.
</event>
<event>
 5   0  0.7476457E-06  0.1700246E+04  0.7818609E-02  0.8761224E-01
        1   -1    0    0  501    0  0.00000000000E+00  0.00000000000E+00  0.13007925222E+04  0.13007925222E+04  0.50400001928E-02 0. -1.
       -1   -1    0    0    0  501  0.00000000000E+00  0.00000000000E+00 -0.55559154109E+03  0.55559154111E+03  0.50400001928E-02 0.  1.
    10030    2    1    2    0    0  0.00000000000E+00  0.00000000000E+00  0.74520098109E+03  0.18563840633E+04  0.17002462434E+04 0.  0.
        2    1    3    3  502    0  0.28695734821E+03  0.77568347665E+03  0.58733356360E+03  0.10143914878E+04  0.25500000920E-02 0. -1.
       -2    1    3    3    0  502 -0.28695734821E+03 -0.77568347665E+03  0.15786741749E+03  0.84199257548E+03  0.25500000920E-02 0.  1.
</event>
<event>
 5   0  0.5229750E-06  0.1699399E+04  0.7818609E-02  0.8761707E-01
       -4   -1    0    0    0  501  0.00000000000E+00  0.00000000000E+00  0.15406558396E+04  0.15406563631E+04  0.12699999809E+01 0.  1.
        4   -1    0    0  501    0  0.00000000000E+00  0.00000000000E+00 -0.46862337496E+03  0.46862509585E+03  0.12699999809E+01 0. -1.
    10030    2    1    2    0    0  0.00000000000E+00  0.00000000000E+00  0.10720324647E+04  0.20092814589E+04  0.16993994162E+04 0.  0.
        5    1    3    3  502    0  0.33689635364E+03 -0.73069233326E+03  0.21317446684E+03  0.83239166400E+03  0.46999998093E+01 0. -1.
       -5    1    3    3    0  502 -0.33689635364E+03  0.73069233326E+03  0.85885799784E+03  0.11768897949E+04  0.46999998093E+01 0.  1.
</event>
<event>
 5   0  0.5229750E-06  0.1699590E+04  0.7818609E-02  0.8761598E-01
        3   -1    0    0  501    0  0.00000000000E+00  0.00000000000E+00  0.65511947713E+03  0.65511948492E+03  0.10100000352E+00 0. -1.
       -3   -1    0    0    0  501  0.00000000000E+00  0.00000000000E+00 -0.11023200495E+04  0.11023200542E+04  0.10100000352E+00 0.  1.
    10030    2    1    2    0    0  0.00000000000E+00  0.00000000000E+00 -0.44720057241E+03  0.17574395391E+04  0.16995897686E+04 0.  0.
        1    1    3    3  502    0 -0.27039758509E+03 -0.21844689733E+03 -0.10254411524E+04  0.10827573403E+04  0.50400001928E-02 0.  1.
       -1    1    3    3    0  502  0.27039758509E+03  0.21844689733E+03  0.57824057998E+03  0.67468219877E+03  0.50400001928E-02 0. -1.
</event>
<event>
 5   0  0.5229750E-06  0.1699690E+04  0.7818609E-02  0.8761541E-01
       -3   -1    0    0    0  501  0.00000000000E+00  0.00000000000E+00  0.21041873672E+04  0.21041873696E+04  0.10100000352E+00 0.  1.
        3   -1    0    0  501    0  0.00000000000E+00  0.00000000000E+00 -0.34323792328E+03  0.34323793814E+03  0.10100000352E+00 0. -1.
    10030    2    1    2    0    0  0.00000000000E+00  0.00000000000E+00  0.17609494439E+04  0.24474253078E+04  0.16996904698E+04 0.  0.
        4    1    3    3  502    0  0.66670024796E+03  0.47033590248E+03  0.53811711818E+03  0.97738259017E+03  0.12699999809E+01 0. -1.
       -4    1    3    3    0  502 -0.66670024796E+03 -0.47033590248E+03  0.12228323257E+04  0.14700427176E+04  0.12699999809E+01 0.  1.
</event>
<event>
 5   0  0.7455669E-06  0.1700021E+04  0.7818609E-02  0.8761352E-01
       -1   -1    0    0    0  501  0.00000000000E+00  0.00000000000E+00  0.64659836590E+03  0.64659836592E+03  0.50400001928E-02 0.  1.
        1   -1    0    0  501    0  0.00000000000E+00  0.00000000000E+00 -0.11174141196E+04  0.11174141196E+04  0.50400001928E-02 0. -1.
    10030    2    1    2    0    0  0.00000000000E+00  0.00000000000E+00 -0.47081575367E+03  0.17640124855E+04  0.17000213455E+04 0.  0.
        4    1    3    3  502    0 -0.69686780888E+03 -0.44134009466E+03 -0.44834116244E+03  0.93883823582E+03  0.12699999809E+01 0. -1.
       -4    1    3    3    0  502  0.69686780888E+03  0.44134009466E+03 -0.22474591234E+02  0.82517424969E+03  0.12699999809E+01 0.  1.
</event>
<event>
 5   0  0.7082527E-06  0.1700864E+04  0.7818609E-02  0.8760872E-01
       -1   -1    0    0    0  501  0.00000000000E+00  0.00000000000E+00  0.11720091045E+04  0.11720091045E+04  0.50400001928E-02 0.  1.
        1   -1    0    0  501    0  0.00000000000E+00  0.00000000000E+00 -0.61708952253E+03  0.61708952255E+03  0.50400001928E-02 0. -1.
    10030    2    1    2    0    0  0.00000000000E+00  0.00000000000E+00  0.55491958195E+03  0.17890986270E+04  0.17008639437E+04 0.  0.
        1    1    3    3  502    0  0.17211857590E+03 -0.80436577597E+03  0.50454193247E+03  0.96498272906E+03  0.50400001928E-02 0.  1.
       -1    1    3    3    0  502 -0.17211857590E+03  0.80436577597E+03  0.50377649478E+02  0.82411589799E+03  0.50400001928E-02 0. -1.
</event>
<event>
 5   0  0.1419012E-05  0.1700353E+04  0.7818609E-02  0.8761163E-01
       -2   -1    0    0    0  501  0.00000000000E+00  0.00000000000E+00  0.62676442082E+03  0.62676442082E+03  0.25500000920E-02 0.  1.
        2   -1    0    0  501    0  0.00000000000E+00  0.00000000000E+00 -0.11532251605E+04  0.11532251605E+04  0.25500000920E-02 0. -1.
    10030    2    1    2    0    0  0.00000000000E+00  0.00000000000E+00 -0.52646073964E+03  0.17799895813E+04  0.17003534924E+04 0.  0.
        4    1    3    3  502    0 -0.80375501492E+02  0.77486205364E+03  0.93197298265E+02  0.78457553665E+03  0.12699999809E+01 0.  1.
       -4    1    3    3    0  502  0.80375501492E+02 -0.77486205364E+03 -0.61965803791E+03  0.99541404463E+03  0.12699999809E+01 0. -1.
</event>
<event>
 5   0  0.1441756E-05  0.1699342E+04  0.7818609E-02  0.8761740E-01
       -2   -1    0    0    0  501  0.00000000000E+00  0.00000000000E+00  0.76565289623E+03  0.76565289624E+03  0.25500000920E-02 0. -1.
        2   -1    0    0  501    0  0.00000000000E+00  0.00000000000E+00 -0.94290839949E+03  0.94290839949E+03  0.25500000920E-02 0.  1.
    10030    2    1    2    0    0  0.00000000000E+00  0.00000000000E+00 -0.17725550325E+03  0.17085612957E+04  0.16993416925E+04 0.  0.
        5    1    3    3  502    0  0.12156873236E+03 -0.26226189749E+03  0.71468020966E+03  0.77094108182E+03  0.46999998093E+01 0. -1.
       -5    1    3    3    0  502 -0.12156873236E+03  0.26226189749E+03 -0.89193571291E+03  0.93762021391E+03  0.46999998093E+01 0.  1.
</event>
<event>
 5   0  0.7583716E-06  0.1699085E+04  0.7818609E-02  0.8761886E-01
       -1   -1    0    0    0  501  0.00000000000E+00  0.00000000000E+00  0.69552989626E+03  0.69552989628E+03  0.50400001928E-02 0. -1.
        1   -1    0    0  501    0  0.00000000000E+00  0.00000000000E+00 -0.10376582040E+04  0.10376582040E+04  0.50400001928E-02 0.  1.
    10030    2    1    2    0    0  0.00000000000E+00  0.00000000000E+00 -0.34212830775E+03  0.17331881003E+04  0.16990848160E+04 0.  0.
        5    1    3    3  502    0 -0.26553389549E+03 -0.80005327419E+03 -0.63560410474E+02  0.84537299873E+03  0.46999998093E+01 0.  1.
       -5    1    3    3    0  502  0.26553389549E+03  0.80005327419E+03 -0.27856789728E+03  0.88781510158E+03  0.46999998093E+01 0. -1.
</event>
<event>
 5   0  0.1374441E-05  0.1699978E+04  0.7818609E-02  0.8761377E-01
        2   -1    0    0  501    0  0.00000000000E+00  0.00000000000E+00  0.16868324876E+04  0.16868324876E+04  0.25500000920E-02 0.  1.
       -2   -1    0    0    0  501  0.00000000000E+00  0.00000000000E+00 -0.42830665654E+03  0.42830665655E+03  0.25500000920E-02 0. -1.
    10030    2    1    2    0    0  0.00000000000E+00  0.00000000000E+00  0.12585258310E+04  0.21151391441E+04  0.16999783327E+04 0.  0.
        1    1    3    3  502    0  0.78719227721E+03 -0.30404167418E+03  0.50256927375E+03  0.98218577463E+03  0.50400001928E-02 0. -1.
       -1    1    3    3    0  502 -0.78719227721E+03  0.30404167418E+03  0.75595655730E+03  0.11329533695E+04  0.50400001928E-02 0.  1.
</event>
<event>
 5   0  0.1435301E-05  0.1704016E+04  0.7818609E-02  0.8759077E-01
        2   -1    0    0  501    0  0.00000000000E+00  0.00000000000E+00  0.16152327586E+04  0.16152327586E+04  0.25500000920E-02 0.  1.
       -2   -1    0    0    0  501  0.00000000000E+00  0.00000000000E+00 -0.44941983089E+03  0.44941983090E+03  0.25500000920E-02 0. -1.
    10030    2    1    2    0    0  0.00000000000E+00  0.00000000000E+00  0.11658129277E+04  0.20646525895E+04  0.17040160014E+04 0.  0.
        2    1    3    3  502    0  0.13807172417E+02 -0.98125900950E+02  0.16082269595E+04  0.16112769109E+04  0.25500000920E-02 0.  1.
       -2    1    3    3    0  502 -0.13807172417E+02  0.98125900950E+02 -0.44241403175E+03  0.45337567860E+03  0.25500000920E-02 0. -1.
</event>
<event>
 5   0  0.1435301E-05  0.1700732E+04  0.7818609E-02  0.8760947E-01
        2   -1    0    0  501    0  0.00000000000E+00  0.00000000000E+00  0.10317068188E+04  0.10317068188E+04  0.25500000920E-02 0.  1.
       -2   -1    0    0    0  501  0.00000000000E+00  0.00000000000E+00 -0.70089922721E+03  0.70089922722E+03  0.25500000920E-02 0. -1.
    10030    2    1    2    0    0  0.00000000000E+00  0.00000000000E+00  0.33080759155E+03  0.17326060460E+04  0.17007322094E+04 0.  0.
        2    1    3    3  502    0 -0.30334462386E+03 -0.75889573692E+03  0.40471435745E+03  0.91199474311E+03  0.25500000920E-02 0.  1.
       -2    1    3    3    0  502  0.30334462386E+03  0.75889573692E+03 -0.73906765895E+02  0.82061130287E+03  0.25500000920E-02 0. -1.
</event>
<event>
 5   0  0.7455669E-06  0.1699860E+04  0.7818609E-02  0.8761444E-01
        1   -1    0    0  501    0  0.00000000000E+00  0.00000000000E+00  0.77229305566E+03  0.77229305567E+03  0.50400001928E-02 0. -1.
       -1   -1    0    0    0  501  0.00000000000E+00  0.00000000000E+00 -0.93537144998E+03  0.93537144999E+03  0.50400001928E-02 0.  1.
    10030    2    1    2    0    0  0.00000000000E+00  0.00000000000E+00 -0.16307839432E+03  0.17076645057E+04  0.16998598475E+04 0.  0.
        4    1    3    3  502    0  0.29959627557E+03 -0.10264621865E+03 -0.87388421503E+03  0.92949954745E+03  0.12699999809E+01 0.  1.
       -4    1    3    3    0  502 -0.29959627557E+03  0.10264621865E+03  0.71080582071E+03  0.77816495821E+03  0.12699999809E+01 0. -1.
</event>
<event>
 5   0  0.7082527E-06  0.1700755E+04  0.7818609E-02  0.8760934E-01
       -1   -1    0    0    0  501  0.00000000000E+00  0.00000000000E+00  0.65987639290E+03  0.65987639292E+03  0.50400001928E-02 0. -1.
        1   -1    0    0  501    0  0.00000000000E+00  0.00000000000E+00 -0.10958745055E+04  0.10958745055E+04  0.50400001928E-02 0.  1.
    10030    2    1    2    0    0  0.00000000000E+00  0.00000000000E+00 -0.43599811262E+03  0.17557508985E+04  0.17007547922E+04 0.  0.
        1    1    3    3  502    0  0.75706392432E+03  0.94319408782E+00  0.18181646139E+03  0.77859097142E+03  0.50400001928E-02 0. -1.
       -1    1    3    3    0  502 -0.75706392432E+03 -0.94319408782E+00 -0.61781457400E+03  0.97715992703E+03  0.50400001928E-02 0.  1.
</event>
<event>
 5   0  0.1441756E-05  0.1698495E+04  0.7818609E-02  0.8762223E-01
        2   -1    0    0  501    0  0.00000000000E+00  0.00000000000E+00  0.44757591311E+03  0.44757591311E+03  0.25500000920E-02 0. -1.
       -2   -1    0    0    0  501  0.00000000000E+00  0.00000000000E+00 -0.16113941778E+04  0.16113941778E+04  0.25500000920E-02 0.  1.
    10030    2    1    2    0    0  0.00000000000E+00  0.00000000000E+00 -0.11638182647E+04  0.20589700909E+04  0.16984948873E+04 0.  0.
        5    1    3    3  502    0 -0.35136043607E+03  0.29820418804E+03  0.28279504126E+03  0.54071713414E+03  0.46999998093E+01 0. -1.
       -5    1    3    3    0  502  0.35136043607E+03 -0.29820418804E+03 -0.14466133060E+04  0.15182529568E+04  0.46999998093E+01 0.  1.
</event>
<event>
 5   0  0.7583716E-06  0.1699979E+04  0.7818609E-02  0.8761376E-01
       -1   -1    0    0    0  501  0.00000000000E+00  0.00000000000E+00  0.78298709191E+03  0.78298709193E+03  0.50400001928E-02 0.  1.
        1   -1    0    0  501    0  0.00000000000E+00  0.00000000000E+00 -0.92272544592E+03  0.92272544593E+03  0.50400001928E-02 0. -1.
    10030    2    1    2    0    0  0.00000000000E+00  0.00000000000E+00 -0.13973835401E+03  0.17057125379E+04  0.16999789570E+04 0.  0.
        5    1    3    3  502    0  0.16324873689E+03 -0.54961157211E+03 -0.69947017313E+03  0.90443553855E+03  0.46999998093E+01 0. -1.
       -5    1    3    3    0  502 -0.16324873689E+03  0.54961157211E+03  0.55973181912E+03  0.80127699931E+03  0.46999998093E+01 0.  1.
</event>
<event>
 5   0  0.1435301E-05  0.1700079E+04  0.7818609E-02  0.8761319E-01
        2   -1    0    0  501    0  0.00000000000E+00  0.00000000000E+00  0.11311931882E+04  0.11311931882E+04  0.25500000920E-02 0. -1.
       -2   -1    0    0    0  501  0.00000000000E+00  0.00000000000E+00 -0.63876545885E+03  0.63876545886E+03  0.25500000920E-02 0.  1.
    10030    2    1    2    0    0  0.00000000000E+00  0.00000000000E+00  0.49242772937E+03  0.17699586471E+04  0.17000789816E+04 0.  0.
        2    1    3    3  502    0 -0.40167431532E+03 -0.47990361674E+03 -0.35268545898E+03  0.71835699337E+03  0.25500000920E-02 0.  1.
       -2    1    3    3    0  502  0.40167431532E+03  0.47990361674E+03  0.84511318834E+03  0.10516016537E+04  0.25500000920E-02 0. -1.
</event>
<event>
 5   0  0.1419012E-05  0.1700149E+04  0.7818609E-02  0.8761280E-01
       -2   -1    0    0    0  501  0.00000000000E+00  0.00000000000E+00  0.79279010901E+03  0.79279010902E+03  0.25500000920E-02 0.  1.
        2   -1    0    0  501    0  0.00000000000E+00  0.00000000000E+00 -0.91149777951E+03  0.91149777951E+03  0.25500000920E-02 0. -1.
    10030    2    1    2    0    0  0.00000000000E+00  0.00000000000E+00 -0.11870767050E+03  0.17042878885E+04  0.17001487276E+04 0.  0.
        4    1    3    3  502    0 -0.80700015061E+03  0.13601539256E+03  0.17115246378E+03  0.83608863696E+03  0.12699999809E+01 0. -1.
       -4    1    3    3    0  502  0.80700015061E+03 -0.13601539256E+03 -0.28986013428E+03  0.86819925157E+03  0.12699999809E+01 0.  1.
</event>
<event>
 5   0  0.7455669E-06  0.1701531E+04  0.7818609E-02  0.8760492E-01
       -1   -1    0    0    0  501  0.00000000000E+00  0.00000000000E+00  0.11676189662E+04  0.11676189662E+04  0.50400001928E-02 0. -1.
        1   -1    0    0  501    0  0.00000000000E+00  0.00000000000E+00 -0.61989533889E+03  0.61989533891E+03  0.50400001928E-02 0.  1.
    10030    2    1    2    0    0  0.00000000000E+00  0.00000000000E+00  0.54772362734E+03  0.17875143052E+04  0.17015305519E+04 0.  0.
        4    1    3    3  502    0  0.31508761817E+03 -0.78995990622E+03  0.29695159966E+03  0.90083224076E+03  0.12699999809E+01 0. -1.
       -4    1    3    3    0  502 -0.31508761817E+03  0.78995990622E+03  0.25077202768E+03  0.88668206440E+03  0.12699999809E+01 0.  1.
</event>
<event>
 5   0  0.1441756E-05  0.1700722E+04  0.7818609E-02  0.8760953E-01
       -2   -1    0    0    0  501  0.00000000000E+00  0.00000000000E+00  0.22397474520E+04  0.22397474520E+04  0.25500000920E-02 0.  1.
        2   -1    0    0  501    0  0.00000000000E+00  0.00000000000E+00 -0.32285513901E+03  0.32285513902E+03  0.25500000920E-02 0. -1.
    10030    2    1    2    0    0  0.00000000000E+00  0.00000000000E+00  0.19168923130E+04  0.25626025910E+04  0.17007221701E+04 0.  0.
        5    1    3    3  502    0  0.63917485828E+03 -0.40719142647E+03  0.15395656803E+04  0.17159935697E+04  0.46999998093E+01 0. -1.
       -5    1    3    3    0  502 -0.63917485828E+03  0.40719142647E+03  0.37732663266E+03  0.84660902131E+03  0.46999998093E+01 0.  1.
</event>
<event>
 5   0  0.1423543E-05  0.1700149E+04  0.7818609E-02  0.8761280E-01
       -2   -1    0    0    0  501  0.00000000000E+00  0.00000000000E+00  0.12158289691E+04  0.12158289691E+04  0.25500000920E-02 0.  1.
        2   -1    0    0  501    0  0.00000000000E+00  0.00000000000E+00 -0.59434859435E+03  0.59434859436E+03  0.25500000920E-02 0. -1.
    10030    2    1    2    0    0  0.00000000000E+00  0.00000000000E+00  0.62148037476E+03  0.18101775635E+04  0.17001485097E+04 0.  0.
        3    1    3    3  502    0 -0.66465933413E+03 -0.49537783488E+03  0.11025926291E+03  0.83625853956E+03  0.10100000352E+00 0. -1.
       -3    1    3    3    0  502  0.66465933413E+03  0.49537783488E+03  0.51122111185E+03  0.97391902391E+03  0.10100000352E+00 0.  1.
</event>
<event>
 5   0  0.1419012E-05  0.1699709E+04  0.7818609E-02  0.8761530E-01
        2   -1    0    0  501    0  0.00000000000E+00  0.00000000000E+00  0.97701933826E+03  0.97701933826E+03  0.25500000920E-02 0.  1.
       -2   -1    0    0    0  501  0.00000000000E+00  0.00000000000E+00 -0.73924076719E+03  0.73924076719E+03  0.25500000920E-02 0. -1.
    10030    2    1    2    0    0  0.00000000000E+00  0.00000000000E+00  0.23777857108E+03  0.17162601055E+04  0.16997088282E+04 0.  0.
        4    1    3    3  502    0  0.30760309465E+03 -0.44423188120E+03 -0.54346270009E+03  0.76636476133E+03  0.12699999809E+01 0. -1.
       -4    1    3    3    0  502 -0.30760309465E+03  0.44423188120E+03  0.78124127117E+03  0.94989534413E+03  0.12699999809E+01 0.  1.
</event>
<event>
 5   0  0.7476457E-06  0.1702273E+04  0.7818609E-02  0.8760069E-01
        1   -1    0    0  501    0  0.00000000000E+00  0.00000000000E+00  0.12837744891E+04  0.12837744891E+04  0.50400001928E-02 0. -1.
       -1   -1    0    0    0  501  0.00000000000E+00  0.00000000000E+00 -0.56429982200E+03  0.56429982202E+03  0.50400001928E-02 0.  1.
    10030    2    1    2    0    0  0.00000000000E+00  0.00000000000E+00  0.71947466707E+03  0.18480743111E+04  0.17022734395E+04 0.  0.
        2    1    3    3  502    0 -0.47737087092E+03  0.77478600054E+02 -0.40064284714E+03  0.62801319480E+03  0.25500000920E-02 0.  1.
       -2    1    3    3    0  502  0.47737087092E+03 -0.77478600054E+02  0.11201175142E+04  0.12200611163E+04  0.25500000920E-02 0. -1.
</event>
<event>
 5   0  0.1423543E-05  0.1703602E+04  0.7818609E-02  0.8759313E-01
       -2   -1    0    0    0  501  0.00000000000E+00  0.00000000000E+00  0.42653730390E+03  0.42653730391E+03  0.25500000920E-02 0.  1.
        2   -1    0    0  501    0  0.00000000000E+00  0.00000000000E+00 -0.17010589799E+04  0.17010589799E+04  0.25500000920E-02 0. -1.
    10030    2    1    2    0    0  0.00000000000E+00  0.00000000000E+00 -0.12745216760E+04  0.21275962838E+04  0.17036021966E+04 0.  0.
        3    1    3    3  502    0  0.73807604958E+03  0.36760318502E+03 -0.37034852910E+03  0.90390618972E+03  0.10100000352E+00 0.  1.
       -3    1    3    3    0  502 -0.73807604958E+03 -0.36760318502E+03 -0.90417314688E+03  0.12236900941E+04  0.10100000352E+00 0. -1.
</event>
<event>
 5   0  0.7583716E-06  0.1700427E+04  0.7818609E-02  0.8761121E-01
       -1   -1    0    0    0  501  0.00000000000E+00  0.00000000000E+00  0.81228783309E+03  0.81228783311E+03  0.50400001928E-02 0. -1.
        1   -1    0    0  501    0  0.00000000000E+00  0.00000000000E+00 -0.88991005681E+03  0.88991005682E+03  0.50400001928E-02 0.  1.
    10030    2    1    2    0    0  0.00000000000E+00  0.00000000000E+00 -0.77622223715E+02  0.17021978899E+04  0.17004271366E+04 0.  0.
        5    1    3    3  502    0 -0.21601549008E+03 -0.43958990679E+03  0.65685072565E+03  0.81937594783E+03  0.46999998093E+01 0. -1.
       -5    1    3    3    0  502  0.21601549008E+03  0.43958990679E+03 -0.73447294936E+03  0.88282194210E+03  0.46999998093E+01 0.  1.
</event>
<event>
 5   0  0.1419012E-05  0.1700193E+04  0.7818609E-02  0.8761254E-01
       -2   -1    0    0    0  501  0.00000000000E+00  0.00000000000E+00  0.29858535647E+03  0.29858535648E+03  0.25500000920E-02 0. -1.
        2   -1    0    0  501    0  0.00000000000E+00  0.00000000000E+00 -0.24202921780E+04  0.24202921780E+04  0.25500000920E-02 0.  1.
    10030    2    1    2    0    0  0.00000000000E+00  0.00000000000E+00 -0.21217068215E+04  0.27188775344E+04  0.17001926982E+04 0.  0.
        4    1    3    3  502    0  0.20492326339E+02  0.62306895835E+03 -0.13661822318E+03  0.63820138993E+03  0.12699999809E+01 0. -1.
       -4    1    3    3    0  502 -0.20492326339E+02 -0.62306895835E+03 -0.19850885983E+04  0.20806761445E+04  0.12699999809E+01 0.  1.
</event>
<event>
 5   0  0.7082527E-06  0.1697523E+04  0.7818609E-02  0.8762778E-01
        1   -1    0    0  501    0  0.00000000000E+00  0.00000000000E+00  0.82238067564E+03  0.82238067566E+03  0.50400001928E-02 0. -1.
       -1   -1    0    0    0  501  0.00000000000E+00  0.00000000000E+00 -0.87598908991E+03  0.87598908992E+03  0.50400001928E-02 0.  1.
    10030    2    1    2    0    0  0.00000000000E+00  0.00000000000E+00 -0.53608414267E+02  0.16983697656E+04  0.16975234898E+04 0.  0.
        1    1    3    3  502    0 -0.78175476630E+03 -0.13247877451E+03 -0.32978410553E+03  0.85874833136E+03  0.50400001928E-02 0.  1.
       -1    1    3    3    0  502  0.78175476630E+03  0.13247877451E+03  0.27617569126E+03  0.83962143422E+03  0.50400001928E-02 0. -1.
</event>
<event>
 5   0  0.1441756E-05  0.1699871E+04  0.7818609E-02  0.8761438E-01
        2   -1    0    0  501    0  0.00000000000E+00  0.00000000000E+00  0.75187210069E+03  0.75187210069E+03  0.25500000920E-02 0.  1.
       -2   -1    0    0    0  501  0.00000000000E+00  0.00000000000E+00 -0.96078881221E+03  0.96078881221E+03  0.25500000920E-02 0. -1.
    10030    2    1    2    0    0  0.00000000000E+00  0.00000000000E+00 -0.20891671152E+03  0.17126609129E+04  0.16998709393E+04 0.  0.
        5    1    3    3  502    0  0.43938045786E+03  0.49384256836E+03  0.43382032658E+03  0.79066923225E+03  0.46999998093E+01 0.  1.
       -5    1    3    3    0  502 -0.43938045786E+03 -0.49384256836E+03 -0.64273703810E+03  0.92199168066E+03  0.46999998093E+01 0. -1.
</event>
<event>
 5   0  0.7583716E-06  0.1701383E+04  0.7818609E-02  0.8760576E-01
        1   -1    0    0  501    0  0.00000000000E+00  0.00000000000E+00  0.76721728958E+03  0.76721728960E+03  0.50400001928E-02 0. -1.
       -1   -1    0    0    0  501  0.00000000000E+00  0.00000000000E+00 -0.94324763440E+03  0.94324763442E+03  0.50400001928E-02 0.  1.
    10030    2    1    2    0    0  0.00000000000E+00  0.00000000000E+00 -0.17603034482E+03  0.17104649240E+04  0.17013828417E+04 0.  0.
        5    1    3    3  502    0 -0.12380444858E+03 -0.36055879985E+03 -0.85255055059E+03  0.93391365819E+03  0.46999998093E+01 0.  1.
       -5    1    3    3    0  502  0.12380444858E+03  0.36055879985E+03  0.67652020577E+03  0.77655126582E+03  0.46999998093E+01 0. -1.
</event>
<event>
 5   0  0.7583716E-06  0.1700243E+04  0.7818609E-02  0.8761226E-01
        1   -1    0    0  501    0  0.00000000000E+00  0.00000000000E+00  0.98545090153E+03  0.98545090154E+03  0.50400001928E-02 0. -1.
       -1   -1    0    0    0  501  0.00000000000E+00  0.00000000000E+00 -0.73337661228E+03  0.73337661230E+03  0.50400001928E-02 0.  1.
    10030    2    1    2    0    0  0.00000000000E+00  0.00000000000E+00  0.25207428925E+03  0.17188275138E+04  0.17002430929E+04 0.  0.
        5    1    3    3  502    0  0.88411274446E+00 -0.77677480709E+03 -0.22314337084E+03  0.80820476152E+03  0.46999998093E+01 0. -1.
       -5    1    3    3    0  502 -0.88411274446E+00  0.77677480709E+03  0.47521766008E+03  0.91062275232E+03  0.46999998093E+01 0.  1.
</event>
<event>
 5   0  0.1441756E-05  0.1695277E+04  0.7818609E-02  0.8764063E-01
       -2   -1    0    0    0  501  0.00000000000E+00  0.00000000000E+00  0.55589299102E+03  0.55589299102E+03  0.25500000920E-02 0.  1.
        2   -1    0    0  501    0  0.00000000000E+00  0.00000000000E+00 -0.12924981652E+04  0.12924981652E+04  0.25500000920E-02 0. -1.
    10030    2    1    2    0    0  0.00000000000E+00  0.00000000000E+00 -0.73660517420E+03  0.18483911562E+04  0.16952765803E+04 0.  0.
        5    1    3    3  502    0 -0.35971267853E+03 -0.32222806192E+03  0.39120760492E+03  0.62152201500E+03  0.46999998093E+01 0.  1.
       -5    1    3    3    0  502  0.35971267853E+03  0.32222806192E+03 -0.11278127791E+04  0.12268691412E+04  0.46999998093E+01 0. -1.
</event>
<event>
 5   0  0.7455669E-06  0.1700038E+04  0.7818609E-02  0.8761343E-01
       -1   -1    0    0    0  501  0.00000000000E+00  0.00000000000E+00  0.45151908898E+03  0.45151908901E+03  0.50400001928E-02 0.  1.
        1   -1    0    0  501    0  0.00000000000E+00  0.00000000000E+00 -0.16002247456E+04  0.16002247456E+04  0.50400001928E-02 0. -1.
    10030    2    1    2    0    0  0.00000000000E+00  0.00000000000E+00 -0.11487056566E+04  0.20517438346E+04  0.17000376694E+04 0.  0.
        4    1    3    3  502    0  0.33873428397E+03  0.48137923926E+02 -0.15134525408E+04  0.15516437674E+04  0.12699999809E+01 0. -1.
       -4    1    3    3    0  502 -0.33873428397E+03 -0.48137923926E+02  0.36474688414E+03  0.50010006723E+03  0.12699999809E+01 0.  1.
</event>
<event>
 5   0  0.7455669E-06  0.1700339E+04  0.7818609E-02  0.8761171E-01
       -1   -1    0    0    0  501  0.00000000000E+00  0.00000000000E+00  0.68641497468E+03  0.68641497470E+03  0.50400001928E-02 0.  1.
        1   -1    0    0  501    0  0.00000000000E+00  0.00000000000E+00 -0.10529903512E+04  0.10529903512E+04  0.50400001928E-02 0. -1.
    10030    2    1    2    0    0  0.00000000000E+00  0.00000000000E+00 -0.36657537650E+03  0.17394053259E+04  0.17003391959E+04 0.  0.
        4    1    3    3  502    0  0.49477638164E+03  0.57226718622E+03  0.21356000331E+03  0.78606799207E+03  0.12699999809E+01 0.  1.
       -4    1    3    3    0  502 -0.49477638164E+03 -0.57226718622E+03 -0.58013537981E+03  0.95333733382E+03  0.12699999809E+01 0. -1.
</event>
<event>
 5   0  0.7583716E-06  0.1699940E+04  0.7818609E-02  0.8761399E-01
       -1   -1    0    0    0  501  0.00000000000E+00  0.00000000000E+00  0.37583163593E+03  0.37583163596E+03  0.50400001928E-02 0. -1.
        1   -1    0    0  501    0  0.00000000000E+00  0.00000000000E+00 -0.19222678492E+04  0.19222678492E+04  0.50400001928E-02 0.  1.
    10030    2    1    2    0    0  0.00000000000E+00  0.00000000000E+00 -0.15464362133E+04  0.22980994851E+04  0.16999400819E+04 0.  0.
        5    1    3    3  502    0  0.11466675940E+03  0.22630224163E+03  0.32343652022E+03  0.41108933688E+03  0.46999998093E+01 0. -1.
       -5    1    3    3    0  502 -0.11466675940E+03 -0.22630224163E+03 -0.18698727335E+04  0.18870101483E+04  0.46999998093E+01 0.  1.
</event>
<event>
 5   0  0.7455669E-06  0.1700625E+04  0.7818609E-02  0.8761008E-01
        1   -1    0    0  501    0  0.00000000000E+00  0.00000000000E+00  0.14087953424E+04  0.14087953424E+04  0.50400001928E-02 0.  1.
       -1   -1    0    0    0  501  0.00000000000E+00  0.00000000000E+00 -0.51322659909E+03  0.51322659912E+03  0.50400001928E-02 0. -1.
    10030    2    1    2    0    0  0.00000000000E+00  0.00000000000E+00  0.89556874329E+03  0.19220219415E+04  0.17006248762E+04 0.  0.
        4    1    3    3  502    0 -0.69815048453E+03 -0.48218547547E+03  0.38472955196E+03  0.93163049158E+03  0.12699999809E+01 0. -1.
       -4    1    3    3    0  502  0.69815048453E+03  0.48218547547E+03  0.51083919133E+03  0.99039144993E+03  0.12699999809E+01 0.  1.
</event>
<event>
 5   0  0.7455669E-06  0.1700034E+04  0.7818609E-02  0.8761345E-01
       -1   -1    0    0    0  501  0.00000000000E+00  0.00000000000E+00  0.15292853405E+04  0.15292853405E+04  0.50400001928E-02 0. -1.
        1   -1    0    0  501    0  0.00000000000E+00  0.00000000000E+00 -0.47246156969E+03  0.47246156972E+03  0.50400001928E-02 0.  1.
    10030    2    1    2    0    0  0.00000000000E+00  0.00000000000E+00  0.10568237708E+04  0.20017469102E+04  0.17000335908E+04 0.  0.
        4    1    3    3  502    0 -0.13267261815E+03 -0.81919185064E+02  0.15123006273E+04  0.15203182485E+04  0.12699999809E+01 0. -1.
       -4    1    3    3    0  502  0.13267261815E+03  0.81919185064E+02 -0.45547685657E+03  0.48142866165E+03  0.12699999809E+01 0.  1.
</event>
<event>
 5   0  0.7455669E-06  0.1698158E+04  0.7818609E-02  0.8762415E-01
       -1   -1    0    0    0  501  0.00000000000E+00  0.00000000000E+00  0.36182637399E+03  0.36182637402E+03  0.50400001928E-02 0. -1.
        1   -1    0    0  501    0  0.00000000000E+00  0.00000000000E+00 -0.19924901091E+04  0.19924901091E+04  0.50400001928E-02 0.  1.
    10030    2    1    2    0    0  0.00000000000E+00  0.00000000000E+00 -0.16306637351E+04  0.23543164831E+04  0.16981583806E+04 0.  0.
        4    1    3    3  502    0 -0.12245550273E+03 -0.56654202833E+03  0.44867910260E+02  0.58136044094E+03  0.12699999809E+01 0. -1.
       -4    1    3    3    0  502  0.12245550273E+03  0.56654202833E+03 -0.16755316453E+04  0.17729560422E+04  0.12699999809E+01 0.  1.
</event>
<event>
 5   0  0.7082527E-06  0.1699884E+04  0.7818609E-02  0.8761430E-01
        1   -1    0    0  501    0  0.00000000000E+00  0.00000000000E+00  0.11065964417E+04  0.11065964417E+04  0.50400001928E-02 0. -1.
       -1   -1    0    0    0  501  0.00000000000E+00  0.00000000000E+00 -0.65281386144E+03  0.65281386146E+03  0.50400001928E-02 0.  1.
    10030    2    1    2    0    0  0.00000000000E+00  0.00000000000E+00  0.45378258021E+03  0.17594103031E+04  0.16998841092E+04 0.  0.
        1    1    3    3  502    0 -0.79576616014E+03  0.18997822766E+03 -0.11535988682E+02  0.81821060105E+03  0.50400001928E-02 0.  1.
       -1    1    3    3    0  502  0.79576616014E+03 -0.18997822766E+03  0.46531856889E+03  0.94119970208E+03  0.50400001928E-02 0. -1.
</event>
<event>
 5   0  0.1435301E-05  0.1699976E+04  0.7818609E-02  0.8761378E-01
        2   -1    0    0  501    0  0.00000000000E+00  0.00000000000E+00  0.85719410467E+03  0.85719410467E+03  0.25500000920E-02 0. -1.
       -2   -1    0    0    0  501  0.00000000000E+00  0.00000000000E+00 -0.84284255886E+03  0.84284255886E+03  0.25500000920E-02 0.  1.
    10030    2    1    2    0    0  0.00000000000E+00  0.00000000000E+00  0.14351545809E+02  0.17000366635E+04  0.16999760853E+04 0.  0.
        2    1    3    3  502    0 -0.77432817179E+03  0.34552677306E+03  0.66396158037E+02  0.85051826456E+03  0.25500000920E-02 0.  1.
       -2    1    3    3    0  502  0.77432817179E+03 -0.34552677306E+03 -0.52044612228E+02  0.84951839898E+03  0.25500000920E-02 0. -1.
</event>
<event>
 5   0  0.7082527E-06  0.1699975E+04  0.7818609E-02  0.8761378E-01
        1   -1    0    0  501    0  0.00000000000E+00  0.00000000000E+00  0.10314470477E+04  0.10314470477E+04  0.50400001928E-02 0. -1.
       -1   -1    0    0    0  501  0.00000000000E+00  0.00000000000E+00 -0.70045186037E+03  0.70045186039E+03  0.50400001928E-02 0.  1.
    10030    2    1    2    0    0  0.00000000000E+00  0.00000000000E+00  0.33099518731E+03  0.17318989081E+04  0.16999752980E+04 0.  0.
        1    1    3    3  502    0 -0.31226738858E+03 -0.71457290112E+03 -0.17901487458E+03  0.80010729176E+03  0.50400001928E-02 0. -1.
       -1    1    3    3    0  502  0.31226738858E+03  0.71457290112E+03  0.51001006189E+03  0.93179161632E+03  0.50400001928E-02 0.  1.
</event>
<event>
 5   0  0.7455669E-06  0.1700156E+04  0.7818609E-02  0.8761275E-01
       -1   -1    0    0    0  501  0.00000000000E+00  0.00000000000E+00  0.30504994097E+03  0.30504994101E+03  0.50400001928E-02 0.  1.
        1   -1    0    0  501    0  0.00000000000E+00  0.00000000000E+00 -0.23688993498E+04  0.23688993498E+04  0.50400001928E-02 0. -1.
    10030    2    1    2    0    0  0.00000000000E+00  0.00000000000E+00 -0.20638494088E+04  0.26739492908E+04  0.17001560009E+04 0.  0.
        4    1    3    3  502    0 -0.54225206258E+03  0.44279896935E+03 -0.27352677991E+03  0.75161608475E+03  0.12699999809E+01 0.  1.
       -4    1    3    3    0  502  0.54225206258E+03 -0.44279896935E+03 -0.17903226289E+04  0.19223332061E+04  0.12699999809E+01 0. -1.
</event>
<event>
 5   0  0.1441756E-05  0.1701062E+04  0.7818609E-02  0.8760759E-01
        2   -1    0    0  501    0  0.00000000000E+00  0.00000000000E+00  0.13573756621E+04  0.13573756622E+04  0.25500000920E-02 0.  1.
       -2   -1    0    0    0  501  0.00000000000E+00  0.00000000000E+00 -0.53294262691E+03  0.53294262692E+03  0.25500000920E-02 0. -1.
    10030    2    1    2    0    0  0.00000000000E+00  0.00000000000E+00  0.82443303524E+03  0.18903182891E+04  0.17010624340E+04 0.  0.
        5    1    3    3  502    0  0.60002451029E+02  0.45365107282E+03 -0.38447189097E+03  0.59769583815E+03  0.46999998093E+01 0. -1.
       -5    1    3    3    0  502 -0.60002451029E+02 -0.45365107282E+03  0.12089049262E+04  0.12926224509E+04  0.46999998093E+01 0.  1.
</event>
<event>
 5   0  0.5229750E-06  0.1699142E+04  0.7818609E-02  0.8761854E-01
        4   -1    0    0  501    0  0.00000000000E+00  0.00000000000E+00  0.13436408263E+04  0.13436414265E+04  0.12699999809E+01 0. -1.
       -4   -1    0    0    0  501  0.00000000000E+00  0.00000000000E+00 -0.53717412594E+03  0.53717562722E+03  0.12699999809E+01 0.  1.
    10030    2    1    2    0    0  0.00000000000E+00  0.00000000000E+00  0.80646670039E+03  0.18808170537E+04  0.16991422103E+04 0.  0.
        2    1    3    3  502    0  0.57330487010E+03  0.14668436033E+02 -0.29058433044E+03  0.64290970610E+03  0.25500000920E-02 0.  1.
       -2    1    3    3    0  502 -0.57330487010E+03 -0.14668436033E+02  0.10970510308E+04  0.12379073476E+04  0.25500000920E-02 0. -1.
</event>
<event>
 5   0  0.7461128E-06  0.1700890E+04  0.7818609E-02  0.8760857E-01
        1   -1    0    0  501    0  0.00000000000E+00  0.00000000000E+00  0.12791968947E+04  0.12791968948E+04  0.50400001928E-02 0. -1.
       -1   -1    0    0    0  501  0.00000000000E+00  0.00000000000E+00 -0.56539887437E+03  0.56539887439E+03  0.50400001928E-02 0.  1.
    10030    2    1    2    0    0  0.00000000000E+00  0.00000000000E+00  0.71379802038E+03  0.18445957691E+04  0.17008897488E+04 0.  0.
        3    1    3    3  502    0 -0.53475460473E+03  0.33704537857E+03  0.97390962756E+03  0.11610607423E+04  0.10100000352E+00 0.  1.
       -3    1    3    3    0  502  0.53475460473E+03 -0.33704537857E+03 -0.26011160719E+03  0.68353502682E+03  0.10100000352E+00 0. -1.
</event>
<event>
 5   0  0.7455669E-06  0.1700058E+04  0.7818609E-02  0.8761332E-01
       -1   -1    0    0    0  501  0.00000000000E+00  0.00000000000E+00  0.58711512138E+03  0.58711512140E+03  0.50400001928E-02 0. -1.
        1   -1    0    0  501    0  0.00000000000E+00  0.00000000000E+00 -0.12306767085E+04  0.12306767086E+04  0.50400001928E-02 0.  1.
    10030    2    1    2    0    0  0.00000000000E+00  0.00000000000E+00 -0.64356158716E+03  0.18177918300E+04  0.17000575345E+04 0.  0.
        4    1    3    3  502    0 -0.36201962257E+03  0.25564200476E+03 -0.10973662212E+04  0.11834801554E+04  0.12699999809E+01 0.  1.
       -4    1    3    3    0  502  0.36201962257E+03 -0.25564200476E+03  0.45380463407E+03  0.63431167460E+03  0.12699999809E+01 0. -1.
</event>
<event>
 5   0  0.7455669E-06  0.1699904E+04  0.7818609E-02  0.8761419E-01
        1   -1    0    0  501    0  0.00000000000E+00  0.00000000000E+00  0.60741772059E+03  0.60741772061E+03  0.50400001928E-02 0. -1.
       -1   -1    0    0    0  501  0.00000000000E+00  0.00000000000E+00 -0.11893270522E+04  0.11893270522E+04  0.50400001928E-02 0.  1.
    10030    2    1    2    0    0  0.00000000000E+00  0.00000000000E+00 -0.58190933157E+03  0.17967447728E+04  0.16999039115E+04 0.  0.
        4    1    3    3  502    0  0.70974143526E+03  0.25984343073E+03 -0.70190366716E+03  0.10314658910E+04  0.12699999809E+01 0.  1.
       -4    1    3    3    0  502 -0.70974143526E+03 -0.25984343073E+03  0.11999433559E+03  0.76527888178E+03  0.12699999809E+01 0. -1.
</event>
<event>
 5   0  0.1419012E-05  0.1700128E+04  0.7818609E-02  0.8761291E-01
        2   -1    0    0  501    0  0.00000000000E+00  0.00000000000E+00  0.19065171925E+04  0.19065171925E+04  0.25500000920E-02 0.  1.
       -2   -1    0    0    0  501  0.00000000000E+00  0.00000000000E+00 -0.37902036357E+03  0.37902036357E+03  0.25500000920E-02 0. -1.
    10030    2    1    2    0    0  0.00000000000E+00  0.00000000000E+00  0.15274968290E+04  0.22855375561E+04  0.17001280416E+04 0.  0.
        4    1    3    3  502    0  0.17102462856E+03 -0.25422408949E+03  0.18297015296E+04  0.18551788624E+04  0.12699999809E+01 0.  1.
       -4    1    3    3    0  502 -0.17102462856E+03  0.25422408949E+03 -0.30220470063E+03  0.43035869369E+03  0.12699999809E+01 0. -1.
</event>
<event>
 5   0  0.5229750E-06  0.1700141E+04  0.7818609E-02  0.8761284E-01
        3   -1    0    0  501    0  0.00000000000E+00  0.00000000000E+00  0.12669046992E+04  0.12669047033E+04  0.10100000352E+00 0. -1.
       -3   -1    0    0    0  501  0.00000000000E+00  0.00000000000E+00 -0.57038225421E+03  0.57038226315E+03  0.10100000352E+00 0.  1.
    10030    2    1    2    0    0  0.00000000000E+00  0.00000000000E+00  0.69652244502E+03  0.18372869664E+04  0.17001411355E+04 0.  0.
        1    1    3    3  502    0  0.50443909187E+03  0.52368545976E+02  0.10855097893E+04  0.11981372061E+04  0.50400001928E-02 0. -1.
       -1    1    3    3    0  502 -0.50443909187E+03 -0.52368545976E+02 -0.38898734429E+03  0.63914976027E+03  0.50400001928E-02 0.  1.
</event>
<event>
 5   0  0.7461128E-06  0.1699421E+04  0.7818609E-02  0.8761695E-01
        1   -1    0    0  501    0  0.00000000000E+00  0.00000000000E+00  0.16340507741E+04  0.16340507741E+04  0.50400001928E-02 0.  1.
       -1   -1    0    0    0  501  0.00000000000E+00  0.00000000000E+00 -0.44185162815E+03  0.44185162818E+03  0.50400001928E-02 0. -1.
    10030    2    1    2    0    0  0.00000000000E+00  0.00000000000E+00  0.11921991459E+04  0.20759024023E+04  0.16994210721E+04 0.  0.
        3    1    3    3  502    0 -0.77229835772E+03 -0.29980618495E+03  0.82683549288E+03  0.11704637732E+04  0.10100000352E+00 0.  1.
       -3    1    3    3    0  502  0.77229835772E+03  0.29980618495E+03  0.36536365307E+03  0.90543862909E+03  0.10100000352E+00 0. -1.
</event>
<event>
 5   0  0.1435301E-05  0.1700339E+04  0.7818609E-02  0.8761171E-01
        2   -1    0    0  501    0  0.00000000000E+00  0.00000000000E+00  0.14339113858E+04  0.14339113858E+04  0.25500000920E-02 0.  1.
       -2   -1    0    0    0  501  0.00000000000E+00  0.00000000000E+00 -0.50406767741E+03  0.50406767742E+03  0.25500000920E-02 0. -1.
    10030    2    1    2    0    0  0.00000000000E+00  0.00000000000E+00  0.92984370843E+03  0.19379790633E+04  0.17003392390E+04 0.  0.
        2    1    3    3  502    0  0.26537483177E+03  0.80724088080E+03  0.49564766205E+03  0.98373179570E+03  0.25500000920E-02 0. -1.
       -2    1    3    3    0  502 -0.26537483177E+03 -0.80724088080E+03  0.43419604638E+03  0.95424726757E+03  0.25500000920E-02 0.  1.
</event>
<event>
 5   0  0.1441756E-05  0.1700383E+04  0.7818609E-02  0.8761146E-01
       -2   -1    0    0    0  501  0.00000000000E+00  0.00000000000E+00  0.65850900937E+03  0.65850900937E+03  0.25500000920E-02 0. -1.
        2   -1    0    0  501    0  0.00000000000E+00  0.00000000000E+00 -0.10976698565E+04  0.10976698565E+04  0.25500000920E-02 0.  1.
    10030    2    1    2    0    0  0.00000000000E+00  0.00000000000E+00 -0.43916084715E+03  0.17561788659E+04  0.17003828861E+04 0.  0.
        5    1    3    3  502    0  0.56005927171E+03 -0.59730160646E+03 -0.45592965697E+03  0.93719237034E+03  0.46999998093E+01 0.  1.
       -5    1    3    3    0  502 -0.56005927171E+03  0.59730160646E+03  0.16768809819E+02  0.81898649555E+03  0.46999998093E+01 0. -1.
</event>
<event>
 5   0  0.1423543E-05  0.1699938E+04  0.7818609E-02  0.8761400E-01
        2   -1    0    0  501    0  0.00000000000E+00  0.00000000000E+00  0.10461821500E+04  0.10461821500E+04  0.25500000920E-02 0. -1.
       -2   -1    0    0    0  501  0.00000000000E+00  0.00000000000E+00 -0.69055612065E+03  0.69055612066E+03  0.25500000920E-02 0.  1.
    10030    2    1    2    0    0  0.00000000000E+00  0.00000000000E+00  0.35562602933E+03  0.17367382706E+04  0.16999382189E+04 0.  0.
        3    1    3    3  502    0 -0.37232460992E+03  0.63191505952E+03  0.61665236588E+03  0.95822878696E+03  0.10100000352E+00 0. -1.
       -3    1    3    3    0  502  0.37232460992E+03 -0.63191505952E+03 -0.26102633656E+03  0.77850948368E+03  0.10100000352E+00 0.  1.
</event>
<event>
 5   0  0.7476457E-06  0.1699413E+04  0.7818609E-02  0.8761699E-01
       -1   -1    0    0    0  501  0.00000000000E+00  0.00000000000E+00  0.15410934503E+04  0.15410934503E+04  0.50400001928E-02 0. -1.
        1   -1    0    0  501    0  0.00000000000E+00  0.00000000000E+00 -0.46849952727E+03  0.46849952730E+03  0.50400001928E-02 0.  1.
    10030    2    1    2    0    0  0.00000000000E+00  0.00000000000E+00  0.10725939230E+04  0.20095929776E+04  0.16994134905E+04 0.  0.
        2    1    3    3  502    0  0.78291812727E+03  0.28544239721E+03  0.33997204942E+03  0.90001063912E+03  0.25500000920E-02 0.  1.
       -2    1    3    3    0  502 -0.78291812727E+03 -0.28544239721E+03  0.73262187357E+03  0.11095823384E+04  0.25500000920E-02 0. -1.
</event>
<event>
 5   0  0.1423543E-05  0.1699659E+04  0.7818609E-02  0.8761559E-01
        2   -1    0    0  501    0  0.00000000000E+00  0.00000000000E+00  0.10128944451E+04  0.10128944451E+04  0.25500000920E-02 0. -1.
       -2   -1    0    0    0  501  0.00000000000E+00  0.00000000000E+00 -0.71301648363E+03  0.71301648364E+03  0.25500000920E-02 0.  1.
    10030    2    1    2    0    0  0.00000000000E+00  0.00000000000E+00  0.29987796142E+03  0.17259109287E+04  0.16996593018E+04 0.  0.
        3    1    3    3  502    0  0.15578290607E+03 -0.58491225890E+02 -0.69631194994E+03  0.71591890544E+03  0.10100000352E+00 0.  1.
       -3    1    3    3    0  502 -0.15578290607E+03  0.58491225890E+02  0.99618991136E+03  0.10099920233E+04  0.10100000352E+00 0. -1.
</event>
<event>
 5   0  0.7583716E-06  0.1700011E+04  0.7818609E-02  0.8761358E-01
        1   -1    0    0  501    0  0.00000000000E+00  0.00000000000E+00  0.14027193271E+04  0.14027193271E+04  0.50400001928E-02 0. -1.
       -1   -1    0    0    0  501  0.00000000000E+00  0.00000000000E+00 -0.51507753298E+03  0.51507753301E+03  0.50400001928E-02 0.  1.
    10030    2    1    2    0    0  0.00000000000E+00  0.00000000000E+00  0.88764179411E+03  0.19177968601E+04  0.17000108358E+04 0.  0.
        5    1    3    3  502    0 -0.10698923160E+03 -0.71460092625E+03  0.94881294323E+03  0.11926312384E+04  0.46999998093E+01 0. -1.
       -5    1    3    3    0  502  0.10698923160E+03  0.71460092625E+03 -0.61171149126E+02  0.72516562175E+03  0.46999998093E+01 0.  1.
</event>
<event>
 5   0  0.7461128E-06  0.1699811E+04  0.7818609E-02  0.8761472E-01
       -1   -1    0    0    0  501  0.00000000000E+00  0.00000000000E+00  0.44741493449E+03  0.44741493452E+03  0.50400001928E-02 0.  1.
        1   -1    0    0  501    0  0.00000000000E+00  0.00000000000E+00 -0.16144721145E+04  0.16144721145E+04  0.50400001928E-02 0. -1.
    10030    2    1    2    0    0  0.00000000000E+00  0.00000000000E+00 -0.11670571800E+04  0.20618870490E+04  0.16998105017E+04 0.  0.
        3    1    3    3  502    0 -0.16204751138E+03  0.31390561914E+03  0.35413892109E+03  0.50021047500E+03  0.10100000352E+00 0.  1.
       -3    1    3    3    0  502  0.16204751138E+03 -0.31390561914E+03 -0.15211961011E+04  0.15616765740E+04  0.10100000352E+00 0. -1.
</event>
<event>
 5   0  0.7455669E-06  0.1700078E+04  0.7818609E-02  0.8761320E-01
        1   -1    0    0  501    0  0.00000000000E+00  0.00000000000E+00  0.80615540744E+03  0.80615540745E+03  0.50400001928E-02 0.  1.
       -1   -1    0    0    0  501  0.00000000000E+00  0.00000000000E+00 -0.89631170985E+03  0.89631170986E+03  0.50400001928E-02 0. -1.
    10030    2    1    2    0    0  0.00000000000E+00  0.00000000000E+00 -0.90156302414E+02  0.17024671173E+04  0.17000782707E+04 0.  0.
        4    1    3    3  502    0 -0.10044072450E+03 -0.84218349441E+03  0.11601214869E+02  0.84823203104E+03  0.12699999809E+01 0.  1.
       -4    1    3    3    0  502  0.10044072450E+03  0.84218349441E+03 -0.10175751728E+03  0.85423508627E+03  0.12699999809E+01 0. -1.
</event>
<event>
 5   0  0.1419012E-05  0.1700140E+04  0.7818609E-02  0.8761284E-01
       -2   -1    0    0    0  501  0.00000000000E+00  0.00000000000E+00  0.43823584145E+03  0.43823584145E+03  0.25500000920E-02 0.  1.
        2   -1    0    0  501    0  0.00000000000E+00  0.00000000000E+00 -0.16489277109E+04  0.16489277109E+04  0.25500000920E-02 0. -1.
    10030    2    1    2    0    0  0.00000000000E+00  0.00000000000E+00 -0.12106918694E+04  0.20871635523E+04  0.17001402564E+04 0.  0.
        4    1    3    3  502    0 -0.78542118574E+02 -0.39543886859E+03 -0.15240921036E+04  0.15765148640E+04  0.12699999809E+01 0. -1.
       -4    1    3    3    0  502  0.78542118574E+02  0.39543886859E+03  0.31340023421E+03  0.51064868832E+03  0.12699999809E+01 0.  1.
</event>
<event>
 5   0  0.7455669E-06  0.1700072E+04  0.7818609E-02  0.8761324E-01
       -1   -1    0    0    0  501  0.00000000000E+00  0.00000000000E+00  0.60039383757E+03  0.60039383759E+03  0.50400001928E-02 0.  1.
        1   -1    0    0  501    0  0.00000000000E+00  0.00000000000E+00 -0.12034780782E+04  0.12034780783E+04  0.50400001928E-02 0. -1.
    10030    2    1    2    0    0  0.00000000000E+00  0.00000000000E+00 -0.60308424067E+03  0.18038719158E+04  0.17000715536E+04 0.  0.
        4    1    3    3  502    0  0.60241257722E+03  0.16330496812E+03  0.31074334607E+03  0.69723200287E+03  0.12699999809E+01 0.  1.
       -4    1    3    3    0  502 -0.60241257722E+03 -0.16330496812E+03 -0.91382758674E+03  0.11066399130E+04  0.12699999809E+01 0. -1.
</event>
<event>
 5   0  0.1441756E-05  0.1700344E+04  0.7818609E-02  0.8761168E-01
        2   -1    0    0  501    0  0.00000000000E+00  0.00000000000E+00  0.11883587179E+04  0.11883587179E+04  0.25500000920E-02 0.  1.
       -2   -1    0    0    0  501  0.00000000000E+00  0.00000000000E+00 -0.60822736400E+03  0.60822736401E+03  0.25500000920E-02 0. -1.
    10030    2    1    2    0    0  0.00000000000E+00  0.00000000000E+00  0.58013135389E+03  0.17965860819E+04  0.17003438364E+04 0.  0.
        5    1    3    3  502    0 -0.30614817912E+03  0.77518299007E+03  0.46729410563E+03  0.95552145283E+03  0.46999998093E+01 0. -1.
       -5    1    3    3    0  502  0.30614817912E+03 -0.77518299007E+03  0.11283724826E+03  0.84106462907E+03  0.46999998093E+01 0.  1.
</event>
<event>
 5   0  0.7461128E-06  0.1699242E+04  0.7818609E-02  0.8761797E-01
       -1   -1    0    0    0  501  0.00000000000E+00  0.00000000000E+00  0.48025706884E+03  0.48025706887E+03  0.50400001928E-02 0.  1.
        1   -1    0    0  501    0  0.00000000000E+00  0.00000000000E+00 -0.15030620100E+04  0.15030620100E+04  0.50400001928E-02 0. -1.
    10030    2    1    2    0    0  0.00000000000E+00  0.00000000000E+00 -0.10228049412E+04  0.19833190789E+04  0.16992423668E+04 0.  0.
        3    1    3    3  502    0  0.75821492449E+03 -0.38266063019E+03 -0.48435223351E+03  0.97770963272E+03  0.10100000352E+00 0.  1.
       -3    1    3    3    0  502 -0.75821492449E+03  0.38266063019E+03 -0.53845270765E+03  0.10056094462E+04  0.10100000352E+00 0. -1.
</event>
<event>
 5   0  0.1435301E-05  0.1699886E+04  0.7818609E-02  0.8761429E-01
       -2   -1    0    0    0  501  0.00000000000E+00  0.00000000000E+00  0.99903659048E+03  0.99903659048E+03  0.25500000920E-02 0.  1.
        2   -1    0    0  501    0  0.00000000000E+00  0.00000000000E+00 -0.72309971063E+03  0.72309971064E+03  0.25500000920E-02 0. -1.
    10030    2    1    2    0    0  0.00000000000E+00  0.00000000000E+00  0.27593687984E+03  0.17221363011E+04  0.16998859603E+04 0.  0.
        2    1    3    3  502    0 -0.27943346183E+03  0.11901305928E+03 -0.66624576230E+03  0.73220938512E+03  0.25500000920E-02 0. -1.
       -2    1    3    3    0  502  0.27943346183E+03 -0.11901305928E+03  0.94218264214E+03  0.98992691600E+03  0.25500000920E-02 0.  1.
</event>
<event>
 5   0  0.1419012E-05  0.1699927E+04  0.7818609E-02  0.8761406E-01
        2   -1    0    0  501    0  0.00000000000E+00  0.00000000000E+00  0.67524228721E+03  0.67524228721E+03  0.25500000920E-02 0. -1.
       -2   -1    0    0    0  501  0.00000000000E+00  0.00000000000E+00 -0.10698946213E+04  0.10698946213E+04  0.25500000920E-02 0.  1.
    10030    2    1    2    0    0  0.00000000000E+00  0.00000000000E+00 -0.39465233409E+03  0.17451369085E+04  0.16999271645E+04 0.  0.
        4    1    3    3  502    0 -0.14593297257E+03  0.35536321609E+03 -0.97568366494E+03  0.10485893738E+04  0.12699999809E+01 0.  1.
       -4    1    3    3    0  502  0.14593297257E+03 -0.35536321609E+03  0.58103133085E+03  0.69654753475E+03  0.12699999809E+01 0. -1.
</event>
<event>
 5   0  0.1435301E-05  0.1700446E+04  0.7818609E-02  0.8761110E-01
       -2   -1    0    0    0  501  0.00000000000E+00  0.00000000000E+00  0.97316185738E+03  0.97316185738E+03  0.25500000920E-02 0.  1.
        2   -1    0    0  501    0  0.00000000000E+00  0.00000000000E+00 -0.74281457644E+03  0.74281457644E+03  0.25500000920E-02 0. -1.
    10030    2    1    2    0    0  0.00000000000E+00  0.00000000000E+00  0.23034728094E+03  0.17159764338E+04  0.17004456038E+04 0.  0.
        2    1    3    3  502    0  0.38168494875E+02 -0.84588655914E+03  0.19267290315E+03  0.86839147425E+03  0.25500000920E-02 0. -1.
       -2    1    3    3    0  502 -0.38168494875E+02  0.84588655914E+03  0.37674377792E+02  0.84758495957E+03  0.25500000920E-02 0.  1.
</event>
<event>
 5   0  0.7455669E-06  0.1699376E+04  0.7818609E-02  0.8761720E-01
       -1   -1    0    0    0  501  0.00000000000E+00  0.00000000000E+00  0.49101756454E+03  0.49101756457E+03  0.50400001928E-02 0.  1.
        1   -1    0    0  501    0  0.00000000000E+00  0.00000000000E+00 -0.14703547258E+04  0.14703547258E+04  0.50400001928E-02 0. -1.
    10030    2    1    2    0    0  0.00000000000E+00  0.00000000000E+00 -0.97933716125E+03  0.19613722904E+04  0.16993763521E+04 0.  0.
        4    1    3    3  502    0  0.70825790167E+03 -0.43247022764E+03 -0.70031246444E+03  0.10858632114E+04  0.12699999809E+01 0.  1.
       -4    1    3    3    0  502 -0.70825790167E+03  0.43247022764E+03 -0.27902469682E+03  0.87550907899E+03  0.12699999809E+01 0. -1.
</event>
<event>
 5   0  0.1441756E-05  0.1698630E+04  0.7818609E-02  0.8762146E-01
       -2   -1    0    0    0  501  0.00000000000E+00  0.00000000000E+00  0.55488416508E+03  0.55488416508E+03  0.25500000920E-02 0. -1.
        2   -1    0    0  501    0  0.00000000000E+00  0.00000000000E+00 -0.12999758972E+04  0.12999758972E+04  0.25500000920E-02 0.  1.
    10030    2    1    2    0    0  0.00000000000E+00  0.00000000000E+00 -0.74509173210E+03  0.18548600623E+04  0.16986300837E+04 0.  0.
        5    1    3    3  502    0 -0.28598004278E+03  0.35811695059E+03  0.40825884888E+03  0.61378311549E+03  0.46999998093E+01 0. -1.
       -5    1    3    3    0  502  0.28598004278E+03 -0.35811695059E+03 -0.11533505810E+04  0.12410769468E+04  0.46999998093E+01 0.  1.
</event>
<event>
 5   0  0.7476457E-06  0.1700355E+04  0.7818609E-02  0.8761162E-01
       -1   -1    0    0    0  501  0.00000000000E+00  0.00000000000E+00  0.91393822250E+03  0.91393822251E+03  0.50400001928E-02 0.  1.
        1   -1    0    0  501    0  0.00000000000E+00  0.00000000000E+00 -0.79086476127E+03  0.79086476129E+03  0.50400001928E-02 0. -1.
    10030    2    1    2    0    0  0.00000000000E+00  0.00000000000E+00  0.12307346123E+03  0.17048029838E+04  0.17003547091E+04 0.  0.
        2    1    3    3  502    0  0.34432540053E+03  0.57535483678E+03  0.58559751684E+03  0.89023458784E+03  0.25500000920E-02 0.  1.
       -2    1    3    3    0  502 -0.34432540053E+03 -0.57535483678E+03 -0.46252405561E+03  0.81456839595E+03  0.25500000920E-02 0. -1.
</event>
<event>
 5   0  0.7082527E-06  0.1698184E+04  0.7818609E-02  0.8762401E-01
        1   -1    0    0  501    0  0.00000000000E+00  0.00000000000E+00  0.13097235891E+04  0.13097235891E+04  0.50400001928E-02 0. -1.
       -1   -1    0    0    0  501  0.00000000000E+00  0.00000000000E+00 -0.55046522128E+03  0.55046522130E+03  0.50400001928E-02 0.  1.
    10030    2    1    2    0    0  0.00000000000E+00  0.00000000000E+00  0.75925836778E+03  0.18601888104E+04  0.16981840716E+04 0.  0.
        1    1    3    3  502    0 -0.56100417895E+03  0.26751085550E+02  0.10771806388E+04  0.12148083956E+04  0.50400001928E-02 0. -1.
       -1    1    3    3    0  502  0.56100417895E+03 -0.26751085550E+02 -0.31792227100E+03  0.64538041479E+03  0.50400001928E-02 0.  1.
</event>
<event>
 5   0  0.7583716E-06  0.1699069E+04  0.7818609E-02  0.8761896E-01
       -1   -1    0    0    0  501  0.00000000000E+00  0.00000000000E+00  0.71442190690E+03  0.71442190691E+03  0.50400001928E-02 0. -1.
        1   -1    0    0  501    0  0.00000000000E+00  0.00000000000E+00 -0.10101993400E+04  0.10101993400E+04  0.50400001928E-02 0.  1.
    10030    2    1    2    0    0  0.00000000000E+00  0.00000000000E+00 -0.29577743306E+03  0.17246212469E+04  0.16990686141E+04 0.  0.
        5    1    3    3  502    0 -0.70054064548E+03 -0.25708047763E+03 -0.55999823298E+03  0.93298857382E+03  0.46999998093E+01 0.  1.
       -5    1    3    3    0  502  0.70054064548E+03  0.25708047763E+03  0.26422079992E+03  0.79163267306E+03  0.46999998093E+01 0. -1.
</event>
<event>
 5   0  0.7455669E-06  0.1699645E+04  0.7818609E-02  0.8761567E-01
       -1   -1    0    0    0  501  0.00000000000E+00  0.00000000000E+00  0.42166736667E+03  0.42166736670E+03  0.50400001928E-02 0. -1.
        1   -1    0    0  501    0  0.00000000000E+00  0.00000000000E+00 -0.17127198982E+04  0.17127198982E+04  0.50400001928E-02 0.  1.
    10030    2    1    2    0    0  0.00000000000E+00  0.00000000000E+00 -0.12910525315E+04  0.21343872649E+04  0.16996447739E+04 0.  0.
        4    1    3    3  502    0  0.18581538543E+03  0.79121291521E+03 -0.95733334569E+03  0.12558001363E+04  0.12699999809E+01 0.  1.
       -4    1    3    3    0  502 -0.18581538543E+03 -0.79121291521E+03 -0.33371918585E+03  0.87858712861E+03  0.12699999809E+01 0. -1.
</event>
<event>
 5   0  0.1374441E-05  0.1700244E+04  0.7818609E-02  0.8761225E-01
        2   -1    0    0  501    0  0.00000000000E+00  0.00000000000E+00  0.70203269244E+03  0.70203269245E+03  0.25500000920E-02 0.  1.
       -2   -1    0    0    0  501  0.00000000000E+00  0.00000000000E+00 -0.10294499345E+04  0.10294499345E+04  0.25500000920E-02 0. -1.
    10030    2    1    2    0    0  0.00000000000E+00  0.00000000000E+00 -0.32741724209E+03  0.17314826270E+04  0.17002441110E+04 0.  0.
        1    1    3    3  502    0 -0.26243571206E+03 -0.65642627583E+03 -0.64454843432E+03  0.95666642189E+03  0.50400001928E-02 0. -1.
       -1    1    3    3    0  502  0.26243571206E+03  0.65642627583E+03  0.31713119223E+03  0.77481620509E+03  0.50400001928E-02 0.  1.
</event>
<event>
 5   0  0.7082527E-06  0.1700557E+04  0.7818609E-02  0.8761047E-01
       -1   -1    0    0    0  501  0.00000000000E+00  0.00000000000E+00  0.90585460389E+03  0.90585460391E+03  0.50400001928E-02 0.  1.
        1   -1    0    0  501    0  0.00000000000E+00  0.00000000000E+00 -0.79811203598E+03  0.79811203600E+03  0.50400001928E-02 0. -1.
    10030    2    1    2    0    0  0.00000000000E+00  0.00000000000E+00  0.10774256791E+03  0.17039666399E+04  0.17005569232E+04 0.  0.
        1    1    3    3  502    0 -0.70737660200E+03  0.29157559664E+02  0.52570996764E+03  0.88181788962E+03  0.50400001928E-02 0.  1.
       -1    1    3    3    0  502  0.70737660200E+03 -0.29157559664E+02 -0.41796739973E+03  0.82214875029E+03  0.50400001928E-02 0. -1.
</event>
<event>
 5   0  0.1423543E-05  0.1699729E+04  0.7818609E-02  0.8761519E-01
        2   -1    0    0  501    0  0.00000000000E+00  0.00000000000E+00  0.21393405653E+04  0.21393405653E+04  0.25500000920E-02 0.  1.
       -2   -1    0    0    0  501  0.00000000000E+00  0.00000000000E+00 -0.33761327452E+03  0.33761327453E+03  0.25500000920E-02 0. -1.
    10030    2    1    2    0    0  0.00000000000E+00  0.00000000000E+00  0.18017272908E+04  0.24769538398E+04  0.16997291238E+04 0.  0.
        3    1    3    3  502    0 -0.76477624372E+02  0.32096427676E+03  0.20421932934E+04  0.20686759900E+04  0.10100000352E+00 0.  1.
       -3    1    3    3    0  502  0.76477624372E+02 -0.32096427676E+03 -0.24046600264E+03  0.40827784977E+03  0.10100000352E+00 0. -1.
</event>
<event>
 5   0  0.1374441E-05  0.1696584E+04  0.7818609E-02  0.8763315E-01
        2   -1    0    0  501    0  0.00000000000E+00  0.00000000000E+00  0.11133158738E+04  0.11133158738E+04  0.25500000920E-02 0. -1.
       -2   -1    0    0    0  501  0.00000000000E+00  0.00000000000E+00 -0.64635664948E+03  0.64635664948E+03  0.25500000920E-02 0.  1.
    10030    2    1    2    0    0  0.00000000000E+00  0.00000000000E+00  0.46695922436E+03  0.17596725233E+04  0.16965837651E+04 0.  0.
        1    1    3    3  502    0 -0.25841659545E+03 -0.79740149435E+03  0.98363173453E+02  0.84398080186E+03  0.50400001928E-02 0.  1.
       -1    1    3    3    0  502  0.25841659545E+03  0.79740149435E+03  0.36859605090E+03  0.91569172146E+03  0.50400001928E-02 0. -1.
</event>
<event>
 5   0  0.1374441E-05  0.1696125E+04  0.7818609E-02  0.8763578E-01
       -2   -1    0    0    0  501  0.00000000000E+00  0.00000000000E+00  0.18977819239E+04  0.18977819239E+04  0.25500000920E-02 0. -1.
        2   -1    0    0  501    0  0.00000000000E+00  0.00000000000E+00 -0.37897385030E+03  0.37897385031E+03  0.25500000920E-02 0.  1.
    10030    2    1    2    0    0  0.00000000000E+00  0.00000000000E+00  0.15188080736E+04  0.22767557742E+04  0.16961246684E+04 0.  0.
        1    1    3    3  502    0  0.78725151398E+02  0.50694560617E+03  0.16658663992E+04  0.17430726770E+04  0.50400001928E-02 0. -1.
       -1    1    3    3    0  502 -0.78725151398E+02 -0.50694560617E+03 -0.14705832566E+03  0.53368309721E+03  0.50400001928E-02 0.  1.
</event>
<event>
 5   0  0.1441756E-05  0.1699338E+04  0.7818609E-02  0.8761742E-01
       -2   -1    0    0    0  501  0.00000000000E+00  0.00000000000E+00  0.95270300719E+03  0.95270300720E+03  0.25500000920E-02 0.  1.
        2   -1    0    0  501    0  0.00000000000E+00  0.00000000000E+00 -0.75777778812E+03  0.75777778812E+03  0.25500000920E-02 0. -1.
    10030    2    1    2    0    0  0.00000000000E+00  0.00000000000E+00  0.19492521908E+03  0.17104807953E+04  0.16993377269E+04 0.  0.
        5    1    3    3  502    0  0.67395180535E+03 -0.43772726363E+03  0.37513178868E+03  0.88688338700E+03  0.46999998093E+01 0.  1.
       -5    1    3    3    0  502 -0.67395180535E+03  0.43772726363E+03 -0.18020656960E+03  0.82359740832E+03  0.46999998093E+01 0. -1.
</event>
<event>
 5   0  0.7583716E-06  0.1699799E+04  0.7818609E-02  0.8761479E-01
       -1   -1    0    0    0  501  0.00000000000E+00  0.00000000000E+00  0.65823133241E+03  0.65823133243E+03  0.50400001928E-02 0.  1.
        1   -1    0    0  501    0  0.00000000000E+00  0.00000000000E+00 -0.10973786065E+04  0.10973786065E+04  0.50400001928E-02 0. -1.
    10030    2    1    2    0    0  0.00000000000E+00  0.00000000000E+00 -0.43914727404E+03  0.17556099389E+04  0.16997987908E+04 0.  0.
        5    1    3    3  502    0  0.71517829332E+02 -0.84686939566E+03 -0.22172011956E+03  0.87834188937E+03  0.46999998093E+01 0.  1.
       -5    1    3    3    0  502 -0.71517829332E+02  0.84686939566E+03 -0.21742715448E+03  0.87726804952E+03  0.46999998093E+01 0. -1.
</event>
<event>
 5   0  0.1423543E-05  0.1699541E+04  0.7818609E-02  0.8761626E-01
        2   -1    0    0  501    0  0.00000000000E+00  0.00000000000E+00  0.11751873892E+04  0.11751873892E+04  0.25500000920E-02 0. -1.
       -2   -1    0    0    0  501  0.00000000000E+00  0.00000000000E+00 -0.61446372583E+03  0.61446372583E+03  0.25500000920E-02 0.  1.
    10030    2    1    2    0    0  0.00000000000E+00  0.00000000000E+00  0.56072366338E+03  0.17896511150E+04  0.16995411401E+04 0.  0.
        3    1    3    3  502    0 -0.79834949462E+02  0.84133207172E+03  0.18678667927E+03  0.86550710443E+03  0.10100000352E+00 0.  1.
       -3    1    3    3    0  502  0.79834949462E+02 -0.84133207172E+03  0.37393698410E+03  0.92414401061E+03  0.10100000352E+00 0. -1.
</event>
<event>
 5   0  0.7476457E-06  0.1700000E+04  0.7818609E-02  0.8761364E-01
        1   -1    0    0  501    0  0.00000000000E+00  0.00000000000E+00  0.91795605142E+03  0.91795605143E+03  0.50400001928E-02 0.  1.
       -1   -1    0    0    0  501  0.00000000000E+00  0.00000000000E+00 -0.78707491843E+03  0.78707491845E+03  0.50400001928E-02 0. -1.
    10030    2    1    2    0    0  0.00000000000E+00  0.00000000000E+00  0.13088113299E+03  0.17050309699E+04  0.17000002168E+04 0.  0.
        2    1    3    3  502    0  0.11544661727E+03  0.46106700531E+03  0.77221698735E+03  0.90676886823E+03  0.25500000920E-02 0.  1.
       -2    1    3    3    0  502 -0.11544661727E+03 -0.46106700531E+03 -0.64133585437E+03  0.79826210165E+03  0.25500000920E-02 0. -1.
</event>
<event>
 5   0  0.7082527E-06  0.1699933E+04  0.7818609E-02  0.8761402E-01
       -1   -1    0    0    0  501  0.00000000000E+00  0.00000000000E+00  0.54944425063E+03  0.54944425065E+03  0.50400001928E-02 0.  1.
        1   -1    0    0  501    0  0.00000000000E+00  0.00000000000E+00 -0.13148618536E+04  0.13148618536E+04  0.50400001928E-02 0. -1.
    10030    2    1    2    0    0  0.00000000000E+00  0.00000000000E+00 -0.76541760296E+03  0.18643061043E+04  0.16999332762E+04 0.  0.
        1    1    3    3  502    0  0.69598882522E+03 -0.44502146571E+03 -0.60204407486E+03  0.10222042936E+04  0.50400001928E-02 0.  1.
       -1    1    3    3    0  502 -0.69598882522E+03  0.44502146571E+03 -0.16337352810E+03  0.84210181064E+03  0.50400001928E-02 0. -1.
</event>
<event>
 5   0  0.7461128E-06  0.1701700E+04  0.7818609E-02  0.8760395E-01
        1   -1    0    0  501    0  0.00000000000E+00  0.00000000000E+00  0.58071242354E+03  0.58071242356E+03  0.50400001928E-02 0.  1.
       -1   -1    0    0    0  501  0.00000000000E+00  0.00000000000E+00 -0.12466509416E+04  0.12466509416E+04  0.50400001928E-02 0. -1.
    10030    2    1    2    0    0  0.00000000000E+00  0.00000000000E+00 -0.66593851806E+03  0.18273633652E+04  0.17016999614E+04 0.  0.
        3    1    3    3  502    0 -0.79833028250E+02 -0.26965415369E+02 -0.12421592077E+04  0.12450140375E+04  0.10100000352E+00 0. -1.
       -3    1    3    3    0  502  0.79833028250E+02  0.26965415369E+02  0.57622068967E+03  0.58234932767E+03  0.10100000352E+00 0.  1.
</event>
<event>
 5   0  0.7461128E-06  0.1700157E+04  0.7818609E-02  0.8761275E-01
       -1   -1    0    0    0  501  0.00000000000E+00  0.00000000000E+00  0.58037389192E+03  0.58037389194E+03  0.50400001928E-02 0.  1.
        1   -1    0    0  501    0  0.00000000000E+00  0.00000000000E+00 -0.12451167996E+04  0.12451167996E+04  0.50400001928E-02 0. -1.
    10030    2    1    2    0    0  0.00000000000E+00  0.00000000000E+00 -0.66474290771E+03  0.18254906916E+04  0.17001567962E+04 0.  0.
        3    1    3    3  502    0  0.74572105303E+03 -0.34455715770E+03 -0.56715466871E+03  0.99824042810E+03  0.10100000352E+00 0.  1.
       -3    1    3    3    0  502 -0.74572105303E+03  0.34455715770E+03 -0.97588239001E+02  0.82725026349E+03  0.10100000352E+00 0. -1.
</event>
<event>
 5   0  0.1435301E-05  0.1700248E+04  0.7818609E-02  0.8761223E-01
        2   -1    0    0  501    0  0.00000000000E+00  0.00000000000E+00  0.72958873192E+03  0.72958873192E+03  0.25500000920E-02 0.  1.
       -2   -1    0    0    0  501  0.00000000000E+00  0.00000000000E+00 -0.99057299585E+03  0.99057299585E+03  0.25500000920E-02 0. -1.
    10030    2    1    2    0    0  0.00000000000E+00  0.00000000000E+00 -0.26098426393E+03  0.17201617278E+04  0.17002480947E+04 0.  0.
        2    1    3    3  502    0 -0.44053784280E+03 -0.33005483079E+03 -0.78592323196E+03  0.95952337585E+03  0.25500000920E-02 0. -1.
       -2    1    3    3    0  502  0.44053784280E+03  0.33005483079E+03  0.52493896802E+03  0.76063835193E+03  0.25500000920E-02 0.  1.
</event>
<event>
 5   0  0.7583716E-06  0.1700514E+04  0.7818609E-02  0.8761071E-01
        1   -1    0    0  501    0  0.00000000000E+00  0.00000000000E+00  0.23087116039E+04  0.23087116039E+04  0.50400001928E-02 0. -1.
       -1   -1    0    0    0  501  0.00000000000E+00  0.00000000000E+00 -0.31313428590E+03  0.31313428594E+03  0.50400001928E-02 0.  1.
    10030    2    1    2    0    0  0.00000000000E+00  0.00000000000E+00  0.19955773180E+04  0.26218458899E+04  0.17005137571E+04 0.  0.
        5    1    3    3  502    0  0.28456243226E+03 -0.80071138715E+03  0.10414017732E+04  0.13441183901E+04  0.46999998093E+01 0. -1.
       -5    1    3    3    0  502 -0.28456243226E+03  0.80071138715E+03  0.95417554487E+03  0.12777274998E+04  0.46999998093E+01 0.  1.
</event>
<event>
 5   0  0.1441756E-05  0.1698707E+04  0.7818609E-02  0.8762102E-01
        2   -1    0    0  501    0  0.00000000000E+00  0.00000000000E+00  0.26396762957E+04  0.26396762957E+04  0.25500000920E-02 0. -1.
       -2   -1    0    0    0  501  0.00000000000E+00  0.00000000000E+00 -0.27329155825E+03  0.27329155826E+03  0.25500000920E-02 0.  1.
    10030    2    1    2    0    0  0.00000000000E+00  0.00000000000E+00  0.23663847374E+04  0.29129678540E+04  0.16987068589E+04 0.  0.
        5    1    3    3  502    0 -0.50885951612E+03 -0.38764647188E+03  0.22508587752E+03  0.67815450788E+03  0.46999998093E+01 0.  1.
       -5    1    3    3    0  502  0.50885951612E+03  0.38764647188E+03  0.21412988599E+04  0.22348133461E+04  0.46999998093E+01 0. -1.
</event>
<event>
 5   0  0.7476457E-06  0.1700336E+04  0.7818609E-02  0.8761173E-01
       -1   -1    0    0    0  501  0.00000000000E+00  0.00000000000E+00  0.37240209021E+03  0.37240209024E+03  0.50400001928E-02 0. -1.
        1   -1    0    0  501    0  0.00000000000E+00  0.00000000000E+00 -0.19408751437E+04  0.19408751437E+04  0.50400001928E-02 0.  1.
    10030    2    1    2    0    0  0.00000000000E+00  0.00000000000E+00 -0.15684730535E+04  0.23132772340E+04  0.17003363907E+04 0.  0.
        2    1    3    3  502    0 -0.12673786605E+03 -0.66268345146E+03 -0.80492236298E+02  0.67947836142E+03  0.25500000920E-02 0. -1.
       -2    1    3    3    0  502  0.12673786605E+03  0.66268345146E+03 -0.14879808172E+04  0.16337988726E+04  0.25500000920E-02 0.  1.
</event>
<event>
 5   0  0.5229750E-06  0.1700306E+04  0.7818609E-02  0.8761190E-01
        4   -1    0    0  501    0  0.00000000000E+00  0.00000000000E+00  0.11765210737E+04  0.11765217592E+04  0.12699999809E+01 0.  1.
       -4   -1    0    0    0  501  0.00000000000E+00  0.00000000000E+00 -0.61431791799E+03  0.61431923074E+03  0.12699999809E+01 0. -1.
    10030    2    1    2    0    0  0.00000000000E+00  0.00000000000E+00  0.56220315572E+03  0.17908409899E+04  0.17003055793E+04 0.  0.
        4    1    3    3  502    0  0.30979982903E+03  0.78029597820E+03  0.14010649783E+03  0.85115755962E+03  0.12699999809E+01 0.  1.
       -4    1    3    3    0  502 -0.30979982903E+03 -0.78029597820E+03  0.42209665790E+03  0.93968343029E+03  0.12699999809E+01 0. -1.
</event>
<event>
 5   0  0.7082527E-06  0.1698134E+04  0.7818609E-02  0.8762429E-01
        1   -1    0    0  501    0  0.00000000000E+00  0.00000000000E+00  0.22838717988E+04  0.22838717988E+04  0.50400001928E-02 0. -1.
       -1   -1    0    0    0  501  0.00000000000E+00  0.00000000000E+00 -0.31565471345E+03  0.31565471349E+03  0.50400001928E-02 0.  1.
    10030    2    1    2    0    0  0.00000000000E+00  0.00000000000E+00  0.19682170854E+04  0.25995265123E+04  0.16981341505E+04 0.  0.
        1    1    3    3  502    0 -0.74656712115E+03  0.32425941507E+03  0.13540724886E+04  0.15798794065E+04  0.50400001928E-02 0. -1.
       -1    1    3    3    0  502  0.74656712115E+03 -0.32425941507E+03  0.61414459679E+03  0.10196471058E+04  0.50400001928E-02 0.  1.
</event>
<event>
 5   0  0.7476457E-06  0.1699499E+04  0.7818609E-02  0.8761650E-01
       -1   -1    0    0    0  501  0.00000000000E+00  0.00000000000E+00  0.63969712978E+03  0.63969712980E+03  0.50400001928E-02 0. -1.
        1   -1    0    0  501    0  0.00000000000E+00  0.00000000000E+00 -0.11287749219E+04  0.11287749219E+04  0.50400001928E-02 0.  1.
    10030    2    1    2    0    0  0.00000000000E+00  0.00000000000E+00 -0.48907779213E+03  0.17684720517E+04  0.16994988411E+04 0.  0.
        2    1    3    3  502    0  0.94247973871E+01 -0.98093574737E+02  0.63373095578E+03  0.64134709832E+03  0.25500000920E-02 0. -1.
       -2    1    3    3    0  502 -0.94247973871E+01  0.98093574737E+02 -0.11228087479E+04  0.11271249534E+04  0.25500000920E-02 0.  1.
</event>
<event>
 5   0  0.1374441E-05  0.1700318E+04  0.7818609E-02  0.8761183E-01
       -2   -1    0    0    0  501  0.00000000000E+00  0.00000000000E+00  0.42076554320E+03  0.42076554320E+03  0.25500000920E-02 0. -1.
        2   -1    0    0  501    0  0.00000000000E+00  0.00000000000E+00 -0.17177502244E+04  0.17177502244E+04  0.25500000920E-02 0.  1.
    10030    2    1    2    0    0  0.00000000000E+00  0.00000000000E+00 -0.12969846812E+04  0.21385157676E+04  0.17003177424E+04 0.  0.
        1    1    3    3  502    0  0.60297861279E+03  0.27102256203E+03  0.23807610283E+02  0.66151586447E+03  0.50400001928E-02 0. -1.
       -1    1    3    3    0  502 -0.60297861279E+03 -0.27102256203E+03 -0.13207922915E+04  0.14769999032E+04  0.50400001928E-02 0.  1.
</event>
<event>
 5   0  0.1374441E-05  0.1700184E+04  0.7818609E-02  0.8761259E-01
       -2   -1    0    0    0  501  0.00000000000E+00  0.00000000000E+00  0.82713299124E+03  0.82713299124E+03  0.25500000920E-02 0. -1.
        2   -1    0    0  501    0  0.00000000000E+00  0.00000000000E+00 -0.87368829951E+03  0.87368829951E+03  0.25500000920E-02 0.  1.
    10030    2    1    2    0    0  0.00000000000E+00  0.00000000000E+00 -0.46555308272E+02  0.17008212908E+04  0.17001840096E+04 0.  0.
        1    1    3    3  502    0  0.22478022270E+03  0.81930713087E+03  0.61628409816E+01  0.84960479274E+03  0.50400001928E-02 0.  1.
       -1    1    3    3    0  502 -0.22478022270E+03 -0.81930713087E+03 -0.52718149254E+02  0.85121649802E+03  0.50400001928E-02 0. -1.
</event>
<event>
 5   0  0.5229750E-06  0.1700927E+04  0.7818609E-02  0.8760836E-01
       -3   -1    0    0    0  501  0.00000000000E+00  0.00000000000E+00  0.11721110157E+04  0.11721110200E+04  0.10100000352E+00 0. -1.
        3   -1    0    0  501    0  0.00000000000E+00  0.00000000000E+00 -0.61708141040E+03  0.61708141866E+03  0.10100000352E+00 0.  1.
    10030    2    1    2    0    0  0.00000000000E+00  0.00000000000E+00  0.55502960529E+03  0.17891924387E+04  0.17009267239E+04 0.  0.
        1    1    3    3  502    0 -0.75149289360E+03 -0.14376020004E+03  0.66810477373E+03  0.10157620553E+04  0.50400001928E-02 0. -1.
       -1    1    3    3    0  502  0.75149289360E+03  0.14376020004E+03 -0.11307516844E+03  0.77343038341E+03  0.50400001928E-02 0.  1.
</event>
<event>
 5   0  0.7455669E-06  0.1700375E+04  0.7818609E-02  0.8761150E-01
        1   -1    0    0  501    0  0.00000000000E+00  0.00000000000E+00  0.94386362252E+03  0.94386362254E+03  0.50400001928E-02 0.  1.
       -1   -1    0    0    0  501  0.00000000000E+00  0.00000000000E+00 -0.76580876085E+03  0.76580876086E+03  0.50400001928E-02 0. -1.
    10030    2    1    2    0    0  0.00000000000E+00  0.00000000000E+00  0.17805486168E+03  0.17096723834E+04  0.17003752894E+04 0.  0.
        4    1    3    3  502    0  0.78747446862E+03  0.11544263410E+03 -0.21156263754E+03  0.82353105771E+03  0.12699999809E+01 0.  1.
       -4    1    3    3    0  502 -0.78747446862E+03 -0.11544263410E+03  0.38961749922E+03  0.88614132569E+03  0.12699999809E+01 0. -1.
</event>
<event>
 5   0  0.1441756E-05  0.1700797E+04  0.7818609E-02  0.8760910E-01
       -2   -1    0    0    0  501  0.00000000000E+00  0.00000000000E+00  0.32644651214E+03  0.32644651215E+03  0.25500000920E-02 0. -1.
        2   -1    0    0  501    0  0.00000000000E+00  0.00000000000E+00 -0.22153030293E+04  0.22153030293E+04  0.25500000920E-02 0.  1.
    10030    2    1    2    0    0  0.00000000000E+00  0.00000000000E+00 -0.18888565171E+04  0.25417495414E+04  0.17007973980E+04 0.  0.
        5    1    3    3  502    0 -0.10598882260E+03  0.29843351809E+03 -0.21238666874E+04  0.21473537182E+04  0.46999998093E+01 0.  1.
       -5    1    3    3    0  502  0.10598882260E+03 -0.29843351809E+03  0.23501017027E+03  0.39439582321E+03  0.46999998093E+01 0. -1.
</event>
<event>
 5   0  0.7583716E-06  0.1698642E+04  0.7818609E-02  0.8762139E-01
       -1   -1    0    0    0  501  0.00000000000E+00  0.00000000000E+00  0.41304060505E+03  0.41304060508E+03  0.50400001928E-02 0.  1.
        1   -1    0    0  501    0  0.00000000000E+00  0.00000000000E+00 -0.17464286158E+04  0.17464286158E+04  0.50400001928E-02 0. -1.
    10030    2    1    2    0    0  0.00000000000E+00  0.00000000000E+00 -0.13333880108E+04  0.21594692209E+04  0.16986417306E+04 0.  0.
        5    1    3    3  502    0 -0.70840005427E+03 -0.46829941479E+03 -0.68416506135E+03  0.10905223060E+04  0.46999998093E+01 0.  1.
       -5    1    3    3    0  502  0.70840005427E+03  0.46829941479E+03 -0.64922294942E+03  0.10689469149E+04  0.46999998093E+01 0. -1.
</event>
<event>
 5   0  0.7476457E-06  0.1699639E+04  0.7818609E-02  0.8761570E-01
        1   -1    0    0  501    0  0.00000000000E+00  0.00000000000E+00  0.68494454877E+03  0.68494454879E+03  0.50400001928E-02 0. -1.
       -1   -1    0    0    0  501  0.00000000000E+00  0.00000000000E+00 -0.10543822801E+04  0.10543822802E+04  0.50400001928E-02 0.  1.
    10030    2    1    2    0    0  0.00000000000E+00  0.00000000000E+00 -0.36943773137E+03  0.17393268289E+04  0.16996392501E+04 0.  0.
        2    1    3    3  502    0 -0.57346972878E+02 -0.78927277071E+03  0.13227744339E+03  0.80233253949E+03  0.25500000920E-02 0. -1.
       -2    1    3    3    0  502  0.57346972878E+02  0.78927277071E+03 -0.50171517475E+03  0.93699428945E+03  0.25500000920E-02 0.  1.
</event>
<event>
 5   0  0.1441756E-05  0.1699921E+04  0.7818609E-02  0.8761409E-01
        2   -1    0    0  501    0  0.00000000000E+00  0.00000000000E+00  0.15846067052E+04  0.15846067052E+04  0.25500000920E-02 0.  1.
       -2   -1    0    0    0  501  0.00000000000E+00  0.00000000000E+00 -0.45590669192E+03  0.45590669193E+03  0.25500000920E-02 0. -1.
    10030    2    1    2    0    0  0.00000000000E+00  0.00000000000E+00  0.11287000133E+04  0.20405133972E+04  0.16999209405E+04 0.  0.
        5    1    3    3  502    0  0.37312389789E+03 -0.46623152370E+03  0.12903605477E+04  0.14218458812E+04  0.46999998093E+01 0.  1.
       -5    1    3    3    0  502 -0.37312389789E+03  0.46623152370E+03 -0.16166053441E+03  0.61866751592E+03  0.46999998093E+01 0. -1.
</event>
<event>
 5   0  0.1374441E-05  0.1700223E+04  0.7818609E-02  0.8761237E-01
       -2   -1    0    0    0  501  0.00000000000E+00  0.00000000000E+00  0.48375090574E+03  0.48375090575E+03  0.25500000920E-02 0. -1.
        2   -1    0    0  501    0  0.00000000000E+00  0.00000000000E+00 -0.14939283294E+04  0.14939283294E+04  0.25500000920E-02 0.  1.
    10030    2    1    2    0    0  0.00000000000E+00  0.00000000000E+00 -0.10101774237E+04  0.19776792352E+04  0.17002225530E+04 0.  0.
        1    1    3    3  502    0  0.47582376323E+03 -0.50937270014E+02 -0.13223776652E+04  0.14063020830E+04  0.50400001928E-02 0.  1.
       -1    1    3    3    0  502 -0.47582376323E+03  0.50937270014E+02  0.31220024157E+03  0.57137715214E+03  0.50400001928E-02 0. -1.
</event>
<event>
 5   0  0.7476457E-06  0.1700608E+04  0.7818609E-02  0.8761018E-01
       -1   -1    0    0    0  501  0.00000000000E+00  0.00000000000E+00  0.10308676538E+04  0.10308676538E+04  0.50400001928E-02 0. -1.
        1   -1    0    0  501    0  0.00000000000E+00  0.00000000000E+00 -0.70136748091E+03  0.70136748093E+03  0.50400001928E-02 0.  1.
    10030    2    1    2    0    0  0.00000000000E+00  0.00000000000E+00  0.32950017286E+03  0.17322351347E+04  0.17006081847E+04 0.  0.
        2    1    3    3  502    0  0.58898489059E+03 -0.40490416808E+03 -0.30443148572E+03  0.77687136398E+03  0.25500000920E-02 0.  1.
       -2    1    3    3    0  502 -0.58898489059E+03  0.40490416808E+03  0.63393165858E+03  0.95536377073E+03  0.25500000920E-02 0. -1.
</event>
<event>
 5   0  0.7583716E-06  0.1698744E+04  0.7818609E-02  0.8762081E-01
       -1   -1    0    0    0  501  0.00000000000E+00  0.00000000000E+00  0.10354405074E+04  0.10354405074E+04  0.50400001928E-02 0. -1.
        1   -1    0    0  501    0  0.00000000000E+00  0.00000000000E+00 -0.69674023933E+03  0.69674023935E+03  0.50400001928E-02 0.  1.
    10030    2    1    2    0    0  0.00000000000E+00  0.00000000000E+00  0.33870026805E+03  0.17321807467E+04  0.16987443209E+04 0.  0.
        5    1    3    3  502    0  0.16265963021E+03 -0.37179638456E+03  0.93017326243E+03  0.10148571796E+04  0.46999998093E+01 0. -1.
       -5    1    3    3    0  502 -0.16265963021E+03  0.37179638456E+03 -0.59147299438E+03  0.71732356713E+03  0.46999998093E+01 0.  1.
</event>
<event>
 5   0  0.7461128E-06  0.1700111E+04  0.7818609E-02  0.8761301E-01
       -1   -1    0    0    0  501  0.00000000000E+00  0.00000000000E+00  0.93323366406E+03  0.93323366407E+03  0.50400001928E-02 0.  1.
        1   -1    0    0  501    0  0.00000000000E+00  0.00000000000E+00 -0.77429111567E+03  0.77429111569E+03  0.50400001928E-02 0. -1.
    10030    2    1    2    0    0  0.00000000000E+00  0.00000000000E+00  0.15894254839E+03  0.17075247798E+04  0.17001112140E+04 0.  0.
        3    1    3    3  502    0  0.68766048738E+03  0.13553202179E+03  0.56255584593E+03  0.89872963945E+03  0.10100000352E+00 0.  1.
       -3    1    3    3    0  502 -0.68766048738E+03 -0.13553202179E+03 -0.40361329754E+03  0.80879514031E+03  0.10100000352E+00 0. -1.
</event>
<event>
 5   0  0.7461128E-06  0.1696731E+04  0.7818609E-02  0.8763231E-01
        1   -1    0    0  501    0  0.00000000000E+00  0.00000000000E+00  0.83574410361E+03  0.83574410363E+03  0.50400001928E-02 0.  1.
       -1   -1    0    0    0  501  0.00000000000E+00  0.00000000000E+00 -0.86117710060E+03  0.86117710061E+03  0.50400001928E-02 0. -1.
    10030    2    1    2    0    0  0.00000000000E+00  0.00000000000E+00 -0.25432996989E+02  0.16969212042E+04  0.16967306021E+04 0.  0.
        3    1    3    3  502    0 -0.63246724073E+03 -0.55884873720E+03 -0.98731695462E+02  0.84974977468E+03  0.10100000352E+00 0. -1.
       -3    1    3    3    0  502  0.63246724073E+03  0.55884873720E+03  0.73298698472E+02  0.84717142956E+03  0.10100000352E+00 0.  1.
</event>
<event>
 5   0  0.7583716E-06  0.1692154E+04  0.7818609E-02  0.8765852E-01
       -1   -1    0    0    0  501  0.00000000000E+00  0.00000000000E+00  0.11720207929E+04  0.11720207930E+04  0.50400001928E-02 0. -1.
        1   -1    0    0  501    0  0.00000000000E+00  0.00000000000E+00 -0.61077942666E+03  0.61077942668E+03  0.50400001928E-02 0.  1.
    10030    2    1    2    0    0  0.00000000000E+00  0.00000000000E+00  0.56124136628E+03  0.17828002196E+04  0.16921538795E+04 0.  0.
        5    1    3    3  502    0 -0.74018178006E+03 -0.28293784727E+03  0.59298415363E+03  0.98973490865E+03  0.46999998093E+01 0.  1.
       -5    1    3    3    0  502  0.74018178006E+03  0.28293784727E+03 -0.31742787351E+02  0.79306531099E+03  0.46999998093E+01 0. -1.
</event>
<event>
 5   0  0.7455669E-06  0.1696854E+04  0.7818609E-02  0.8763161E-01
       -1   -1    0    0    0  501  0.00000000000E+00  0.00000000000E+00  0.43150420575E+03  0.43150420578E+03  0.50400001928E-02 0.  1.
        1   -1    0    0  501    0  0.00000000000E+00  0.00000000000E+00 -0.16681840051E+04  0.16681840051E+04  0.50400001928E-02 0. -1.
    10030    2    1    2    0    0  0.00000000000E+00  0.00000000000E+00 -0.12366797993E+04  0.20996882108E+04  0.16968540470E+04 0.  0.
        4    1    3    3  502    0  0.57976133846E+03 -0.90715860389E+02 -0.13765688905E+04  0.14964277798E+04  0.12699999809E+01 0. -1.
       -4    1    3    3    0  502 -0.57976133846E+03  0.90715860389E+02  0.13988909123E+03  0.60326043103E+03  0.12699999809E+01 0.  1.
</event>
<event>
 5   0  0.7583716E-06  0.1700675E+04  0.7818609E-02  0.8760979E-01
        1   -1    0    0  501    0  0.00000000000E+00  0.00000000000E+00  0.12074556120E+04  0.12074556120E+04  0.50400001928E-02 0. -1.
       -1   -1    0    0    0  501  0.00000000000E+00  0.00000000000E+00 -0.59884101548E+03  0.59884101550E+03  0.50400001928E-02 0.  1.
    10030    2    1    2    0    0  0.00000000000E+00  0.00000000000E+00  0.60861459653E+03  0.18062966275E+04  0.17006750952E+04 0.  0.
        5    1    3    3  502    0  0.51456358007E+03  0.22867677387E+03  0.98104707261E+03  0.11311693920E+04  0.46999998093E+01 0. -1.
       -5    1    3    3    0  502 -0.51456358007E+03 -0.22867677387E+03 -0.37243247608E+03  0.67512723547E+03  0.46999998093E+01 0.  1.
</event>
<event>
 5   0  0.1419012E-05  0.1699784E+04  0.7818609E-02  0.8761488E-01
       -2   -1    0    0    0  501  0.00000000000E+00  0.00000000000E+00  0.44620255931E+03  0.44620255932E+03  0.25500000920E-02 0. -1.
        2   -1    0    0  501    0  0.00000000000E+00  0.00000000000E+00 -0.16188083216E+04  0.16188083216E+04  0.25500000920E-02 0.  1.
    10030    2    1    2    0    0  0.00000000000E+00  0.00000000000E+00 -0.11726057623E+04  0.20650108809E+04  0.16997840053E+04 0.  0.
        4    1    3    3  502    0  0.31074084922E+03  0.32901100404E+03 -0.14602528860E+04  0.15287734365E+04  0.12699999809E+01 0.  1.
       -4    1    3    3    0  502 -0.31074084922E+03 -0.32901100404E+03  0.28764712369E+03  0.53623744445E+03  0.12699999809E+01 0. -1.
</event>
<event>
 5   0  0.7583716E-06  0.1699429E+04  0.7818609E-02  0.8761690E-01
        1   -1    0    0  501    0  0.00000000000E+00  0.00000000000E+00  0.17254891627E+04  0.17254891627E+04  0.50400001928E-02 0.  1.
       -1   -1    0    0    0  501  0.00000000000E+00  0.00000000000E+00 -0.41844038398E+03  0.41844038401E+03  0.50400001928E-02 0. -1.
    10030    2    1    2    0    0  0.00000000000E+00  0.00000000000E+00  0.13070487787E+04  0.21439295467E+04  0.16994285485E+04 0.  0.
        5    1    3    3  502    0  0.56609597945E+03  0.57457274044E+03  0.99060808377E+03  0.12774681826E+04  0.46999998093E+01 0.  1.
       -5    1    3    3    0  502 -0.56609597945E+03 -0.57457274044E+03  0.31644069492E+03  0.86646136406E+03  0.46999998093E+01 0. -1.
</event>
<event>
 5   0  0.1423543E-05  0.1700060E+04  0.7818609E-02  0.8761330E-01
        2   -1    0    0  501    0  0.00000000000E+00  0.00000000000E+00  0.14497786880E+04  0.14497786880E+04  0.25500000920E-02 0. -1.
       -2   -1    0    0    0  501  0.00000000000E+00  0.00000000000E+00 -0.49838727474E+03  0.49838727475E+03  0.25500000920E-02 0.  1.
    10030    2    1    2    0    0  0.00000000000E+00  0.00000000000E+00  0.95139141321E+03  0.19481659627E+04  0.17000602922E+04 0.  0.
        3    1    3    3  502    0 -0.70274905152E+03  0.30044309983E+03  0.90205437315E+03  0.11822962353E+04  0.10100000352E+00 0. -1.
       -3    1    3    3    0  502  0.70274905152E+03 -0.30044309983E+03  0.49337040065E+02  0.76586972742E+03  0.10100000352E+00 0.  1.
</event>
<event>
 5   0  0.1423543E-05  0.1700080E+04  0.7818609E-02  0.8761319E-01
       -2   -1    0    0    0  501  0.00000000000E+00  0.00000000000E+00  0.49371625091E+03  0.49371625092E+03  0.25500000920E-02 0. -1.
        2   -1    0    0  501    0  0.00000000000E+00  0.00000000000E+00 -0.14635295127E+04  0.14635295127E+04  0.25500000920E-02 0.  1.
    10030    2    1    2    0    0  0.00000000000E+00  0.00000000000E+00 -0.96981326174E+03  0.19572457636E+04  0.17000803559E+04 0.  0.
        3    1    3    3  502    0 -0.81437705102E+03 -0.13347753575E+03 -0.25025697183E+03  0.86235421720E+03  0.10100000352E+00 0. -1.
       -3    1    3    3    0  502  0.81437705102E+03  0.13347753575E+03 -0.71955628990E+03  0.10948915464E+04  0.10100000352E+00 0.  1.
</event>
<event>
 5   0  0.5229750E-06  0.1699761E+04  0.7818609E-02  0.8761501E-01
        4   -1    0    0  501    0  0.00000000000E+00  0.00000000000E+00  0.97563347070E+03  0.97563429729E+03  0.12699999809E+01 0. -1.
       -4   -1    0    0    0  501  0.00000000000E+00  0.00000000000E+00 -0.74033455541E+03  0.74033564472E+03  0.12699999809E+01 0.  1.
    10030    2    1    2    0    0  0.00000000000E+00  0.00000000000E+00  0.23529891529E+03  0.17159699420E+04  0.16997609427E+04 0.  0.
        1    1    3    3  502    0  0.34943282425E+01 -0.44519338515E+03  0.84849181971E+03  0.95820025499E+03  0.50400001928E-02 0. -1.
       -1    1    3    3    0  502 -0.34943282425E+01  0.44519338515E+03 -0.61319290442E+03  0.75776968702E+03  0.50400001928E-02 0.  1.
</event>
<event>
 5   0  0.1441756E-05  0.1700878E+04  0.7818609E-02  0.8760864E-01
        2   -1    0    0  501    0  0.00000000000E+00  0.00000000000E+00  0.83872433207E+03  0.83872433208E+03  0.25500000920E-02 0.  1.
       -2   -1    0    0    0  501  0.00000000000E+00  0.00000000000E+00 -0.86231684334E+03  0.86231684335E+03  0.25500000920E-02 0. -1.
    10030    2    1    2    0    0  0.00000000000E+00  0.00000000000E+00 -0.23592511270E+02  0.17010411754E+04  0.17008775599E+04 0.  0.
        5    1    3    3  502    0  0.37260656664E+03  0.72027104484E+03 -0.26794195228E+03  0.85407318851E+03  0.46999998093E+01 0. -1.
       -5    1    3    3    0  502 -0.37260656664E+03 -0.72027104484E+03  0.24434944101E+03  0.84696798691E+03  0.46999998093E+01 0.  1.
</event>
<event>
 5   0  0.7583716E-06  0.1700096E+04  0.7818609E-02  0.8761309E-01
       -1   -1    0    0    0  501  0.00000000000E+00  0.00000000000E+00  0.65025644974E+03  0.65025644976E+03  0.50400001928E-02 0. -1.
        1   -1    0    0  501    0  0.00000000000E+00  0.00000000000E+00 -0.11112261812E+04  0.11112261812E+04  0.50400001928E-02 0.  1.
    10030    2    1    2    0    0  0.00000000000E+00  0.00000000000E+00 -0.46096973143E+03  0.17614826309E+04  0.17000964578E+04 0.  0.
        5    1    3    3  502    0 -0.42121906774E+03 -0.70583813215E+03 -0.45493293430E+03  0.93947806602E+03  0.46999998093E+01 0. -1.
       -5    1    3    3    0  502  0.42121906774E+03  0.70583813215E+03 -0.60367971328E+01  0.82200456492E+03  0.46999998093E+01 0.  1.
</event>
<event>
 5   0  0.7476457E-06  0.1699424E+04  0.7818609E-02  0.8761693E-01
        1   -1    0    0  501    0  0.00000000000E+00  0.00000000000E+00  0.85013795149E+03  0.85013795150E+03  0.50400001928E-02 0.  1.
       -1   -1    0    0    0  501  0.00000000000E+00  0.00000000000E+00 -0.84928649784E+03  0.84928649786E+03  0.50400001928E-02 0. -1.
    10030    2    1    2    0    0  0.00000000000E+00  0.00000000000E+00  0.85145364704E+00  0.16994244494E+04  0.16994242361E+04 0.  0.
        2    1    3    3  502    0  0.48644786417E+03  0.40653253197E+03 -0.56535739397E+03  0.84942875335E+03  0.25500000920E-02 0.  1.
       -2    1    3    3    0  502 -0.48644786417E+03 -0.40653253197E+03  0.56620884762E+03  0.84999569601E+03  0.25500000920E-02 0. -1.
</event>
<event>
 5   0  0.1441756E-05  0.1700256E+04  0.7818609E-02  0.8761218E-01
       -2   -1    0    0    0  501  0.00000000000E+00  0.00000000000E+00  0.43055271408E+03  0.43055271408E+03  0.25500000920E-02 0. -1.
        2   -1    0    0  501    0  0.00000000000E+00  0.00000000000E+00 -0.16785809649E+04  0.16785809649E+04  0.25500000920E-02 0.  1.
    10030    2    1    2    0    0  0.00000000000E+00  0.00000000000E+00 -0.12480282508E+04  0.21091336790E+04  0.17002559692E+04 0.  0.
        5    1    3    3  502    0  0.65886750069E+03 -0.18839412999E+03  0.55576639873E-01  0.68528886228E+03  0.46999998093E+01 0. -1.
       -5    1    3    3    0  502 -0.65886750069E+03  0.18839412999E+03 -0.12480838275E+04  0.14238448167E+04  0.46999998093E+01 0.  1.
</event>
<event>
 5   0  0.1374441E-05  0.1701683E+04  0.7818609E-02  0.8760405E-01
        2   -1    0    0  501    0  0.00000000000E+00  0.00000000000E+00  0.17453880597E+04  0.17453880597E+04  0.25500000920E-02 0.  1.
       -2   -1    0    0    0  501  0.00000000000E+00  0.00000000000E+00 -0.41476825802E+03  0.41476825803E+03  0.25500000920E-02 0. -1.
    10030    2    1    2    0    0  0.00000000000E+00  0.00000000000E+00  0.13306198017E+04  0.21601563178E+04  0.17016833608E+04 0.  0.
        1    1    3    3  502    0 -0.54365818081E+03 -0.12020805888E+03  0.14820112129E+04  0.15831523712E+04  0.50400001928E-02 0.  1.
       -1    1    3    3    0  502  0.54365818081E+03  0.12020805888E+03 -0.15139141123E+03  0.57700394661E+03  0.50400001928E-02 0. -1.
</event>
<event>
 5   0  0.7476457E-06  0.1701231E+04  0.7818609E-02  0.8760663E-01
       -1   -1    0    0    0  501  0.00000000000E+00  0.00000000000E+00  0.52911538785E+03  0.52911538787E+03  0.50400001928E-02 0. -1.
        1   -1    0    0  501    0  0.00000000000E+00  0.00000000000E+00 -0.13674642359E+04  0.13674642360E+04  0.50400001928E-02 0.  1.
    10030    2    1    2    0    0  0.00000000000E+00  0.00000000000E+00 -0.83834884810E+03  0.18965796238E+04  0.17012305777E+04 0.  0.
        2    1    3    3  502    0 -0.23820222675E+03 -0.19136160617E+02 -0.13292729014E+04  0.13505824447E+04  0.25500000920E-02 0.  1.
       -2    1    3    3    0  502  0.23820222675E+03  0.19136160617E+02  0.49092405333E+03  0.54599717913E+03  0.25500000920E-02 0. -1.
</event>
<event>
 5   0  0.1374441E-05  0.1700192E+04  0.7818609E-02  0.8761255E-01
        2   -1    0    0  501    0  0.00000000000E+00  0.00000000000E+00  0.13455969975E+04  0.13455969975E+04  0.25500000920E-02 0.  1.
       -2   -1    0    0    0  501  0.00000000000E+00  0.00000000000E+00 -0.53705791422E+03  0.53705791423E+03  0.25500000920E-02 0. -1.
    10030    2    1    2    0    0  0.00000000000E+00  0.00000000000E+00  0.80853908328E+03  0.18826549117E+04  0.17001923619E+04 0.  0.
        1    1    3    3  502    0 -0.58803056371E+03  0.26262384428E+03 -0.21017992603E+03  0.67744138401E+03  0.50400001928E-02 0.  1.
       -1    1    3    3    0  502  0.58803056371E+03 -0.26262384428E+03  0.10187190093E+04  0.12052135277E+04  0.50400001928E-02 0. -1.
</event>
<event>
 5   0  0.7455669E-06  0.1700041E+04  0.7818609E-02  0.8761341E-01
       -1   -1    0    0    0  501  0.00000000000E+00  0.00000000000E+00  0.13441390721E+04  0.13441390722E+04  0.50400001928E-02 0. -1.
        1   -1    0    0  501    0  0.00000000000E+00  0.00000000000E+00 -0.53754448435E+03  0.53754448438E+03  0.50400001928E-02 0.  1.
    10030    2    1    2    0    0  0.00000000000E+00  0.00000000000E+00  0.80659458779E+03  0.18816835565E+04  0.17000406401E+04 0.  0.
        4    1    3    3  502    0  0.55572844524E+03 -0.41925843672E+03 -0.13659092161E+03  0.70941555831E+03  0.12699999809E+01 0.  1.
       -4    1    3    3    0  502 -0.55572844524E+03  0.41925843672E+03  0.94318550940E+03  0.11722679982E+04  0.12699999809E+01 0. -1.
</event>
<event>
 5   0  0.1423543E-05  0.1699763E+04  0.7818609E-02  0.8761499E-01
       -2   -1    0    0    0  501  0.00000000000E+00  0.00000000000E+00  0.43820345540E+03  0.43820345541E+03  0.25500000920E-02 0. -1.
        2   -1    0    0  501    0  0.00000000000E+00  0.00000000000E+00 -0.16483179744E+04  0.16483179745E+04  0.25500000920E-02 0.  1.
    10030    2    1    2    0    0  0.00000000000E+00  0.00000000000E+00 -0.12101145190E+04  0.20865214299E+04  0.16997630800E+04 0.  0.
        3    1    3    3  502    0 -0.35915840627E+02 -0.14661064100E+03 -0.16317314899E+04  0.16386983532E+04  0.10100000352E+00 0.  1.
       -3    1    3    3    0  502  0.35915840627E+02  0.14661064100E+03  0.42161697082E+03  0.44782307662E+03  0.10100000352E+00 0. -1.
</event>
<event>
 5   0  0.7455669E-06  0.1699561E+04  0.7818609E-02  0.8761615E-01
       -1   -1    0    0    0  501  0.00000000000E+00  0.00000000000E+00  0.73899096482E+03  0.73899096484E+03  0.50400001928E-02 0.  1.
        1   -1    0    0  501    0  0.00000000000E+00  0.00000000000E+00 -0.97717948326E+03  0.97717948327E+03  0.50400001928E-02 0. -1.
    10030    2    1    2    0    0  0.00000000000E+00  0.00000000000E+00 -0.23818851844E+03  0.17161704481E+04  0.16995608952E+04 0.  0.
        4    1    3    3  502    0 -0.17761092394E+02  0.27720921289E+02  0.73834577487E+03  0.73908051121E+03  0.12699999809E+01 0.  1.
       -4    1    3    3    0  502  0.17761092394E+02 -0.27720921289E+02 -0.97653429331E+03  0.97708993690E+03  0.12699999809E+01 0. -1.
</event>
<event>
 5   0  0.1423543E-05  0.1699364E+04  0.7818609E-02  0.8761727E-01
       -2   -1    0    0    0  501  0.00000000000E+00  0.00000000000E+00  0.93602027093E+03  0.93602027093E+03  0.25500000920E-02 0.  1.
        2   -1    0    0  501    0  0.00000000000E+00  0.00000000000E+00 -0.77130752426E+03  0.77130752426E+03  0.25500000920E-02 0. -1.
    10030    2    1    2    0    0  0.00000000000E+00  0.00000000000E+00  0.16471274667E+03  0.17073277952E+04  0.16993639726E+04 0.  0.
        3    1    3    3  502    0 -0.38922557324E+03  0.73644979000E+03 -0.86073616025E+02  0.83741478231E+03  0.10100000352E+00 0.  1.
       -3    1    3    3    0  502  0.38922557324E+03 -0.73644979000E+03  0.25078636269E+03  0.86991301288E+03  0.10100000352E+00 0. -1.
</event>
<event>
 5   0  0.1419012E-05  0.1699149E+04  0.7818609E-02  0.8761850E-01
        2   -1    0    0  501    0  0.00000000000E+00  0.00000000000E+00  0.92619826200E+03  0.92619826200E+03  0.25500000920E-02 0.  1.
       -2   -1    0    0    0  501  0.00000000000E+00  0.00000000000E+00 -0.77928944091E+03  0.77928944091E+03  0.25500000920E-02 0. -1.
    10030    2    1    2    0    0  0.00000000000E+00  0.00000000000E+00  0.14690882109E+03  0.17054877029E+04  0.16991486407E+04 0.  0.
        4    1    3    3  502    0 -0.27877330387E+02  0.46817466453E+03  0.78448287044E+03  0.91399105519E+03  0.12699999809E+01 0.  1.
       -4    1    3    3    0  502  0.27877330387E+02 -0.46817466453E+03 -0.63757404935E+03  0.79149664773E+03  0.12699999809E+01 0. -1.
</event>
<event>
 5   0  0.1435301E-05  0.1699618E+04  0.7818609E-02  0.8761582E-01
       -2   -1    0    0    0  501  0.00000000000E+00  0.00000000000E+00  0.38951423692E+03  0.38951423693E+03  0.25500000920E-02 0. -1.
        2   -1    0    0  501    0  0.00000000000E+00  0.00000000000E+00 -0.18540401907E+04  0.18540401907E+04  0.25500000920E-02 0.  1.
    10030    2    1    2    0    0  0.00000000000E+00  0.00000000000E+00 -0.14645259538E+04  0.22435544276E+04  0.16996176630E+04 0.  0.
        2    1    3    3  502    0  0.53886695503E+02  0.19607009047E+03  0.35692794370E+03  0.41078560506E+03  0.25500000920E-02 0. -1.
       -2    1    3    3    0  502 -0.53886695503E+02 -0.19607009047E+03 -0.18214538975E+04  0.18327688226E+04  0.25500000920E-02 0.  1.
</event>
<event>
 5   0  0.1435301E-05  0.1703287E+04  0.7818609E-02  0.8759492E-01
        2   -1    0    0  501    0  0.00000000000E+00  0.00000000000E+00  0.96307586225E+03  0.96307586225E+03  0.25500000920E-02 0.  1.
       -2   -1    0    0    0  501  0.00000000000E+00  0.00000000000E+00 -0.75310462140E+03  0.75310462141E+03  0.25500000920E-02 0. -1.
    10030    2    1    2    0    0  0.00000000000E+00  0.00000000000E+00  0.20997124084E+03  0.17161804837E+04  0.17032872719E+04 0.  0.
        2    1    3    3  502    0 -0.38562666149E+02 -0.65846475366E+03 -0.43782605475E+03  0.79167832183E+03  0.25500000920E-02 0. -1.
       -2    1    3    3    0  502  0.38562666149E+02  0.65846475366E+03  0.64779729559E+03  0.92450216182E+03  0.25500000920E-02 0.  1.
</event>
<event>
 5   0  0.7455669E-06  0.1700281E+04  0.7818609E-02  0.8761204E-01
       -1   -1    0    0    0  501  0.00000000000E+00  0.00000000000E+00  0.48709629742E+03  0.48709629744E+03  0.50400001928E-02 0. -1.
        1   -1    0    0  501    0  0.00000000000E+00  0.00000000000E+00 -0.14837691551E+04  0.14837691551E+04  0.50400001928E-02 0.  1.
    10030    2    1    2    0    0  0.00000000000E+00  0.00000000000E+00 -0.99667285769E+03  0.19708654526E+04  0.17002805200E+04 0.  0.
        4    1    3    3  502    0  0.78919322286E+03  0.19212426556E+03 -0.20739617080E+03  0.83830332278E+03  0.12699999809E+01 0. -1.
       -4    1    3    3    0  502 -0.78919322286E+03 -0.19212426556E+03 -0.78927668688E+03  0.11325621298E+04  0.12699999809E+01 0.  1.
</event>
<event>
 5   0  0.1435301E-05  0.1699382E+04  0.7818609E-02  0.8761717E-01
       -2   -1    0    0    0  501  0.00000000000E+00  0.00000000000E+00  0.10384352672E+04  0.10384352672E+04  0.25500000920E-02 0.  1.
        2   -1    0    0  501    0  0.00000000000E+00  0.00000000000E+00 -0.69525251963E+03  0.69525251963E+03  0.25500000920E-02 0. -1.
    10030    2    1    2    0    0  0.00000000000E+00  0.00000000000E+00  0.34318274760E+03  0.17336877869E+04  0.16993819300E+04 0.  0.
        2    1    3    3  502    0  0.29042910040E+01 -0.70168059472E+03 -0.31725894442E+03  0.77007618437E+03  0.25500000920E-02 0. -1.
       -2    1    3    3    0  502 -0.29042910040E+01  0.70168059472E+03  0.66044169203E+03  0.96361160250E+03  0.25500000920E-02 0.  1.
</event>
<event>
 5   0  0.1441756E-05  0.1699743E+04  0.7818609E-02  0.8761511E-01
       -2   -1    0    0    0  501  0.00000000000E+00  0.00000000000E+00  0.10358245216E+04  0.10358245216E+04  0.25500000920E-02 0.  1.
        2   -1    0    0  501    0  0.00000000000E+00  0.00000000000E+00 -0.69730142930E+03  0.69730142931E+03  0.25500000920E-02 0. -1.
    10030    2    1    2    0    0  0.00000000000E+00  0.00000000000E+00  0.33852309233E+03  0.17331259509E+04  0.16997434153E+04 0.  0.
        5    1    3    3  502    0 -0.66166735002E+03 -0.53307428943E+03  0.18656388377E+03  0.86994255722E+03  0.46999998093E+01 0. -1.
       -5    1    3    3    0  502  0.66166735002E+03  0.53307428943E+03  0.15195920856E+03  0.86318339372E+03  0.46999998093E+01 0.  1.
</event>
<event>
 5   0  0.1441756E-05  0.1700338E+04  0.7818609E-02  0.8761172E-01
        2   -1    0    0  501    0  0.00000000000E+00  0.00000000000E+00  0.11161516926E+04  0.11161516926E+04  0.25500000920E-02 0.  1.
       -2   -1    0    0    0  501  0.00000000000E+00  0.00000000000E+00 -0.64757050511E+03  0.64757050512E+03  0.25500000920E-02 0. -1.
    10030    2    1    2    0    0  0.00000000000E+00  0.00000000000E+00  0.46858118750E+03  0.17637221977E+04  0.17003375140E+04 0.  0.
        5    1    3    3  502    0  0.69200198147E+03 -0.82927358477E+02 -0.27070615503E+03  0.74769485856E+03  0.46999998093E+01 0. -1.
       -5    1    3    3    0  502 -0.69200198147E+03  0.82927358477E+02  0.73928734253E+03  0.10160273392E+04  0.46999998093E+01 0.  1.
</event>
<event>
 5   0  0.1423543E-05  0.1699807E+04  0.7818609E-02  0.8761474E-01
        2   -1    0    0  501    0  0.00000000000E+00  0.00000000000E+00  0.12346826261E+04  0.12346826261E+04  0.25500000920E-02 0. -1.
       -2   -1    0    0    0  501  0.00000000000E+00  0.00000000000E+00 -0.58503783178E+03  0.58503783179E+03  0.25500000920E-02 0.  1.
    10030    2    1    2    0    0  0.00000000000E+00  0.00000000000E+00  0.64964479433E+03  0.18197204579E+04  0.16998071026E+04 0.  0.
        3    1    3    3  502    0 -0.28653970313E+03 -0.77537868930E+03  0.11335536165E+03  0.83436596378E+03  0.10100000352E+00 0.  1.
       -3    1    3    3    0  502  0.28653970313E+03  0.77537868930E+03  0.53628943268E+03  0.98535449413E+03  0.10100000352E+00 0. -1.
</event>
<event>
 5   0  0.7583716E-06  0.1703938E+04  0.7818609E-02  0.8759122E-01
       -1   -1    0    0    0  501  0.00000000000E+00  0.00000000000E+00  0.80199399631E+03  0.80199399632E+03  0.50400001928E-02 0. -1.
        1   -1    0    0  501    0  0.00000000000E+00  0.00000000000E+00 -0.90505788483E+03  0.90505788484E+03  0.50400001928E-02 0.  1.
    10030    2    1    2    0    0  0.00000000000E+00  0.00000000000E+00 -0.10306388852E+03  0.17070518812E+04  0.17039377805E+04 0.  0.
        5    1    3    3  502    0 -0.17552619809E+03  0.81352440927E+03  0.13100282776E+03  0.84250533623E+03  0.46999998093E+01 0. -1.
       -5    1    3    3    0  502  0.17552619809E+03 -0.81352440927E+03 -0.23406671628E+03  0.86454654494E+03  0.46999998093E+01 0.  1.
</event>
<event>
 5   0  0.7082527E-06  0.1700010E+04  0.7818609E-02  0.8761359E-01
       -1   -1    0    0    0  501  0.00000000000E+00  0.00000000000E+00  0.71792109832E+03  0.71792109834E+03  0.50400001928E-02 0.  1.
        1   -1    0    0  501    0  0.00000000000E+00  0.00000000000E+00 -0.10063895760E+04  0.10063895760E+04  0.50400001928E-02 0. -1.
    10030    2    1    2    0    0  0.00000000000E+00  0.00000000000E+00 -0.28846847768E+03  0.17243106744E+04  0.17000097762E+04 0.  0.
        1    1    3    3  502    0 -0.37848015589E+03  0.69185277982E+03 -0.46594444706E+03  0.91597583217E+03  0.50400001928E-02 0. -1.
       -1    1    3    3    0  502  0.37848015589E+03 -0.69185277982E+03  0.17747596938E+03  0.80833484218E+03  0.50400001928E-02 0.  1.
</event>
<event>
 5   0  0.1423543E-05  0.1699616E+04  0.7818609E-02  0.8761583E-01
       -2   -1    0    0    0  501  0.00000000000E+00  0.00000000000E+00  0.93284415661E+03  0.93284415661E+03  0.25500000920E-02 0.  1.
        2   -1    0    0  501    0  0.00000000000E+00  0.00000000000E+00 -0.77416343784E+03  0.77416343785E+03  0.25500000920E-02 0. -1.
    10030    2    1    2    0    0  0.00000000000E+00  0.00000000000E+00  0.15868071877E+03  0.17070075945E+04  0.16996162382E+04 0.  0.
        3    1    3    3  502    0  0.46860181790E+03  0.55031439329E+03  0.52820702935E+03  0.89522973099E+03  0.10100000352E+00 0.  1.
       -3    1    3    3    0  502 -0.46860181790E+03 -0.55031439329E+03 -0.36952631058E+03  0.81177786347E+03  0.10100000352E+00 0. -1.
</event>
<event>
 5   0  0.7476457E-06  0.1700864E+04  0.7818609E-02  0.8760872E-01
       -1   -1    0    0    0  501  0.00000000000E+00  0.00000000000E+00  0.76969766332E+03  0.76969766333E+03  0.50400001928E-02 0.  1.
        1   -1    0    0  501    0  0.00000000000E+00  0.00000000000E+00 -0.93963416436E+03  0.93963416437E+03  0.50400001928E-02 0. -1.
    10030    2    1    2    0    0  0.00000000000E+00  0.00000000000E+00 -0.16993650104E+03  0.17093318277E+04  0.17008635697E+04 0.  0.
        2    1    3    3  502    0  0.20793109123E+03 -0.39568813277E+03 -0.81205480798E+03  0.92695061804E+03  0.25500000920E-02 0. -1.
       -2    1    3    3    0  502 -0.20793109123E+03  0.39568813277E+03  0.64211830694E+03  0.78238120966E+03  0.25500000920E-02 0.  1.
</event>
<event>
 5   0  0.1419012E-05  0.1700648E+04  0.7818609E-02  0.8760995E-01
        2   -1    0    0  501    0  0.00000000000E+00  0.00000000000E+00  0.12587373539E+04  0.12587373539E+04  0.25500000920E-02 0. -1.
       -2   -1    0    0    0  501  0.00000000000E+00  0.00000000000E+00 -0.57442528037E+03  0.57442528038E+03  0.25500000920E-02 0.  1.
    10030    2    1    2    0    0  0.00000000000E+00  0.00000000000E+00  0.68431207349E+03  0.18331626342E+04  0.17006475913E+04 0.  0.
        4    1    3    3  502    0 -0.63177826029E+03 -0.52779063914E+03  0.11262678720E+03  0.83089899208E+03  0.12699999809E+01 0.  1.
       -4    1    3    3    0  502  0.63177826029E+03  0.52779063914E+03  0.57168528629E+03  0.10022636422E+04  0.12699999809E+01 0. -1.
</event>
<event>
 5   0  0.7455669E-06  0.1700844E+04  0.7818609E-02  0.8760883E-01
       -1   -1    0    0    0  501  0.00000000000E+00  0.00000000000E+00  0.79480937023E+03  0.79480937025E+03  0.50400001928E-02 0.  1.
        1   -1    0    0  501    0  0.00000000000E+00  0.00000000000E+00 -0.90992549673E+03  0.90992549674E+03  0.50400001928E-02 0. -1.
    10030    2    1    2    0    0  0.00000000000E+00  0.00000000000E+00 -0.11511612649E+03  0.17047348670E+04  0.17008436860E+04 0.  0.
        4    1    3    3  502    0  0.34244242108E+03 -0.73553150987E+03  0.19786271410E+03  0.83511956048E+03  0.12699999809E+01 0. -1.
       -4    1    3    3    0  502 -0.34244242108E+03  0.73553150987E+03 -0.31297884059E+03  0.86961530651E+03  0.12699999809E+01 0.  1.
</event>
<event>
 5   0  0.1419012E-05  0.1699844E+04  0.7818609E-02  0.8761453E-01
        2   -1    0    0  501    0  0.00000000000E+00  0.00000000000E+00  0.54146079260E+03  0.54146079260E+03  0.25500000920E-02 0. -1.
       -2   -1    0    0    0  501  0.00000000000E+00  0.00000000000E+00 -0.13341082149E+04  0.13341082149E+04  0.25500000920E-02 0.  1.
    10030    2    1    2    0    0  0.00000000000E+00  0.00000000000E+00 -0.79264742232E+03  0.18755690075E+04  0.16998438651E+04 0.  0.
        4    1    3    3  502    0  0.12393157819E+03  0.55881595031E+03 -0.10895497063E+04  0.12307536219E+04  0.12699999809E+01 0.  1.
       -4    1    3    3    0  502 -0.12393157819E+03 -0.55881595031E+03  0.29690228400E+03  0.64481538562E+03  0.12699999809E+01 0. -1.
</event>
<event>
 5   0  0.1374441E-05  0.1699851E+04  0.7818609E-02  0.8761449E-01
        2   -1    0    0  501    0  0.00000000000E+00  0.00000000000E+00  0.15494378832E+04  0.15494378832E+04  0.25500000920E-02 0. -1.
       -2   -1    0    0    0  501  0.00000000000E+00  0.00000000000E+00 -0.46621653304E+03  0.46621653305E+03  0.25500000920E-02 0.  1.
    10030    2    1    2    0    0  0.00000000000E+00  0.00000000000E+00  0.10832213501E+04  0.20156544162E+04  0.16998512383E+04 0.  0.
        1    1    3    3  502    0 -0.27685281856E+03 -0.72404589025E+03  0.12831198633E+03  0.78571871570E+03  0.50400001928E-02 0.  1.
       -1    1    3    3    0  502  0.27685281856E+03  0.72404589025E+03  0.95490936379E+03  0.12299357005E+04  0.50400001928E-02 0. -1.
</event>
<event>
 5   0  0.1435301E-05  0.1696538E+04  0.7818609E-02  0.8763341E-01
        2   -1    0    0  501    0  0.00000000000E+00  0.00000000000E+00  0.12642010932E+04  0.12642010932E+04  0.25500000920E-02 0. -1.
       -2   -1    0    0    0  501  0.00000000000E+00  0.00000000000E+00 -0.56918187820E+03  0.56918187821E+03  0.25500000920E-02 0.  1.
    10030    2    1    2    0    0  0.00000000000E+00  0.00000000000E+00  0.69501921495E+03  0.18333829714E+04  0.16965380663E+04 0.  0.
        2    1    3    3  502    0 -0.52904566293E+03  0.51368294134E+03 -0.10559669257E+03  0.74492290821E+03  0.25500000920E-02 0. -1.
       -2    1    3    3    0  502  0.52904566293E+03 -0.51368294134E+03  0.80061590752E+03  0.10884600631E+04  0.25500000920E-02 0.  1.
</event>
<event>
 5   0  0.7461128E-06  0.1700227E+04  0.7818609E-02  0.8761235E-01
        1   -1    0    0  501    0  0.00000000000E+00  0.00000000000E+00  0.23089854988E+04  0.23089854988E+04  0.50400001928E-02 0.  1.
       -1   -1    0    0    0  501  0.00000000000E+00  0.00000000000E+00 -0.31299145686E+03  0.31299145690E+03  0.50400001928E-02 0. -1.
    10030    2    1    2    0    0  0.00000000000E+00  0.00000000000E+00  0.19959940419E+04  0.26219769557E+04  0.17002267322E+04 0.  0.
        3    1    3    3  502    0  0.12885851463E+02  0.60967301216E+03  0.84583143709E+02  0.61564725723E+03  0.10100000352E+00 0. -1.
       -3    1    3    3    0  502 -0.12885851463E+02 -0.60967301216E+03  0.19114108982E+04  0.20063296984E+04  0.10100000352E+00 0.  1.
</event>
<event>
 5   0  0.7082527E-06  0.1703681E+04  0.7818609E-02  0.8759268E-01
       -1   -1    0    0    0  501  0.00000000000E+00  0.00000000000E+00  0.10798080463E+04  0.10798080463E+04  0.50400001928E-02 0.  1.
        1   -1    0    0  501    0  0.00000000000E+00  0.00000000000E+00 -0.67200127230E+03  0.67200127231E+03  0.50400001928E-02 0. -1.
    10030    2    1    2    0    0  0.00000000000E+00  0.00000000000E+00  0.40780677396E+03  0.17518093186E+04  0.17036811685E+04 0.  0.
        1    1    3    3  502    0  0.44720347072E+03  0.33066524628E+03  0.86734502129E+03  0.10303484048E+04  0.50400001928E-02 0.  1.
       -1    1    3    3    0  502 -0.44720347072E+03 -0.33066524628E+03 -0.45953824733E+03  0.72146091377E+03  0.50400001928E-02 0. -1.
</event>
<event>
 5   0  0.7476457E-06  0.1699132E+04  0.7818609E-02  0.8761859E-01
        1   -1    0    0  501    0  0.00000000000E+00  0.00000000000E+00  0.13549496074E+04  0.13549496074E+04  0.50400001928E-02 0.  1.
       -1   -1    0    0    0  501  0.00000000000E+00  0.00000000000E+00 -0.53268590943E+03  0.53268590946E+03  0.50400001928E-02 0. -1.
    10030    2    1    2    0    0  0.00000000000E+00  0.00000000000E+00  0.82226369795E+03  0.18876355168E+04  0.16991322066E+04 0.  0.
        2    1    3    3  502    0  0.30896425023E+03  0.27451994209E+02  0.12897941589E+04  0.13265675603E+04  0.25500000920E-02 0.  1.
       -2    1    3    3    0  502 -0.30896425023E+03 -0.27451994209E+02 -0.46753046093E+03  0.56106795650E+03  0.25500000920E-02 0. -1.
</event>
<event>
 5   0  0.1435301E-05  0.1700928E+04  0.7818609E-02  0.8760835E-01
       -2   -1    0    0    0  501  0.00000000000E+00  0.00000000000E+00  0.23862759269E+03  0.23862759271E+03  0.25500000920E-02 0. -1.
        2   -1    0    0  501    0  0.00000000000E+00  0.00000000000E+00 -0.30310380046E+04  0.30310380046E+04  0.25500000920E-02 0.  1.
    10030    2    1    2    0    0  0.00000000000E+00  0.00000000000E+00 -0.27924104119E+04  0.32696655973E+04  0.17009283376E+04 0.  0.
        2    1    3    3  502    0  0.71321771589E+03 -0.10692133646E+03 -0.22626786473E+04  0.23748318558E+04  0.25500000920E-02 0.  1.
       -2    1    3    3    0  502 -0.71321771589E+03  0.10692133646E+03 -0.52973176457E+03  0.89483374145E+03  0.25500000920E-02 0. -1.
</event>
<event>
 5   0  0.1441756E-05  0.1700795E+04  0.7818609E-02  0.8760911E-01
       -2   -1    0    0    0  501  0.00000000000E+00  0.00000000000E+00  0.69004865577E+03  0.69004865577E+03  0.25500000920E-02 0. -1.
        2   -1    0    0  501    0  0.00000000000E+00  0.00000000000E+00 -0.10480073649E+04  0.10480073649E+04  0.25500000920E-02 0.  1.
    10030    2    1    2    0    0  0.00000000000E+00  0.00000000000E+00 -0.35795870916E+03  0.17380560207E+04  0.17007951945E+04 0.  0.
        5    1    3    3  502    0  0.41090007783E+03 -0.19713852043E+03  0.55469892118E+03  0.71792440644E+03  0.46999998093E+01 0. -1.
       -5    1    3    3    0  502 -0.41090007783E+03  0.19713852043E+03 -0.91265763034E+03  0.10201316143E+04  0.46999998093E+01 0.  1.
</event>
<event>
 5   0  0.7082527E-06  0.1700872E+04  0.7818609E-02  0.8760867E-01
        1   -1    0    0  501    0  0.00000000000E+00  0.00000000000E+00  0.11738314089E+04  0.11738314089E+04  0.50400001928E-02 0. -1.
       -1   -1    0    0    0  501  0.00000000000E+00  0.00000000000E+00 -0.61613766160E+03  0.61613766162E+03  0.50400001928E-02 0.  1.
    10030    2    1    2    0    0  0.00000000000E+00  0.00000000000E+00  0.55769374733E+03  0.17899690706E+04  0.17008724108E+04 0.  0.
        1    1    3    3  502    0  0.48142079180E+03  0.45273971632E+03  0.84214460942E+03  0.10704890344E+04  0.50400001928E-02 0. -1.
       -1    1    3    3    0  502 -0.48142079180E+03 -0.45273971632E+03 -0.28445086209E+03  0.71948003619E+03  0.50400001928E-02 0.  1.
</event>
<event>
 5   0  0.1374441E-05  0.1699105E+04  0.7818609E-02  0.8761875E-01
       -2   -1    0    0    0  501  0.00000000000E+00  0.00000000000E+00  0.72551365986E+03  0.72551365987E+03  0.25500000920E-02 0.  1.
        2   -1    0    0  501    0  0.00000000000E+00  0.00000000000E+00 -0.99479801480E+03  0.99479801480E+03  0.25500000920E-02 0. -1.
    10030    2    1    2    0    0  0.00000000000E+00  0.00000000000E+00 -0.26928435493E+03  0.17203116747E+04  0.16991051157E+04 0.  0.
        1    1    3    3  502    0 -0.30432802503E+03  0.27255746342E+03 -0.88881238783E+03  0.97820784012E+03  0.50400001928E-02 0. -1.
       -1    1    3    3    0  502  0.30432802503E+03 -0.27255746342E+03  0.61952803290E+03  0.74210383455E+03  0.50400001928E-02 0.  1.
</event>
<event>
 5   0  0.7082527E-06  0.1698937E+04  0.7818609E-02  0.8761971E-01
        1   -1    0    0  501    0  0.00000000000E+00  0.00000000000E+00  0.95370015330E+03  0.95370015332E+03  0.50400001928E-02 0. -1.
       -1   -1    0    0    0  501  0.00000000000E+00  0.00000000000E+00 -0.75662883107E+03  0.75662883109E+03  0.50400001928E-02 0.  1.
    10030    2    1    2    0    0  0.00000000000E+00  0.00000000000E+00  0.19707132223E+03  0.17103289844E+04  0.16989373528E+04 0.  0.
        1    1    3    3  502    0 -0.82767762299E+02 -0.17669805566E+03  0.93083448074E+03  0.95106547404E+03  0.50400001928E-02 0. -1.
       -1    1    3    3    0  502  0.82767762299E+02  0.17669805566E+03 -0.73376315851E+03  0.75926351036E+03  0.50400001928E-02 0.  1.
</event>
<event>
 5   0  0.1441756E-05  0.1699890E+04  0.7818609E-02  0.8761427E-01
        2   -1    0    0  501    0  0.00000000000E+00  0.00000000000E+00  0.99637926203E+03  0.99637926204E+03  0.25500000920E-02 0. -1.
       -2   -1    0    0    0  501  0.00000000000E+00  0.00000000000E+00 -0.72503199963E+03  0.72503199963E+03  0.25500000920E-02 0.  1.
    10030    2    1    2    0    0  0.00000000000E+00  0.00000000000E+00  0.27134726241E+03  0.17214112617E+04  0.16998904068E+04 0.  0.
        5    1    3    3  502    0 -0.65994003714E+02 -0.22732381642E+03  0.96231290818E+03  0.99100935883E+03  0.46999998093E+01 0. -1.
       -5    1    3    3    0  502  0.65994003714E+02  0.22732381642E+03 -0.69096564577E+03  0.73040190284E+03  0.46999998093E+01 0.  1.
</event>
<event>
 5   0  0.1374441E-05  0.1690994E+04  0.7818609E-02  0.8766518E-01
       -2   -1    0    0    0  501  0.00000000000E+00  0.00000000000E+00  0.12812776389E+04  0.12812776389E+04  0.25500000920E-02 0. -1.
        2   -1    0    0  501    0  0.00000000000E+00  0.00000000000E+00 -0.55793134551E+03  0.55793134552E+03  0.25500000920E-02 0.  1.
    10030    2    1    2    0    0  0.00000000000E+00  0.00000000000E+00  0.72334629341E+03  0.18392089844E+04  0.16909937399E+04 0.  0.
        1    1    3    3  502    0 -0.24975971392E+03 -0.78701491820E+03  0.16381484902E+03  0.84178839440E+03  0.50400001928E-02 0.  1.
       -1    1    3    3    0  502  0.24975971392E+03  0.78701491820E+03  0.55953144439E+03  0.99742059005E+03  0.50400001928E-02 0. -1.
</event>
<event>
 5   0  0.1441756E-05  0.1699740E+04  0.7818609E-02  0.8761513E-01
       -2   -1    0    0    0  501  0.00000000000E+00  0.00000000000E+00  0.94605309763E+03  0.94605309763E+03  0.25500000920E-02 0. -1.
        2   -1    0    0  501    0  0.00000000000E+00  0.00000000000E+00 -0.76346569767E+03  0.76346569767E+03  0.25500000920E-02 0.  1.
    10030    2    1    2    0    0  0.00000000000E+00  0.00000000000E+00  0.18258739996E+03  0.17095187953E+04  0.16997400839E+04 0.  0.
        5    1    3    3  502    0 -0.61789983232E+03 -0.58295253539E+03  0.66187377383E+02  0.85207788389E+03  0.46999998093E+01 0. -1.
       -5    1    3    3    0  502  0.61789983232E+03  0.58295253539E+03  0.11640002258E+03  0.85744091141E+03  0.46999998093E+01 0.  1.
</event>
<event>
 5   0  0.1441756E-05  0.1699992E+04  0.7818609E-02  0.8761369E-01
       -2   -1    0    0    0  501  0.00000000000E+00  0.00000000000E+00  0.13860882062E+04  0.13860882062E+04  0.25500000920E-02 0.  1.
        2   -1    0    0  501    0  0.00000000000E+00  0.00000000000E+00 -0.52124604719E+03  0.52124604720E+03  0.25500000920E-02 0. -1.
    10030    2    1    2    0    0  0.00000000000E+00  0.00000000000E+00  0.86484215901E+03  0.19073342534E+04  0.16999917630E+04 0.  0.
        5    1    3    3  502    0  0.32605492721E+02 -0.52169248409E+03  0.11844274034E+04  0.12946491919E+04  0.46999998093E+01 0.  1.
       -5    1    3    3    0  502 -0.32605492721E+02  0.52169248409E+03 -0.31958524443E+03  0.61268506149E+03  0.46999998093E+01 0. -1.
</event>
<event>
 5   0  0.5229750E-06  0.1699648E+04  0.7818609E-02  0.8761565E-01
        4   -1    0    0  501    0  0.00000000000E+00  0.00000000000E+00  0.77347179473E+03  0.77347283736E+03  0.12699999809E+01 0. -1.
       -4   -1    0    0    0  501  0.00000000000E+00  0.00000000000E+00 -0.93371145012E+03  0.93371231382E+03  0.12699999809E+01 0.  1.
    10030    2    1    2    0    0  0.00000000000E+00  0.00000000000E+00 -0.16023965539E+03  0.17071851512E+04  0.16996483146E+04 0.  0.
        1    1    3    3  502    0  0.25007461584E+03 -0.58155939548E+03  0.48936207807E+03  0.80013991742E+03  0.50400001928E-02 0. -1.
       -1    1    3    3    0  502 -0.25007461584E+03  0.58155939548E+03 -0.64960173346E+03  0.90704523377E+03  0.50400001928E-02 0.  1.
</event>
<event>
 5   0  0.1374441E-05  0.1700000E+04  0.7818609E-02  0.8761365E-01
       -2   -1    0    0    0  501  0.00000000000E+00  0.00000000000E+00  0.74867812977E+03  0.74867812977E+03  0.25500000920E-02 0.  1.
        2   -1    0    0  501    0  0.00000000000E+00  0.00000000000E+00 -0.96503375596E+03  0.96503375596E+03  0.25500000920E-02 0. -1.
    10030    2    1    2    0    0  0.00000000000E+00  0.00000000000E+00 -0.21635562619E+03  0.17137118857E+04  0.16999996089E+04 0.  0.
        1    1    3    3  502    0 -0.55066304805E+03 -0.63154257322E+03 -0.25224259570E+03  0.87504407969E+03  0.50400001928E-02 0. -1.
       -1    1    3    3    0  502  0.55066304805E+03  0.63154257322E+03  0.35886969511E+02  0.83866780604E+03  0.50400001928E-02 0.  1.
</event>
<event>
 5   0  0.7476457E-06  0.1703376E+04  0.7818609E-02  0.8759441E-01
       -1   -1    0    0    0  501  0.00000000000E+00  0.00000000000E+00  0.30797264033E+03  0.30797264037E+03  0.50400001928E-02 0. -1.
        1   -1    0    0  501    0  0.00000000000E+00  0.00000000000E+00 -0.23553145371E+04  0.23553145371E+04  0.50400001928E-02 0.  1.
    10030    2    1    2    0    0  0.00000000000E+00  0.00000000000E+00 -0.20473418968E+04  0.26632871775E+04  0.17033759853E+04 0.  0.
        2    1    3    3  502    0  0.78588930851E+03 -0.37089894089E+02 -0.51372188573E+03  0.93963175838E+03  0.25500000920E-02 0.  1.
       -2    1    3    3    0  502 -0.78588930851E+03  0.37089894089E+02 -0.15336200110E+04  0.17236554191E+04  0.25500000920E-02 0. -1.
</event>
<event>
 5   0  0.1419012E-05  0.1699298E+04  0.7818609E-02  0.8761765E-01
       -2   -1    0    0    0  501  0.00000000000E+00  0.00000000000E+00  0.55306073320E+03  0.55306073321E+03  0.25500000920E-02 0. -1.
        2   -1    0    0  501    0  0.00000000000E+00  0.00000000000E+00 -0.13052879132E+04  0.13052879132E+04  0.25500000920E-02 0.  1.
    10030    2    1    2    0    0  0.00000000000E+00  0.00000000000E+00 -0.75222718004E+03  0.18583486464E+04  0.16992980790E+04 0.  0.
        4    1    3    3  502    0 -0.56923846606E+03 -0.40268933156E+03 -0.90705588492E+03  0.11440905210E+04  0.12699999809E+01 0.  1.
       -4    1    3    3    0  502  0.56923846606E+03  0.40268933156E+03  0.15482870488E+03  0.71425812544E+03  0.12699999809E+01 0. -1.
</event>
<event>
 5   0  0.7461128E-06  0.1699601E+04  0.7818609E-02  0.8761592E-01
        1   -1    0    0  501    0  0.00000000000E+00  0.00000000000E+00  0.73433014039E+03  0.73433014041E+03  0.50400001928E-02 0. -1.
       -1   -1    0    0    0  501  0.00000000000E+00  0.00000000000E+00 -0.98342825644E+03  0.98342825645E+03  0.50400001928E-02 0.  1.
    10030    2    1    2    0    0  0.00000000000E+00  0.00000000000E+00 -0.24909811604E+03  0.17177583969E+04  0.16996011410E+04 0.  0.
        3    1    3    3  502    0 -0.13386211847E+03  0.65563547345E+03 -0.65396193938E+03  0.93565120059E+03  0.10100000352E+00 0.  1.
       -3    1    3    3    0  502  0.13386211847E+03 -0.65563547345E+03  0.40486382333E+03  0.78210719627E+03  0.10100000352E+00 0. -1.
</event>
<event>
 5   0  0.1423543E-05  0.1699742E+04  0.7818609E-02  0.8761512E-01
        2   -1    0    0  501    0  0.00000000000E+00  0.00000000000E+00  0.95236491588E+03  0.95236491589E+03  0.25500000920E-02 0.  1.
       -2   -1    0    0    0  501  0.00000000000E+00  0.00000000000E+00 -0.75840710919E+03  0.75840710920E+03  0.25500000920E-02 0. -1.
    10030    2    1    2    0    0  0.00000000000E+00  0.00000000000E+00  0.19395780669E+03  0.17107720251E+04  0.16997415365E+04 0.  0.
        3    1    3    3  502    0  0.24296042897E+03  0.24377957599E+03  0.87908152310E+03  0.94405645285E+03  0.10100000352E+00 0.  1.
       -3    1    3    3    0  502 -0.24296042897E+03 -0.24377957599E+03 -0.68512371641E+03  0.76671557223E+03  0.10100000352E+00 0. -1.
</event>
<event>
 5   0  0.7455669E-06  0.1700136E+04  0.7818609E-02  0.8761287E-01
       -1   -1    0    0    0  501  0.00000000000E+00  0.00000000000E+00  0.10949262480E+04  0.10949262480E+04  0.50400001928E-02 0.  1.
        1   -1    0    0  501    0  0.00000000000E+00  0.00000000000E+00 -0.65996720216E+03  0.65996720218E+03  0.50400001928E-02 0. -1.
    10030    2    1    2    0    0  0.00000000000E+00  0.00000000000E+00  0.43495904586E+03  0.17548934502E+04  0.17001357740E+04 0.  0.
        4    1    3    3  502    0 -0.87157926701E+01  0.60089612434E+03  0.83806024447E+03  0.10312607350E+04  0.12699999809E+01 0.  1.
       -4    1    3    3    0  502  0.87157926701E+01 -0.60089612434E+03 -0.40310119861E+03  0.72363271521E+03  0.12699999809E+01 0. -1.
</event>
<event>
 5   0  0.1374441E-05  0.1696376E+04  0.7818609E-02  0.8763434E-01
        2   -1    0    0  501    0  0.00000000000E+00  0.00000000000E+00  0.12276959169E+04  0.12276959169E+04  0.25500000920E-02 0.  1.
       -2   -1    0    0    0  501  0.00000000000E+00  0.00000000000E+00 -0.58599468823E+03  0.58599468823E+03  0.25500000920E-02 0. -1.
    10030    2    1    2    0    0  0.00000000000E+00  0.00000000000E+00  0.64170122863E+03  0.18136906051E+04  0.16963764748E+04 0.  0.
        1    1    3    3  502    0  0.36810081759E+03  0.75837620126E+03  0.42109279478E+03  0.94231195280E+03  0.50400001928E-02 0.  1.
       -1    1    3    3    0  502 -0.36810081759E+03 -0.75837620126E+03  0.22060843385E+03  0.87137865229E+03  0.50400001928E-02 0. -1.
</event>
<event>
 5   0  0.7583716E-06  0.1699782E+04  0.7818609E-02  0.8761489E-01
        1   -1    0    0  501    0  0.00000000000E+00  0.00000000000E+00  0.10442042668E+04  0.10442042668E+04  0.50400001928E-02 0.  1.
       -1   -1    0    0    0  501  0.00000000000E+00  0.00000000000E+00 -0.69173664158E+03  0.69173664159E+03  0.50400001928E-02 0. -1.
    10030    2    1    2    0    0  0.00000000000E+00  0.00000000000E+00  0.35246762518E+03  0.17359409084E+04  0.16997815773E+04 0.  0.
        5    1    3    3  502    0 -0.67099963972E+03  0.58109392748E+02  0.70559913056E+03  0.97545345408E+03  0.46999998093E+01 0.  1.
       -5    1    3    3    0  502  0.67099963972E+03 -0.58109392748E+02 -0.35313150538E+03  0.76048745428E+03  0.46999998093E+01 0. -1.
</event>
<event>
 5   0  0.7455669E-06  0.1700067E+04  0.7818609E-02  0.8761326E-01
       -1   -1    0    0    0  501  0.00000000000E+00  0.00000000000E+00  0.58942002218E+03  0.58942002220E+03  0.50400001928E-02 0.  1.
        1   -1    0    0  501    0  0.00000000000E+00  0.00000000000E+00 -0.12258773587E+04  0.12258773587E+04  0.50400001928E-02 0. -1.
    10030    2    1    2    0    0  0.00000000000E+00  0.00000000000E+00 -0.63645733650E+03  0.18152973809E+04  0.17000666575E+04 0.  0.
        4    1    3    3  502    0  0.64119880303E+03 -0.41170466463E+03  0.84026100559E+02  0.76661504966E+03  0.12699999809E+01 0.  1.
       -4    1    3    3    0  502 -0.64119880303E+03  0.41170466463E+03 -0.72048343706E+03  0.10486823312E+04  0.12699999809E+01 0. -1.
</event>
<event>
 5   0  0.1423543E-05  0.1700027E+04  0.7818609E-02  0.8761349E-01
       -2   -1    0    0    0  501  0.00000000000E+00  0.00000000000E+00  0.62251304835E+03  0.62251304835E+03  0.25500000920E-02 0. -1.
        2   -1    0    0  501    0  0.00000000000E+00  0.00000000000E+00 -0.11606555156E+04  0.11606555156E+04  0.25500000920E-02 0.  1.
    10030    2    1    2    0    0  0.00000000000E+00  0.00000000000E+00 -0.53814246724E+03  0.17831685639E+04  0.17000272975E+04 0.  0.
        3    1    3    3  502    0  0.41604938800E+03  0.68637751217E+03  0.24457547345E+02  0.80300022683E+03  0.10100000352E+00 0.  1.
       -3    1    3    3    0  502 -0.41604938800E+03 -0.68637751217E+03 -0.56260001458E+03  0.98016833711E+03  0.10100000352E+00 0. -1.
</event>
<event>
 5   0  0.7583716E-06  0.1699631E+04  0.7818609E-02  0.8761575E-01
       -1   -1    0    0    0  501  0.00000000000E+00  0.00000000000E+00  0.64687484205E+03  0.64687484207E+03  0.50400001928E-02 0. -1.
        1   -1    0    0  501    0  0.00000000000E+00  0.00000000000E+00 -0.11164239502E+04  0.11164239502E+04  0.50400001928E-02 0.  1.
    10030    2    1    2    0    0  0.00000000000E+00  0.00000000000E+00 -0.46954910814E+03  0.17632987923E+04  0.16996312147E+04 0.  0.
        5    1    3    3  502    0 -0.52736228666E+03 -0.62928977543E+03 -0.73652140613E+01  0.82109252781E+03  0.46999998093E+01 0. -1.
       -5    1    3    3    0  502  0.52736228666E+03  0.62928977543E+03 -0.46218389408E+03  0.94220626446E+03  0.46999998093E+01 0.  1.
</event>
<event>
 5   0  0.7461128E-06  0.1694962E+04  0.7818609E-02  0.8764243E-01
       -1   -1    0    0    0  501  0.00000000000E+00  0.00000000000E+00  0.68336487208E+03  0.68336487209E+03  0.50400001928E-02 0.  1.
        1   -1    0    0  501    0  0.00000000000E+00  0.00000000000E+00 -0.10510111640E+04  0.10510111640E+04  0.50400001928E-02 0. -1.
    10030    2    1    2    0    0  0.00000000000E+00  0.00000000000E+00 -0.36764629195E+03  0.17343760361E+04  0.16949620759E+04 0.  0.
        3    1    3    3  502    0  0.80201513636E+03 -0.26783423939E+03 -0.24225299362E+03  0.87957375010E+03  0.10100000352E+00 0.  1.
       -3    1    3    3    0  502 -0.80201513636E+03  0.26783423939E+03 -0.12539329833E+03  0.85480228603E+03  0.10100000352E+00 0. -1.
</event>
<event>
 5   0  0.7476457E-06  0.1699947E+04  0.7818609E-02  0.8761395E-01
        1   -1    0    0  501    0  0.00000000000E+00  0.00000000000E+00  0.67229008906E+03  0.67229008907E+03  0.50400001928E-02 0.  1.
       -1   -1    0    0    0  501  0.00000000000E+00  0.00000000000E+00 -0.10746176258E+04  0.10746176258E+04  0.50400001928E-02 0. -1.
    10030    2    1    2    0    0  0.00000000000E+00  0.00000000000E+00 -0.40232753675E+03  0.17469077149E+04  0.16999467984E+04 0.  0.
        2    1    3    3  502    0  0.78315097222E+03 -0.17792404295E+03  0.84863903483E+02  0.80757927937E+03  0.25500000920E-02 0.  1.
       -2    1    3    3    0  502 -0.78315097222E+03  0.17792404295E+03 -0.48719144024E+03  0.93932843553E+03  0.25500000920E-02 0. -1.
</event>
<event>
 5   0  0.1435301E-05  0.1700593E+04  0.7818609E-02  0.8761026E-01
        2   -1    0    0  501    0  0.00000000000E+00  0.00000000000E+00  0.85042074808E+03  0.85042074808E+03  0.25500000920E-02 0.  1.
       -2   -1    0    0    0  501  0.00000000000E+00  0.00000000000E+00 -0.85017242201E+03  0.85017242201E+03  0.25500000920E-02 0. -1.
    10030    2    1    2    0    0  0.00000000000E+00  0.00000000000E+00  0.24832607054E+00  0.17005931701E+04  0.17005931520E+04 0.  0.
        2    1    3    3  502    0 -0.82569288258E+03  0.14232007429E+03 -0.14472240294E+03  0.85027543409E+03  0.25500000920E-02 0.  1.
       -2    1    3    3    0  502  0.82569288258E+03 -0.14232007429E+03  0.14497072901E+03  0.85031773601E+03  0.25500000920E-02 0. -1.
</event>
<event>
 5   0  0.7476457E-06  0.1699740E+04  0.7818609E-02  0.8761513E-01
       -1   -1    0    0    0  501  0.00000000000E+00  0.00000000000E+00  0.49495788234E+03  0.49495788236E+03  0.50400001928E-02 0.  1.
        1   -1    0    0  501    0  0.00000000000E+00  0.00000000000E+00 -0.14592736189E+04  0.14592736189E+04  0.50400001928E-02 0. -1.
    10030    2    1    2    0    0  0.00000000000E+00  0.00000000000E+00 -0.96431573652E+03  0.19542315012E+04  0.16997399568E+04 0.  0.
        2    1    3    3  502    0  0.53329143625E+03  0.42695455204E+03  0.99094365271E+02  0.69029677583E+03  0.25500000920E-02 0.  1.
       -2    1    3    3    0  502 -0.53329143625E+03 -0.42695455204E+03 -0.10634101018E+04  0.12639347254E+04  0.25500000920E-02 0. -1.
</event>
<event>
 5   0  0.7476457E-06  0.1699475E+04  0.7818609E-02  0.8761664E-01
        1   -1    0    0  501    0  0.00000000000E+00  0.00000000000E+00  0.10524241430E+04  0.10524241431E+04  0.50400001928E-02 0. -1.
       -1   -1    0    0    0  501  0.00000000000E+00  0.00000000000E+00 -0.68608614626E+03  0.68608614628E+03  0.50400001928E-02 0.  1.
    10030    2    1    2    0    0  0.00000000000E+00  0.00000000000E+00  0.36633799679E+03  0.17385102893E+04  0.16994747713E+04 0.  0.
        2    1    3    3  502    0  0.37186387191E+03 -0.27770924000E+03 -0.54497271001E+03  0.71582149721E+03  0.25500000920E-02 0.  1.
       -2    1    3    3    0  502 -0.37186387191E+03  0.27770924000E+03  0.91131070680E+03  0.10226887921E+04  0.25500000920E-02 0. -1.
</event>
<event>
 5   0  0.7461128E-06  0.1695591E+04  0.7818609E-02  0.8763883E-01
        1   -1    0    0  501    0  0.00000000000E+00  0.00000000000E+00  0.18835489609E+04  0.18835489609E+04  0.50400001928E-02 0. -1.
       -1   -1    0    0    0  501  0.00000000000E+00  0.00000000000E+00 -0.38159720918E+03  0.38159720921E+03  0.50400001928E-02 0.  1.
    10030    2    1    2    0    0  0.00000000000E+00  0.00000000000E+00  0.15019517517E+04  0.22651461701E+04  0.16955907842E+04 0.  0.
        3    1    3    3  502    0  0.60149752764E+03 -0.65202176833E+01  0.15490766344E+04  0.16617702063E+04  0.10100000352E+00 0. -1.
       -3    1    3    3    0  502 -0.60149752764E+03  0.65202176833E+01 -0.47124882663E+02  0.60337596386E+03  0.10100000352E+00 0.  1.
</event>
<event>
 5   0  0.1374441E-05  0.1700094E+04  0.7818609E-02  0.8761311E-01
       -2   -1    0    0    0  501  0.00000000000E+00  0.00000000000E+00  0.44787173304E+03  0.44787173305E+03  0.25500000920E-02 0. -1.
        2   -1    0    0  501    0  0.00000000000E+00  0.00000000000E+00 -0.16133633285E+04  0.16133633285E+04  0.25500000920E-02 0.  1.
    10030    2    1    2    0    0  0.00000000000E+00  0.00000000000E+00 -0.11654915955E+04  0.20612350616E+04  0.17000939150E+04 0.  0.
        1    1    3    3  502    0 -0.17354522507E+03 -0.65451039711E+02 -0.15885304755E+04  0.15993219986E+04  0.50400001928E-02 0.  1.
       -1    1    3    3    0  502  0.17354522507E+03  0.65451039711E+02  0.42303887998E+03  0.46191306297E+03  0.50400001928E-02 0. -1.
</event>
<event>
 5   0  0.1419012E-05  0.1700230E+04  0.7818609E-02  0.8761233E-01
       -2   -1    0    0    0  501  0.00000000000E+00  0.00000000000E+00  0.45568301914E+03  0.45568301915E+03  0.25500000920E-02 0. -1.
        2   -1    0    0  501    0  0.00000000000E+00  0.00000000000E+00 -0.15859601841E+04  0.15859601841E+04  0.25500000920E-02 0.  1.
    10030    2    1    2    0    0  0.00000000000E+00  0.00000000000E+00 -0.11302771650E+04  0.20416432033E+04  0.17002295433E+04 0.  0.
        4    1    3    3  502    0 -0.44727929986E+03  0.13772093191E+03 -0.14173440826E+04  0.14926123705E+04  0.12699999809E+01 0.  1.
       -4    1    3    3    0  502  0.44727929986E+03 -0.13772093191E+03  0.28706691767E+03  0.54903083273E+03  0.12699999809E+01 0. -1.
</event>
<event>
 5   0  0.7082527E-06  0.1700843E+04  0.7818609E-02  0.8760884E-01
       -1   -1    0    0    0  501  0.00000000000E+00  0.00000000000E+00  0.69944598846E+03  0.69944598848E+03  0.50400001928E-02 0. -1.
        1   -1    0    0  501    0  0.00000000000E+00  0.00000000000E+00 -0.10339851097E+04  0.10339851098E+04  0.50400001928E-02 0.  1.
    10030    2    1    2    0    0  0.00000000000E+00  0.00000000000E+00 -0.33453912128E+03  0.17334310982E+04  0.17008430112E+04 0.  0.
        1    1    3    3  502    0  0.49120508986E+02  0.42832297882E+03  0.57981246642E+03  0.72253435547E+03  0.50400001928E-02 0. -1.
       -1    1    3    3    0  502 -0.49120508986E+02 -0.42832297882E+03 -0.91435158770E+03  0.10108967428E+04  0.50400001928E-02 0.  1.
</event>
<event>
 5   0  0.1374441E-05  0.1700411E+04  0.7818609E-02  0.8761130E-01
        2   -1    0    0  501    0  0.00000000000E+00  0.00000000000E+00  0.14816248283E+04  0.14816248283E+04  0.25500000920E-02 0.  1.
       -2   -1    0    0    0  501  0.00000000000E+00  0.00000000000E+00 -0.48787605534E+03  0.48787605534E+03  0.25500000920E-02 0. -1.
    10030    2    1    2    0    0  0.00000000000E+00  0.00000000000E+00  0.99374877299E+03  0.19695008837E+04  0.17004108642E+04 0.  0.
        1    1    3    3  502    0 -0.80958362178E+03 -0.19024756658E+03  0.70155882256E+03  0.10880278300E+04  0.50400001928E-02 0. -1.
       -1    1    3    3    0  502  0.80958362178E+03  0.19024756658E+03  0.29218995042E+03  0.88147305370E+03  0.50400001928E-02 0.  1.
</event>
<event>
 5   0  0.1419012E-05  0.1700307E+04  0.7818609E-02  0.8761189E-01
       -2   -1    0    0    0  501  0.00000000000E+00  0.00000000000E+00  0.59621825338E+03  0.59621825339E+03  0.25500000920E-02 0. -1.
        2   -1    0    0  501    0  0.00000000000E+00  0.00000000000E+00 -0.12122424792E+04  0.12122424792E+04  0.25500000920E-02 0.  1.
    10030    2    1    2    0    0  0.00000000000E+00  0.00000000000E+00 -0.61602422581E+03  0.18084607326E+04  0.17003071412E+04 0.  0.
        4    1    3    3  502    0  0.67820864308E+03  0.50218185756E+03 -0.41754775298E+03  0.94154199085E+03  0.12699999809E+01 0.  1.
       -4    1    3    3    0  502 -0.67820864308E+03 -0.50218185756E+03 -0.19847647283E+03  0.86691874174E+03  0.12699999809E+01 0. -1.
</event>
<event>
 5   0  0.1441756E-05  0.1699581E+04  0.7818609E-02  0.8761603E-01
       -2   -1    0    0    0  501  0.00000000000E+00  0.00000000000E+00  0.47544371340E+03  0.47544371341E+03  0.25500000920E-02 0. -1.
        2   -1    0    0  501    0  0.00000000000E+00  0.00000000000E+00 -0.15188840266E+04  0.15188840266E+04  0.25500000920E-02 0.  1.
    10030    2    1    2    0    0  0.00000000000E+00  0.00000000000E+00 -0.10434403132E+04  0.19943277400E+04  0.16995809623E+04 0.  0.
        5    1    3    3  502    0 -0.54264244960E+03 -0.16419066781E+03  0.22106912287E+03  0.60853352463E+03  0.46999998093E+01 0. -1.
       -5    1    3    3    0  502  0.54264244960E+03  0.16419066781E+03 -0.12645094361E+04  0.13857942154E+04  0.46999998093E+01 0.  1.
</event>
<event>
 5   0  0.1374441E-05  0.1701978E+04  0.7818609E-02  0.8760237E-01
        2   -1    0    0  501    0  0.00000000000E+00  0.00000000000E+00  0.61944500997E+03  0.61944500998E+03  0.25500000920E-02 0. -1.
       -2   -1    0    0    0  501  0.00000000000E+00  0.00000000000E+00 -0.11690828900E+04  0.11690828900E+04  0.25500000920E-02 0.  1.
    10030    2    1    2    0    0  0.00000000000E+00  0.00000000000E+00 -0.54963788005E+03  0.17885279000E+04  0.17019783341E+04 0.  0.
        1    1    3    3  502    0  0.58161640885E+03  0.13960201629E+03 -0.91092424973E+03  0.10897473830E+04  0.50400001928E-02 0.  1.
       -1    1    3    3    0  502 -0.58161640885E+03 -0.13960201629E+03  0.36128636968E+03  0.69878051700E+03  0.50400001928E-02 0. -1.
</event>
<event>
 5   0  0.1441756E-05  0.1699553E+04  0.7818609E-02  0.8761619E-01
        2   -1    0    0  501    0  0.00000000000E+00  0.00000000000E+00  0.18176935243E+04  0.18176935243E+04  0.25500000920E-02 0.  1.
       -2   -1    0    0    0  501  0.00000000000E+00  0.00000000000E+00 -0.39727294164E+03  0.39727294165E+03  0.25500000920E-02 0. -1.
    10030    2    1    2    0    0  0.00000000000E+00  0.00000000000E+00  0.14204205826E+04  0.22149664659E+04  0.16995534159E+04 0.  0.
        5    1    3    3  502    0 -0.13879301202E+03  0.51656801980E+03  0.15707516906E+04  0.16593338973E+04  0.46999998093E+01 0.  1.
       -5    1    3    3    0  502  0.13879301202E+03 -0.51656801980E+03 -0.15033110797E+03  0.55563256860E+03  0.46999998093E+01 0. -1.
</event>
<event>
 5   0  0.1374441E-05  0.1691763E+04  0.7818609E-02  0.8766076E-01
        2   -1    0    0  501    0  0.00000000000E+00  0.00000000000E+00  0.72195494961E+03  0.72195494962E+03  0.25500000920E-02 0. -1.
       -2   -1    0    0    0  501  0.00000000000E+00  0.00000000000E+00 -0.99107996931E+03  0.99107996931E+03  0.25500000920E-02 0.  1.
    10030    2    1    2    0    0  0.00000000000E+00  0.00000000000E+00 -0.26912501970E+03  0.17130349189E+04  0.16917625002E+04 0.  0.
        1    1    3    3  502    0 -0.23046324892E+03  0.82767437050E+02  0.68527950986E+03  0.72771681608E+03  0.50400001928E-02 0. -1.
       -1    1    3    3    0  502  0.23046324892E+03 -0.82767437050E+02 -0.95440452956E+03  0.98531810285E+03  0.50400001928E-02 0.  1.
</event>
<event>
 5   0  0.7455669E-06  0.1699579E+04  0.7818609E-02  0.8761604E-01
        1   -1    0    0  501    0  0.00000000000E+00  0.00000000000E+00  0.69659502937E+03  0.69659502939E+03  0.50400001928E-02 0. -1.
       -1   -1    0    0    0  501  0.00000000000E+00  0.00000000000E+00 -0.10366748398E+04  0.10366748398E+04  0.50400001928E-02 0.  1.
    10030    2    1    2    0    0  0.00000000000E+00  0.00000000000E+00 -0.34007981039E+03  0.17332698692E+04  0.16995794074E+04 0.  0.
        4    1    3    3  502    0 -0.71737847882E+03  0.25441187203E+03 -0.55539753254E+03  0.94224482729E+03  0.12699999809E+01 0.  1.
       -4    1    3    3    0  502  0.71737847882E+03 -0.25441187203E+03  0.21531772214E+03  0.79102504188E+03  0.12699999809E+01 0. -1.
</event>
<event>
 5   0  0.7461128E-06  0.1699566E+04  0.7818609E-02  0.8761612E-01
        1   -1    0    0  501    0  0.00000000000E+00  0.00000000000E+00  0.87786986909E+03  0.87786986910E+03  0.50400001928E-02 0.  1.
       -1   -1    0    0    0  501  0.00000000000E+00  0.00000000000E+00 -0.82259440555E+03  0.82259440556E+03  0.50400001928E-02 0. -1.
    10030    2    1    2    0    0  0.00000000000E+00  0.00000000000E+00  0.55275463542E+02  0.17004642747E+04  0.16995656423E+04 0.  0.
        3    1    3    3  502    0  0.16435589361E+03 -0.35377422791E+03  0.78299503401E+03  0.87478585813E+03  0.10100000352E+00 0.  1.
       -3    1    3    3    0  502 -0.16435589361E+03  0.35377422791E+03 -0.72771957047E+03  0.82567841654E+03  0.10100000352E+00 0. -1.
</event>
<event>
 5   0  0.1374441E-05  0.1698822E+04  0.7818609E-02  0.8762037E-01
        2   -1    0    0  501    0  0.00000000000E+00  0.00000000000E+00  0.89655139906E+03  0.89655139906E+03  0.25500000920E-02 0.  1.
       -2   -1    0    0    0  501  0.00000000000E+00  0.00000000000E+00 -0.80474921650E+03  0.80474921651E+03  0.25500000920E-02 0. -1.
    10030    2    1    2    0    0  0.00000000000E+00  0.00000000000E+00  0.91802182555E+02  0.17013006156E+04  0.16988219871E+04 0.  0.
        1    1    3    3  502    0  0.79734302156E+03 -0.29263884605E+03  0.56194593615E+02  0.85120574518E+03  0.50400001928E-02 0.  1.
       -1    1    3    3    0  502 -0.79734302156E+03  0.29263884605E+03  0.35607588940E+02  0.85009487039E+03  0.50400001928E-02 0. -1.
</event>
<event>
 5   0  0.7476457E-06  0.1700155E+04  0.7818609E-02  0.8761276E-01
       -1   -1    0    0    0  501  0.00000000000E+00  0.00000000000E+00  0.93098340398E+03  0.93098340399E+03  0.50400001928E-02 0. -1.
        1   -1    0    0  501    0  0.00000000000E+00  0.00000000000E+00 -0.77620239642E+03  0.77620239644E+03  0.50400001928E-02 0.  1.
    10030    2    1    2    0    0  0.00000000000E+00  0.00000000000E+00  0.15478100756E+03  0.17071858004E+04  0.17001547567E+04 0.  0.
        2    1    3    3  502    0  0.88166499989E+02  0.59078773368E+03 -0.52994804673E+03  0.79852890381E+03  0.25500000920E-02 0.  1.
       -2    1    3    3    0  502 -0.88166499989E+02 -0.59078773368E+03  0.68472905428E+03  0.90865689662E+03  0.25500000920E-02 0. -1.
</event>
<event>
 5   0  0.1435301E-05  0.1701484E+04  0.7818609E-02  0.8760518E-01
       -2   -1    0    0    0  501  0.00000000000E+00  0.00000000000E+00  0.52582422762E+03  0.52582422763E+03  0.25500000920E-02 0. -1.
        2   -1    0    0  501    0  0.00000000000E+00  0.00000000000E+00 -0.13764335289E+04  0.13764335289E+04  0.25500000920E-02 0.  1.
    10030    2    1    2    0    0  0.00000000000E+00  0.00000000000E+00 -0.85060930129E+03  0.19022577565E+04  0.17014841724E+04 0.  0.
        2    1    3    3  502    0  0.54691067466E+03  0.57809937687E+03 -0.89063898144E+02  0.80077621940E+03  0.25500000920E-02 0. -1.
       -2    1    3    3    0  502 -0.54691067466E+03 -0.57809937687E+03 -0.76154540314E+03  0.11014815371E+04  0.25500000920E-02 0.  1.
</event>
<event>
 5   0  0.7455669E-06  0.1699330E+04  0.7818609E-02  0.8761747E-01
        1   -1    0    0  501    0  0.00000000000E+00  0.00000000000E+00  0.12753726559E+04  0.12753726559E+04  0.50400001928E-02 0.  1.
       -1   -1    0    0    0  501  0.00000000000E+00  0.00000000000E+00 -0.56605452126E+03  0.56605452128E+03  0.50400001928E-02 0. -1.
    10030    2    1    2    0    0  0.00000000000E+00  0.00000000000E+00  0.70931813466E+03  0.18414271772E+04  0.16993298187E+04 0.  0.
        4    1    3    3  502    0  0.39308962239E+03  0.27109046259E+03  0.11162204135E+04  0.12140671788E+04  0.12699999809E+01 0.  1.
       -4    1    3    3    0  502 -0.39308962239E+03 -0.27109046259E+03 -0.40690227888E+03  0.62735999840E+03  0.12699999809E+01 0. -1.
</event>
<event>
 5   0  0.1441756E-05  0.1699787E+04  0.7818609E-02  0.8761486E-01
       -2   -1    0    0    0  501  0.00000000000E+00  0.00000000000E+00  0.50889737471E+03  0.50889737472E+03  0.25500000920E-02 0. -1.
        2   -1    0    0  501    0  0.00000000000E+00  0.00000000000E+00 -0.14193804505E+04  0.14193804505E+04  0.25500000920E-02 0.  1.
    10030    2    1    2    0    0  0.00000000000E+00  0.00000000000E+00 -0.91048307577E+03  0.19282778252E+04  0.16997870278E+04 0.  0.
        5    1    3    3  502    0  0.58054365473E+03  0.46858527264E+03 -0.91701421080E+03  0.11821760637E+04  0.46999998093E+01 0.  1.
       -5    1    3    3    0  502 -0.58054365473E+03 -0.46858527264E+03  0.65311350357E+01  0.74610176150E+03  0.46999998093E+01 0. -1.
</event>
<event>
 5   0  0.7455669E-06  0.1700693E+04  0.7818609E-02  0.8760969E-01
        1   -1    0    0  501    0  0.00000000000E+00  0.00000000000E+00  0.18134064446E+04  0.18134064446E+04  0.50400001928E-02 0. -1.
       -1   -1    0    0    0  501  0.00000000000E+00  0.00000000000E+00 -0.39874642324E+03  0.39874642327E+03  0.50400001928E-02 0.  1.
    10030    2    1    2    0    0  0.00000000000E+00  0.00000000000E+00  0.14146600213E+04  0.22121528678E+04  0.17006931924E+04 0.  0.
        4    1    3    3  502    0 -0.32803730138E+03  0.75933553057E+03  0.96383832244E+03  0.12701121383E+04  0.12699999809E+01 0.  1.
       -4    1    3    3    0  502  0.32803730138E+03 -0.75933553057E+03  0.45082169889E+03  0.94204072957E+03  0.12699999809E+01 0. -1.
</event>
<event>
 5   0  0.1374441E-05  0.1699310E+04  0.7818609E-02  0.8761758E-01
        2   -1    0    0  501    0  0.00000000000E+00  0.00000000000E+00  0.15891296807E+04  0.15891296807E+04  0.25500000920E-02 0. -1.
       -2   -1    0    0    0  501  0.00000000000E+00  0.00000000000E+00 -0.45428240233E+03  0.45428240233E+03  0.25500000920E-02 0.  1.
    10030    2    1    2    0    0  0.00000000000E+00  0.00000000000E+00  0.11348472783E+04  0.20434120830E+04  0.16993100352E+04 0.  0.
        1    1    3    3  502    0  0.77619721136E+03 -0.34056274728E+03  0.63803942522E+03  0.10609238445E+04  0.50400001928E-02 0. -1.
       -1    1    3    3    0  502 -0.77619721136E+03  0.34056274728E+03  0.49680785312E+03  0.98248823845E+03  0.50400001928E-02 0.  1.
</event>
<event>
 5   0  0.7476457E-06  0.1699984E+04  0.7818609E-02  0.8761373E-01
        1   -1    0    0  501    0  0.00000000000E+00  0.00000000000E+00  0.73026036478E+03  0.73026036479E+03  0.50400001928E-02 0.  1.
       -1   -1    0    0    0  501  0.00000000000E+00  0.00000000000E+00 -0.98935504223E+03  0.98935504224E+03  0.50400001928E-02 0. -1.
    10030    2    1    2    0    0  0.00000000000E+00  0.00000000000E+00 -0.25909467745E+03  0.17196154070E+04  0.16999844400E+04 0.  0.
        2    1    3    3  502    0 -0.40825914601E+03 -0.43511552063E+03  0.48282408232E+03  0.76754162171E+03  0.25500000920E-02 0.  1.
       -2    1    3    3    0  502  0.40825914601E+03  0.43511552063E+03 -0.74191875977E+03  0.95207378532E+03  0.25500000920E-02 0. -1.
</event>
<event>
 5   0  0.7476457E-06  0.1699648E+04  0.7818609E-02  0.8761565E-01
        1   -1    0    0  501    0  0.00000000000E+00  0.00000000000E+00  0.93271671531E+03  0.93271671533E+03  0.50400001928E-02 0. -1.
       -1   -1    0    0    0  501  0.00000000000E+00  0.00000000000E+00 -0.77429823549E+03  0.77429823551E+03  0.50400001928E-02 0.  1.
    10030    2    1    2    0    0  0.00000000000E+00  0.00000000000E+00  0.15841847982E+03  0.17070149508E+04  0.16996480893E+04 0.  0.
        2    1    3    3  502    0 -0.73305668217E+02 -0.75917754868E+02  0.92611007808E+03  0.93210359039E+03  0.25500000920E-02 0. -1.
       -2    1    3    3    0  502  0.73305668217E+02  0.75917754868E+02 -0.76769159826E+03  0.77491136044E+03  0.25500000920E-02 0.  1.
</event>
<event>
 5   0  0.7461128E-06  0.1700634E+04  0.7818609E-02  0.8761003E-01
        1   -1    0    0  501    0  0.00000000000E+00  0.00000000000E+00  0.84314159469E+03  0.84314159471E+03  0.50400001928E-02 0.  1.
       -1   -1    0    0    0  501  0.00000000000E+00  0.00000000000E+00 -0.85755375121E+03  0.85755375123E+03  0.50400001928E-02 0. -1.
    10030    2    1    2    0    0  0.00000000000E+00  0.00000000000E+00 -0.14412156524E+02  0.17006953459E+04  0.17006342786E+04 0.  0.
        3    1    3    3  502    0 -0.23762417954E+03 -0.26315179328E+03  0.76568978091E+03  0.84379794251E+03  0.10100000352E+00 0.  1.
       -3    1    3    3    0  502  0.23762417954E+03  0.26315179328E+03 -0.78010193743E+03  0.85689740342E+03  0.10100000352E+00 0. -1.
</event>
<event>
 5   0  0.7583716E-06  0.1700489E+04  0.7818609E-02  0.8761085E-01
        1   -1    0    0  501    0  0.00000000000E+00  0.00000000000E+00  0.18291423940E+04  0.18291423940E+04  0.50400001928E-02 0. -1.
       -1   -1    0    0    0  501  0.00000000000E+00  0.00000000000E+00 -0.39522125604E+03  0.39522125607E+03  0.50400001928E-02 0.  1.
    10030    2    1    2    0    0  0.00000000000E+00  0.00000000000E+00  0.14339211380E+04  0.22243636501E+04  0.17004892878E+04 0.  0.
        5    1    3    3  502    0  0.20049063627E+03  0.64939458080E+03  0.48710718720E+02  0.68139903208E+03  0.46999998093E+01 0.  1.
       -5    1    3    3    0  502 -0.20049063627E+03 -0.64939458080E+03  0.13852104192E+04  0.15429646180E+04  0.46999998093E+01 0. -1.
</event>
<event>
 5   0  0.7455669E-06  0.1700804E+04  0.7818609E-02  0.8760906E-01
        1   -1    0    0  501    0  0.00000000000E+00  0.00000000000E+00  0.91844074104E+03  0.91844074106E+03  0.50400001928E-02 0.  1.
       -1   -1    0    0    0  501  0.00000000000E+00  0.00000000000E+00 -0.78740334804E+03  0.78740334806E+03  0.50400001928E-02 0. -1.
    10030    2    1    2    0    0  0.00000000000E+00  0.00000000000E+00  0.13103739300E+03  0.17058440891E+04  0.17008037094E+04 0.  0.
        4    1    3    3  502    0 -0.24770181314E+03 -0.54418512675E+03  0.67203227968E+03  0.89951244474E+03  0.12699999809E+01 0.  1.
       -4    1    3    3    0  502  0.24770181314E+03  0.54418512675E+03 -0.54099488667E+03  0.80633164437E+03  0.12699999809E+01 0. -1.
</event>
<event>
 5   0  0.1419012E-05  0.1699875E+04  0.7818609E-02  0.8761436E-01
       -2   -1    0    0    0  501  0.00000000000E+00  0.00000000000E+00  0.11129113226E+04  0.11129113226E+04  0.25500000920E-02 0.  1.
        2   -1    0    0  501    0  0.00000000000E+00  0.00000000000E+00 -0.64910238152E+03  0.64910238152E+03  0.25500000920E-02 0. -1.
    10030    2    1    2    0    0  0.00000000000E+00  0.00000000000E+00  0.46380894111E+03  0.17620137042E+04  0.16998745718E+04 0.  0.
        4    1    3    3  502    0  0.43565507870E+03 -0.14728774421E+03  0.97280776273E+03  0.10760323338E+04  0.12699999809E+01 0.  1.
       -4    1    3    3    0  502 -0.43565507870E+03  0.14728774421E+03 -0.50899882162E+03  0.68598137038E+03  0.12699999809E+01 0. -1.
</event>
<event>
 5   0  0.1374441E-05  0.1704028E+04  0.7818609E-02  0.8759070E-01
       -2   -1    0    0    0  501  0.00000000000E+00  0.00000000000E+00  0.11610516689E+04  0.11610516689E+04  0.25500000920E-02 0.  1.
        2   -1    0    0  501    0  0.00000000000E+00  0.00000000000E+00 -0.62523301978E+03  0.62523301978E+03  0.25500000920E-02 0. -1.
    10030    2    1    2    0    0  0.00000000000E+00  0.00000000000E+00  0.53581864909E+03  0.17862846887E+04  0.17040279822E+04 0.  0.
        1    1    3    3  502    0  0.73493787347E+03 -0.35010243018E+03  0.43310445267E+01  0.81407871084E+03  0.50400001928E-02 0. -1.
       -1    1    3    3    0  502 -0.73493787347E+03  0.35010243018E+03  0.53148760457E+03  0.97220597782E+03  0.50400001928E-02 0.  1.
</event>
<event>
 5   0  0.1441756E-05  0.1700365E+04  0.7818609E-02  0.8761156E-01
        2   -1    0    0  501    0  0.00000000000E+00  0.00000000000E+00  0.17406807909E+04  0.17406807909E+04  0.25500000920E-02 0.  1.
       -2   -1    0    0    0  501  0.00000000000E+00  0.00000000000E+00 -0.41524565166E+03  0.41524565167E+03  0.25500000920E-02 0. -1.
    10030    2    1    2    0    0  0.00000000000E+00  0.00000000000E+00  0.13254351393E+04  0.21559264426E+04  0.17003648189E+04 0.  0.
        5    1    3    3  502    0 -0.55513595010E+03 -0.56144551855E+03  0.26298875193E+03  0.83221521678E+03  0.46999998093E+01 0. -1.
       -5    1    3    3    0  502  0.55513595010E+03  0.56144551855E+03  0.10624463873E+04  0.13237112258E+04  0.46999998093E+01 0.  1.
</event>
<event>
 5   0  0.1435301E-05  0.1700129E+04  0.7818609E-02  0.8761291E-01
        2   -1    0    0  501    0  0.00000000000E+00  0.00000000000E+00  0.51785382479E+03  0.51785382480E+03  0.25500000920E-02 0.  1.
       -2   -1    0    0    0  501  0.00000000000E+00  0.00000000000E+00 -0.13953934914E+04  0.13953934914E+04  0.25500000920E-02 0. -1.
    10030    2    1    2    0    0  0.00000000000E+00  0.00000000000E+00 -0.87753966658E+03  0.19132473162E+04  0.17001292382E+04 0.  0.
        2    1    3    3  502    0 -0.38551311211E+03 -0.68768849375E+03 -0.80995671347E+02  0.79252515596E+03  0.25500000920E-02 0.  1.
       -2    1    3    3    0  502  0.38551311211E+03  0.68768849375E+03 -0.79654399523E+03  0.11207221602E+04  0.25500000920E-02 0. -1.
</event>
<event>
 5   0  0.7476457E-06  0.1699547E+04  0.7818609E-02  0.8761623E-01
        1   -1    0    0  501    0  0.00000000000E+00  0.00000000000E+00  0.81953963458E+03  0.81953963460E+03  0.50400001928E-02 0.  1.
       -1   -1    0    0    0  501  0.00000000000E+00  0.00000000000E+00 -0.88112309046E+03  0.88112309047E+03  0.50400001928E-02 0. -1.
    10030    2    1    2    0    0  0.00000000000E+00  0.00000000000E+00 -0.61583455876E+02  0.17006627251E+04  0.16995473463E+04 0.  0.
        2    1    3    3  502    0 -0.69990031338E+03 -0.43660678217E+03 -0.23495838449E+03  0.85772453232E+03  0.25500000920E-02 0. -1.
       -2    1    3    3    0  502  0.69990031338E+03  0.43660678217E+03  0.17337492861E+03  0.84293819274E+03  0.25500000920E-02 0.  1.
</event>
<event>
 5   0  0.7082527E-06  0.1709654E+04  0.7818609E-02  0.8755877E-01
       -1   -1    0    0    0  501  0.00000000000E+00  0.00000000000E+00  0.10447301182E+04  0.10447301183E+04  0.50400001928E-02 0.  1.
        1   -1    0    0  501    0  0.00000000000E+00  0.00000000000E+00 -0.69944297312E+03  0.69944297314E+03  0.50400001928E-02 0. -1.
    10030    2    1    2    0    0  0.00000000000E+00  0.00000000000E+00  0.34528714512E+03  0.17441730914E+04  0.17096539299E+04 0.  0.
        1    1    3    3  502    0 -0.35816797482E+03 -0.54065280429E+03 -0.39550227284E+03  0.75961292829E+03  0.50400001928E-02 0. -1.
       -1    1    3    3    0  502  0.35816797482E+03  0.54065280429E+03  0.74078941796E+03  0.98456016310E+03  0.50400001928E-02 0.  1.
</event>
<event>
 5   0  0.1441756E-05  0.1699587E+04  0.7818609E-02  0.8761600E-01
        2   -1    0    0  501    0  0.00000000000E+00  0.00000000000E+00  0.11158105399E+04  0.11158105399E+04  0.25500000920E-02 0. -1.
       -2   -1    0    0    0  501  0.00000000000E+00  0.00000000000E+00 -0.64719683296E+03  0.64719683296E+03  0.25500000920E-02 0.  1.
    10030    2    1    2    0    0  0.00000000000E+00  0.00000000000E+00  0.46861370690E+03  0.17630073728E+04  0.16995870646E+04 0.  0.
        5    1    3    3  502    0  0.62910387966E+03  0.48921626529E+02 -0.35610858809E+03  0.72456913643E+03  0.46999998093E+01 0.  1.
       -5    1    3    3    0  502 -0.62910387966E+03 -0.48921626529E+02  0.82472229499E+03  0.10384382364E+04  0.46999998093E+01 0. -1.
</event>
<event>
 5   0  0.1374441E-05  0.1699827E+04  0.7818609E-02  0.8761463E-01
        2   -1    0    0  501    0  0.00000000000E+00  0.00000000000E+00  0.15776823179E+04  0.15776823179E+04  0.25500000920E-02 0. -1.
       -2   -1    0    0    0  501  0.00000000000E+00  0.00000000000E+00 -0.45785715042E+03  0.45785715043E+03  0.25500000920E-02 0.  1.
    10030    2    1    2    0    0  0.00000000000E+00  0.00000000000E+00  0.11198251675E+04  0.20355394684E+04  0.16998272034E+04 0.  0.
        1    1    3    3  502    0  0.38740354797E+01  0.35027824580E+03 -0.36738949904E+03  0.50762673458E+03  0.50400001928E-02 0.  1.
       -1    1    3    3    0  502 -0.38740354797E+01 -0.35027824580E+03  0.14872146666E+04  0.15279127338E+04  0.50400001928E-02 0. -1.
</event>
<event>
 5   0  0.7583716E-06  0.1699209E+04  0.7818609E-02  0.8761815E-01
       -1   -1    0    0    0  501  0.00000000000E+00  0.00000000000E+00  0.66043523742E+03  0.66043523744E+03  0.50400001928E-02 0. -1.
        1   -1    0    0  501    0  0.00000000000E+00  0.00000000000E+00 -0.10929581263E+04  0.10929581263E+04  0.50400001928E-02 0.  1.
    10030    2    1    2    0    0  0.00000000000E+00  0.00000000000E+00 -0.43252288890E+03  0.17533933638E+04  0.16992092981E+04 0.  0.
        5    1    3    3  502    0  0.82497270382E+03 -0.20221021879E+03 -0.19731751752E+03  0.87202363922E+03  0.46999998093E+01 0.  1.
       -5    1    3    3    0  502 -0.82497270382E+03  0.20221021879E+03 -0.23520537138E+03  0.88136972455E+03  0.46999998093E+01 0. -1.
</event>
<event>
 5   0  0.7461128E-06  0.1700504E+04  0.7818609E-02  0.8761077E-01
       -1   -1    0    0    0  501  0.00000000000E+00  0.00000000000E+00  0.36950790730E+03  0.36950790733E+03  0.50400001928E-02 0.  1.
        1   -1    0    0  501    0  0.00000000000E+00  0.00000000000E+00 -0.19564625706E+04  0.19564625706E+04  0.50400001928E-02 0. -1.
    10030    2    1    2    0    0  0.00000000000E+00  0.00000000000E+00 -0.15869546633E+04  0.23259704780E+04  0.17005039138E+04 0.  0.
        3    1    3    3  502    0 -0.84559075405E+03 -0.51726679072E+02 -0.89238641783E+03  0.12304685699E+04  0.10100000352E+00 0. -1.
       -3    1    3    3    0  502  0.84559075405E+03  0.51726679072E+02 -0.69456824551E+03  0.10955019080E+04  0.10100000352E+00 0.  1.
</event>
<event>
 5   0  0.1441756E-05  0.1699809E+04  0.7818609E-02  0.8761473E-01
        2   -1    0    0  501    0  0.00000000000E+00  0.00000000000E+00  0.95396281546E+03  0.95396281547E+03  0.25500000920E-02 0. -1.
       -2   -1    0    0    0  501  0.00000000000E+00  0.00000000000E+00 -0.75719700691E+03  0.75719700691E+03  0.25500000920E-02 0.  1.
    10030    2    1    2    0    0  0.00000000000E+00  0.00000000000E+00  0.19676580855E+03  0.17111598224E+04  0.16998091523E+04 0.  0.
        5    1    3    3  502    0 -0.24477415123E+03 -0.78022593615E+03  0.33155169782E+03  0.88239192816E+03  0.46999998093E+01 0.  1.
       -5    1    3    3    0  502  0.24477415123E+03  0.78022593615E+03 -0.13478588927E+03  0.82876789422E+03  0.46999998093E+01 0. -1.
</event>
<event>
 5   0  0.7461128E-06  0.1699683E+04  0.7818609E-02  0.8761545E-01
        1   -1    0    0  501    0  0.00000000000E+00  0.00000000000E+00  0.11575571390E+04  0.11575571390E+04  0.50400001928E-02 0. -1.
       -1   -1    0    0    0  501  0.00000000000E+00  0.00000000000E+00 -0.62392653006E+03  0.62392653008E+03  0.50400001928E-02 0.  1.
    10030    2    1    2    0    0  0.00000000000E+00  0.00000000000E+00  0.53363060891E+03  0.17814836691E+04  0.16996830400E+04 0.  0.
        3    1    3    3  502    0  0.32905158044E+03  0.75921183264E+03  0.63702871025E+02  0.82990096722E+03  0.10100000352E+00 0.  1.
       -3    1    3    3    0  502 -0.32905158044E+03 -0.75921183264E+03  0.46992773788E+03  0.95158270184E+03  0.10100000352E+00 0. -1.
</event>
<event>
 5   0  0.1441756E-05  0.1700205E+04  0.7818609E-02  0.8761247E-01
        2   -1    0    0  501    0  0.00000000000E+00  0.00000000000E+00  0.14803642284E+04  0.14803642284E+04  0.25500000920E-02 0. -1.
       -2   -1    0    0    0  501  0.00000000000E+00  0.00000000000E+00 -0.48817356044E+03  0.48817356045E+03  0.25500000920E-02 0.  1.
    10030    2    1    2    0    0  0.00000000000E+00  0.00000000000E+00  0.99219066798E+03  0.19685377889E+04  0.17002054889E+04 0.  0.
        5    1    3    3  502    0 -0.30173045202E+03  0.25830039487E+03  0.13663074814E+04  0.14228768687E+04  0.46999998093E+01 0. -1.
       -5    1    3    3    0  502  0.30173045202E+03 -0.25830039487E+03 -0.37411681347E+03  0.54566092016E+03  0.46999998093E+01 0.  1.
</event>
<event>
 5   0  0.7476457E-06  0.1700107E+04  0.7818609E-02  0.8761303E-01
        1   -1    0    0  501    0  0.00000000000E+00  0.00000000000E+00  0.11718908734E+04  0.11718908734E+04  0.50400001928E-02 0.  1.
       -1   -1    0    0    0  501  0.00000000000E+00  0.00000000000E+00 -0.61660274238E+03  0.61660274240E+03  0.50400001928E-02 0. -1.
    10030    2    1    2    0    0  0.00000000000E+00  0.00000000000E+00  0.55528813105E+03  0.17884936158E+04  0.17001072041E+04 0.  0.
        2    1    3    3  502    0 -0.45079339157E+03 -0.65600763933E+03 -0.36247973757E+02  0.79679019846E+03  0.25500000920E-02 0. -1.
       -2    1    3    3    0  502  0.45079339157E+03  0.65600763933E+03  0.59153610481E+03  0.99170341738E+03  0.25500000920E-02 0.  1.
</event>
<event>
 5   0  0.1374441E-05  0.1700509E+04  0.7818609E-02  0.8761074E-01
       -2   -1    0    0    0  501  0.00000000000E+00  0.00000000000E+00  0.58192131036E+03  0.58192131037E+03  0.25500000920E-02 0. -1.
        2   -1    0    0  501    0  0.00000000000E+00  0.00000000000E+00 -0.12423209843E+04  0.12423209843E+04  0.25500000920E-02 0.  1.
    10030    2    1    2    0    0  0.00000000000E+00  0.00000000000E+00 -0.66039967397E+03  0.18242422947E+04  0.17005094003E+04 0.  0.
        1    1    3    3  502    0  0.72947950204E+03 -0.16299018232E+03  0.10453620441E+03  0.75474098966E+03  0.50400001928E-02 0. -1.
       -1    1    3    3    0  502 -0.72947950204E+03  0.16299018232E+03 -0.76493587838E+03  0.10695013050E+04  0.50400001928E-02 0.  1.
</event>
<event>
 5   0  0.7476457E-06  0.1701129E+04  0.7818609E-02  0.8760721E-01
        1   -1    0    0  501    0  0.00000000000E+00  0.00000000000E+00  0.17597051654E+04  0.17597051654E+04  0.50400001928E-02 0.  1.
       -1   -1    0    0    0  501  0.00000000000E+00  0.00000000000E+00 -0.41112544412E+03  0.41112544415E+03  0.50400001928E-02 0. -1.
    10030    2    1    2    0    0  0.00000000000E+00  0.00000000000E+00  0.13485797213E+04  0.21708306095E+04  0.17011285286E+04 0.  0.
        2    1    3    3  502    0 -0.33985916939E+03 -0.47476572619E+03  0.14635760639E+04  0.15757416174E+04  0.25500000920E-02 0.  1.
       -2    1    3    3    0  502  0.33985916939E+03  0.47476572619E+03 -0.11499634266E+03  0.59508899218E+03  0.25500000920E-02 0. -1.
</event>
<event>
 5   0  0.1419012E-05  0.1699186E+04  0.7818609E-02  0.8761829E-01
       -2   -1    0    0    0  501  0.00000000000E+00  0.00000000000E+00  0.29084008624E+03  0.29084008625E+03  0.25500000920E-02 0.  1.
        2   -1    0    0  501    0  0.00000000000E+00  0.00000000000E+00 -0.24818041190E+04  0.24818041190E+04  0.25500000920E-02 0. -1.
    10030    2    1    2    0    0  0.00000000000E+00  0.00000000000E+00 -0.21909640328E+04  0.27726442053E+04  0.16991858333E+04 0.  0.
        4    1    3    3  502    0 -0.49376581719E+03  0.16740963900E+03 -0.90112169109E+00  0.52137615440E+03  0.12699999809E+01 0.  1.
       -4    1    3    3    0  502  0.49376581719E+03 -0.16740963900E+03 -0.21900629111E+04  0.22512680509E+04  0.12699999809E+01 0. -1.
</event>
<event>
 5   0  0.7455669E-06  0.1699892E+04  0.7818609E-02  0.8761426E-01
        1   -1    0    0  501    0  0.00000000000E+00  0.00000000000E+00  0.95240461952E+03  0.95240461953E+03  0.50400001928E-02 0.  1.
       -1   -1    0    0    0  501  0.00000000000E+00  0.00000000000E+00 -0.75850991721E+03  0.75850991723E+03  0.50400001928E-02 0. -1.
    10030    2    1    2    0    0  0.00000000000E+00  0.00000000000E+00  0.19389470231E+03  0.17109145368E+04  0.16998921720E+04 0.  0.
        4    1    3    3  502    0  0.30757955260E+03  0.36045343258E+03 -0.61323037786E+03  0.77497417212E+03  0.12699999809E+01 0. -1.
       -4    1    3    3    0  502 -0.30757955260E+03 -0.36045343258E+03  0.80712508017E+03  0.93594036464E+03  0.12699999809E+01 0.  1.
</event>
<event>
 5   0  0.5229750E-06  0.1699927E+04  0.7818609E-02  0.8761406E-01
        4   -1    0    0  501    0  0.00000000000E+00  0.00000000000E+00  0.95439625463E+03  0.95439709961E+03  0.12699999809E+01 0. -1.
       -4   -1    0    0    0  501  0.00000000000E+00  0.00000000000E+00 -0.75695650337E+03  0.75695756875E+03  0.12699999809E+01 0.  1.
    10030    2    1    2    0    0  0.00000000000E+00  0.00000000000E+00  0.19743975126E+03  0.17113546684E+04  0.16999271589E+04 0.  0.
        3    1    3    3  502    0 -0.69970579892E+03  0.44502045471E+03 -0.89099730118E+02  0.83400850251E+03  0.10100000352E+00 0.  1.
       -3    1    3    3    0  502  0.69970579892E+03 -0.44502045471E+03  0.28653948138E+03  0.87734616585E+03  0.10100000352E+00 0. -1.
</event>
<event>
 5   0  0.7583716E-06  0.1701579E+04  0.7818609E-02  0.8760464E-01
       -1   -1    0    0    0  501  0.00000000000E+00  0.00000000000E+00  0.99661236611E+03  0.99661236612E+03  0.50400001928E-02 0.  1.
        1   -1    0    0  501    0  0.00000000000E+00  0.00000000000E+00 -0.72630343362E+03  0.72630343364E+03  0.50400001928E-02 0. -1.
    10030    2    1    2    0    0  0.00000000000E+00  0.00000000000E+00  0.27030893249E+03  0.17229157998E+04  0.17015792471E+04 0.  0.
        5    1    3    3  502    0  0.31985090318E+03 -0.41905893597E+03  0.81128956883E+03  0.96753700011E+03  0.46999998093E+01 0.  1.
       -5    1    3    3    0  502 -0.31985090318E+03  0.41905893597E+03 -0.54098063634E+03  0.75537879966E+03  0.46999998093E+01 0. -1.
</event>
<event>
 5   0  0.7476457E-06  0.1700016E+04  0.7818609E-02  0.8761355E-01
        1   -1    0    0  501    0  0.00000000000E+00  0.00000000000E+00  0.82262731926E+03  0.82262731927E+03  0.50400001928E-02 0.  1.
       -1   -1    0    0    0  501  0.00000000000E+00  0.00000000000E+00 -0.87830040084E+03  0.87830040085E+03  0.50400001928E-02 0. -1.
    10030    2    1    2    0    0  0.00000000000E+00  0.00000000000E+00 -0.55673081581E+02  0.17009277201E+04  0.17000163579E+04 0.  0.
        2    1    3    3  502    0 -0.69358148680E+03 -0.16534397349E+03  0.43514254372E+03  0.83531008719E+03  0.25500000920E-02 0.  1.
       -2    1    3    3    0  502  0.69358148680E+03  0.16534397349E+03 -0.49081562530E+03  0.86561763294E+03  0.25500000920E-02 0. -1.
</event>
<event>
 5   0  0.7461128E-06  0.1699791E+04  0.7818609E-02  0.8761484E-01
        1   -1    0    0  501    0  0.00000000000E+00  0.00000000000E+00  0.96739660966E+03  0.96739660967E+03  0.50400001928E-02 0. -1.
       -1   -1    0    0    0  501  0.00000000000E+00  0.00000000000E+00 -0.74666614666E+03  0.74666614668E+03  0.50400001928E-02 0.  1.
    10030    2    1    2    0    0  0.00000000000E+00  0.00000000000E+00  0.22073046300E+03  0.17140627564E+04  0.16997909270E+04 0.  0.
        3    1    3    3  502    0  0.32335591424E+03 -0.67385910219E+03  0.51833242539E+03  0.90956783710E+03  0.10100000352E+00 0. -1.
       -3    1    3    3    0  502 -0.32335591424E+03  0.67385910219E+03 -0.29760196239E+03  0.80449491925E+03  0.10100000352E+00 0.  1.
</event>
<event>
 5   0  0.7583716E-06  0.1700146E+04  0.7818609E-02  0.8761281E-01
       -1   -1    0    0    0  501  0.00000000000E+00  0.00000000000E+00  0.50839228871E+03  0.50839228874E+03  0.50400001928E-02 0. -1.
        1   -1    0    0  501    0  0.00000000000E+00  0.00000000000E+00 -0.14213913503E+04  0.14213913503E+04  0.50400001928E-02 0.  1.
    10030    2    1    2    0    0  0.00000000000E+00  0.00000000000E+00 -0.91299906156E+03  0.19297836390E+04  0.17001463487E+04 0.  0.
        5    1    3    3  502    0  0.40333763180E+03 -0.62252224766E+02 -0.13029032574E+04  0.13653335025E+04  0.46999998093E+01 0.  1.
       -5    1    3    3    0  502 -0.40333763180E+03  0.62252224766E+02  0.38990419587E+03  0.56445013656E+03  0.46999998093E+01 0. -1.
</event>
<event>
 5   0  0.7583716E-06  0.1705639E+04  0.7818609E-02  0.8758155E-01
       -1   -1    0    0    0  501  0.00000000000E+00  0.00000000000E+00  0.74449577164E+03  0.74449577166E+03  0.50400001928E-02 0. -1.
        1   -1    0    0  501    0  0.00000000000E+00  0.00000000000E+00 -0.97690383089E+03  0.97690383090E+03  0.50400001928E-02 0.  1.
    10030    2    1    2    0    0  0.00000000000E+00  0.00000000000E+00 -0.23240805925E+03  0.17213996026E+04  0.17056386152E+04 0.  0.
        5    1    3    3  502    0  0.69137439730E+03  0.12605803541E+03 -0.60377218370E+03  0.92652691561E+03  0.46999998093E+01 0.  1.
       -5    1    3    3    0  502 -0.69137439730E+03 -0.12605803541E+03  0.37136412446E+03  0.79487268695E+03  0.46999998093E+01 0. -1.
</event>
<event>
 5   0  0.7583716E-06  0.1700568E+04  0.7818609E-02  0.8761040E-01
       -1   -1    0    0    0  501  0.00000000000E+00  0.00000000000E+00  0.78010583818E+03  0.78010583820E+03  0.50400001928E-02 0. -1.
        1   -1    0    0  501    0  0.00000000000E+00  0.00000000000E+00 -0.92677589678E+03  0.92677589680E+03  0.50400001928E-02 0.  1.
    10030    2    1    2    0    0  0.00000000000E+00  0.00000000000E+00 -0.14667005860E+03  0.17068817350E+04  0.17005684788E+04 0.  0.
        5    1    3    3  502    0  0.45738915007E+03 -0.41009008860E+03  0.51671001377E+03  0.80273908818E+03  0.46999998093E+01 0. -1.
       -5    1    3    3    0  502 -0.45738915007E+03  0.41009008860E+03 -0.66338007237E+03  0.90414264681E+03  0.46999998093E+01 0.  1.
</event>
<event>
 5   0  0.1419012E-05  0.1700024E+04  0.7818609E-02  0.8761351E-01
       -2   -1    0    0    0  501  0.00000000000E+00  0.00000000000E+00  0.43212683951E+03  0.43212683952E+03  0.25500000920E-02 0. -1.
        2   -1    0    0  501    0  0.00000000000E+00  0.00000000000E+00 -0.16720096078E+04  0.16720096078E+04  0.25500000920E-02 0.  1.
    10030    2    1    2    0    0  0.00000000000E+00  0.00000000000E+00 -0.12398827683E+04  0.21041364474E+04  0.17000237969E+04 0.  0.
        4    1    3    3  502    0 -0.68916507381E+03  0.47570864265E+03 -0.80045790955E+03  0.11584393335E+04  0.12699999809E+01 0. -1.
       -4    1    3    3    0  502  0.68916507381E+03 -0.47570864265E+03 -0.43942485877E+03  0.94569711380E+03  0.12699999809E+01 0.  1.
</event>
<event>
 5   0  0.7455669E-06  0.1699909E+04  0.7818609E-02  0.8761416E-01
        1   -1    0    0  501    0  0.00000000000E+00  0.00000000000E+00  0.10555257942E+04  0.10555257942E+04  0.50400001928E-02 0. -1.
       -1   -1    0    0    0  501  0.00000000000E+00  0.00000000000E+00 -0.68441984225E+03  0.68441984227E+03  0.50400001928E-02 0.  1.
    10030    2    1    2    0    0  0.00000000000E+00  0.00000000000E+00  0.37110595197E+03  0.17399456365E+04  0.16999091712E+04 0.  0.
        4    1    3    3  502    0  0.49799447673E+03 -0.52495026505E+03 -0.27087542075E+03  0.77262305564E+03  0.12699999809E+01 0.  1.
       -4    1    3    3    0  502 -0.49799447673E+03  0.52495026505E+03  0.64198137272E+03  0.96732258086E+03  0.12699999809E+01 0. -1.
</event>
<event>
 5   0  0.1423543E-05  0.1700084E+04  0.7818609E-02  0.8761316E-01
       -2   -1    0    0    0  501  0.00000000000E+00  0.00000000000E+00  0.42733328767E+03  0.42733328768E+03  0.25500000920E-02 0. -1.
        2   -1    0    0  501    0  0.00000000000E+00  0.00000000000E+00 -0.16908858520E+04  0.16908858520E+04  0.25500000920E-02 0.  1.
    10030    2    1    2    0    0  0.00000000000E+00  0.00000000000E+00 -0.12635525644E+04  0.21182191397E+04  0.17000844805E+04 0.  0.
        3    1    3    3  502    0  0.79725775530E+03  0.29355122375E+03 -0.66656372943E+03  0.10798608544E+04  0.10100000352E+00 0. -1.
       -3    1    3    3    0  502 -0.79725775530E+03 -0.29355122375E+03 -0.59698883492E+03  0.10383582853E+04  0.10100000352E+00 0.  1.
</event>
<event>
 5   0  0.1374441E-05  0.1701376E+04  0.7818609E-02  0.8760580E-01
        2   -1    0    0  501    0  0.00000000000E+00  0.00000000000E+00  0.23538484061E+04  0.23538484061E+04  0.25500000920E-02 0.  1.
       -2   -1    0    0    0  501  0.00000000000E+00  0.00000000000E+00 -0.30744139595E+03  0.30744139596E+03  0.25500000920E-02 0. -1.
    10030    2    1    2    0    0  0.00000000000E+00  0.00000000000E+00  0.20464070101E+04  0.26612898020E+04  0.17013764308E+04 0.  0.
        1    1    3    3  502    0  0.25904338925E+02 -0.40408961217E+03 -0.14703308964E+03  0.43078785836E+03  0.50400001928E-02 0. -1.
       -1    1    3    3    0  502 -0.25904338925E+02  0.40408961217E+03  0.21934400998E+04  0.22305019437E+04  0.50400001928E-02 0.  1.
</event>
<event>
 5   0  0.7455669E-06  0.1698295E+04  0.7818609E-02  0.8762337E-01
       -1   -1    0    0    0  501  0.00000000000E+00  0.00000000000E+00  0.11597724933E+04  0.11597724933E+04  0.50400001928E-02 0. -1.
        1   -1    0    0  501    0  0.00000000000E+00  0.00000000000E+00 -0.62171821660E+03  0.62171821662E+03  0.50400001928E-02 0.  1.
    10030    2    1    2    0    0  0.00000000000E+00  0.00000000000E+00  0.53805427670E+03  0.17814907099E+04  0.16982952467E+04 0.  0.
        4    1    3    3  502    0 -0.70219605256E+03  0.16641558042E+03 -0.20041871497E+03  0.74896109101E+03  0.12699999809E+01 0.  1.
       -4    1    3    3    0  502  0.70219605256E+03 -0.16641558042E+03  0.73847299167E+03  0.10325296189E+04  0.12699999809E+01 0. -1.
</event>
<event>
 5   0  0.1374441E-05  0.1696219E+04  0.7818609E-02  0.8763524E-01
        2   -1    0    0  501    0  0.00000000000E+00  0.00000000000E+00  0.15387273110E+04  0.15387273110E+04  0.25500000920E-02 0. -1.
       -2   -1    0    0    0  501  0.00000000000E+00  0.00000000000E+00 -0.46745736375E+03  0.46745736376E+03  0.25500000920E-02 0.  1.
    10030    2    1    2    0    0  0.00000000000E+00  0.00000000000E+00  0.10712699472E+04  0.20061846747E+04  0.16962186325E+04 0.  0.
        1    1    3    3  502    0 -0.22098368020E+03  0.71085987185E+03  0.10162608575E+04  0.12597387328E+04  0.50400001928E-02 0. -1.
       -1    1    3    3    0  502  0.22098368020E+03 -0.71085987185E+03  0.55009089743E+02  0.74644594198E+03  0.50400001928E-02 0.  1.
</event>
<event>
 5   0  0.1423543E-05  0.1700147E+04  0.7818609E-02  0.8761280E-01
       -2   -1    0    0    0  501  0.00000000000E+00  0.00000000000E+00  0.81953982020E+03  0.81953982021E+03  0.25500000920E-02 0.  1.
        2   -1    0    0  501    0  0.00000000000E+00  0.00000000000E+00 -0.88174513958E+03  0.88174513958E+03  0.25500000920E-02 0. -1.
    10030    2    1    2    0    0  0.00000000000E+00  0.00000000000E+00 -0.62205319379E+02  0.17012849598E+04  0.17001473503E+04 0.  0.
        3    1    3    3  502    0  0.59948896559E+03 -0.56171667393E+02 -0.63157331547E+03  0.87259792522E+03  0.10100000352E+00 0. -1.
       -3    1    3    3    0  502 -0.59948896559E+03  0.56171667393E+02  0.56936799610E+03  0.82868703457E+03  0.10100000352E+00 0.  1.
</event>
<event>
 5   0  0.7476457E-06  0.1699897E+04  0.7818609E-02  0.8761423E-01
        1   -1    0    0  501    0  0.00000000000E+00  0.00000000000E+00  0.22041115769E+04  0.22041115769E+04  0.50400001928E-02 0. -1.
       -1   -1    0    0    0  501  0.00000000000E+00  0.00000000000E+00 -0.32775690759E+03  0.32775690763E+03  0.50400001928E-02 0.  1.
    10030    2    1    2    0    0  0.00000000000E+00  0.00000000000E+00  0.18763546693E+04  0.25318684845E+04  0.16998974022E+04 0.  0.
        2    1    3    3  502    0  0.47025417577E+03  0.35246283735E+03  0.18527417669E+04  0.19437132238E+04  0.25500000920E-02 0. -1.
       -2    1    3    3    0  502 -0.47025417577E+03 -0.35246283735E+03  0.23612902387E+02  0.58815526072E+03  0.25500000920E-02 0.  1.
</event>
<event>
 5   0  0.1374441E-05  0.1700068E+04  0.7818609E-02  0.8761326E-01
       -2   -1    0    0    0  501  0.00000000000E+00  0.00000000000E+00  0.81790629450E+03  0.81790629450E+03  0.25500000920E-02 0. -1.
        2   -1    0    0  501    0  0.00000000000E+00  0.00000000000E+00 -0.88342361978E+03  0.88342361979E+03  0.25500000920E-02 0.  1.
    10030    2    1    2    0    0  0.00000000000E+00  0.00000000000E+00 -0.65517325282E+02  0.17013299143E+04  0.17000679273E+04 0.  0.
        1    1    3    3  502    0 -0.19874712040E+02  0.66136053534E+03  0.50127121043E+03  0.83009974601E+03  0.50400001928E-02 0. -1.
       -1    1    3    3    0  502  0.19874712040E+02 -0.66136053534E+03 -0.56678853571E+03  0.87123016828E+03  0.50400001928E-02 0.  1.
</event>
<event>
 5   0  0.7455669E-06  0.1692361E+04  0.7818609E-02  0.8765733E-01
        1   -1    0    0  501    0  0.00000000000E+00  0.00000000000E+00  0.77196179640E+03  0.77196179642E+03  0.50400001928E-02 0.  1.
       -1   -1    0    0    0  501  0.00000000000E+00  0.00000000000E+00 -0.92753503725E+03  0.92753503726E+03  0.50400001928E-02 0. -1.
    10030    2    1    2    0    0  0.00000000000E+00  0.00000000000E+00 -0.15557324085E+03  0.16994968337E+04  0.16923612068E+04 0.  0.
        4    1    3    3  502    0 -0.80499358121E+03 -0.25063983977E+03 -0.54760288260E+01  0.84312904995E+03  0.12699999809E+01 0.  1.
       -4    1    3    3    0  502  0.80499358121E+03  0.25063983977E+03 -0.15009721202E+03  0.85636778374E+03  0.12699999809E+01 0. -1.
</event>
<event>
 5   0  0.7476457E-06  0.1699738E+04  0.7818609E-02  0.8761514E-01
        1   -1    0    0  501    0  0.00000000000E+00  0.00000000000E+00  0.11086274450E+04  0.11086274450E+04  0.50400001928E-02 0.  1.
       -1   -1    0    0    0  501  0.00000000000E+00  0.00000000000E+00 -0.65150605406E+03  0.65150605407E+03  0.50400001928E-02 0. -1.
    10030    2    1    2    0    0  0.00000000000E+00  0.00000000000E+00  0.45712139097E+03  0.17601334991E+04  0.16997382059E+04 0.  0.
        2    1    3    3  502    0  0.13366905697E+03  0.68855247981E+03 -0.26839283648E+03  0.75100376093E+03  0.25500000920E-02 0. -1.
       -2    1    3    3    0  502 -0.13366905697E+03 -0.68855247981E+03  0.72551422745E+03  0.10091297382E+04  0.25500000920E-02 0.  1.
</event>
<event>
 5   0  0.7082527E-06  0.1699064E+04  0.7818609E-02  0.8761899E-01
        1   -1    0    0  501    0  0.00000000000E+00  0.00000000000E+00  0.20193705024E+04  0.20193705024E+04  0.50400001928E-02 0. -1.
       -1   -1    0    0    0  501  0.00000000000E+00  0.00000000000E+00 -0.35739077329E+03  0.35739077332E+03  0.50400001928E-02 0.  1.
    10030    2    1    2    0    0  0.00000000000E+00  0.00000000000E+00  0.16619797291E+04  0.23767612757E+04  0.16990637251E+04 0.  0.
        1    1    3    3  502    0 -0.30577719057E+03 -0.25659937928E+03  0.18800096214E+04  0.19219206821E+04  0.50400001928E-02 0. -1.
       -1    1    3    3    0  502  0.30577719057E+03  0.25659937928E+03 -0.21802989223E+03  0.45484059367E+03  0.50400001928E-02 0.  1.
</event>
<event>
 5   0  0.1374441E-05  0.1699746E+04  0.7818609E-02  0.8761509E-01
       -2   -1    0    0    0  501  0.00000000000E+00  0.00000000000E+00  0.93454928944E+03  0.93454928945E+03  0.25500000920E-02 0.  1.
        2   -1    0    0  501    0  0.00000000000E+00  0.00000000000E+00 -0.77286897988E+03  0.77286897988E+03  0.25500000920E-02 0. -1.
    10030    2    1    2    0    0  0.00000000000E+00  0.00000000000E+00  0.16168030957E+03  0.17074182693E+04  0.16997460469E+04 0.  0.
        1    1    3    3  502    0  0.44971850383E+03  0.33203997720E+03 -0.56219528263E+03  0.79281827362E+03  0.50400001928E-02 0. -1.
       -1    1    3    3    0  502 -0.44971850383E+03 -0.33203997720E+03  0.72387559220E+03  0.91459999571E+03  0.50400001928E-02 0.  1.
</event>
<event>
 5   0  0.7082527E-06  0.1692442E+04  0.7818609E-02  0.8765687E-01
        1   -1    0    0  501    0  0.00000000000E+00  0.00000000000E+00  0.15195657770E+04  0.15195657770E+04  0.50400001928E-02 0.  1.
       -1   -1    0    0    0  501  0.00000000000E+00  0.00000000000E+00 -0.47124644207E+03  0.47124644210E+03  0.50400001928E-02 0. -1.
    10030    2    1    2    0    0  0.00000000000E+00  0.00000000000E+00  0.10483193350E+04  0.19908122191E+04  0.16924419824E+04 0.  0.
        1    1    3    3  502    0 -0.44042197788E+03  0.18317408900E+03  0.13463606567E+04  0.14283596478E+04  0.50400001928E-02 0.  1.
       -1    1    3    3    0  502  0.44042197788E+03 -0.18317408900E+03 -0.29804132178E+03  0.56245257133E+03  0.50400001928E-02 0. -1.
</event>
<event>
 5   0  0.7455669E-06  0.1703352E+04  0.7818609E-02  0.8759455E-01
        1   -1    0    0  501    0  0.00000000000E+00  0.00000000000E+00  0.88095497254E+03  0.88095497256E+03  0.50400001928E-02 0. -1.
       -1   -1    0    0    0  501  0.00000000000E+00  0.00000000000E+00 -0.82337040350E+03  0.82337040351E+03  0.50400001928E-02 0.  1.
    10030    2    1    2    0    0  0.00000000000E+00  0.00000000000E+00  0.57584569044E+02  0.17043253761E+04  0.17033522844E+04 0.  0.
        4    1    3    3  502    0 -0.74964480756E+03 -0.43428094923E+02 -0.37330456272E+03  0.83857691739E+03  0.12699999809E+01 0. -1.
       -4    1    3    3    0  502  0.74964480756E+03  0.43428094923E+02  0.43088913177E+03  0.86574845868E+03  0.12699999809E+01 0.  1.
</event>
<event>
 5   0  0.1435301E-05  0.1701089E+04  0.7818609E-02  0.8760743E-01
       -2   -1    0    0    0  501  0.00000000000E+00  0.00000000000E+00  0.51271289524E+03  0.51271289525E+03  0.25500000920E-02 0. -1.
        2   -1    0    0  501    0  0.00000000000E+00  0.00000000000E+00 -0.14109769595E+04  0.14109769595E+04  0.25500000920E-02 0.  1.
    10030    2    1    2    0    0  0.00000000000E+00  0.00000000000E+00 -0.89826406424E+03  0.19236898547E+04  0.17010891594E+04 0.  0.
        2    1    3    3  502    0 -0.55392230025E+03  0.59610832351E+03 -0.72900740793E+03  0.10925323102E+04  0.25500000920E-02 0.  1.
       -2    1    3    3    0  502  0.55392230025E+03 -0.59610832351E+03 -0.16925665631E+03  0.83115754450E+03  0.25500000920E-02 0. -1.
</event>
<event>
 5   0  0.1435301E-05  0.1697883E+04  0.7818609E-02  0.8762573E-01
       -2   -1    0    0    0  501  0.00000000000E+00  0.00000000000E+00  0.71290076531E+03  0.71290076532E+03  0.25500000920E-02 0.  1.
        2   -1    0    0  501    0  0.00000000000E+00  0.00000000000E+00 -0.10109419682E+04  0.10109419682E+04  0.25500000920E-02 0. -1.
    10030    2    1    2    0    0  0.00000000000E+00  0.00000000000E+00 -0.29804120285E+03  0.17238427335E+04  0.16978825670E+04 0.  0.
        2    1    3    3  502    0  0.28832484630E+03 -0.10895310860E+03 -0.95212652631E+03  0.10007731606E+04  0.25500000920E-02 0. -1.
       -2    1    3    3    0  502 -0.28832484630E+03  0.10895310860E+03  0.65408532346E+03  0.72306957289E+03  0.25500000920E-02 0.  1.
</event>
<event>
 5   0  0.1441756E-05  0.1700489E+04  0.7818609E-02  0.8761085E-01
        2   -1    0    0  501    0  0.00000000000E+00  0.00000000000E+00  0.12844837058E+04  0.12844837058E+04  0.25500000920E-02 0.  1.
       -2   -1    0    0    0  501  0.00000000000E+00  0.00000000000E+00 -0.56280651441E+03  0.56280651442E+03  0.25500000920E-02 0. -1.
    10030    2    1    2    0    0  0.00000000000E+00  0.00000000000E+00  0.72167719143E+03  0.18472902203E+04  0.17004891029E+04 0.  0.
        5    1    3    3  502    0 -0.45058008325E+03  0.47354186480E+03 -0.22981804006E+03  0.69289445854E+03  0.46999998093E+01 0. -1.
       -5    1    3    3    0  502  0.45058008325E+03 -0.47354186480E+03  0.95149523149E+03  0.11543957617E+04  0.46999998093E+01 0.  1.
</event>
<event>
 5   0  0.1374441E-05  0.1697342E+04  0.7818609E-02  0.8762882E-01
        2   -1    0    0  501    0  0.00000000000E+00  0.00000000000E+00  0.15314654640E+04  0.15314654640E+04  0.25500000920E-02 0. -1.
       -2   -1    0    0    0  501  0.00000000000E+00  0.00000000000E+00 -0.47029612316E+03  0.47029612317E+03  0.25500000920E-02 0.  1.
    10030    2    1    2    0    0  0.00000000000E+00  0.00000000000E+00  0.10611693409E+04  0.20017615872E+04  0.16973417694E+04 0.  0.
        1    1    3    3  502    0 -0.36592976066E+03 -0.27596896773E+03 -0.31178798456E+03  0.55432410035E+03  0.50400001928E-02 0.  1.
       -1    1    3    3    0  502  0.36592976066E+03  0.27596896773E+03  0.13729573254E+04  0.14474374868E+04  0.50400001928E-02 0. -1.
</event>
<event>
 5   0  0.7461128E-06  0.1700533E+04  0.7818609E-02  0.8761060E-01
       -1   -1    0    0    0  501  0.00000000000E+00  0.00000000000E+00  0.41575777100E+03  0.41575777103E+03  0.50400001928E-02 0.  1.
        1   -1    0    0  501    0  0.00000000000E+00  0.00000000000E+00 -0.17388803753E+04  0.17388803753E+04  0.50400001928E-02 0. -1.
    10030    2    1    2    0    0  0.00000000000E+00  0.00000000000E+00 -0.13231226043E+04  0.21546381463E+04  0.17005328917E+04 0.  0.
        3    1    3    3  502    0 -0.52654763887E+03 -0.20598486364E+03 -0.14661755473E+04  0.15714174893E+04  0.10100000352E+00 0. -1.
       -3    1    3    3    0  502  0.52654763887E+03  0.20598486364E+03  0.14305294302E+03  0.58322065700E+03  0.10100000352E+00 0.  1.
</event>
<event>
 5   0  0.1419012E-05  0.1700386E+04  0.7818609E-02  0.8761144E-01
       -2   -1    0    0    0  501  0.00000000000E+00  0.00000000000E+00  0.10220838452E+04  0.10220838452E+04  0.25500000920E-02 0.  1.
        2   -1    0    0  501    0  0.00000000000E+00  0.00000000000E+00 -0.70721010185E+03  0.70721010185E+03  0.25500000920E-02 0. -1.
    10030    2    1    2    0    0  0.00000000000E+00  0.00000000000E+00  0.31487374339E+03  0.17292939471E+04  0.17003858624E+04 0.  0.
        4    1    3    3  502    0 -0.31740020724E+03  0.11654575079E+03  0.95076315454E+03  0.10090976130E+04  0.12699999809E+01 0.  1.
       -4    1    3    3    0  502  0.31740020724E+03 -0.11654575079E+03 -0.63588941115E+03  0.72019633413E+03  0.12699999809E+01 0. -1.
</event>
<event>
 5   0  0.1441756E-05  0.1707333E+04  0.7818609E-02  0.8757193E-01
        2   -1    0    0  501    0  0.00000000000E+00  0.00000000000E+00  0.17965467149E+04  0.17965467149E+04  0.25500000920E-02 0.  1.
       -2   -1    0    0    0  501  0.00000000000E+00  0.00000000000E+00 -0.40563725448E+03  0.40563725449E+03  0.25500000920E-02 0. -1.
    10030    2    1    2    0    0  0.00000000000E+00  0.00000000000E+00  0.13909094605E+04  0.22021839694E+04  0.17073327467E+04 0.  0.
        5    1    3    3  502    0  0.24388606702E+03 -0.63951995861E+03  0.37437194711E+02  0.68548510173E+03  0.46999998093E+01 0. -1.
       -5    1    3    3    0  502 -0.24388606702E+03  0.63951995861E+03  0.13534722657E+04  0.15166988677E+04  0.46999998093E+01 0.  1.
</event>
<event>
 5   0  0.1374441E-05  0.1704298E+04  0.7818609E-02  0.8758917E-01
        2   -1    0    0  501    0  0.00000000000E+00  0.00000000000E+00  0.11484043271E+04  0.11484043272E+04  0.25500000920E-02 0. -1.
       -2   -1    0    0    0  501  0.00000000000E+00  0.00000000000E+00 -0.63231929230E+03  0.63231929230E+03  0.25500000920E-02 0.  1.
    10030    2    1    2    0    0  0.00000000000E+00  0.00000000000E+00  0.51608503485E+03  0.17807236195E+04  0.17042983441E+04 0.  0.
        1    1    3    3  502    0 -0.43519326227E+02 -0.21344388023E+03  0.11188216659E+04  0.11398307515E+04  0.50400001928E-02 0. -1.
       -1    1    3    3    0  502  0.43519326227E+02  0.21344388023E+03 -0.60273663109E+03  0.64089286800E+03  0.50400001928E-02 0.  1.
</event>
<event>
 5   0  0.7082527E-06  0.1700329E+04  0.7818609E-02  0.8761177E-01
        1   -1    0    0  501    0  0.00000000000E+00  0.00000000000E+00  0.58954245150E+03  0.58954245152E+03  0.50400001928E-02 0. -1.
       -1   -1    0    0    0  501  0.00000000000E+00  0.00000000000E+00 -0.12260012645E+04  0.12260012645E+04  0.50400001928E-02 0.  1.
    10030    2    1    2    0    0  0.00000000000E+00  0.00000000000E+00 -0.63645881303E+03  0.18155437161E+04  0.17003291341E+04 0.  0.
        1    1    3    3  502    0 -0.56193252751E+03  0.24133701697E+03 -0.94881213785E+03  0.11288295683E+04  0.50400001928E-02 0.  1.
       -1    1    3    3    0  502  0.56193252751E+03 -0.24133701697E+03  0.31235332482E+03  0.68671414779E+03  0.50400001928E-02 0. -1.
</event>
<event>
 5   0  0.5229750E-06  0.1699166E+04  0.7818609E-02  0.8761840E-01
       -4   -1    0    0    0  501  0.00000000000E+00  0.00000000000E+00  0.14699238724E+04  0.14699244210E+04  0.12699999809E+01 0. -1.
        4   -1    0    0  501    0  0.00000000000E+00  0.00000000000E+00 -0.49103855098E+03  0.49104019332E+03  0.12699999809E+01 0.  1.
    10030    2    1    2    0    0  0.00000000000E+00  0.00000000000E+00  0.97888532140E+03  0.19609646143E+04  0.16991661915E+04 0.  0.
        5    1    3    3  502    0 -0.36964402506E+03  0.57852767128E+02  0.13697116839E+04  0.14198999384E+04  0.46999998093E+01 0. -1.
       -5    1    3    3    0  502  0.36964402506E+03 -0.57852767128E+02 -0.39082636252E+03  0.54106467596E+03  0.46999998093E+01 0.  1.
</event>
<event>
 5   0  0.7476457E-06  0.1699853E+04  0.7818609E-02  0.8761448E-01
       -1   -1    0    0    0  501  0.00000000000E+00  0.00000000000E+00  0.69773458328E+03  0.69773458330E+03  0.50400001928E-02 0. -1.
        1   -1    0    0  501    0  0.00000000000E+00  0.00000000000E+00 -0.10353147397E+04  0.10353147398E+04  0.50400001928E-02 0.  1.
    10030    2    1    2    0    0  0.00000000000E+00  0.00000000000E+00 -0.33758015646E+03  0.17330493231E+04  0.16998528154E+04 0.  0.
        2    1    3    3  502    0  0.21668502143E+02 -0.67304006404E+03  0.35991457301E+03  0.76353844151E+03  0.25500000920E-02 0. -1.
       -2    1    3    3    0  502 -0.21668502143E+02  0.67304006404E+03 -0.69749472947E+03  0.96951088155E+03  0.25500000920E-02 0.  1.
</event>
<event>
 5   0  0.1435301E-05  0.1703091E+04  0.7818609E-02  0.8759603E-01
        2   -1    0    0  501    0  0.00000000000E+00  0.00000000000E+00  0.24296680799E+04  0.24296680799E+04  0.25500000920E-02 0. -1.
       -2   -1    0    0    0  501  0.00000000000E+00  0.00000000000E+00 -0.29844804002E+03  0.29844804004E+03  0.25500000920E-02 0.  1.
    10030    2    1    2    0    0  0.00000000000E+00  0.00000000000E+00  0.21312200399E+04  0.27281161199E+04  0.17030909270E+04 0.  0.
        2    1    3    3  502    0  0.69457837208E+03 -0.31434564053E+03  0.45800510764E+03  0.88939359977E+03  0.25500000920E-02 0.  1.
       -2    1    3    3    0  502 -0.69457837208E+03  0.31434564053E+03  0.16732149322E+04  0.18387225201E+04  0.25500000920E-02 0. -1.
</event>
<event>
 5   0  0.1419012E-05  0.1699361E+04  0.7818609E-02  0.8761729E-01
       -2   -1    0    0    0  501  0.00000000000E+00  0.00000000000E+00  0.55745898604E+03  0.55745898605E+03  0.25500000920E-02 0. -1.
        2   -1    0    0  501    0  0.00000000000E+00  0.00000000000E+00 -0.12950854001E+04  0.12950854001E+04  0.25500000920E-02 0.  1.
    10030    2    1    2    0    0  0.00000000000E+00  0.00000000000E+00 -0.73762641402E+03  0.18525443861E+04  0.16993610493E+04 0.  0.
        4    1    3    3  502    0 -0.74918730359E+03 -0.53254174375E+02 -0.80191343711E+03  0.10987194348E+04  0.12699999809E+01 0.  1.
       -4    1    3    3    0  502  0.74918730359E+03  0.53254174375E+02  0.64287023088E+02  0.75382495129E+03  0.12699999809E+01 0. -1.
</event>
<event>
 5   0  0.1441756E-05  0.1698989E+04  0.7818609E-02  0.8761941E-01
       -2   -1    0    0    0  501  0.00000000000E+00  0.00000000000E+00  0.10186757868E+04  0.10186757868E+04  0.25500000920E-02 0. -1.
        2   -1    0    0  501    0  0.00000000000E+00  0.00000000000E+00 -0.70841064979E+03  0.70841064980E+03  0.25500000920E-02 0.  1.
    10030    2    1    2    0    0  0.00000000000E+00  0.00000000000E+00  0.31026513699E+03  0.17270864366E+04  0.16989888476E+04 0.  0.
        5    1    3    3  502    0 -0.45919413148E+03 -0.12017366644E+03 -0.56101651157E+03  0.73488949968E+03  0.46999998093E+01 0.  1.
       -5    1    3    3    0  502  0.45919413148E+03  0.12017366644E+03  0.87128164856E+03  0.99219693690E+03  0.46999998093E+01 0. -1.
</event>
<event>
 5   0  0.7082527E-06  0.1699797E+04  0.7818609E-02  0.8761480E-01
       -1   -1    0    0    0  501  0.00000000000E+00  0.00000000000E+00  0.70943229590E+03  0.70943229591E+03  0.50400001928E-02 0.  1.
        1   -1    0    0  501    0  0.00000000000E+00  0.00000000000E+00 -0.10181767855E+04  0.10181767855E+04  0.50400001928E-02 0. -1.
    10030    2    1    2    0    0  0.00000000000E+00  0.00000000000E+00 -0.30874448959E+03  0.17276090814E+04  0.16997970403E+04 0.  0.
        1    1    3    3  502    0  0.34546645996E+02 -0.26417938500E+03 -0.97463572591E+03  0.10103954753E+04  0.50400001928E-02 0. -1.
       -1    1    3    3    0  502 -0.34546645996E+02  0.26417938500E+03  0.66589123632E+03  0.71721360614E+03  0.50400001928E-02 0.  1.
</event>
<event>
 5   0  0.7455669E-06  0.1700015E+04  0.7818609E-02  0.8761356E-01
        1   -1    0    0  501    0  0.00000000000E+00  0.00000000000E+00  0.74404977804E+03  0.74404977806E+03  0.50400001928E-02 0. -1.
       -1   -1    0    0    0  501  0.00000000000E+00  0.00000000000E+00 -0.97105468419E+03  0.97105468420E+03  0.50400001928E-02 0.  1.
    10030    2    1    2    0    0  0.00000000000E+00  0.00000000000E+00 -0.22700490614E+03  0.17151044623E+04  0.17000153202E+04 0.  0.
        4    1    3    3  502    0 -0.10213995698E+03  0.20288326411E+03 -0.93986801676E+03  0.96692693183E+03  0.12699999809E+01 0.  1.
       -4    1    3    3    0  502  0.10213995698E+03 -0.20288326411E+03  0.71286311061E+03  0.74817753043E+03  0.12699999809E+01 0. -1.
</event>
<event>
 5   0  0.1435301E-05  0.1700198E+04  0.7818609E-02  0.8761251E-01
       -2   -1    0    0    0  501  0.00000000000E+00  0.00000000000E+00  0.51094357705E+03  0.51094357706E+03  0.25500000920E-02 0.  1.
        2   -1    0    0  501    0  0.00000000000E+00  0.00000000000E+00 -0.14143799142E+04  0.14143799142E+04  0.25500000920E-02 0. -1.
    10030    2    1    2    0    0  0.00000000000E+00  0.00000000000E+00 -0.90343633717E+03  0.19253234913E+04  0.17001980269E+04 0.  0.
        2    1    3    3  502    0  0.56696584838E+02 -0.47034990583E+03 -0.12510311586E+04  0.13377303527E+04  0.25500000920E-02 0. -1.
       -2    1    3    3    0  502 -0.56696584838E+02  0.47034990583E+03  0.34759482143E+03  0.58759313861E+03  0.25500000920E-02 0.  1.
</event>
<event>
 5   0  0.1374441E-05  0.1699800E+04  0.7818609E-02  0.8761479E-01
        2   -1    0    0  501    0  0.00000000000E+00  0.00000000000E+00  0.91565334046E+03  0.91565334047E+03  0.25500000920E-02 0. -1.
       -2   -1    0    0    0  501  0.00000000000E+00  0.00000000000E+00 -0.78886815704E+03  0.78886815705E+03  0.25500000920E-02 0.  1.
    10030    2    1    2    0    0  0.00000000000E+00  0.00000000000E+00  0.12678518342E+03  0.17045214975E+04  0.16997997096E+04 0.  0.
        1    1    3    3  502    0 -0.14338121865E+03  0.34297157612E+03  0.82980756578E+03  0.90926798698E+03  0.50400001928E-02 0. -1.
       -1    1    3    3    0  502  0.14338121865E+03 -0.34297157612E+03 -0.70302238236E+03  0.79525351054E+03  0.50400001928E-02 0.  1.
</event>
<event>
 5   0  0.1374441E-05  0.1700048E+04  0.7818609E-02  0.8761337E-01
       -2   -1    0    0    0  501  0.00000000000E+00  0.00000000000E+00  0.39474222207E+03  0.39474222208E+03  0.25500000920E-02 0. -1.
        2   -1    0    0  501    0  0.00000000000E+00  0.00000000000E+00 -0.18304110538E+04  0.18304110538E+04  0.25500000920E-02 0.  1.
    10030    2    1    2    0    0  0.00000000000E+00  0.00000000000E+00 -0.14356688317E+04  0.22251532759E+04  0.17000476778E+04 0.  0.
        1    1    3    3  502    0 -0.32413564899E+03 -0.13453658207E+03  0.29549043177E+03  0.45877947442E+03  0.50400001928E-02 0. -1.
       -1    1    3    3    0  502  0.32413564899E+03  0.13453658207E+03 -0.17311592635E+04  0.17663738014E+04  0.50400001928E-02 0.  1.
</event>
<event>
 5   0  0.7476457E-06  0.1699867E+04  0.7818609E-02  0.8761440E-01
       -1   -1    0    0    0  501  0.00000000000E+00  0.00000000000E+00  0.87193524583E+03  0.87193524584E+03  0.50400001928E-02 0.  1.
        1   -1    0    0  501    0  0.00000000000E+00  0.00000000000E+00 -0.82848677290E+03  0.82848677292E+03  0.50400001928E-02 0. -1.
    10030    2    1    2    0    0  0.00000000000E+00  0.00000000000E+00  0.43448472924E+02  0.17004220188E+04  0.16998668395E+04 0.  0.
        2    1    3    3  502    0 -0.18254154566E+03  0.34154025565E+03  0.77855289653E+03  0.86954917907E+03  0.25500000920E-02 0.  1.
       -2    1    3    3    0  502  0.18254154566E+03 -0.34154025565E+03 -0.73510442361E+03  0.83087283969E+03  0.25500000920E-02 0. -1.
</event>
<event>
 5   0  0.1441756E-05  0.1699587E+04  0.7818609E-02  0.8761600E-01
        2   -1    0    0  501    0  0.00000000000E+00  0.00000000000E+00  0.18210434397E+04  0.18210434397E+04  0.25500000920E-02 0. -1.
       -2   -1    0    0    0  501  0.00000000000E+00  0.00000000000E+00 -0.39655797839E+03  0.39655797840E+03  0.25500000920E-02 0.  1.
    10030    2    1    2    0    0  0.00000000000E+00  0.00000000000E+00  0.14244854613E+04  0.22176014181E+04  0.16995873676E+04 0.  0.
        5    1    3    3  502    0  0.67107567647E+03  0.45818675685E+03  0.10367379171E+04  0.13172415369E+04  0.46999998093E+01 0. -1.
       -5    1    3    3    0  502 -0.67107567647E+03 -0.45818675685E+03  0.38774754421E+03  0.90035988124E+03  0.46999998093E+01 0.  1.
</event>
<event>
 5   0  0.7455669E-06  0.1699499E+04  0.7818609E-02  0.8761650E-01
        1   -1    0    0  501    0  0.00000000000E+00  0.00000000000E+00  0.77192779212E+03  0.77192779214E+03  0.50400001928E-02 0. -1.
       -1   -1    0    0    0  501  0.00000000000E+00  0.00000000000E+00 -0.93541660035E+03  0.93541660036E+03  0.50400001928E-02 0.  1.
    10030    2    1    2    0    0  0.00000000000E+00  0.00000000000E+00 -0.16348880823E+03  0.17073443925E+04  0.16994988332E+04 0.  0.
        4    1    3    3  502    0  0.22979835846E+03  0.34147816475E+03  0.66509707034E+03  0.78215749592E+03  0.12699999809E+01 0. -1.
       -4    1    3    3    0  502 -0.22979835846E+03 -0.34147816475E+03 -0.82858587857E+03  0.92518689658E+03  0.12699999809E+01 0.  1.
</event>
<event>
 5   0  0.7082527E-06  0.1699840E+04  0.7818609E-02  0.8761455E-01
        1   -1    0    0  501    0  0.00000000000E+00  0.00000000000E+00  0.10372222444E+04  0.10372222444E+04  0.50400001928E-02 0. -1.
       -1   -1    0    0    0  501  0.00000000000E+00  0.00000000000E+00 -0.69644114905E+03  0.69644114906E+03  0.50400001928E-02 0.  1.
    10030    2    1    2    0    0  0.00000000000E+00  0.00000000000E+00  0.34078109535E+03  0.17336633935E+04  0.16998402886E+04 0.  0.
        1    1    3    3  502    0 -0.77719536235E+03 -0.16694727544E+03  0.47714120279E+03  0.92712876746E+03  0.50400001928E-02 0. -1.
       -1    1    3    3    0  502  0.77719536235E+03  0.16694727544E+03 -0.13636010743E+03  0.80653462601E+03  0.50400001928E-02 0.  1.
</event>
<event>
 5   0  0.7082527E-06  0.1698785E+04  0.7818609E-02  0.8762057E-01
       -1   -1    0    0    0  501  0.00000000000E+00  0.00000000000E+00  0.31329742979E+03  0.31329742983E+03  0.50400001928E-02 0. -1.
        1   -1    0    0  501    0  0.00000000000E+00  0.00000000000E+00 -0.23028214304E+04  0.23028214304E+04  0.50400001928E-02 0.  1.
    10030    2    1    2    0    0  0.00000000000E+00  0.00000000000E+00 -0.19895240006E+04  0.26161188602E+04  0.16987854903E+04 0.  0.
        1    1    3    3  502    0 -0.29756056087E+03  0.79017160208E+03 -0.85232642933E+03  0.11997390509E+04  0.50400001928E-02 0.  1.
       -1    1    3    3    0  502  0.29756056087E+03 -0.79017160208E+03 -0.11371975713E+04  0.14163798093E+04  0.50400001928E-02 0. -1.
</event>
<event>
 5   0  0.7476457E-06  0.1700487E+04  0.7818609E-02  0.8761087E-01
       -1   -1    0    0    0  501  0.00000000000E+00  0.00000000000E+00  0.51380546473E+03  0.51380546476E+03  0.50400001928E-02 0. -1.
        1   -1    0    0  501    0  0.00000000000E+00  0.00000000000E+00 -0.14069800796E+04  0.14069800797E+04  0.50400001928E-02 0.  1.
    10030    2    1    2    0    0  0.00000000000E+00  0.00000000000E+00 -0.89317461491E+03  0.19207855444E+04  0.17004870523E+04 0.  0.
        2    1    3    3  502    0  0.55691859019E+03 -0.61406133453E+03 -0.65996294916E+03  0.10596134828E+04  0.25500000920E-02 0. -1.
       -2    1    3    3    0  502 -0.55691859019E+03  0.61406133453E+03 -0.23321166575E+03  0.86117206161E+03  0.25500000920E-02 0.  1.
</event>
<event>
 5   0  0.7082527E-06  0.1699149E+04  0.7818609E-02  0.8761850E-01
       -1   -1    0    0    0  501  0.00000000000E+00  0.00000000000E+00  0.80792833168E+03  0.80792833169E+03  0.50400001928E-02 0.  1.
        1   -1    0    0  501    0  0.00000000000E+00  0.00000000000E+00 -0.89336765652E+03  0.89336765653E+03  0.50400001928E-02 0. -1.
    10030    2    1    2    0    0  0.00000000000E+00  0.00000000000E+00 -0.85439324843E+02  0.17012959882E+04  0.16991492463E+04 0.  0.
        1    1    3    3  502    0  0.25080096501E+03  0.35019778217E+03 -0.77592718659E+03  0.88746977954E+03  0.50400001928E-02 0. -1.
       -1    1    3    3    0  502 -0.25080096501E+03 -0.35019778217E+03  0.69048786175E+03  0.81382620868E+03  0.50400001928E-02 0.  1.
</event>
<event>
 5   0  0.1423543E-05  0.1699422E+04  0.7818609E-02  0.8761694E-01
        2   -1    0    0  501    0  0.00000000000E+00  0.00000000000E+00  0.45363249679E+03  0.45363249680E+03  0.25500000920E-02 0.  1.
       -2   -1    0    0    0  501  0.00000000000E+00  0.00000000000E+00 -0.15916167612E+04  0.15916167612E+04  0.25500000920E-02 0. -1.
    10030    2    1    2    0    0  0.00000000000E+00  0.00000000000E+00 -0.11379842644E+04  0.20452492580E+04  0.16994223552E+04 0.  0.
        3    1    3    3  502    0  0.75192321783E+03  0.38416549062E+03 -0.45458126432E+03  0.95896599823E+03  0.10100000352E+00 0.  1.
       -3    1    3    3    0  502 -0.75192321783E+03 -0.38416549062E+03 -0.68340300006E+03  0.10862832597E+04  0.10100000352E+00 0. -1.
</event>
<event>
 5   0  0.7461128E-06  0.1699669E+04  0.7818609E-02  0.8761553E-01
        1   -1    0    0  501    0  0.00000000000E+00  0.00000000000E+00  0.13630244032E+04  0.13630244032E+04  0.50400001928E-02 0. -1.
       -1   -1    0    0    0  501  0.00000000000E+00  0.00000000000E+00 -0.52986497722E+03  0.52986497725E+03  0.50400001928E-02 0.  1.
    10030    2    1    2    0    0  0.00000000000E+00  0.00000000000E+00  0.83315942598E+03  0.18928893805E+04  0.16996692553E+04 0.  0.
        3    1    3    3  502    0 -0.46563473142E+03  0.60133963614E+03 -0.57298649973E+01  0.76056420022E+03  0.10100000352E+00 0.  1.
       -3    1    3    3    0  502  0.46563473142E+03 -0.60133963614E+03  0.83888929098E+03  0.11323251802E+04  0.10100000352E+00 0. -1.
</event>
<event>
 5   0  0.1419012E-05  0.1700188E+04  0.7818609E-02  0.8761257E-01
       -2   -1    0    0    0  501  0.00000000000E+00  0.00000000000E+00  0.41144069127E+03  0.41144069128E+03  0.25500000920E-02 0. -1.
        2   -1    0    0  501    0  0.00000000000E+00  0.00000000000E+00 -0.17564139114E+04  0.17564139114E+04  0.25500000920E-02 0.  1.
    10030    2    1    2    0    0  0.00000000000E+00  0.00000000000E+00 -0.13449732201E+04  0.21678546027E+04  0.17001884059E+04 0.  0.
        4    1    3    3  502    0  0.52414881071E+03 -0.31454016532E+03  0.80765305999E+02  0.61659722585E+03  0.12699999809E+01 0. -1.
       -4    1    3    3    0  502 -0.52414881071E+03  0.31454016532E+03 -0.14257385261E+04  0.15512573768E+04  0.12699999809E+01 0.  1.
</event>
<event>
 5   0  0.1423543E-05  0.1699524E+04  0.7818609E-02  0.8761636E-01
        2   -1    0    0  501    0  0.00000000000E+00  0.00000000000E+00  0.18537259794E+04  0.18537259794E+04  0.25500000920E-02 0.  1.
       -2   -1    0    0    0  501  0.00000000000E+00  0.00000000000E+00 -0.38953711934E+03  0.38953711935E+03  0.25500000920E-02 0. -1.
    10030    2    1    2    0    0  0.00000000000E+00  0.00000000000E+00  0.14641888601E+04  0.22432630987E+04  0.16995235545E+04 0.  0.
        3    1    3    3  502    0  0.32983062275E+03 -0.65694783005E+03  0.16941374416E+03  0.75436709765E+03  0.10100000352E+00 0. -1.
       -3    1    3    3    0  502 -0.32983062275E+03  0.65694783005E+03  0.12947751159E+04  0.14888960011E+04  0.10100000352E+00 0.  1.
</event>
<event>
 5   0  0.1435301E-05  0.1699382E+04  0.7818609E-02  0.8761717E-01
       -2   -1    0    0    0  501  0.00000000000E+00  0.00000000000E+00  0.54035638670E+03  0.54035638671E+03  0.25500000920E-02 0. -1.
        2   -1    0    0  501    0  0.00000000000E+00  0.00000000000E+00 -0.13361083061E+04  0.13361083061E+04  0.25500000920E-02 0.  1.
    10030    2    1    2    0    0  0.00000000000E+00  0.00000000000E+00 -0.79575191937E+03  0.18764646928E+04  0.16993818365E+04 0.  0.
        2    1    3    3  502    0 -0.55599334636E+01  0.72546937112E+03 -0.88627630289E+03  0.11453481595E+04  0.25500000920E-02 0. -1.
       -2    1    3    3    0  502  0.55599334636E+01 -0.72546937112E+03  0.90524383521E+02  0.73111653333E+03  0.25500000920E-02 0.  1.
</event>
<event>
 5   0  0.7583716E-06  0.1696565E+04  0.7818609E-02  0.8763326E-01
       -1   -1    0    0    0  501  0.00000000000E+00  0.00000000000E+00  0.44936612041E+03  0.44936612044E+03  0.50400001928E-02 0.  1.
        1   -1    0    0  501    0  0.00000000000E+00  0.00000000000E+00 -0.16013298371E+04  0.16013298371E+04  0.50400001928E-02 0. -1.
    10030    2    1    2    0    0  0.00000000000E+00  0.00000000000E+00 -0.11519637167E+04  0.20506959575E+04  0.16965652082E+04 0.  0.
        5    1    3    3  502    0 -0.74500147192E+03  0.39344757297E+03 -0.45673242492E+03  0.95836046653E+03  0.46999998093E+01 0.  1.
       -5    1    3    3    0  502  0.74500147192E+03 -0.39344757297E+03 -0.69523129173E+03  0.10923354910E+04  0.46999998093E+01 0. -1.
</event>
<event>
 5   0  0.7082527E-06  0.1700213E+04  0.7818609E-02  0.8761243E-01
        1   -1    0    0  501    0  0.00000000000E+00  0.00000000000E+00  0.73255741974E+03  0.73255741976E+03  0.50400001928E-02 0. -1.
       -1   -1    0    0    0  501  0.00000000000E+00  0.00000000000E+00 -0.98651812930E+03  0.98651812931E+03  0.50400001928E-02 0.  1.
    10030    2    1    2    0    0  0.00000000000E+00  0.00000000000E+00 -0.25396070956E+03  0.17190755491E+04  0.17002131341E+04 0.  0.
        1    1    3    3  502    0 -0.60096697637E+03 -0.48896861448E+03  0.22680084109E+03  0.80727333300E+03  0.50400001928E-02 0. -1.
       -1    1    3    3    0  502  0.60096697637E+03  0.48896861448E+03 -0.48076155064E+03  0.91180221607E+03  0.50400001928E-02 0.  1.
</event>
<event>
 5   0  0.1419012E-05  0.1700588E+04  0.7818609E-02  0.8761029E-01
        2   -1    0    0  501    0  0.00000000000E+00  0.00000000000E+00  0.95637838138E+03  0.95637838139E+03  0.25500000920E-02 0.  1.
       -2   -1    0    0    0  501  0.00000000000E+00  0.00000000000E+00 -0.75597683627E+03  0.75597683627E+03  0.25500000920E-02 0. -1.
    10030    2    1    2    0    0  0.00000000000E+00  0.00000000000E+00  0.20040154511E+03  0.17123552177E+04  0.17005880195E+04 0.  0.
        4    1    3    3  502    0  0.32969020969E+03 -0.78199628026E+03  0.15333401087E+03  0.86239593488E+03  0.12699999809E+01 0.  1.
       -4    1    3    3    0  502 -0.32969020969E+03  0.78199628026E+03  0.47067534242E+02  0.84995928278E+03  0.12699999809E+01 0. -1.
</event>
<event>
 5   0  0.1419012E-05  0.1697653E+04  0.7818609E-02  0.8762704E-01
        2   -1    0    0  501    0  0.00000000000E+00  0.00000000000E+00  0.10510403522E+04  0.10510403522E+04  0.25500000920E-02 0. -1.
       -2   -1    0    0    0  501  0.00000000000E+00  0.00000000000E+00 -0.68551761151E+03  0.68551761152E+03  0.25500000920E-02 0.  1.
    10030    2    1    2    0    0  0.00000000000E+00  0.00000000000E+00  0.36552274064E+03  0.17365579637E+04  0.16976532883E+04 0.  0.
        4    1    3    3  502    0 -0.41989639350E+03  0.31178311911E+03  0.86665091606E+03  0.10122287873E+04  0.12699999809E+01 0. -1.
       -4    1    3    3    0  502  0.41989639350E+03 -0.31178311911E+03 -0.50112817542E+03  0.72432917637E+03  0.12699999809E+01 0.  1.
</event>
<event>
 5   0  0.1441756E-05  0.1700419E+04  0.7818609E-02  0.8761126E-01
        2   -1    0    0  501    0  0.00000000000E+00  0.00000000000E+00  0.10766428541E+04  0.10766428541E+04  0.25500000920E-02 0.  1.
       -2   -1    0    0    0  501  0.00000000000E+00  0.00000000000E+00 -0.67139805201E+03  0.67139805201E+03  0.25500000920E-02 0. -1.
    10030    2    1    2    0    0  0.00000000000E+00  0.00000000000E+00  0.40524480210E+03  0.17480409061E+04  0.17004186719E+04 0.  0.
        5    1    3    3  502    0 -0.34949579784E+03  0.20361845063E+03  0.97137999463E+03  0.10522399774E+04  0.46999998093E+01 0.  1.
       -5    1    3    3    0  502  0.34949579784E+03 -0.20361845063E+03 -0.56613519253E+03  0.69580092869E+03  0.46999998093E+01 0. -1.
</event>
<event>
 5   0  0.1423543E-05  0.1699913E+04  0.7818609E-02  0.8761414E-01
        2   -1    0    0  501    0  0.00000000000E+00  0.00000000000E+00  0.49157998237E+03  0.49157998238E+03  0.25500000920E-02 0.  1.
       -2   -1    0    0    0  501  0.00000000000E+00  0.00000000000E+00 -0.14696002084E+04  0.14696002084E+04  0.25500000920E-02 0. -1.
    10030    2    1    2    0    0  0.00000000000E+00  0.00000000000E+00 -0.97802022604E+03  0.19611801908E+04  0.16999129914E+04 0.  0.
        3    1    3    3  502    0  0.66561304464E+03  0.49716092911E+03 -0.69608563670E+03  0.10838565119E+04  0.10100000352E+00 0. -1.
       -3    1    3    3    0  502 -0.66561304464E+03 -0.49716092911E+03 -0.28193458934E+03  0.87732367887E+03  0.10100000352E+00 0.  1.
</event>
<event>
 5   0  0.1419012E-05  0.1699709E+04  0.7818609E-02  0.8761530E-01
       -2   -1    0    0    0  501  0.00000000000E+00  0.00000000000E+00  0.11690627949E+04  0.11690627949E+04  0.25500000920E-02 0. -1.
        2   -1    0    0  501    0  0.00000000000E+00  0.00000000000E+00 -0.61780517550E+03  0.61780517551E+03  0.25500000920E-02 0.  1.
    10030    2    1    2    0    0  0.00000000000E+00  0.00000000000E+00  0.55125761939E+03  0.17868679704E+04  0.16997094401E+04 0.  0.
        4    1    3    3  502    0 -0.83662749844E+03  0.14910791796E+03  0.28459184142E+03  0.89619912489E+03  0.12699999809E+01 0. -1.
       -4    1    3    3    0  502  0.83662749844E+03 -0.14910791796E+03  0.26666577797E+03  0.89066884552E+03  0.12699999809E+01 0.  1.
</event>
<event>
 5   0  0.7583716E-06  0.1699561E+04  0.7818609E-02  0.8761615E-01
       -1   -1    0    0    0  501  0.00000000000E+00  0.00000000000E+00  0.31462070645E+03  0.31462070649E+03  0.50400001928E-02 0. -1.
        1   -1    0    0  501    0  0.00000000000E+00  0.00000000000E+00 -0.22952309591E+04  0.22952309591E+04  0.50400001928E-02 0.  1.
    10030    2    1    2    0    0  0.00000000000E+00  0.00000000000E+00 -0.19806102526E+04  0.26098516656E+04  0.16995613386E+04 0.  0.
        5    1    3    3  502    0  0.11300257524E+03 -0.83252505566E+03 -0.79462840064E+03  0.11564272288E+04  0.46999998093E+01 0. -1.
       -5    1    3    3    0  502 -0.11300257524E+03  0.83252505566E+03 -0.11859818520E+04  0.14534244368E+04  0.46999998093E+01 0.  1.
</event>
<event>
 5   0  0.7476457E-06  0.1701761E+04  0.7818609E-02  0.8760360E-01
        1   -1    0    0  501    0  0.00000000000E+00  0.00000000000E+00  0.94000529149E+03  0.94000529150E+03  0.50400001928E-02 0. -1.
       -1   -1    0    0    0  501  0.00000000000E+00  0.00000000000E+00 -0.77020624087E+03  0.77020624088E+03  0.50400001928E-02 0.  1.
    10030    2    1    2    0    0  0.00000000000E+00  0.00000000000E+00  0.16979905062E+03  0.17102115324E+04  0.17017613722E+04 0.  0.
        2    1    3    3  502    0  0.84959514180E+03 -0.15546586528E+02  0.40585893241E+02  0.85070606913E+03  0.25500000920E-02 0. -1.
       -2    1    3    3    0  502 -0.84959514180E+03  0.15546586528E+02  0.12921315738E+03  0.85950546326E+03  0.25500000920E-02 0.  1.
</event>
<event>
 5   0  0.1419012E-05  0.1699725E+04  0.7818609E-02  0.8761521E-01
        2   -1    0    0  501    0  0.00000000000E+00  0.00000000000E+00  0.86764765081E+03  0.86764765081E+03  0.25500000920E-02 0. -1.
       -2   -1    0    0    0  501  0.00000000000E+00  0.00000000000E+00 -0.83244229416E+03  0.83244229416E+03  0.25500000920E-02 0.  1.
    10030    2    1    2    0    0  0.00000000000E+00  0.00000000000E+00  0.35205356650E+02  0.17000899450E+04  0.16997253907E+04 0.  0.
        4    1    3    3  502    0 -0.74741296998E+03  0.98568693074E+02  0.41001711042E+03  0.85817106610E+03  0.12699999809E+01 0. -1.
       -4    1    3    3    0  502  0.74741296998E+03 -0.98568693074E+02 -0.37481175377E+03  0.84191887888E+03  0.12699999809E+01 0.  1.
</event>
<event>
 5   0  0.1423543E-05  0.1700970E+04  0.7818609E-02  0.8760811E-01
       -2   -1    0    0    0  501  0.00000000000E+00  0.00000000000E+00  0.38559050671E+03  0.38559050672E+03  0.25500000920E-02 0.  1.
        2   -1    0    0  501    0  0.00000000000E+00  0.00000000000E+00 -0.18758879505E+04  0.18758879505E+04  0.25500000920E-02 0. -1.
    10030    2    1    2    0    0  0.00000000000E+00  0.00000000000E+00 -0.14902974438E+04  0.22614784572E+04  0.17009698238E+04 0.  0.
        3    1    3    3  502    0  0.67651476655E+03  0.37690035543E+03 -0.27773399714E+03  0.82271640961E+03  0.10100000352E+00 0.  1.
       -3    1    3    3    0  502 -0.67651476655E+03 -0.37690035543E+03 -0.12125634466E+04  0.14387620476E+04  0.10100000352E+00 0. -1.
</event>
<event>
 5   0  0.5229750E-06  0.1700327E+04  0.7818609E-02  0.8761178E-01
       -3   -1    0    0    0  501  0.00000000000E+00  0.00000000000E+00  0.10278800576E+04  0.10278800626E+04  0.10100000352E+00 0. -1.
        3   -1    0    0  501    0  0.00000000000E+00  0.00000000000E+00 -0.70317310176E+03  0.70317310902E+03  0.10100000352E+00 0.  1.
    10030    2    1    2    0    0  0.00000000000E+00  0.00000000000E+00  0.32470695587E+03  0.17310531716E+04  0.17003265791E+04 0.  0.
        4    1    3    3  502    0 -0.57837341499E+03  0.32895129859E+02  0.79583428551E+03  0.98435345259E+03  0.12699999809E+01 0. -1.
       -4    1    3    3    0  502  0.57837341499E+03 -0.32895129859E+02 -0.47112732965E+03  0.74669971901E+03  0.12699999809E+01 0.  1.
</event>
<event>
 5   0  0.1435301E-05  0.1703026E+04  0.7818609E-02  0.8759640E-01
       -2   -1    0    0    0  501  0.00000000000E+00  0.00000000000E+00  0.64845177650E+03  0.64845177651E+03  0.25500000920E-02 0.  1.
        2   -1    0    0  501    0  0.00000000000E+00  0.00000000000E+00 -0.11181625547E+04  0.11181625547E+04  0.25500000920E-02 0. -1.
    10030    2    1    2    0    0  0.00000000000E+00  0.00000000000E+00 -0.46971077820E+03  0.17666143312E+04  0.17030261243E+04 0.  0.
        2    1    3    3  502    0 -0.34101484402E+03 -0.34351540219E+03 -0.96157035827E+03  0.10765275237E+04  0.25500000920E-02 0. -1.
       -2    1    3    3    0  502  0.34101484402E+03  0.34351540219E+03  0.49185958007E+03  0.69008680751E+03  0.25500000920E-02 0.  1.
</event>
<event>
 5   0  0.1419012E-05  0.1700704E+04  0.7818609E-02  0.8760963E-01
        2   -1    0    0  501    0  0.00000000000E+00  0.00000000000E+00  0.52479416290E+03  0.52479416291E+03  0.25500000920E-02 0. -1.
       -2   -1    0    0    0  501  0.00000000000E+00  0.00000000000E+00 -0.13778715354E+04  0.13778715354E+04  0.25500000920E-02 0.  1.
    10030    2    1    2    0    0  0.00000000000E+00  0.00000000000E+00 -0.85307737247E+03  0.19026656983E+04  0.17007044881E+04 0.  0.
        4    1    3    3  502    0 -0.55892030911E+03 -0.60992811335E+03 -0.64660342159E+03  0.10500008634E+04  0.12699999809E+01 0.  1.
       -4    1    3    3    0  502  0.55892030911E+03  0.60992811335E+03 -0.20647395088E+03  0.85266483490E+03  0.12699999809E+01 0. -1.
</event>
<event>
 5   0  0.7082527E-06  0.1700239E+04  0.7818609E-02  0.8761228E-01
       -1   -1    0    0    0  501  0.00000000000E+00  0.00000000000E+00  0.11001919514E+04  0.11001919514E+04  0.50400001928E-02 0. -1.
        1   -1    0    0  501    0  0.00000000000E+00  0.00000000000E+00 -0.65688798877E+03  0.65688798879E+03  0.50400001928E-02 0.  1.
    10030    2    1    2    0    0  0.00000000000E+00  0.00000000000E+00  0.44330396259E+03  0.17570799402E+04  0.17002386635E+04 0.  0.
        1    1    3    3  502    0 -0.42359291772E+03 -0.23722722778E+03  0.94283244852E+03  0.10604908031E+04  0.50400001928E-02 0. -1.
       -1    1    3    3    0  502  0.42359291772E+03  0.23722722778E+03 -0.49952848593E+03  0.69658913702E+03  0.50400001928E-02 0.  1.
</event>
<event>
 5   0  0.1435301E-05  0.1699198E+04  0.7818609E-02  0.8761822E-01
        2   -1    0    0  501    0  0.00000000000E+00  0.00000000000E+00  0.18965905065E+04  0.18965905065E+04  0.25500000920E-02 0.  1.
       -2   -1    0    0    0  501  0.00000000000E+00  0.00000000000E+00 -0.38058755988E+03  0.38058755989E+03  0.25500000920E-02 0. -1.
    10030    2    1    2    0    0  0.00000000000E+00  0.00000000000E+00  0.15160029466E+04  0.22771780664E+04  0.16991983439E+04 0.  0.
        2    1    3    3  502    0  0.68978549500E+03 -0.32068502203E+03  0.25090827355E+03  0.80099804882E+03  0.25500000920E-02 0. -1.
       -2    1    3    3    0  502 -0.68978549500E+03  0.32068502203E+03  0.12650946731E+04  0.14761800176E+04  0.25500000920E-02 0.  1.
</event>
<event>
 5   0  0.7583716E-06  0.1699270E+04  0.7818609E-02  0.8761781E-01
        1   -1    0    0  501    0  0.00000000000E+00  0.00000000000E+00  0.73611848025E+03  0.73611848027E+03  0.50400001928E-02 0.  1.
       -1   -1    0    0    0  501  0.00000000000E+00  0.00000000000E+00 -0.98065703485E+03  0.98065703486E+03  0.50400001928E-02 0. -1.
    10030    2    1    2    0    0  0.00000000000E+00  0.00000000000E+00 -0.24453855460E+03  0.17167755151E+04  0.16992701565E+04 0.  0.
        5    1    3    3  502    0 -0.30830195078E+03  0.50557880266E+03  0.49326705728E+03  0.77071038552E+03  0.46999998093E+01 0.  1.
       -5    1    3    3    0  502  0.30830195078E+03 -0.50557880266E+03 -0.73780561188E+03  0.94606512961E+03  0.46999998093E+01 0. -1.
</event>
<event>
 5   0  0.7461128E-06  0.1698795E+04  0.7818609E-02  0.8762052E-01
       -1   -1    0    0    0  501  0.00000000000E+00  0.00000000000E+00  0.47068519377E+03  0.47068519380E+03  0.50400001928E-02 0.  1.
        1   -1    0    0  501    0  0.00000000000E+00  0.00000000000E+00 -0.15328203618E+04  0.15328203618E+04  0.50400001928E-02 0. -1.
    10030    2    1    2    0    0  0.00000000000E+00  0.00000000000E+00 -0.10621351681E+04  0.20035055556E+04  0.16987946893E+04 0.  0.
        3    1    3    3  502    0  0.78525795588E+03 -0.12199107060E+03 -0.17732777339E+03  0.81422173147E+03  0.10100000352E+00 0.  1.
       -3    1    3    3    0  502 -0.78525795588E+03  0.12199107060E+03 -0.88480739468E+03  0.11892838242E+04  0.10100000352E+00 0. -1.
</event>
<event>
 5   0  0.1441756E-05  0.1699227E+04  0.7818609E-02  0.8761805E-01
       -2   -1    0    0    0  501  0.00000000000E+00  0.00000000000E+00  0.34477266749E+03  0.34477266750E+03  0.25500000920E-02 0. -1.
        2   -1    0    0  501    0  0.00000000000E+00  0.00000000000E+00 -0.20936789324E+04  0.20936789324E+04  0.25500000920E-02 0.  1.
    10030    2    1    2    0    0  0.00000000000E+00  0.00000000000E+00 -0.17489062649E+04  0.24384515999E+04  0.16992272013E+04 0.  0.
        5    1    3    3  502    0  0.22467349708E+03  0.15700221623E+03 -0.20284692391E+04  0.20469092359E+04  0.46999998093E+01 0.  1.
       -5    1    3    3    0  502 -0.22467349708E+03 -0.15700221623E+03  0.27956297423E+03  0.39154236392E+03  0.46999998093E+01 0. -1.
</event>
<event>
 5   0  0.7583716E-06  0.1699388E+04  0.7818609E-02  0.8761713E-01
       -1   -1    0    0    0  501  0.00000000000E+00  0.00000000000E+00  0.55497592585E+03  0.55497592587E+03  0.50400001928E-02 0. -1.
        1   -1    0    0  501    0  0.00000000000E+00  0.00000000000E+00 -0.13009215728E+04  0.13009215728E+04  0.50400001928E-02 0.  1.
    10030    2    1    2    0    0  0.00000000000E+00  0.00000000000E+00 -0.74594564696E+03  0.18558974987E+04  0.16993883068E+04 0.  0.
        5    1    3    3  502    0  0.47635167008E+03 -0.68909427048E+03 -0.52817456553E+03  0.99032938403E+03  0.46999998093E+01 0.  1.
       -5    1    3    3    0  502 -0.47635167008E+03  0.68909427048E+03 -0.21777108143E+03  0.86556811466E+03  0.46999998093E+01 0. -1.
</event>
<event>
 5   0  0.1423543E-05  0.1700683E+04  0.7818609E-02  0.8760975E-01
        2   -1    0    0  501    0  0.00000000000E+00  0.00000000000E+00  0.88467297283E+03  0.88467297283E+03  0.25500000920E-02 0.  1.
       -2   -1    0    0    0  501  0.00000000000E+00  0.00000000000E+00 -0.81734216013E+03  0.81734216014E+03  0.25500000920E-02 0. -1.
    10030    2    1    2    0    0  0.00000000000E+00  0.00000000000E+00  0.67330812699E+02  0.17020151330E+04  0.17006828260E+04 0.  0.
        3    1    3    3  502    0  0.51162201656E+03 -0.45502145845E+03  0.53832118092E+03  0.87097148030E+03  0.10100000352E+00 0.  1.
       -3    1    3    3    0  502 -0.51162201656E+03  0.45502145845E+03 -0.47099036822E+03  0.83104365267E+03  0.10100000352E+00 0. -1.
</event>
<event>
 5   0  0.7082527E-06  0.1700271E+04  0.7818609E-02  0.8761210E-01
       -1   -1    0    0    0  501  0.00000000000E+00  0.00000000000E+00  0.78607194262E+03  0.78607194264E+03  0.50400001928E-02 0. -1.
        1   -1    0    0  501    0  0.00000000000E+00  0.00000000000E+00 -0.91941959757E+03  0.91941959758E+03  0.50400001928E-02 0.  1.
    10030    2    1    2    0    0  0.00000000000E+00  0.00000000000E+00 -0.13334765495E+03  0.17054915402E+04  0.17002705069E+04 0.  0.
        1    1    3    3  502    0 -0.69373067239E+02 -0.79521818090E+03  0.22670570096E+03  0.82980723819E+03  0.50400001928E-02 0. -1.
       -1    1    3    3    0  502  0.69373067239E+02  0.79521818090E+03 -0.36005335590E+03  0.87568430202E+03  0.50400001928E-02 0.  1.
</event>
<event>
 5   0  0.7583716E-06  0.1699891E+04  0.7818609E-02  0.8761427E-01
        1   -1    0    0  501    0  0.00000000000E+00  0.00000000000E+00  0.13681959040E+04  0.13681959040E+04  0.50400001928E-02 0.  1.
       -1   -1    0    0    0  501  0.00000000000E+00  0.00000000000E+00 -0.52799981720E+03  0.52799981723E+03  0.50400001928E-02 0. -1.
    10030    2    1    2    0    0  0.00000000000E+00  0.00000000000E+00  0.84019608682E+03  0.18961957213E+04  0.16998908050E+04 0.  0.
        5    1    3    3  502    0 -0.47553067673E+02  0.46393982179E+03  0.12127048338E+04  0.12992984863E+04  0.46999998093E+01 0.  1.
       -5    1    3    3    0  502  0.47553067673E+02 -0.46393982179E+03 -0.37250874702E+03  0.59689723496E+03  0.46999998093E+01 0. -1.
</event>
<event>
 5   0  0.1423543E-05  0.1700181E+04  0.7818609E-02  0.8761261E-01
        2   -1    0    0  501    0  0.00000000000E+00  0.00000000000E+00  0.11949049716E+04  0.11949049716E+04  0.25500000920E-02 0. -1.
       -2   -1    0    0    0  501  0.00000000000E+00  0.00000000000E+00 -0.60477910113E+03  0.60477910114E+03  0.25500000920E-02 0.  1.
    10030    2    1    2    0    0  0.00000000000E+00  0.00000000000E+00  0.59012587049E+03  0.17996840728E+04  0.17001806430E+04 0.  0.
        3    1    3    3  502    0  0.63704061441E+03 -0.39791973211E+03 -0.12634801827E+03  0.76165916887E+03  0.10100000352E+00 0.  1.
       -3    1    3    3    0  502 -0.63704061441E+03  0.39791973211E+03  0.71647388876E+03  0.10380249039E+04  0.10100000352E+00 0. -1.
</event>
<event>
 5   0  0.1441756E-05  0.1699415E+04  0.7818609E-02  0.8761698E-01
        2   -1    0    0  501    0  0.00000000000E+00  0.00000000000E+00  0.92216528793E+03  0.92216528793E+03  0.25500000920E-02 0.  1.
       -2   -1    0    0    0  501  0.00000000000E+00  0.00000000000E+00 -0.78294298038E+03  0.78294298039E+03  0.25500000920E-02 0. -1.
    10030    2    1    2    0    0  0.00000000000E+00  0.00000000000E+00  0.13922230755E+03  0.17051082683E+04  0.16994150040E+04 0.  0.
        5    1    3    3  502    0 -0.49293140719E+03  0.63835223588E+03  0.33791268181E+03  0.87446098814E+03  0.46999998093E+01 0.  1.
       -5    1    3    3    0  502  0.49293140719E+03 -0.63835223588E+03 -0.19869037426E+03  0.83064728018E+03  0.46999998093E+01 0. -1.
</event>
<event>
 5   0  0.1441756E-05  0.1699265E+04  0.7818609E-02  0.8761784E-01
       -2   -1    0    0    0  501  0.00000000000E+00  0.00000000000E+00  0.41601714876E+03  0.41601714877E+03  0.25500000920E-02 0.  1.
        2   -1    0    0  501    0  0.00000000000E+00  0.00000000000E+00 -0.17352063311E+04  0.17352063311E+04  0.25500000920E-02 0. -1.
    10030    2    1    2    0    0  0.00000000000E+00  0.00000000000E+00 -0.13191891824E+04  0.21512234799E+04  0.16992652417E+04 0.  0.
        5    1    3    3  502    0 -0.63150014963E+03  0.31067136522E+03 -0.12621555463E+04  0.14451186281E+04  0.46999998093E+01 0. -1.
       -5    1    3    3    0  502  0.63150014963E+03 -0.31067136522E+03 -0.57033636097E+02  0.70610485185E+03  0.46999998093E+01 0.  1.
</event>
<event>
 5   0  0.7455669E-06  0.1698277E+04  0.7818609E-02  0.8762347E-01
        1   -1    0    0  501    0  0.00000000000E+00  0.00000000000E+00  0.22334929378E+04  0.22334929378E+04  0.50400001928E-02 0. -1.
       -1   -1    0    0    0  501  0.00000000000E+00  0.00000000000E+00 -0.32282910133E+03  0.32282910137E+03  0.50400001928E-02 0.  1.
    10030    2    1    2    0    0  0.00000000000E+00  0.00000000000E+00  0.19106638365E+04  0.25563220392E+04  0.16982773837E+04 0.  0.
        4    1    3    3  502    0 -0.50970489324E+03  0.45414157039E+03  0.19523392399E+03  0.71004333821E+03  0.12699999809E+01 0.  1.
       -4    1    3    3    0  502  0.50970489324E+03 -0.45414157039E+03  0.17154299125E+04  0.18462787010E+04  0.12699999809E+01 0. -1.
</event>
<event>
 5   0  0.5229750E-06  0.1699900E+04  0.7818609E-02  0.8761422E-01
        3   -1    0    0  501    0  0.00000000000E+00  0.00000000000E+00  0.11755240779E+04  0.11755240822E+04  0.10100000352E+00 0. -1.
       -3   -1    0    0    0  501  0.00000000000E+00  0.00000000000E+00 -0.61454695531E+03  0.61454696361E+03  0.10100000352E+00 0.  1.
    10030    2    1    2    0    0  0.00000000000E+00  0.00000000000E+00  0.56097712257E+03  0.17900710458E+04  0.16998997079E+04 0.  0.
        2    1    3    3  502    0 -0.17556252137E+03  0.60287661081E+03 -0.32272554833E+03  0.70599871553E+03  0.25500000920E-02 0.  1.
       -2    1    3    3    0  502  0.17556252137E+03 -0.60287661081E+03  0.88370267090E+03  0.10840723303E+04  0.25500000920E-02 0. -1.
</event>
<event>
 5   0  0.7455669E-06  0.1700710E+04  0.7818609E-02  0.8760960E-01
       -1   -1    0    0    0  501  0.00000000000E+00  0.00000000000E+00  0.10048160083E+04  0.10048160083E+04  0.50400001928E-02 0. -1.
        1   -1    0    0  501    0  0.00000000000E+00  0.00000000000E+00 -0.71963751137E+03  0.71963751139E+03  0.50400001928E-02 0.  1.
    10030    2    1    2    0    0  0.00000000000E+00  0.00000000000E+00  0.28517849696E+03  0.17244535197E+04  0.17007096068E+04 0.  0.
        4    1    3    3  502    0  0.33146031729E+03 -0.25080025919E+03  0.89479193803E+03  0.98662096937E+03  0.12699999809E+01 0. -1.
       -4    1    3    3    0  502 -0.33146031729E+03  0.25080025919E+03 -0.60961344106E+03  0.73783255036E+03  0.12699999809E+01 0.  1.
</event>
<event>
 5   0  0.7461128E-06  0.1701157E+04  0.7818609E-02  0.8760705E-01
       -1   -1    0    0    0  501  0.00000000000E+00  0.00000000000E+00  0.11305506619E+04  0.11305506619E+04  0.50400001928E-02 0.  1.
        1   -1    0    0  501    0  0.00000000000E+00  0.00000000000E+00 -0.63993902610E+03  0.63993902612E+03  0.50400001928E-02 0. -1.
    10030    2    1    2    0    0  0.00000000000E+00  0.00000000000E+00  0.49061163583E+03  0.17704896881E+04  0.17011566531E+04 0.  0.
        3    1    3    3  502    0  0.34481903352E+03 -0.42997965861E+03 -0.42894113990E+03  0.69840760620E+03  0.10100000352E+00 0. -1.
       -3    1    3    3    0  502 -0.34481903352E+03  0.42997965861E+03  0.91955277573E+03  0.10720820819E+04  0.10100000352E+00 0.  1.
</event>
<event>
 5   0  0.7455669E-06  0.1699816E+04  0.7818609E-02  0.8761470E-01
        1   -1    0    0  501    0  0.00000000000E+00  0.00000000000E+00  0.11786669298E+04  0.11786669299E+04  0.50400001928E-02 0. -1.
       -1   -1    0    0    0  501  0.00000000000E+00  0.00000000000E+00 -0.61284769187E+03  0.61284769189E+03  0.50400001928E-02 0.  1.
    10030    2    1    2    0    0  0.00000000000E+00  0.00000000000E+00  0.56581923798E+03  0.17915146217E+04  0.16998156458E+04 0.  0.
        4    1    3    3  502    0 -0.51720897144E+03 -0.15377245587E+02  0.99352287586E+03  0.11201923485E+04  0.12699999809E+01 0. -1.
       -4    1    3    3    0  502  0.51720897144E+03  0.15377245587E+02 -0.42770363789E+03  0.67132227327E+03  0.12699999809E+01 0.  1.
</event>
<event>
 5   0  0.1423543E-05  0.1699561E+04  0.7818609E-02  0.8761615E-01
        2   -1    0    0  501    0  0.00000000000E+00  0.00000000000E+00  0.17212170350E+04  0.17212170350E+04  0.25500000920E-02 0. -1.
       -2   -1    0    0    0  501  0.00000000000E+00  0.00000000000E+00 -0.41954441897E+03  0.41954441898E+03  0.25500000920E-02 0.  1.
    10030    2    1    2    0    0  0.00000000000E+00  0.00000000000E+00  0.13016726160E+04  0.21407614540E+04  0.16995611209E+04 0.  0.
        3    1    3    3  502    0  0.73795581067E+02 -0.37388228041E+03 -0.30587127213E+03  0.48866245272E+03  0.10100000352E+00 0.  1.
       -3    1    3    3    0  502 -0.73795581067E+02  0.37388228041E+03  0.16075438882E+04  0.16520990013E+04  0.10100000352E+00 0. -1.
</event>
<event>
 5   0  0.1441756E-05  0.1699717E+04  0.7818609E-02  0.8761526E-01
        2   -1    0    0  501    0  0.00000000000E+00  0.00000000000E+00  0.92669104159E+03  0.92669104159E+03  0.25500000920E-02 0. -1.
       -2   -1    0    0    0  501  0.00000000000E+00  0.00000000000E+00 -0.77939662845E+03  0.77939662846E+03  0.25500000920E-02 0.  1.
    10030    2    1    2    0    0  0.00000000000E+00  0.00000000000E+00  0.14729441314E+03  0.17060876701E+04  0.16997174747E+04 0.  0.
        5    1    3    3  502    0 -0.64671333986E+03 -0.55066674597E+03  0.10142354654E+03  0.85544189450E+03  0.46999998093E+01 0. -1.
       -5    1    3    3    0  502  0.64671333986E+03  0.55066674597E+03  0.45870866596E+02  0.85064577555E+03  0.46999998093E+01 0.  1.
</event>
<event>
 5   0  0.1441756E-05  0.1699939E+04  0.7818609E-02  0.8761399E-01
       -2   -1    0    0    0  501  0.00000000000E+00  0.00000000000E+00  0.69309769692E+03  0.69309769692E+03  0.25500000920E-02 0. -1.
        2   -1    0    0  501    0  0.00000000000E+00  0.00000000000E+00 -0.10423472386E+04  0.10423472386E+04  0.25500000920E-02 0.  1.
    10030    2    1    2    0    0  0.00000000000E+00  0.00000000000E+00 -0.34924954164E+03  0.17354449355E+04  0.16999393759E+04 0.  0.
        5    1    3    3  502    0 -0.87028666167E+01 -0.64479380844E+03 -0.73989683116E+03  0.98148061929E+03  0.46999998093E+01 0.  1.
       -5    1    3    3    0  502  0.87028666167E+01  0.64479380844E+03  0.39064728952E+03  0.75396431619E+03  0.46999998093E+01 0. -1.
</event>
<event>
 5   0  0.7082527E-06  0.1699857E+04  0.7818609E-02  0.8761446E-01
       -1   -1    0    0    0  501  0.00000000000E+00  0.00000000000E+00  0.11768330187E+04  0.11768330187E+04  0.50400001928E-02 0.  1.
        1   -1    0    0  501    0  0.00000000000E+00  0.00000000000E+00 -0.61383258775E+03  0.61383258777E+03  0.50400001928E-02 0. -1.
    10030    2    1    2    0    0  0.00000000000E+00  0.00000000000E+00  0.56300043091E+03  0.17906656064E+04  0.16998570025E+04 0.  0.
        1    1    3    3  502    0  0.76360349537E+03  0.34594958937E+03  0.42900568635E+03  0.94170977242E+03  0.50400001928E-02 0.  1.
       -1    1    3    3    0  502 -0.76360349537E+03 -0.34594958937E+03  0.13399474455E+03  0.84895583402E+03  0.50400001928E-02 0. -1.
</event>
<event>
 5   0  0.1374441E-05  0.1699922E+04  0.7818609E-02  0.8761409E-01
        2   -1    0    0  501    0  0.00000000000E+00  0.00000000000E+00  0.10340796154E+04  0.10340796154E+04  0.25500000920E-02 0.  1.
       -2   -1    0    0    0  501  0.00000000000E+00  0.00000000000E+00 -0.69862448916E+03  0.69862448917E+03  0.25500000920E-02 0. -1.
    10030    2    1    2    0    0  0.00000000000E+00  0.00000000000E+00  0.33545512627E+03  0.17327041046E+04  0.16999215783E+04 0.  0.
        1    1    3    3  502    0  0.27220058620E+03  0.79427003574E+03  0.32984081072E+02  0.84026543332E+03  0.50400001928E-02 0. -1.
       -1    1    3    3    0  502 -0.27220058620E+03 -0.79427003574E+03  0.30247104520E+03  0.89243867129E+03  0.50400001928E-02 0.  1.
</event>
<event>
 5   0  0.1374441E-05  0.1695877E+04  0.7818609E-02  0.8763719E-01
       -2   -1    0    0    0  501  0.00000000000E+00  0.00000000000E+00  0.53174866798E+03  0.53174866798E+03  0.25500000920E-02 0.  1.
        2   -1    0    0  501    0  0.00000000000E+00  0.00000000000E+00 -0.13521417289E+04  0.13521417289E+04  0.25500000920E-02 0. -1.
    10030    2    1    2    0    0  0.00000000000E+00  0.00000000000E+00 -0.82039306092E+03  0.18838903969E+04  0.16958768390E+04 0.  0.
        1    1    3    3  502    0 -0.31248077138E+03  0.21525083481E+03 -0.12525681144E+04  0.13087795978E+04  0.50400001928E-02 0. -1.
       -1    1    3    3    0  502  0.31248077138E+03 -0.21525083481E+03  0.43217505347E+03  0.57511079910E+03  0.50400001928E-02 0.  1.
</event>
<event>
 5   0  0.7461128E-06  0.1700260E+04  0.7818609E-02  0.8761216E-01
       -1   -1    0    0    0  501  0.00000000000E+00  0.00000000000E+00  0.29210405056E+03  0.29210405060E+03  0.50400001928E-02 0.  1.
        1   -1    0    0  501    0  0.00000000000E+00  0.00000000000E+00 -0.24741912689E+04  0.24741912689E+04  0.50400001928E-02 0. -1.
    10030    2    1    2    0    0  0.00000000000E+00  0.00000000000E+00 -0.21820872184E+04  0.27662953195E+04  0.17002603231E+04 0.  0.
        3    1    3    3  502    0  0.78130359192E+03  0.23414304076E+03 -0.14810550315E+04  0.16907933886E+04  0.10100000352E+00 0.  1.
       -3    1    3    3    0  502 -0.78130359192E+03 -0.23414304076E+03 -0.70103218683E+03  0.10755019309E+04  0.10100000352E+00 0. -1.
</event>
<event>
 5   0  0.1419012E-05  0.1699894E+04  0.7818609E-02  0.8761425E-01
        2   -1    0    0  501    0  0.00000000000E+00  0.00000000000E+00  0.22321957236E+04  0.22321957236E+04  0.25500000920E-02 0.  1.
       -2   -1    0    0    0  501  0.00000000000E+00  0.00000000000E+00 -0.32363187846E+03  0.32363187847E+03  0.25500000920E-02 0. -1.
    10030    2    1    2    0    0  0.00000000000E+00  0.00000000000E+00  0.19085638451E+04  0.25558276020E+04  0.16998937556E+04 0.  0.
        4    1    3    3  502    0  0.54384988320E+03  0.22814411188E+03  0.18744885272E+04  0.19650779330E+04  0.12699999809E+01 0.  1.
       -4    1    3    3    0  502 -0.54384988320E+03 -0.22814411188E+03  0.34075317872E+02  0.59074966901E+03  0.12699999809E+01 0. -1.
</event>
<event>
 5   0  0.7476457E-06  0.1700001E+04  0.7818609E-02  0.8761364E-01
        1   -1    0    0  501    0  0.00000000000E+00  0.00000000000E+00  0.16045020877E+04  0.16045020877E+04  0.50400001928E-02 0. -1.
       -1   -1    0    0    0  501  0.00000000000E+00  0.00000000000E+00 -0.45029623419E+03  0.45029623422E+03  0.50400001928E-02 0.  1.
    10030    2    1    2    0    0  0.00000000000E+00  0.00000000000E+00  0.11542058535E+04  0.20547983219E+04  0.17000014681E+04 0.  0.
        2    1    3    3  502    0  0.33438389837E+03  0.77673041992E+03  0.47327736843E+03  0.96907904951E+03  0.25500000920E-02 0.  1.
       -2    1    3    3    0  502 -0.33438389837E+03 -0.77673041992E+03  0.68092848509E+03  0.10857192724E+04  0.25500000920E-02 0. -1.
</event>
<event>
 5   0  0.1435301E-05  0.1700363E+04  0.7818609E-02  0.8761157E-01
       -2   -1    0    0    0  501  0.00000000000E+00  0.00000000000E+00  0.33720750763E+03  0.33720750763E+03  0.25500000920E-02 0.  1.
        2   -1    0    0  501    0  0.00000000000E+00  0.00000000000E+00 -0.21435138281E+04  0.21435138281E+04  0.25500000920E-02 0. -1.
    10030    2    1    2    0    0  0.00000000000E+00  0.00000000000E+00 -0.18063063205E+04  0.24807213358E+04  0.17003634383E+04 0.  0.
        2    1    3    3  502    0  0.56036053450E+03 -0.39547604461E+03 -0.16361196232E+04  0.17740610621E+04  0.25500000920E-02 0. -1.
       -2    1    3    3    0  502 -0.56036053450E+03  0.39547604461E+03 -0.17018669730E+03  0.70666027370E+03  0.25500000920E-02 0.  1.
</event>
<event>
 5   0  0.7082527E-06  0.1699917E+04  0.7818609E-02  0.8761412E-01
       -1   -1    0    0    0  501  0.00000000000E+00  0.00000000000E+00  0.32753083618E+03  0.32753083622E+03  0.50400001928E-02 0. -1.
        1   -1    0    0  501    0  0.00000000000E+00  0.00000000000E+00 -0.22056826232E+04  0.22056826232E+04  0.50400001928E-02 0.  1.
    10030    2    1    2    0    0  0.00000000000E+00  0.00000000000E+00 -0.18781517870E+04  0.25332134594E+04  0.16999165556E+04 0.  0.
        1    1    3    3  502    0 -0.37798244776E+03 -0.16129446372E+03 -0.20477901828E+04  0.20886194646E+04  0.50400001928E-02 0.  1.
       -1    1    3    3    0  502  0.37798244776E+03  0.16129446372E+03  0.16963839587E+03  0.44459399481E+03  0.50400001928E-02 0. -1.
</event>
<event>
 5   0  0.1435301E-05  0.1700116E+04  0.7818609E-02  0.8761298E-01
       -2   -1    0    0    0  501  0.00000000000E+00  0.00000000000E+00  0.15174107645E+04  0.15174107645E+04  0.25500000920E-02 0. -1.
        2   -1    0    0  501    0  0.00000000000E+00  0.00000000000E+00 -0.47620512528E+03  0.47620512529E+03  0.25500000920E-02 0.  1.
    10030    2    1    2    0    0  0.00000000000E+00  0.00000000000E+00  0.10412056392E+04  0.19936158898E+04  0.17001162116E+04 0.  0.
        2    1    3    3  502    0  0.39261637070E+03 -0.25281611948E+03 -0.31232737136E+03  0.56179354902E+03  0.25500000920E-02 0.  1.
       -2    1    3    3    0  502 -0.39261637070E+03  0.25281611948E+03  0.13535330106E+04  0.14318223408E+04  0.25500000920E-02 0. -1.
</event>
<event>
 5   0  0.1441756E-05  0.1699553E+04  0.7818609E-02  0.8761620E-01
       -2   -1    0    0    0  501  0.00000000000E+00  0.00000000000E+00  0.76430824749E+03  0.76430824749E+03  0.25500000920E-02 0. -1.
        2   -1    0    0  501    0  0.00000000000E+00  0.00000000000E+00 -0.94480173299E+03  0.94480173300E+03  0.25500000920E-02 0.  1.
    10030    2    1    2    0    0  0.00000000000E+00  0.00000000000E+00 -0.18049348551E+03  0.17091099805E+04  0.16995525962E+04 0.  0.
        5    1    3    3  502    0  0.25564461585E+03 -0.55180833557E+03 -0.68709173469E+03  0.91758582743E+03  0.46999998093E+01 0.  1.
       -5    1    3    3    0  502 -0.25564461585E+03  0.55180833557E+03  0.50659824919E+03  0.79152415307E+03  0.46999998093E+01 0. -1.
</event>
<event>
 5   0  0.1441756E-05  0.1700177E+04  0.7818609E-02  0.8761263E-01
        2   -1    0    0  501    0  0.00000000000E+00  0.00000000000E+00  0.18872832232E+04  0.18872832232E+04  0.25500000920E-02 0.  1.
       -2   -1    0    0    0  501  0.00000000000E+00  0.00000000000E+00 -0.38290529487E+03  0.38290529487E+03  0.25500000920E-02 0. -1.
    10030    2    1    2    0    0  0.00000000000E+00  0.00000000000E+00  0.15043779283E+04  0.22701885181E+04  0.17001773309E+04 0.  0.
        5    1    3    3  502    0 -0.74111918811E+03 -0.21283524176E+03  0.27433514081E+03  0.81843652815E+03  0.46999998093E+01 0. -1.
       -5    1    3    3    0  502  0.74111918811E+03  0.21283524176E+03  0.12300427875E+04  0.14517519899E+04  0.46999998093E+01 0.  1.
</event>
<event>
 5   0  0.1441756E-05  0.1700818E+04  0.7818609E-02  0.8760898E-01
        2   -1    0    0  501    0  0.00000000000E+00  0.00000000000E+00  0.19550210899E+04  0.19550210899E+04  0.25500000920E-02 0. -1.
       -2   -1    0    0    0  501  0.00000000000E+00  0.00000000000E+00 -0.36991705761E+03  0.36991705762E+03  0.25500000920E-02 0.  1.
    10030    2    1    2    0    0  0.00000000000E+00  0.00000000000E+00  0.15851040323E+04  0.23249381475E+04  0.17008182139E+04 0.  0.
        5    1    3    3  502    0 -0.31394966073E+03 -0.75331511208E+03  0.46583740540E+03  0.93972050411E+03  0.46999998093E+01 0.  1.
       -5    1    3    3    0  502  0.31394966073E+03  0.75331511208E+03  0.11192666269E+04  0.13852176434E+04  0.46999998093E+01 0. -1.
</event>
<event>
 5   0  0.7082527E-06  0.1700586E+04  0.7818609E-02  0.8761030E-01
       -1   -1    0    0    0  501  0.00000000000E+00  0.00000000000E+00  0.51022774433E+03  0.51022774435E+03  0.50400001928E-02 0. -1.
        1   -1    0    0  501    0  0.00000000000E+00  0.00000000000E+00 -0.14170100777E+04  0.14170100777E+04  0.50400001928E-02 0.  1.
    10030    2    1    2    0    0  0.00000000000E+00  0.00000000000E+00 -0.90678233332E+03  0.19272378220E+04  0.17005856117E+04 0.  0.
        1    1    3    3  502    0 -0.14096367556E+03 -0.82351767615E+02  0.49229955739E+03  0.51866311387E+03  0.50400001928E-02 0. -1.
       -1    1    3    3    0  502  0.14096367556E+03  0.82351767615E+02 -0.13990818907E+04  0.14085747081E+04  0.50400001928E-02 0.  1.
</event>
<event>
 5   0  0.7461128E-06  0.1699062E+04  0.7818609E-02  0.8761900E-01
        1   -1    0    0  501    0  0.00000000000E+00  0.00000000000E+00  0.76465200122E+03  0.76465200123E+03  0.50400001928E-02 0.  1.
       -1   -1    0    0    0  501  0.00000000000E+00  0.00000000000E+00 -0.94383136551E+03  0.94383136552E+03  0.50400001928E-02 0. -1.
    10030    2    1    2    0    0  0.00000000000E+00  0.00000000000E+00 -0.17917936429E+03  0.17084833668E+04  0.16990615557E+04 0.  0.
        3    1    3    3  502    0 -0.54865373700E+03  0.27211383507E+03  0.50243289235E+03  0.79215256351E+03  0.10100000352E+00 0.  1.
       -3    1    3    3    0  502  0.54865373700E+03 -0.27211383507E+03 -0.68161225664E+03  0.91633080324E+03  0.10100000352E+00 0. -1.
</event>
<event>
 5   0  0.7461128E-06  0.1699495E+04  0.7818609E-02  0.8761652E-01
        1   -1    0    0  501    0  0.00000000000E+00  0.00000000000E+00  0.76977156977E+03  0.76977156978E+03  0.50400001928E-02 0.  1.
       -1   -1    0    0    0  501  0.00000000000E+00  0.00000000000E+00 -0.93803308384E+03  0.93803308385E+03  0.50400001928E-02 0. -1.
    10030    2    1    2    0    0  0.00000000000E+00  0.00000000000E+00 -0.16826151407E+03  0.17078046536E+04  0.16994954539E+04 0.  0.
        3    1    3    3  502    0  0.50918366295E+03 -0.24793987828E+03  0.55247191734E+03  0.79118102575E+03  0.10100000352E+00 0.  1.
       -3    1    3    3    0  502 -0.50918366295E+03  0.24793987828E+03 -0.72073343140E+03  0.91662362789E+03  0.10100000352E+00 0. -1.
</event>
<event>
 5   0  0.1374441E-05  0.1700666E+04  0.7818609E-02  0.8760985E-01
        2   -1    0    0  501    0  0.00000000000E+00  0.00000000000E+00  0.85149770106E+03  0.85149770107E+03  0.25500000920E-02 0. -1.
       -2   -1    0    0    0  501  0.00000000000E+00  0.00000000000E+00 -0.84916973546E+03  0.84916973546E+03  0.25500000920E-02 0.  1.
    10030    2    1    2    0    0  0.00000000000E+00  0.00000000000E+00  0.23279656043E+01  0.17006674365E+04  0.17006658432E+04 0.  0.
        1    1    3    3  502    0 -0.27614946101E+03  0.70413076962E+03 -0.38743310282E+03  0.84980178555E+03  0.50400001928E-02 0.  1.
       -1    1    3    3    0  502  0.27614946101E+03 -0.70413076962E+03  0.38976106842E+03  0.85086565098E+03  0.50400001928E-02 0. -1.
</event>
<event>
 5   0  0.7583716E-06  0.1698714E+04  0.7818609E-02  0.8762098E-01
        1   -1    0    0  501    0  0.00000000000E+00  0.00000000000E+00  0.94882998572E+03  0.94882998573E+03  0.50400001928E-02 0. -1.
       -1   -1    0    0    0  501  0.00000000000E+00  0.00000000000E+00 -0.76031221142E+03  0.76031221143E+03  0.50400001928E-02 0.  1.
    10030    2    1    2    0    0  0.00000000000E+00  0.00000000000E+00  0.18851777430E+03  0.17091421972E+04  0.16987136601E+04 0.  0.
        5    1    3    3  502    0  0.70106433103E+03  0.28848089517E+03 -0.29107072198E+03  0.81206938023E+03  0.46999998093E+01 0.  1.
       -5    1    3    3    0  502 -0.70106433103E+03 -0.28848089517E+03  0.47958849628E+03  0.89707281693E+03  0.46999998093E+01 0. -1.
</event>
<event>
 5   0  0.1374441E-05  0.1700104E+04  0.7818609E-02  0.8761305E-01
        2   -1    0    0  501    0  0.00000000000E+00  0.00000000000E+00  0.10412131667E+04  0.10412131667E+04  0.25500000920E-02 0.  1.
       -2   -1    0    0    0  501  0.00000000000E+00  0.00000000000E+00 -0.69398670476E+03  0.69398670476E+03  0.25500000920E-02 0. -1.
    10030    2    1    2    0    0  0.00000000000E+00  0.00000000000E+00  0.34722646193E+03  0.17351998714E+04  0.17001036374E+04 0.  0.
        1    1    3    3  502    0  0.58205658721E+03 -0.61950874047E+03  0.17088518200E+03  0.86705403274E+03  0.50400001928E-02 0.  1.
       -1    1    3    3    0  502 -0.58205658721E+03  0.61950874047E+03  0.17634127992E+03  0.86814583871E+03  0.50400001928E-02 0. -1.
</event>
<event>
 5   0  0.1423543E-05  0.1700479E+04  0.7818609E-02  0.8761091E-01
       -2   -1    0    0    0  501  0.00000000000E+00  0.00000000000E+00  0.54368315568E+03  0.54368315569E+03  0.25500000920E-02 0. -1.
        2   -1    0    0  501    0  0.00000000000E+00  0.00000000000E+00 -0.13296484527E+04  0.13296484527E+04  0.25500000920E-02 0.  1.
    10030    2    1    2    0    0  0.00000000000E+00  0.00000000000E+00 -0.78596529706E+03  0.18733316084E+04  0.17004793051E+04 0.  0.
        3    1    3    3  502    0  0.69141295767E+03  0.36706850732E+03 -0.27413872742E+02  0.78328966399E+03  0.10100000352E+00 0.  1.
       -3    1    3    3    0  502 -0.69141295767E+03 -0.36706850732E+03 -0.75855142431E+03  0.10900419444E+04  0.10100000352E+00 0. -1.
</event>
<event>
 5   0  0.1435301E-05  0.1700275E+04  0.7818609E-02  0.8761208E-01
       -2   -1    0    0    0  501  0.00000000000E+00  0.00000000000E+00  0.36883078628E+03  0.36883078629E+03  0.25500000920E-02 0. -1.
        2   -1    0    0  501    0  0.00000000000E+00  0.00000000000E+00 -0.19595267231E+04  0.19595267231E+04  0.25500000920E-02 0.  1.
    10030    2    1    2    0    0  0.00000000000E+00  0.00000000000E+00 -0.15906959368E+04  0.23283575094E+04  0.17002750154E+04 0.  0.
        2    1    3    3  502    0 -0.19258003018E+03 -0.30539197932E+03 -0.18493260633E+04  0.18842394267E+04  0.25500000920E-02 0.  1.
       -2    1    3    3    0  502  0.19258003018E+03  0.30539197932E+03  0.25863012641E+03  0.44411808267E+03  0.25500000920E-02 0. -1.
</event>
<event>
 5   0  0.7476457E-06  0.1700629E+04  0.7818609E-02  0.8761005E-01
        1   -1    0    0  501    0  0.00000000000E+00  0.00000000000E+00  0.11079623062E+04  0.11079623062E+04  0.50400001928E-02 0.  1.
       -1   -1    0    0    0  501  0.00000000000E+00  0.00000000000E+00 -0.65258098867E+03  0.65258098869E+03  0.50400001928E-02 0. -1.
    10030    2    1    2    0    0  0.00000000000E+00  0.00000000000E+00  0.45538131752E+03  0.17605432949E+04  0.17006294566E+04 0.  0.
        2    1    3    3  502    0 -0.21535102682E+03  0.81473197670E+03  0.11024388021E+03  0.84989291781E+03  0.25500000920E-02 0.  1.
       -2    1    3    3    0  502  0.21535102682E+03 -0.81473197670E+03  0.34513743732E+03  0.91065037707E+03  0.25500000920E-02 0. -1.
</event>
<event>
 5   0  0.1441756E-05  0.1700363E+04  0.7818609E-02  0.8761157E-01
        2   -1    0    0  501    0  0.00000000000E+00  0.00000000000E+00  0.24360052255E+04  0.24360052255E+04  0.25500000920E-02 0.  1.
       -2   -1    0    0    0  501  0.00000000000E+00  0.00000000000E+00 -0.29671893355E+03  0.29671893356E+03  0.25500000920E-02 0. -1.
    10030    2    1    2    0    0  0.00000000000E+00  0.00000000000E+00  0.21392862920E+04  0.27327241591E+04  0.17003633408E+04 0.  0.
        5    1    3    3  502    0  0.22633441615E+03  0.45982637113E+03  0.21598006587E+04  0.22197811908E+04  0.46999998093E+01 0.  1.
       -5    1    3    3    0  502 -0.22633441615E+03 -0.45982637113E+03 -0.20514366722E+02  0.51294296833E+03  0.46999998093E+01 0. -1.
</event>
<event>
 5   0  0.5229750E-06  0.1700632E+04  0.7818609E-02  0.8761004E-01
       -3   -1    0    0    0  501  0.00000000000E+00  0.00000000000E+00  0.12500628211E+04  0.12500628252E+04  0.10100000352E+00 0. -1.
        3   -1    0    0  501    0  0.00000000000E+00  0.00000000000E+00 -0.57840109212E+03  0.57840110094E+03  0.10100000352E+00 0.  1.
    10030    2    1    2    0    0  0.00000000000E+00  0.00000000000E+00  0.67166172901E+03  0.18284639262E+04  0.17006324856E+04 0.  0.
        3    1    3    3  502    0 -0.15074662993E+03 -0.13916484790E+03 -0.55139125021E+03  0.58832280454E+03  0.10100000352E+00 0.  1.
       -3    1    3    3    0  502  0.15074662993E+03  0.13916484790E+03  0.12230529792E+04  0.12401411216E+04  0.10100000352E+00 0. -1.
</event>
<event>
 5   0  0.1441756E-05  0.1698944E+04  0.7818609E-02  0.8761967E-01
       -2   -1    0    0    0  501  0.00000000000E+00  0.00000000000E+00  0.84383095761E+03  0.84383095762E+03  0.25500000920E-02 0. -1.
        2   -1    0    0  501    0  0.00000000000E+00  0.00000000000E+00 -0.85515124680E+03  0.85515124681E+03  0.25500000920E-02 0.  1.
    10030    2    1    2    0    0  0.00000000000E+00  0.00000000000E+00 -0.11320289192E+02  0.16989822044E+04  0.16989444906E+04 0.  0.
        5    1    3    3  502    0  0.35772382049E+03  0.44965390406E+03 -0.63131453688E+03  0.85365982666E+03  0.46999998093E+01 0.  1.
       -5    1    3    3    0  502 -0.35772382049E+03 -0.44965390406E+03  0.61999424769E+03  0.84532237776E+03  0.46999998093E+01 0. -1.
</event>
<event>
 5   0  0.1374441E-05  0.1699658E+04  0.7818609E-02  0.8761559E-01
       -2   -1    0    0    0  501  0.00000000000E+00  0.00000000000E+00  0.46711311811E+03  0.46711311812E+03  0.25500000920E-02 0.  1.
        2   -1    0    0  501    0  0.00000000000E+00  0.00000000000E+00 -0.15461127760E+04  0.15461127760E+04  0.25500000920E-02 0. -1.
    10030    2    1    2    0    0  0.00000000000E+00  0.00000000000E+00 -0.10789996579E+04  0.20132258941E+04  0.16996582712E+04 0.  0.
        1    1    3    3  502    0 -0.41960118616E+03 -0.38209786289E+03 -0.12887725706E+04  0.14081898562E+04  0.50400001928E-02 0. -1.
       -1    1    3    3    0  502  0.41960118616E+03  0.38209786289E+03  0.20977291274E+03  0.60503603793E+03  0.50400001928E-02 0.  1.
</event>
<event>
 5   0  0.1419012E-05  0.1699767E+04  0.7818609E-02  0.8761497E-01
       -2   -1    0    0    0  501  0.00000000000E+00  0.00000000000E+00  0.41638262855E+03  0.41638262856E+03  0.25500000920E-02 0. -1.
        2   -1    0    0  501    0  0.00000000000E+00  0.00000000000E+00 -0.17347067896E+04  0.17347067896E+04  0.25500000920E-02 0.  1.
    10030    2    1    2    0    0  0.00000000000E+00  0.00000000000E+00 -0.13183241610E+04  0.21510894181E+04  0.16997667755E+04 0.  0.
        4    1    3    3  502    0 -0.58066878526E+03  0.31401412856E+03 -0.13365631502E+04  0.14906990905E+04  0.12699999809E+01 0.  1.
       -4    1    3    3    0  502  0.58066878526E+03 -0.31401412856E+03  0.18238989229E+02  0.66039032757E+03  0.12699999809E+01 0. -1.
</event>
<event>
 5   0  0.7476457E-06  0.1699999E+04  0.7818609E-02  0.8761365E-01
        1   -1    0    0  501    0  0.00000000000E+00  0.00000000000E+00  0.12882873519E+04  0.12882873519E+04  0.50400001928E-02 0. -1.
       -1   -1    0    0    0  501  0.00000000000E+00  0.00000000000E+00 -0.56082139727E+03  0.56082139730E+03  0.50400001928E-02 0.  1.
    10030    2    1    2    0    0  0.00000000000E+00  0.00000000000E+00  0.72746595460E+03  0.18491087492E+04  0.16999989562E+04 0.  0.
        2    1    3    3  502    0  0.37484066012E+03 -0.23288570570E+03 -0.42645632479E+03  0.61368254771E+03  0.25500000920E-02 0.  1.
       -2    1    3    3    0  502 -0.37484066012E+03  0.23288570570E+03  0.11539222794E+04  0.12354262015E+04  0.25500000920E-02 0. -1.
</event>
<event>
 5   0  0.7476457E-06  0.1700298E+04  0.7818609E-02  0.8761195E-01
        1   -1    0    0  501    0  0.00000000000E+00  0.00000000000E+00  0.34555405198E+03  0.34555405202E+03  0.50400001928E-02 0.  1.
       -1   -1    0    0    0  501  0.00000000000E+00  0.00000000000E+00 -0.20915775774E+04  0.20915775774E+04  0.50400001928E-02 0. -1.
    10030    2    1    2    0    0  0.00000000000E+00  0.00000000000E+00 -0.17460235255E+04  0.24371316295E+04  0.17002977468E+04 0.  0.
        2    1    3    3  502    0  0.51971494701E+03  0.40572055913E+03 -0.10373849560E+03  0.66743874155E+03  0.25500000920E-02 0.  1.
       -2    1    3    3    0  502 -0.51971494701E+03 -0.40572055913E+03 -0.16422850298E+04  0.17696928879E+04  0.25500000920E-02 0. -1.
</event>
<event>
 5   0  0.1441756E-05  0.1687568E+04  0.7818609E-02  0.8768487E-01
        2   -1    0    0  501    0  0.00000000000E+00  0.00000000000E+00  0.15437447294E+04  0.15437447294E+04  0.25500000920E-02 0.  1.
       -2   -1    0    0    0  501  0.00000000000E+00  0.00000000000E+00 -0.46119752654E+03  0.46119752655E+03  0.25500000920E-02 0. -1.
    10030    2    1    2    0    0  0.00000000000E+00  0.00000000000E+00  0.10825472029E+04  0.20049422560E+04  0.16875677774E+04 0.  0.
        5    1    3    3  502    0 -0.86627044340E+02 -0.15711006114E+03  0.15208061621E+04  0.15313592944E+04  0.46999998093E+01 0.  1.
       -5    1    3    3    0  502  0.86627044340E+02  0.15711006114E+03 -0.43825895920E+03  0.47358296151E+03  0.46999998093E+01 0. -1.
</event>
<event>
 5   0  0.1423543E-05  0.1699919E+04  0.7818609E-02  0.8761410E-01
        2   -1    0    0  501    0  0.00000000000E+00  0.00000000000E+00  0.11723930634E+04  0.11723930634E+04  0.25500000920E-02 0.  1.
       -2   -1    0    0    0  501  0.00000000000E+00  0.00000000000E+00 -0.61620233153E+03  0.61620233154E+03  0.25500000920E-02 0. -1.
    10030    2    1    2    0    0  0.00000000000E+00  0.00000000000E+00  0.55619073182E+03  0.17885953949E+04  0.16999192206E+04 0.  0.
        3    1    3    3  502    0 -0.56542515553E+03 -0.40096337005E+02  0.94447221832E+03  0.11015176368E+04  0.10100000352E+00 0.  1.
       -3    1    3    3    0  502  0.56542515553E+03  0.40096337005E+02 -0.38828148650E+03  0.68707775812E+03  0.10100000352E+00 0. -1.
</event>
<event>
 5   0  0.7476457E-06  0.1700576E+04  0.7818609E-02  0.8761036E-01
        1   -1    0    0  501    0  0.00000000000E+00  0.00000000000E+00  0.15375445355E+04  0.15375445355E+04  0.50400001928E-02 0.  1.
       -1   -1    0    0    0  501  0.00000000000E+00  0.00000000000E+00 -0.47022331652E+03  0.47022331655E+03  0.50400001928E-02 0. -1.
    10030    2    1    2    0    0  0.00000000000E+00  0.00000000000E+00  0.10673212190E+04  0.20077678521E+04  0.17005755388E+04 0.  0.
        2    1    3    3  502    0 -0.45253131610E+03 -0.54991788306E+03 -0.14790952814E+02  0.71232930759E+03  0.25500000920E-02 0. -1.
       -2    1    3    3    0  502  0.45253131610E+03  0.54991788306E+03  0.10821121718E+04  0.12954385445E+04  0.25500000920E-02 0.  1.
</event>
<event>
 5   0  0.1419012E-05  0.1700133E+04  0.7818609E-02  0.8761288E-01
       -2   -1    0    0    0  501  0.00000000000E+00  0.00000000000E+00  0.78835378640E+03  0.78835378640E+03  0.25500000920E-02 0.  1.
        2   -1    0    0  501    0  0.00000000000E+00  0.00000000000E+00 -0.91661023117E+03  0.91661023118E+03  0.25500000920E-02 0. -1.
    10030    2    1    2    0    0  0.00000000000E+00  0.00000000000E+00 -0.12825644478E+03  0.17049640176E+04  0.17001331082E+04 0.  0.
        4    1    3    3  502    0  0.74381737070E+02  0.84557005271E+03 -0.18279864155E+02  0.84903305188E+03  0.12699999809E+01 0. -1.
       -4    1    3    3    0  502 -0.74381737070E+02 -0.84557005271E+03 -0.10997658062E+03  0.85593096570E+03  0.12699999809E+01 0.  1.
</event>
<event>
 5   0  0.7455669E-06  0.1700314E+04  0.7818609E-02  0.8761185E-01
        1   -1    0    0  501    0  0.00000000000E+00  0.00000000000E+00  0.81978983271E+03  0.81978983272E+03  0.50400001928E-02 0.  1.
       -1   -1    0    0    0  501  0.00000000000E+00  0.00000000000E+00 -0.88164884420E+03  0.88164884421E+03  0.50400001928E-02 0. -1.
    10030    2    1    2    0    0  0.00000000000E+00  0.00000000000E+00 -0.61859011491E+02  0.17014386769E+04  0.17003138046E+04 0.  0.
        4    1    3    3  502    0  0.53978180847E+03  0.11972329851E+03 -0.67716405700E+03  0.87421441418E+03  0.12699999809E+01 0. -1.
       -4    1    3    3    0  502 -0.53978180847E+03 -0.11972329851E+03  0.61530504551E+03  0.82722426275E+03  0.12699999809E+01 0.  1.
</event>
<event>
 5   0  0.7461128E-06  0.1702278E+04  0.7818609E-02  0.8760066E-01
       -1   -1    0    0    0  501  0.00000000000E+00  0.00000000000E+00  0.10053789083E+04  0.10053789083E+04  0.50400001928E-02 0.  1.
        1   -1    0    0  501    0  0.00000000000E+00  0.00000000000E+00 -0.72056170594E+03  0.72056170595E+03  0.50400001928E-02 0. -1.
    10030    2    1    2    0    0  0.00000000000E+00  0.00000000000E+00  0.28481720240E+03  0.17259406143E+04  0.17022779342E+04 0.  0.
        3    1    3    3  502    0 -0.71308120897E+02  0.74129164356E+03 -0.27543579259E+03  0.79401702435E+03  0.10100000352E+00 0.  1.
       -3    1    3    3    0  502  0.71308120897E+02 -0.74129164356E+03  0.56025299498E+03  0.93192358995E+03  0.10100000352E+00 0. -1.
</event>
<event>
 5   0  0.1374441E-05  0.1700169E+04  0.7818609E-02  0.8761268E-01
        2   -1    0    0  501    0  0.00000000000E+00  0.00000000000E+00  0.79423115415E+03  0.79423115415E+03  0.25500000920E-02 0.  1.
       -2   -1    0    0    0  501  0.00000000000E+00  0.00000000000E+00 -0.90986580937E+03  0.90986580937E+03  0.25500000920E-02 0. -1.
    10030    2    1    2    0    0  0.00000000000E+00  0.00000000000E+00 -0.11563465522E+03  0.17040969635E+04  0.17001691350E+04 0.  0.
        1    1    3    3  502    0 -0.55405776688E+03  0.44814183376E+03 -0.52238857492E+03  0.88357282407E+03  0.50400001928E-02 0. -1.
       -1    1    3    3    0  502  0.55405776688E+03 -0.44814183376E+03  0.40675391970E+03  0.82052413945E+03  0.50400001928E-02 0.  1.
</event>
<event>
 5   0  0.7476457E-06  0.1700364E+04  0.7818609E-02  0.8761157E-01
        1   -1    0    0  501    0  0.00000000000E+00  0.00000000000E+00  0.85963343284E+03  0.85963343286E+03  0.50400001928E-02 0.  1.
       -1   -1    0    0    0  501  0.00000000000E+00  0.00000000000E+00 -0.84083409144E+03  0.84083409146E+03  0.50400001928E-02 0. -1.
    10030    2    1    2    0    0  0.00000000000E+00  0.00000000000E+00  0.18799341404E+02  0.17004675243E+04  0.17003636041E+04 0.  0.
        2    1    3    3  502    0 -0.82963373082E+03 -0.11902228229E+03 -0.13326480666E+03  0.84865654990E+03  0.25500000920E-02 0.  1.
       -2    1    3    3    0  502  0.82963373082E+03  0.11902228229E+03  0.15206414806E+03  0.85181097441E+03  0.25500000920E-02 0. -1.
</event>
<event>
 5   0  0.1374441E-05  0.1703026E+04  0.7818609E-02  0.8759640E-01
        2   -1    0    0  501    0  0.00000000000E+00  0.00000000000E+00  0.24388132387E+04  0.24388132387E+04  0.25500000920E-02 0. -1.
       -2   -1    0    0    0  501  0.00000000000E+00  0.00000000000E+00 -0.29730635061E+03  0.29730635062E+03  0.25500000920E-02 0.  1.
    10030    2    1    2    0    0  0.00000000000E+00  0.00000000000E+00  0.21415068881E+04  0.27361195893E+04  0.17030263226E+04 0.  0.
        1    1    3    3  502    0  0.56255834121E+03  0.54094280311E+03  0.16179106461E+04  0.17963089551E+04  0.50400001928E-02 0.  1.
       -1    1    3    3    0  502 -0.56255834121E+03 -0.54094280311E+03  0.52359624202E+03  0.93981063421E+03  0.50400001928E-02 0. -1.
</event>
<event>
 5   0  0.1423543E-05  0.1700141E+04  0.7818609E-02  0.8761284E-01
        2   -1    0    0  501    0  0.00000000000E+00  0.00000000000E+00  0.63482924937E+03  0.63482924938E+03  0.25500000920E-02 0. -1.
       -2   -1    0    0    0  501  0.00000000000E+00  0.00000000000E+00 -0.11382904737E+04  0.11382904737E+04  0.25500000920E-02 0.  1.
    10030    2    1    2    0    0  0.00000000000E+00  0.00000000000E+00 -0.50346122429E+03  0.17731197230E+04  0.17001412729E+04 0.  0.
        3    1    3    3  502    0 -0.47723352621E+02  0.71394000950E+02 -0.11337550204E+04  0.11370026730E+04  0.10100000352E+00 0.  1.
       -3    1    3    3    0  502  0.47723352621E+02 -0.71394000950E+02  0.63029379614E+03  0.63611705009E+03  0.10100000352E+00 0. -1.
</event>
<event>
 5   0  0.7082527E-06  0.1692987E+04  0.7818609E-02  0.8765374E-01
       -1   -1    0    0    0  501  0.00000000000E+00  0.00000000000E+00  0.68995990540E+03  0.68995990542E+03  0.50400001928E-02 0.  1.
        1   -1    0    0  501    0  0.00000000000E+00  0.00000000000E+00 -0.10385402105E+04  0.10385402106E+04  0.50400001928E-02 0. -1.
    10030    2    1    2    0    0  0.00000000000E+00  0.00000000000E+00 -0.34858030515E+03  0.17285001160E+04  0.16929868345E+04 0.  0.
        1    1    3    3  502    0 -0.73692479923E+03 -0.12758972611E+03 -0.57910942044E+03  0.94588848116E+03  0.50400001928E-02 0. -1.
       -1    1    3    3    0  502  0.73692479923E+03  0.12758972611E+03  0.23052911529E+03  0.78261163481E+03  0.50400001928E-02 0.  1.
</event>
<event>
 5   0  0.7082527E-06  0.1699465E+04  0.7818609E-02  0.8761669E-01
       -1   -1    0    0    0  501  0.00000000000E+00  0.00000000000E+00  0.15023257139E+04  0.15023257139E+04  0.50400001928E-02 0. -1.
        1   -1    0    0  501    0  0.00000000000E+00  0.00000000000E+00 -0.48061847064E+03  0.48061847066E+03  0.50400001928E-02 0.  1.
    10030    2    1    2    0    0  0.00000000000E+00  0.00000000000E+00  0.10217072433E+04  0.19829441846E+04  0.16994651948E+04 0.  0.
        1    1    3    3  502    0 -0.60407034265E+03 -0.42985889314E+03  0.99527557395E+03  0.12410693434E+04  0.50400001928E-02 0. -1.
       -1    1    3    3    0  502  0.60407034265E+03  0.42985889314E+03  0.26431669329E+02  0.74187484123E+03  0.50400001928E-02 0.  1.
</event>
<event>
 5   0  0.1374441E-05  0.1701068E+04  0.7818609E-02  0.8760755E-01
       -2   -1    0    0    0  501  0.00000000000E+00  0.00000000000E+00  0.79276071619E+03  0.79276071619E+03  0.25500000920E-02 0. -1.
        2   -1    0    0  501    0  0.00000000000E+00  0.00000000000E+00 -0.91251788671E+03  0.91251788671E+03  0.25500000920E-02 0.  1.
    10030    2    1    2    0    0  0.00000000000E+00  0.00000000000E+00 -0.11975717052E+03  0.17052786029E+04  0.17010682919E+04 0.  0.
        1    1    3    3  502    0 -0.29183354669E+03 -0.29181195056E+03  0.68566053439E+03  0.80028207646E+03  0.50400001928E-02 0. -1.
       -1    1    3    3    0  502  0.29183354669E+03  0.29181195056E+03 -0.80541770491E+03  0.90499652644E+03  0.50400001928E-02 0.  1.
</event>
<event>
 5   0  0.7476457E-06  0.1698766E+04  0.7818609E-02  0.8762069E-01
       -1   -1    0    0    0  501  0.00000000000E+00  0.00000000000E+00  0.84549630698E+03  0.84549630700E+03  0.50400001928E-02 0. -1.
        1   -1    0    0  501    0  0.00000000000E+00  0.00000000000E+00 -0.85328746979E+03  0.85328746981E+03  0.50400001928E-02 0.  1.
    10030    2    1    2    0    0  0.00000000000E+00  0.00000000000E+00 -0.77911628094E+01  0.16987837768E+04  0.16987659103E+04 0.  0.
        2    1    3    3  502    0 -0.52648644403E+03  0.18116836891E+03 -0.64533934780E+03  0.85233375357E+03  0.25500000920E-02 0.  1.
       -2    1    3    3    0  502  0.52648644403E+03 -0.18116836891E+03  0.63754818499E+03  0.84645002324E+03  0.25500000920E-02 0. -1.
</event>
<event>
 5   0  0.7082527E-06  0.1700027E+04  0.7818609E-02  0.8761349E-01
       -1   -1    0    0    0  501  0.00000000000E+00  0.00000000000E+00  0.36523534426E+03  0.36523534430E+03  0.50400001928E-02 0.  1.
        1   -1    0    0  501    0  0.00000000000E+00  0.00000000000E+00 -0.19782396433E+04  0.19782396433E+04  0.50400001928E-02 0. -1.
    10030    2    1    2    0    0  0.00000000000E+00  0.00000000000E+00 -0.16130042990E+04  0.23434749876E+04  0.17000271024E+04 0.  0.
        1    1    3    3  502    0 -0.47646542256E+03 -0.46371435595E+03 -0.76456862311E+02  0.66925029296E+03  0.50400001928E-02 0.  1.
       -1    1    3    3    0  502  0.47646542256E+03  0.46371435595E+03 -0.15365474367E+04  0.16742246946E+04  0.50400001928E-02 0. -1.
</event>
<event>
 5   0  0.1423543E-05  0.1701498E+04  0.7818609E-02  0.8760511E-01
       -2   -1    0    0    0  501  0.00000000000E+00  0.00000000000E+00  0.35120759845E+03  0.35120759846E+03  0.25500000920E-02 0.  1.
        2   -1    0    0  501    0  0.00000000000E+00  0.00000000000E+00 -0.20608143080E+04  0.20608143080E+04  0.25500000920E-02 0. -1.
    10030    2    1    2    0    0  0.00000000000E+00  0.00000000000E+00 -0.17096067095E+04  0.24120219065E+04  0.17014977449E+04 0.  0.
        3    1    3    3  502    0  0.48006175892E+03  0.23406180312E+03  0.83945097904E+02  0.54063944522E+03  0.10100000352E+00 0.  1.
       -3    1    3    3    0  502 -0.48006175892E+03 -0.23406180312E+03 -0.17935518075E+04  0.18713824612E+04  0.10100000352E+00 0. -1.
</event>
<event>
 5   0  0.7455669E-06  0.1699558E+04  0.7818609E-02  0.8761616E-01
        1   -1    0    0  501    0  0.00000000000E+00  0.00000000000E+00  0.13198494922E+04  0.13198494922E+04  0.50400001928E-02 0. -1.
       -1   -1    0    0    0  501  0.00000000000E+00  0.00000000000E+00 -0.54712657482E+03  0.54712657484E+03  0.50400001928E-02 0.  1.
    10030    2    1    2    0    0  0.00000000000E+00  0.00000000000E+00  0.77272291741E+03  0.18669760671E+04  0.16995584509E+04 0.  0.
        4    1    3    3  502    0 -0.70942193827E+03  0.14959637745E+03 -0.10054412103E+03  0.73196263280E+03  0.12699999809E+01 0.  1.
       -4    1    3    3    0  502  0.70942193827E+03 -0.14959637745E+03  0.87326703845E+03  0.11350134343E+04  0.12699999809E+01 0. -1.
</event>
<event>
 5   0  0.7082527E-06  0.1700005E+04  0.7818609E-02  0.8761362E-01
        1   -1    0    0  501    0  0.00000000000E+00  0.00000000000E+00  0.16203187627E+04  0.16203187627E+04  0.50400001928E-02 0. -1.
       -1   -1    0    0    0  501  0.00000000000E+00  0.00000000000E+00 -0.44590253007E+03  0.44590253010E+03  0.50400001928E-02 0.  1.
    10030    2    1    2    0    0  0.00000000000E+00  0.00000000000E+00  0.11744162326E+04  0.20662212928E+04  0.17000049833E+04 0.  0.
        1    1    3    3  502    0  0.24823816341E+03  0.16602813954E+03 -0.38003825855E+03  0.48333901858E+03  0.50400001928E-02 0.  1.
       -1    1    3    3    0  502 -0.24823816341E+03 -0.16602813954E+03  0.15544544912E+04  0.15828822742E+04  0.50400001928E-02 0. -1.
</event>
<event>
 5   0  0.7455669E-06  0.1700066E+04  0.7818609E-02  0.8761327E-01
        1   -1    0    0  501    0  0.00000000000E+00  0.00000000000E+00  0.12378043049E+04  0.12378043049E+04  0.50400001928E-02 0. -1.
       -1   -1    0    0    0  501  0.00000000000E+00  0.00000000000E+00 -0.58374019986E+03  0.58374019988E+03  0.50400001928E-02 0.  1.
    10030    2    1    2    0    0  0.00000000000E+00  0.00000000000E+00  0.65406410502E+03  0.18215445048E+04  0.17000660368E+04 0.  0.
        4    1    3    3  502    0 -0.55096624347E+03  0.17665764952E+03 -0.34018672845E+03  0.67119322828E+03  0.12699999809E+01 0.  1.
       -4    1    3    3    0  502  0.55096624347E+03 -0.17665764952E+03  0.99425083347E+03  0.11503512765E+04  0.12699999809E+01 0. -1.
</event>
<event>
 5   0  0.1435301E-05  0.1698108E+04  0.7818609E-02  0.8762444E-01
       -2   -1    0    0    0  501  0.00000000000E+00  0.00000000000E+00  0.40557176545E+03  0.40557176546E+03  0.25500000920E-02 0.  1.
        2   -1    0    0  501    0  0.00000000000E+00  0.00000000000E+00 -0.17774734324E+04  0.17774734324E+04  0.25500000920E-02 0. -1.
    10030    2    1    2    0    0  0.00000000000E+00  0.00000000000E+00 -0.13719016670E+04  0.21830451979E+04  0.16981084041E+04 0.  0.
        2    1    3    3  502    0  0.78640866785E+03  0.29537678155E+03 -0.84448362938E+03  0.11911501317E+04  0.25500000920E-02 0. -1.
       -2    1    3    3    0  502 -0.78640866785E+03 -0.29537678155E+03 -0.52741803761E+03  0.99189506620E+03  0.25500000920E-02 0.  1.
</event>
<event>
 5   0  0.1419012E-05  0.1700221E+04  0.7818609E-02  0.8761238E-01
       -2   -1    0    0    0  501  0.00000000000E+00  0.00000000000E+00  0.50899774014E+03  0.50899774015E+03  0.25500000920E-02 0.  1.
        2   -1    0    0  501    0  0.00000000000E+00  0.00000000000E+00 -0.14198249702E+04  0.14198249702E+04  0.25500000920E-02 0. -1.
    10030    2    1    2    0    0  0.00000000000E+00  0.00000000000E+00 -0.91082723006E+03  0.19288227104E+04  0.17002208107E+04 0.  0.
        4    1    3    3  502    0 -0.77339471799E+03  0.31075966980E+03 -0.26566744872E+03  0.87480956122E+03  0.12699999809E+01 0.  1.
       -4    1    3    3    0  502  0.77339471799E+03 -0.31075966980E+03 -0.64515978134E+03  0.10540131491E+04  0.12699999809E+01 0. -1.
</event>
<event>
 5   0  0.1423543E-05  0.1699540E+04  0.7818609E-02  0.8761627E-01
       -2   -1    0    0    0  501  0.00000000000E+00  0.00000000000E+00  0.76832386134E+03  0.76832386134E+03  0.25500000920E-02 0. -1.
        2   -1    0    0  501    0  0.00000000000E+00  0.00000000000E+00 -0.93984990979E+03  0.93984990980E+03  0.25500000920E-02 0.  1.
    10030    2    1    2    0    0  0.00000000000E+00  0.00000000000E+00 -0.17152604846E+03  0.17081737711E+04  0.16995400693E+04 0.  0.
        3    1    3    3  502    0 -0.84254785576E+03 -0.10651336157E+03 -0.55996427047E+02  0.85109787656E+03  0.10100000352E+00 0.  1.
       -3    1    3    3    0  502  0.84254785576E+03  0.10651336157E+03 -0.11552962141E+03  0.85707589458E+03  0.10100000352E+00 0. -1.
</event>
<event>
 5   0  0.7461128E-06  0.1700059E+04  0.7818609E-02  0.8761331E-01
       -1   -1    0    0    0  501  0.00000000000E+00  0.00000000000E+00  0.40084047577E+03  0.40084047580E+03  0.50400001928E-02 0. -1.
        1   -1    0    0  501    0  0.00000000000E+00  0.00000000000E+00 -0.18025878214E+04  0.18025878214E+04  0.50400001928E-02 0.  1.
    10030    2    1    2    0    0  0.00000000000E+00  0.00000000000E+00 -0.14017473456E+04  0.22034282972E+04  0.17000590107E+04 0.  0.
        3    1    3    3  502    0 -0.13118584051E+03 -0.24320589530E+03  0.34100101071E+03  0.43890834096E+03  0.10100000352E+00 0. -1.
       -3    1    3    3    0  502  0.13118584051E+03  0.24320589530E+03 -0.17427483563E+04  0.17645199563E+04  0.10100000352E+00 0.  1.
</event>
<event>
 5   0  0.1441756E-05  0.1699946E+04  0.7818609E-02  0.8761395E-01
       -2   -1    0    0    0  501  0.00000000000E+00  0.00000000000E+00  0.11532923828E+04  0.11532923828E+04  0.25500000920E-02 0.  1.
        2   -1    0    0  501    0  0.00000000000E+00  0.00000000000E+00 -0.62642720044E+03  0.62642720045E+03  0.25500000920E-02 0. -1.
    10030    2    1    2    0    0  0.00000000000E+00  0.00000000000E+00  0.52686518238E+03  0.17797195833E+04  0.16999455505E+04 0.  0.
        5    1    3    3  502    0  0.37014043281E+03  0.34723423180E+03 -0.45036622695E+03  0.67854799396E+03  0.46999998093E+01 0. -1.
       -5    1    3    3    0  502 -0.37014043281E+03 -0.34723423180E+03  0.97723140933E+03  0.11011715893E+04  0.46999998093E+01 0.  1.
</event>
<event>
 5   0  0.1435301E-05  0.1699298E+04  0.7818609E-02  0.8761765E-01
        2   -1    0    0  501    0  0.00000000000E+00  0.00000000000E+00  0.11582346484E+04  0.11582346484E+04  0.25500000920E-02 0.  1.
       -2   -1    0    0    0  501  0.00000000000E+00  0.00000000000E+00 -0.62327920900E+03  0.62327920900E+03  0.25500000920E-02 0. -1.
    10030    2    1    2    0    0  0.00000000000E+00  0.00000000000E+00  0.53495543943E+03  0.17815138574E+04  0.16992981793E+04 0.  0.
        2    1    3    3  502    0 -0.30948164703E+02  0.75269366376E+02  0.11541390080E+04  0.11570048039E+04  0.25500000920E-02 0.  1.
       -2    1    3    3    0  502  0.30948164703E+02 -0.75269366376E+02 -0.61918356856E+03  0.62450905357E+03  0.25500000920E-02 0. -1.
</event>
<event>
 5   0  0.7461128E-06  0.1697175E+04  0.7818609E-02  0.8762977E-01
        1   -1    0    0  501    0  0.00000000000E+00  0.00000000000E+00  0.11397348050E+04  0.11397348051E+04  0.50400001928E-02 0.  1.
       -1   -1    0    0    0  501  0.00000000000E+00  0.00000000000E+00 -0.63181426789E+03  0.63181426791E+03  0.50400001928E-02 0. -1.
    10030    2    1    2    0    0  0.00000000000E+00  0.00000000000E+00  0.50792053716E+03  0.17715490730E+04  0.16971749603E+04 0.  0.
        3    1    3    3  502    0 -0.52572695558E+03 -0.40060894165E+03  0.80947024412E+03  0.10450447083E+04  0.10100000352E+00 0.  1.
       -3    1    3    3    0  502  0.52572695558E+03  0.40060894165E+03 -0.30154970696E+03  0.72650436470E+03  0.10100000352E+00 0. -1.
</event>
<event>
 5   0  0.1441756E-05  0.1699549E+04  0.7818609E-02  0.8761622E-01
        2   -1    0    0  501    0  0.00000000000E+00  0.00000000000E+00  0.14201482950E+04  0.14201482950E+04  0.25500000920E-02 0.  1.
       -2   -1    0    0    0  501  0.00000000000E+00  0.00000000000E+00 -0.50847960839E+03  0.50847960839E+03  0.25500000920E-02 0. -1.
    10030    2    1    2    0    0  0.00000000000E+00  0.00000000000E+00  0.91166868658E+03  0.19286279034E+04  0.16995487035E+04 0.  0.
        5    1    3    3  502    0  0.56656338778E+03 -0.54836770396E+03  0.81539061376E+03  0.11342773709E+04  0.46999998093E+01 0.  1.
       -5    1    3    3    0  502 -0.56656338778E+03  0.54836770396E+03  0.96278072813E+02  0.79435053246E+03  0.46999998093E+01 0. -1.
</event>
<event>
 5   0  0.5229750E-06  0.1700981E+04  0.7818609E-02  0.8760805E-01
        3   -1    0    0  501    0  0.00000000000E+00  0.00000000000E+00  0.78690080805E+03  0.78690081453E+03  0.10100000352E+00 0.  1.
       -3   -1    0    0    0  501  0.00000000000E+00  0.00000000000E+00 -0.91921858169E+03  0.91921858724E+03  0.10100000352E+00 0. -1.
    10030    2    1    2    0    0  0.00000000000E+00  0.00000000000E+00 -0.13231777364E+03  0.17061194018E+04  0.17009807230E+04 0.  0.
        2    1    3    3  502    0 -0.79480065228E+03 -0.19565508088E+03  0.16550393920E+03  0.83509313339E+03  0.25500000920E-02 0. -1.
       -2    1    3    3    0  502  0.79480065228E+03  0.19565508088E+03 -0.29782171284E+03  0.87102626837E+03  0.25500000920E-02 0.  1.
</event>
<event>
 5   0  0.1441756E-05  0.1700398E+04  0.7818609E-02  0.8761137E-01
        2   -1    0    0  501    0  0.00000000000E+00  0.00000000000E+00  0.19218996581E+04  0.19218996581E+04  0.25500000920E-02 0. -1.
       -2   -1    0    0    0  501  0.00000000000E+00  0.00000000000E+00 -0.37610624033E+03  0.37610624034E+03  0.25500000920E-02 0.  1.
    10030    2    1    2    0    0  0.00000000000E+00  0.00000000000E+00  0.15457934178E+04  0.22980058984E+04  0.17003981354E+04 0.  0.
        5    1    3    3  502    0  0.80950057467E+02  0.41875351962E+03 -0.22104885519E+03  0.48040827259E+03  0.46999998093E+01 0.  1.
       -5    1    3    3    0  502 -0.80950057467E+02 -0.41875351962E+03  0.17668422730E+04  0.18175976259E+04  0.46999998093E+01 0. -1.
</event>
<event>
 5   0  0.1374441E-05  0.1699547E+04  0.7818609E-02  0.8761623E-01
       -2   -1    0    0    0  501  0.00000000000E+00  0.00000000000E+00  0.70217266227E+03  0.70217266227E+03  0.25500000920E-02 0. -1.
        2   -1    0    0  501    0  0.00000000000E+00  0.00000000000E+00 -0.10284008621E+04  0.10284008621E+04  0.25500000920E-02 0.  1.
    10030    2    1    2    0    0  0.00000000000E+00  0.00000000000E+00 -0.32622819985E+03  0.17305735244E+04  0.16995469646E+04 0.  0.
        1    1    3    3  502    0  0.84284589005E+02  0.30498171990E+03 -0.96617986147E+03  0.10166716609E+04  0.50400001928E-02 0.  1.
       -1    1    3    3    0  502 -0.84284589005E+02 -0.30498171990E+03  0.63995166162E+03  0.71390186346E+03  0.50400001928E-02 0. -1.
</event>
<event>
 5   0  0.1419012E-05  0.1700716E+04  0.7818609E-02  0.8760956E-01
       -2   -1    0    0    0  501  0.00000000000E+00  0.00000000000E+00  0.78415207883E+03  0.78415207884E+03  0.25500000920E-02 0. -1.
        2   -1    0    0  501    0  0.00000000000E+00  0.00000000000E+00 -0.92215354872E+03  0.92215354872E+03  0.25500000920E-02 0.  1.
    10030    2    1    2    0    0  0.00000000000E+00  0.00000000000E+00 -0.13800146988E+03  0.17063056276E+04  0.17007158754E+04 0.  0.
        4    1    3    3  502    0 -0.62068971669E+03 -0.41297625404E+03 -0.47937062897E+03  0.88634244151E+03  0.12699999809E+01 0. -1.
       -4    1    3    3    0  502  0.62068971669E+03  0.41297625404E+03  0.34136915909E+03  0.81996318605E+03  0.12699999809E+01 0.  1.
</event>
<event>
 5   0  0.7461128E-06  0.1696631E+04  0.7818609E-02  0.8763288E-01
        1   -1    0    0  501    0  0.00000000000E+00  0.00000000000E+00  0.65681165348E+03  0.65681165350E+03  0.50400001928E-02 0. -1.
       -1   -1    0    0    0  501  0.00000000000E+00  0.00000000000E+00 -0.10956553593E+04  0.10956553593E+04  0.50400001928E-02 0.  1.
    10030    2    1    2    0    0  0.00000000000E+00  0.00000000000E+00 -0.43884370580E+03  0.17524670128E+04  0.16966310243E+04 0.  0.
        3    1    3    3  502    0  0.66848359779E+03 -0.22974032408E+03 -0.70388662299E+03  0.99755066300E+03  0.10100000352E+00 0.  1.
       -3    1    3    3    0  502 -0.66848359779E+03  0.22974032408E+03  0.26504291719E+03  0.75491634979E+03  0.10100000352E+00 0. -1.
</event>
<event>
 5   0  0.7455669E-06  0.1699327E+04  0.7818609E-02  0.8761748E-01
        1   -1    0    0  501    0  0.00000000000E+00  0.00000000000E+00  0.91558482294E+03  0.91558482296E+03  0.50400001928E-02 0.  1.
       -1   -1    0    0    0  501  0.00000000000E+00  0.00000000000E+00 -0.78848887625E+03  0.78848887627E+03  0.50400001928E-02 0. -1.
    10030    2    1    2    0    0  0.00000000000E+00  0.00000000000E+00  0.12709594669E+03  0.17040736992E+04  0.16993274531E+04 0.  0.
        4    1    3    3  502    0  0.25138818591E+02 -0.50169374319E+03  0.75073434975E+03  0.90328968164E+03  0.12699999809E+01 0.  1.
       -4    1    3    3    0  502 -0.25138818591E+02  0.50169374319E+03 -0.62363840306E+03  0.80078401759E+03  0.12699999809E+01 0. -1.
</event>
<event>
 5   0  0.1374441E-05  0.1699874E+04  0.7818609E-02  0.8761436E-01
       -2   -1    0    0    0  501  0.00000000000E+00  0.00000000000E+00  0.70155091599E+03  0.70155091599E+03  0.25500000920E-02 0.  1.
        2   -1    0    0  501    0  0.00000000000E+00  0.00000000000E+00 -0.10297087216E+04  0.10297087216E+04  0.25500000920E-02 0. -1.
    10030    2    1    2    0    0  0.00000000000E+00  0.00000000000E+00 -0.32815780562E+03  0.17312596376E+04  0.16998742269E+04 0.  0.
        1    1    3    3  502    0 -0.26190774819E+03  0.51748237413E+01  0.65941070799E+03  0.70953853257E+03  0.50400001928E-02 0.  1.
       -1    1    3    3    0  502  0.26190774819E+03 -0.51748237413E+01 -0.98756851361E+03  0.10217211050E+04  0.50400001928E-02 0. -1.
</event>
<event>
 5   0  0.7082527E-06  0.1698426E+04  0.7818609E-02  0.8762263E-01
       -1   -1    0    0    0  501  0.00000000000E+00  0.00000000000E+00  0.11252281160E+04  0.11252281160E+04  0.50400001928E-02 0. -1.
        1   -1    0    0  501    0  0.00000000000E+00  0.00000000000E+00 -0.64090344411E+03  0.64090344413E+03  0.50400001928E-02 0.  1.
    10030    2    1    2    0    0  0.00000000000E+00  0.00000000000E+00  0.48432467189E+03  0.17661315601E+04  0.16984258300E+04 0.  0.
        1    1    3    3  502    0  0.68317286306E+03 -0.27726746184E+03 -0.19601432321E+03  0.76290498828E+03  0.50400001928E-02 0. -1.
       -1    1    3    3    0  502 -0.68317286306E+03  0.27726746184E+03  0.68033899509E+03  0.10032265719E+04  0.50400001928E-02 0.  1.
</event>
<event>
 5   0  0.1419012E-05  0.1700669E+04  0.7818609E-02  0.8760983E-01
        2   -1    0    0  501    0  0.00000000000E+00  0.00000000000E+00  0.60708064765E+03  0.60708064765E+03  0.25500000920E-02 0.  1.
       -2   -1    0    0    0  501  0.00000000000E+00  0.00000000000E+00 -0.11910583861E+04  0.11910583861E+04  0.25500000920E-02 0. -1.
    10030    2    1    2    0    0  0.00000000000E+00  0.00000000000E+00 -0.58397773840E+03  0.17981390337E+04  0.17006686878E+04 0.  0.
        4    1    3    3  502    0 -0.46953838754E+03  0.26608274483E+03 -0.98676542144E+03  0.11247106003E+04  0.12699999809E+01 0. -1.
       -4    1    3    3    0  502  0.46953838754E+03 -0.26608274483E+03  0.40278768304E+03  0.67342843345E+03  0.12699999809E+01 0.  1.
</event>
<event>
 5   0  0.1441756E-05  0.1700951E+04  0.7818609E-02  0.8760822E-01
       -2   -1    0    0    0  501  0.00000000000E+00  0.00000000000E+00  0.11716227132E+04  0.11716227132E+04  0.25500000920E-02 0.  1.
        2   -1    0    0  501    0  0.00000000000E+00  0.00000000000E+00 -0.61735656931E+03  0.61735656932E+03  0.25500000920E-02 0. -1.
    10030    2    1    2    0    0  0.00000000000E+00  0.00000000000E+00  0.55426614390E+03  0.17889792825E+04  0.17009514735E+04 0.  0.
        5    1    3    3  502    0  0.79985697871E+03  0.82165570407E+02  0.56853583191E+03  0.98477279080E+03  0.46999998093E+01 0.  1.
       -5    1    3    3    0  502 -0.79985697871E+03 -0.82165570407E+02 -0.14269688010E+02  0.80420649173E+03  0.46999998093E+01 0. -1.
</event>
<event>
 5   0  0.1441756E-05  0.1699626E+04  0.7818609E-02  0.8761577E-01
       -2   -1    0    0    0  501  0.00000000000E+00  0.00000000000E+00  0.87740945884E+03  0.87740945885E+03  0.25500000920E-02 0. -1.
        2   -1    0    0  501    0  0.00000000000E+00  0.00000000000E+00 -0.82308494585E+03  0.82308494586E+03  0.25500000920E-02 0.  1.
    10030    2    1    2    0    0  0.00000000000E+00  0.00000000000E+00  0.54324512991E+02  0.17004944047E+04  0.16996264495E+04 0.  0.
        5    1    3    3  502    0 -0.11350808331E+03  0.78032592300E+03  0.34413281111E+03  0.86037324038E+03  0.46999998093E+01 0. -1.
       -5    1    3    3    0  502  0.11350808331E+03 -0.78032592300E+03 -0.28980829812E+03  0.84012116432E+03  0.46999998093E+01 0.  1.
</event>
<event>
 5   0  0.7455669E-06  0.1700340E+04  0.7818609E-02  0.8761170E-01
       -1   -1    0    0    0  501  0.00000000000E+00  0.00000000000E+00  0.10211297785E+04  0.10211297785E+04  0.50400001928E-02 0.  1.
        1   -1    0    0  501    0  0.00000000000E+00  0.00000000000E+00 -0.70783308483E+03  0.70783308485E+03  0.50400001928E-02 0. -1.
    10030    2    1    2    0    0  0.00000000000E+00  0.00000000000E+00  0.31329669365E+03  0.17289628633E+04  0.17003404849E+04 0.  0.
        4    1    3    3  502    0  0.84374201096E+03 -0.74603904205E+02  0.23082495880E+03  0.87792260370E+03  0.12699999809E+01 0.  1.
       -4    1    3    3    0  502 -0.84374201096E+03  0.74603904205E+02  0.82471734854E+02  0.85104025964E+03  0.12699999809E+01 0. -1.
</event>
<event>
 5   0  0.7455669E-06  0.1699957E+04  0.7818609E-02  0.8761389E-01
        1   -1    0    0  501    0  0.00000000000E+00  0.00000000000E+00  0.51888060640E+03  0.51888060643E+03  0.50400001928E-02 0. -1.
       -1   -1    0    0    0  501  0.00000000000E+00  0.00000000000E+00 -0.13923502722E+04  0.13923502722E+04  0.50400001928E-02 0.  1.
    10030    2    1    2    0    0  0.00000000000E+00  0.00000000000E+00 -0.87346966584E+03  0.19112308787E+04  0.16999571214E+04 0.  0.
        4    1    3    3  502    0  0.67569175512E+03  0.81573027457E+01 -0.10164065684E+04  0.12205366913E+04  0.12699999809E+01 0.  1.
       -4    1    3    3    0  502 -0.67569175512E+03 -0.81573027457E+01  0.14293690255E+03  0.69069418742E+03  0.12699999809E+01 0. -1.
</event>
<event>
 5   0  0.7082527E-06  0.1700898E+04  0.7818609E-02  0.8760852E-01
        1   -1    0    0  501    0  0.00000000000E+00  0.00000000000E+00  0.22899588623E+04  0.22899588624E+04  0.50400001928E-02 0. -1.
       -1   -1    0    0    0  501  0.00000000000E+00  0.00000000000E+00 -0.31584130056E+03  0.31584130060E+03  0.50400001928E-02 0.  1.
    10030    2    1    2    0    0  0.00000000000E+00  0.00000000000E+00  0.19741175618E+04  0.26058001630E+04  0.17008980985E+04 0.  0.
        1    1    3    3  502    0 -0.26749366703E+03 -0.23755568984E+03 -0.19495552795E+03  0.40742266209E+03  0.50400001928E-02 0.  1.
       -1    1    3    3    0  502  0.26749366703E+03  0.23755568984E+03  0.21690730897E+04  0.21983775009E+04  0.50400001928E-02 0. -1.
</event>
<event>
 5   0  0.1441756E-05  0.1700723E+04  0.7818609E-02  0.8760952E-01
        2   -1    0    0  501    0  0.00000000000E+00  0.00000000000E+00  0.16226089219E+04  0.16226089219E+04  0.25500000920E-02 0.  1.
       -2   -1    0    0    0  501  0.00000000000E+00  0.00000000000E+00 -0.44564963649E+03  0.44564963650E+03  0.25500000920E-02 0. -1.
    10030    2    1    2    0    0  0.00000000000E+00  0.00000000000E+00  0.11769592854E+04  0.20682585584E+04  0.17007234651E+04 0.  0.
        5    1    3    3  502    0  0.32640854170E+03 -0.49042296294E+03 -0.15725737954E+03  0.60976158627E+03  0.46999998093E+01 0. -1.
       -5    1    3    3    0  502 -0.32640854170E+03  0.49042296294E+03  0.13342166649E+04  0.14584969721E+04  0.46999998093E+01 0.  1.
</event>
<event>
 5   0  0.1419012E-05  0.1712168E+04  0.7818609E-02  0.8754455E-01
        2   -1    0    0  501    0  0.00000000000E+00  0.00000000000E+00  0.10421332639E+04  0.10421332639E+04  0.25500000920E-02 0.  1.
       -2   -1    0    0    0  501  0.00000000000E+00  0.00000000000E+00 -0.70324988156E+03  0.70324988156E+03  0.25500000920E-02 0. -1.
    10030    2    1    2    0    0  0.00000000000E+00  0.00000000000E+00  0.33888338234E+03  0.17453831455E+04  0.17121683263E+04 0.  0.
        4    1    3    3  502    0 -0.29385848497E+03  0.56899664813E+03  0.74859011957E+03  0.98513896218E+03  0.12699999809E+01 0.  1.
       -4    1    3    3    0  502  0.29385848497E+03 -0.56899664813E+03 -0.40970673724E+03  0.76024418328E+03  0.12699999809E+01 0. -1.
</event>
<event>
 5   0  0.1374441E-05  0.1700171E+04  0.7818609E-02  0.8761267E-01
       -2   -1    0    0    0  501  0.00000000000E+00  0.00000000000E+00  0.40704404208E+03  0.40704404209E+03  0.25500000920E-02 0.  1.
        2   -1    0    0  501    0  0.00000000000E+00  0.00000000000E+00 -0.17753486741E+04  0.17753486741E+04  0.25500000920E-02 0. -1.
    10030    2    1    2    0    0  0.00000000000E+00  0.00000000000E+00 -0.13683046320E+04  0.21823927162E+04  0.17001706978E+04 0.  0.
        1    1    3    3  502    0  0.60178622977E+03 -0.40351252392E+03 -0.12548648800E+04  0.14490185956E+04  0.50400001928E-02 0. -1.
       -1    1    3    3    0  502 -0.60178622977E+03  0.40351252392E+03 -0.11343975192E+03  0.73337412052E+03  0.50400001928E-02 0.  1.
</event>
<event>
 5   0  0.1374441E-05  0.1699691E+04  0.7818609E-02  0.8761541E-01
       -2   -1    0    0    0  501  0.00000000000E+00  0.00000000000E+00  0.31918227733E+03  0.31918227734E+03  0.25500000920E-02 0.  1.
        2   -1    0    0  501    0  0.00000000000E+00  0.00000000000E+00 -0.22627728531E+04  0.22627728531E+04  0.25500000920E-02 0. -1.
    10030    2    1    2    0    0  0.00000000000E+00  0.00000000000E+00 -0.19435905757E+04  0.25819551304E+04  0.16996905511E+04 0.  0.
        1    1    3    3  502    0 -0.68919848186E+02 -0.51921398430E+03 -0.19884447742E+04  0.20562698575E+04  0.50400001928E-02 0. -1.
       -1    1    3    3    0  502  0.68919848186E+02  0.51921398430E+03  0.44854198452E+02  0.52568527287E+03  0.50400001928E-02 0.  1.
</event>
<event>
 5   0  0.7476457E-06  0.1700313E+04  0.7818609E-02  0.8761186E-01
       -1   -1    0    0    0  501  0.00000000000E+00  0.00000000000E+00  0.35635904737E+03  0.35635904741E+03  0.50400001928E-02 0. -1.
        1   -1    0    0  501    0  0.00000000000E+00  0.00000000000E+00 -0.20281965549E+04  0.20281965549E+04  0.50400001928E-02 0.  1.
    10030    2    1    2    0    0  0.00000000000E+00  0.00000000000E+00 -0.16718375075E+04  0.23845556023E+04  0.17003131385E+04 0.  0.
        2    1    3    3  502    0  0.46120952459E+03  0.66794096141E+03 -0.11904481167E+04  0.14408421399E+04  0.25500000920E-02 0. -1.
       -2    1    3    3    0  502 -0.46120952459E+03 -0.66794096141E+03 -0.48138939075E+03  0.94371346236E+03  0.25500000920E-02 0.  1.
</event>
<event>
 5   0  0.7583716E-06  0.1699865E+04  0.7818609E-02  0.8761441E-01
        1   -1    0    0  501    0  0.00000000000E+00  0.00000000000E+00  0.10711225144E+04  0.10711225144E+04  0.50400001928E-02 0. -1.
       -1   -1    0    0    0  501  0.00000000000E+00  0.00000000000E+00 -0.67441883257E+03  0.67441883258E+03  0.50400001928E-02 0.  1.
    10030    2    1    2    0    0  0.00000000000E+00  0.00000000000E+00  0.39670368184E+03  0.17455413470E+04  0.16998649308E+04 0.  0.
        5    1    3    3  502    0 -0.65180127127E+03  0.34558720305E+02  0.75733544459E+03  0.99980911578E+03  0.46999998093E+01 0. -1.
       -5    1    3    3    0  502  0.65180127127E+03 -0.34558720305E+02 -0.36063176274E+03  0.74573223122E+03  0.46999998093E+01 0.  1.
</event>
<event>
 5   0  0.1441756E-05  0.1700283E+04  0.7818609E-02  0.8761203E-01
       -2   -1    0    0    0  501  0.00000000000E+00  0.00000000000E+00  0.58595492571E+03  0.58595492572E+03  0.25500000920E-02 0.  1.
        2   -1    0    0  501    0  0.00000000000E+00  0.00000000000E+00 -0.12334406167E+04  0.12334406167E+04  0.25500000920E-02 0. -1.
    10030    2    1    2    0    0  0.00000000000E+00  0.00000000000E+00 -0.64748569099E+03  0.18193955424E+04  0.17002830411E+04 0.  0.
        5    1    3    3  502    0 -0.74405565208E+03 -0.90528865733E+01  0.11617548358E+03  0.75313982840E+03  0.46999998093E+01 0.  1.
       -5    1    3    3    0  502  0.74405565208E+03  0.90528865733E+01 -0.76366117457E+03  0.10662557140E+04  0.46999998093E+01 0. -1.
</event>
<event>
 5   0  0.7455669E-06  0.1700280E+04  0.7818609E-02  0.8761205E-01
        1   -1    0    0  501    0  0.00000000000E+00  0.00000000000E+00  0.16215462950E+04  0.16215462950E+04  0.50400001928E-02 0. -1.
       -1   -1    0    0    0  501  0.00000000000E+00  0.00000000000E+00 -0.44570925625E+03  0.44570925627E+03  0.50400001928E-02 0.  1.
    10030    2    1    2    0    0  0.00000000000E+00  0.00000000000E+00  0.11758370388E+04  0.20672555513E+04  0.17002802042E+04 0.  0.
        4    1    3    3  502    0 -0.37075235888E+03 -0.21391163720E+03 -0.30513580419E+03  0.52566621733E+03  0.12699999809E+01 0.  1.
       -4    1    3    3    0  502  0.37075235888E+03  0.21391163720E+03  0.14809728430E+04  0.15415893340E+04  0.12699999809E+01 0. -1.
</event>
<event>
 5   0  0.1435301E-05  0.1697503E+04  0.7818609E-02  0.8762790E-01
        2   -1    0    0  501    0  0.00000000000E+00  0.00000000000E+00  0.81187683594E+03  0.81187683595E+03  0.25500000920E-02 0. -1.
       -2   -1    0    0    0  501  0.00000000000E+00  0.00000000000E+00 -0.88730113312E+03  0.88730113312E+03  0.25500000920E-02 0.  1.
    10030    2    1    2    0    0  0.00000000000E+00  0.00000000000E+00 -0.75424297178E+02  0.16991779691E+04  0.16975031505E+04 0.  0.
        2    1    3    3  502    0 -0.79590789345E+03  0.25816130528E+03  0.10477506297E+03  0.84326416278E+03  0.25500000920E-02 0.  1.
       -2    1    3    3    0  502  0.79590789345E+03 -0.25816130528E+03 -0.18019936015E+03  0.85591380629E+03  0.25500000920E-02 0. -1.
</event>
<event>
 5   0  0.7082527E-06  0.1696263E+04  0.7818609E-02  0.8763499E-01
       -1   -1    0    0    0  501  0.00000000000E+00  0.00000000000E+00  0.34961894641E+03  0.34961894645E+03  0.50400001928E-02 0.  1.
        1   -1    0    0  501    0  0.00000000000E+00  0.00000000000E+00 -0.20574602394E+04  0.20574602394E+04  0.50400001928E-02 0. -1.
    10030    2    1    2    0    0  0.00000000000E+00  0.00000000000E+00 -0.17078412930E+04  0.24070791859E+04  0.16962630471E+04 0.  0.
        1    1    3    3  502    0  0.82332053022E+03  0.19914897653E+03 -0.79354733932E+03  0.11607042647E+04  0.50400001928E-02 0.  1.
       -1    1    3    3    0  502 -0.82332053022E+03 -0.19914897653E+03 -0.91429395368E+03  0.12463749212E+04  0.50400001928E-02 0. -1.
</event>
<event>
 5   0  0.1423543E-05  0.1699987E+04  0.7818609E-02  0.8761372E-01
        2   -1    0    0  501    0  0.00000000000E+00  0.00000000000E+00  0.18074276109E+04  0.18074276109E+04  0.25500000920E-02 0.  1.
       -2   -1    0    0    0  501  0.00000000000E+00  0.00000000000E+00 -0.39973312027E+03  0.39973312028E+03  0.25500000920E-02 0. -1.
    10030    2    1    2    0    0  0.00000000000E+00  0.00000000000E+00  0.14076944906E+04  0.22071607311E+04  0.16999866806E+04 0.  0.
        3    1    3    3  502    0 -0.33972937300E+03  0.52964085781E+03  0.14457814661E+04  0.15767750452E+04  0.10100000352E+00 0.  1.
       -3    1    3    3    0  502  0.33972937300E+03 -0.52964085781E+03 -0.38086975535E+02  0.63038568595E+03  0.10100000352E+00 0. -1.
</event>
<event>
 5   0  0.1441756E-05  0.1700169E+04  0.7818609E-02  0.8761268E-01
       -2   -1    0    0    0  501  0.00000000000E+00  0.00000000000E+00  0.55665857459E+03  0.55665857459E+03  0.25500000920E-02 0.  1.
        2   -1    0    0  501    0  0.00000000000E+00  0.00000000000E+00 -0.12981804816E+04  0.12981804816E+04  0.25500000920E-02 0. -1.
    10030    2    1    2    0    0  0.00000000000E+00  0.00000000000E+00 -0.74152190697E+03  0.18548390561E+04  0.17001685757E+04 0.  0.
        5    1    3    3  502    0  0.46605614311E+03 -0.50237522593E+03 -0.91954563485E+03  0.11468109961E+04  0.46999998093E+01 0. -1.
       -5    1    3    3    0  502 -0.46605614311E+03  0.50237522593E+03  0.17802372788E+03  0.70802806007E+03  0.46999998093E+01 0.  1.
</event>
<event>
 5   0  0.7082527E-06  0.1705243E+04  0.7818609E-02  0.8758380E-01
        1   -1    0    0  501    0  0.00000000000E+00  0.00000000000E+00  0.78583201933E+03  0.78583201935E+03  0.50400001928E-02 0. -1.
       -1   -1    0    0    0  501  0.00000000000E+00  0.00000000000E+00 -0.92508772171E+03  0.92508772173E+03  0.50400001928E-02 0.  1.
    10030    2    1    2    0    0  0.00000000000E+00  0.00000000000E+00 -0.13925570238E+03  0.17109197411E+04  0.17052431527E+04 0.  0.
        1    1    3    3  502    0 -0.73934383984E+03  0.25964022481E+02  0.35564646190E+03  0.82084581369E+03  0.50400001928E-02 0. -1.
       -1    1    3    3    0  502  0.73934383984E+03 -0.25964022481E+02 -0.49490216428E+03  0.89007392738E+03  0.50400001928E-02 0.  1.
</event>
<event>
 5   0  0.7455669E-06  0.1699690E+04  0.7818609E-02  0.8761541E-01
        1   -1    0    0  501    0  0.00000000000E+00  0.00000000000E+00  0.71497197228E+03  0.71497197230E+03  0.50400001928E-02 0. -1.
       -1   -1    0    0    0  501  0.00000000000E+00  0.00000000000E+00 -0.10101604363E+04  0.10101604364E+04  0.50400001928E-02 0.  1.
    10030    2    1    2    0    0  0.00000000000E+00  0.00000000000E+00 -0.29518846406E+03  0.17251324087E+04  0.16996898535E+04 0.  0.
        4    1    3    3  502    0 -0.15440248760E+03 -0.66968462090E+03 -0.65499462204E+03  0.94938779613E+03  0.12699999809E+01 0. -1.
       -4    1    3    3    0  502  0.15440248760E+03  0.66968462090E+03  0.35980615798E+03  0.77574461253E+03  0.12699999809E+01 0.  1.
</event>
<event>
 5   0  0.5229750E-06  0.1700248E+04  0.7818609E-02  0.8761223E-01
        3   -1    0    0  501    0  0.00000000000E+00  0.00000000000E+00  0.28070122065E+04  0.28070122083E+04  0.10100000352E+00 0.  1.
       -3   -1    0    0    0  501  0.00000000000E+00  0.00000000000E+00 -0.25746633066E+03  0.25746635047E+03  0.10100000352E+00 0. -1.
    10030    2    1    2    0    0  0.00000000000E+00  0.00000000000E+00  0.25495458758E+04  0.30644785588E+04  0.17002484125E+04 0.  0.
        2    1    3    3  502    0  0.27915088509E+03  0.66854384982E+03  0.47310253542E+03  0.86527573917E+03  0.25500000920E-02 0. -1.
       -2    1    3    3    0  502 -0.27915088509E+03 -0.66854384982E+03  0.20764433404E+04  0.21992028196E+04  0.25500000920E-02 0.  1.
</event>
<event>
 5   0  0.7583716E-06  0.1699880E+04  0.7818609E-02  0.8761433E-01
        1   -1    0    0  501    0  0.00000000000E+00  0.00000000000E+00  0.96666380972E+03  0.96666380973E+03  0.50400001928E-02 0.  1.
       -1   -1    0    0    0  501  0.00000000000E+00  0.00000000000E+00 -0.74731053389E+03  0.74731053390E+03  0.50400001928E-02 0. -1.
    10030    2    1    2    0    0  0.00000000000E+00  0.00000000000E+00  0.21935327583E+03  0.17139743436E+04  0.16998800520E+04 0.  0.
        5    1    3    3  502    0 -0.30193335621E+03  0.74685683551E+02  0.90720529799E+03  0.95905434967E+03  0.46999998093E+01 0.  1.
       -5    1    3    3    0  502  0.30193335621E+03 -0.74685683551E+02 -0.68785202215E+03  0.75491999397E+03  0.46999998093E+01 0. -1.
</event>
<event>
 5   0  0.1441756E-05  0.1699765E+04  0.7818609E-02  0.8761498E-01
        2   -1    0    0  501    0  0.00000000000E+00  0.00000000000E+00  0.97996451554E+03  0.97996451554E+03  0.25500000920E-02 0. -1.
       -2   -1    0    0    0  501  0.00000000000E+00  0.00000000000E+00 -0.73706768795E+03  0.73706768796E+03  0.25500000920E-02 0.  1.
    10030    2    1    2    0    0  0.00000000000E+00  0.00000000000E+00  0.24289682759E+03  0.17170322035E+04  0.16997649011E+04 0.  0.
        5    1    3    3  502    0  0.77679769531E+03 -0.22951991606E+03  0.38132443876E+03  0.89527898942E+03  0.46999998093E+01 0. -1.
       -5    1    3    3    0  502 -0.77679769531E+03  0.22951991606E+03 -0.13842761117E+03  0.82175321407E+03  0.46999998093E+01 0.  1.
</event>
<event>
 5   0  0.1441756E-05  0.1698945E+04  0.7818609E-02  0.8761966E-01
       -2   -1    0    0    0  501  0.00000000000E+00  0.00000000000E+00  0.79196079819E+03  0.79196079820E+03  0.25500000920E-02 0. -1.
        2   -1    0    0  501    0  0.00000000000E+00  0.00000000000E+00 -0.91116102360E+03  0.91116102360E+03  0.25500000920E-02 0.  1.
    10030    2    1    2    0    0  0.00000000000E+00  0.00000000000E+00 -0.11920022541E+03  0.17031218218E+04  0.16989453335E+04 0.  0.
        5    1    3    3  502    0  0.62140331688E+03 -0.57708748086E+03 -0.10390960573E+02  0.84811679906E+03  0.46999998093E+01 0.  1.
       -5    1    3    3    0  502 -0.62140331688E+03  0.57708748086E+03 -0.10880926484E+03  0.85500502274E+03  0.46999998093E+01 0. -1.
</event>
<event>
 5   0  0.1423543E-05  0.1699923E+04  0.7818609E-02  0.8761408E-01
        2   -1    0    0  501    0  0.00000000000E+00  0.00000000000E+00  0.15687068040E+04  0.15687068040E+04  0.25500000920E-02 0. -1.
       -2   -1    0    0    0  501  0.00000000000E+00  0.00000000000E+00 -0.46052884948E+03  0.46052884948E+03  0.25500000920E-02 0.  1.
    10030    2    1    2    0    0  0.00000000000E+00  0.00000000000E+00  0.11081779545E+04  0.20292356535E+04  0.16999232213E+04 0.  0.
        3    1    3    3  502    0  0.22094488354E+03 -0.13653063168E+03 -0.41199829356E+03  0.48703168177E+03  0.10100000352E+00 0.  1.
       -3    1    3    3    0  502 -0.22094488354E+03  0.13653063168E+03  0.15201762481E+04  0.15422039717E+04  0.10100000352E+00 0. -1.
</event>
<event>
 5   0  0.1441756E-05  0.1701370E+04  0.7818609E-02  0.8760583E-01
        2   -1    0    0  501    0  0.00000000000E+00  0.00000000000E+00  0.77789532873E+03  0.77789532873E+03  0.25500000920E-02 0.  1.
       -2   -1    0    0    0  501  0.00000000000E+00  0.00000000000E+00 -0.93028557241E+03  0.93028557241E+03  0.25500000920E-02 0. -1.
    10030    2    1    2    0    0  0.00000000000E+00  0.00000000000E+00 -0.15239024368E+03  0.17081809011E+04  0.17013698024E+04 0.  0.
        5    1    3    3  502    0 -0.40411760682E+03  0.70538439409E+03  0.17533631619E+03  0.83165082658E+03  0.46999998093E+01 0.  1.
       -5    1    3    3    0  502  0.40411760682E+03 -0.70538439409E+03 -0.32772655987E+03  0.87653007456E+03  0.46999998093E+01 0. -1.
</event>
<event>
 5   0  0.7476457E-06  0.1700553E+04  0.7818609E-02  0.8761049E-01
        1   -1    0    0  501    0  0.00000000000E+00  0.00000000000E+00  0.14078474721E+04  0.14078474721E+04  0.50400001928E-02 0.  1.
       -1   -1    0    0    0  501  0.00000000000E+00  0.00000000000E+00 -0.51352856662E+03  0.51352856664E+03  0.50400001928E-02 0. -1.
    10030    2    1    2    0    0  0.00000000000E+00  0.00000000000E+00  0.89431890551E+03  0.19213760388E+04  0.17005527271E+04 0.  0.
        2    1    3    3  502    0  0.28156925196E+03 -0.77306765398E+03  0.20468783389E+03  0.84782778359E+03  0.25500000920E-02 0. -1.
       -2    1    3    3    0  502 -0.28156925196E+03  0.77306765398E+03  0.68963107162E+03  0.10735482552E+04  0.25500000920E-02 0.  1.
</event>
<event>
 5   0  0.1423543E-05  0.1700274E+04  0.7818609E-02  0.8761208E-01
        2   -1    0    0  501    0  0.00000000000E+00  0.00000000000E+00  0.71695489753E+03  0.71695489753E+03  0.25500000920E-02 0.  1.
       -2   -1    0    0    0  501  0.00000000000E+00  0.00000000000E+00 -0.10080589729E+04  0.10080589729E+04  0.25500000920E-02 0. -1.
    10030    2    1    2    0    0  0.00000000000E+00  0.00000000000E+00 -0.29110407538E+03  0.17250138704E+04  0.17002738810E+04 0.  0.
        3    1    3    3  502    0  0.40930980732E+03  0.64009354377E+03  0.24141429479E+03  0.79720457543E+03  0.10100000352E+00 0.  1.
       -3    1    3    3    0  502 -0.40930980732E+03 -0.64009354377E+03 -0.53251837017E+03  0.92780929502E+03  0.10100000352E+00 0. -1.
</event>
<event>
 5   0  0.1419012E-05  0.1700325E+04  0.7818609E-02  0.8761179E-01
        2   -1    0    0  501    0  0.00000000000E+00  0.00000000000E+00  0.11302562804E+04  0.11302562804E+04  0.25500000920E-02 0. -1.
       -2   -1    0    0    0  501  0.00000000000E+00  0.00000000000E+00 -0.63947994933E+03  0.63947994934E+03  0.25500000920E-02 0.  1.
    10030    2    1    2    0    0  0.00000000000E+00  0.00000000000E+00  0.49077633105E+03  0.17697362297E+04  0.17003249441E+04 0.  0.
        4    1    3    3  502    0 -0.63748847457E+02  0.25420239262E+03 -0.59638675547E+03  0.65143038535E+03  0.12699999809E+01 0.  1.
       -4    1    3    3    0  502  0.63748847457E+02 -0.25420239262E+03  0.10871630865E+04  0.11183058444E+04  0.12699999809E+01 0. -1.
</event>
<event>
 5   0  0.1423543E-05  0.1699942E+04  0.7818609E-02  0.8761397E-01
        2   -1    0    0  501    0  0.00000000000E+00  0.00000000000E+00  0.44965038427E+03  0.44965038427E+03  0.25500000920E-02 0.  1.
       -2   -1    0    0    0  501  0.00000000000E+00  0.00000000000E+00 -0.16066944696E+04  0.16066944696E+04  0.25500000920E-02 0. -1.
    10030    2    1    2    0    0  0.00000000000E+00  0.00000000000E+00 -0.11570440853E+04  0.20563448539E+04  0.16999420998E+04 0.  0.
        3    1    3    3  502    0 -0.45811266315E+02 -0.84379285229E+03 -0.46788166963E+03  0.96591837992E+03  0.10100000352E+00 0.  1.
       -3    1    3    3    0  502  0.45811266315E+02  0.84379285229E+03 -0.68916241571E+03  0.10904264740E+04  0.10100000352E+00 0. -1.
</event>
<event>
 5   0  0.7476457E-06  0.1701734E+04  0.7818609E-02  0.8760376E-01
       -1   -1    0    0    0  501  0.00000000000E+00  0.00000000000E+00  0.28121127707E+03  0.28121127711E+03  0.50400001928E-02 0. -1.
        1   -1    0    0  501    0  0.00000000000E+00  0.00000000000E+00 -0.25744868007E+04  0.25744868007E+04  0.50400001928E-02 0.  1.
    10030    2    1    2    0    0  0.00000000000E+00  0.00000000000E+00 -0.22932755236E+04  0.28556980778E+04  0.17017340816E+04 0.  0.
        2    1    3    3  502    0  0.39999930577E+03  0.27081350317E+03  0.28800973401E+02  0.48391000629E+03  0.25500000920E-02 0. -1.
       -2    1    3    3    0  502 -0.39999930577E+03 -0.27081350317E+03 -0.23220764970E+04  0.23717880715E+04  0.25500000920E-02 0.  1.
</event>
<event>
 5   0  0.1435301E-05  0.1699185E+04  0.7818609E-02  0.8761830E-01
        2   -1    0    0  501    0  0.00000000000E+00  0.00000000000E+00  0.91581224888E+03  0.91581224889E+03  0.25500000920E-02 0. -1.
       -2   -1    0    0    0  501  0.00000000000E+00  0.00000000000E+00 -0.78816047009E+03  0.78816047010E+03  0.25500000920E-02 0.  1.
    10030    2    1    2    0    0  0.00000000000E+00  0.00000000000E+00  0.12765177879E+03  0.17039727190E+04  0.16991845251E+04 0.  0.
        2    1    3    3  502    0  0.19975309763E+03  0.33259528095E+03 -0.69413870333E+03  0.79520403695E+03  0.25500000920E-02 0.  1.
       -2    1    3    3    0  502 -0.19975309763E+03 -0.33259528095E+03  0.82179048212E+03  0.90876868203E+03  0.25500000920E-02 0. -1.
</event>
<event>
 5   0  0.7455669E-06  0.1699908E+04  0.7818609E-02  0.8761417E-01
       -1   -1    0    0    0  501  0.00000000000E+00  0.00000000000E+00  0.10998246596E+04  0.10998246596E+04  0.50400001928E-02 0. -1.
        1   -1    0    0  501    0  0.00000000000E+00  0.00000000000E+00 -0.65685142881E+03  0.65685142883E+03  0.50400001928E-02 0.  1.
    10030    2    1    2    0    0  0.00000000000E+00  0.00000000000E+00  0.44297323081E+03  0.17566760885E+04  0.16999075259E+04 0.  0.
        4    1    3    3  502    0 -0.84346864448E+03 -0.45004626085E+02  0.31927776860E+03  0.90299760632E+03  0.12699999809E+01 0. -1.
       -4    1    3    3    0  502  0.84346864448E+03  0.45004626085E+02  0.12369546221E+03  0.85367848214E+03  0.12699999809E+01 0.  1.
</event>
<event>
 5   0  0.7455669E-06  0.1701192E+04  0.7818609E-02  0.8760685E-01
       -1   -1    0    0    0  501  0.00000000000E+00  0.00000000000E+00  0.35412701287E+03  0.35412701291E+03  0.50400001928E-02 0.  1.
        1   -1    0    0  501    0  0.00000000000E+00  0.00000000000E+00 -0.20430897144E+04  0.20430897144E+04  0.50400001928E-02 0. -1.
    10030    2    1    2    0    0  0.00000000000E+00  0.00000000000E+00 -0.16889627015E+04  0.23972167273E+04  0.17011916502E+04 0.  0.
        4    1    3    3  502    0 -0.82036090780E+03 -0.11563913289E+03 -0.11160734903E+04  0.13899590198E+04  0.12699999809E+01 0. -1.
       -4    1    3    3    0  502  0.82036090780E+03  0.11563913289E+03 -0.57288921128E+03  0.10072577075E+04  0.12699999809E+01 0.  1.
</event>
<event>
 5   0  0.1419012E-05  0.1699915E+04  0.7818609E-02  0.8761413E-01
       -2   -1    0    0    0  501  0.00000000000E+00  0.00000000000E+00  0.60783716496E+03  0.60783716496E+03  0.25500000920E-02 0. -1.
        2   -1    0    0  501    0  0.00000000000E+00  0.00000000000E+00 -0.11885217997E+04  0.11885217997E+04  0.25500000920E-02 0.  1.
    10030    2    1    2    0    0  0.00000000000E+00  0.00000000000E+00 -0.58068463477E+03  0.17963589647E+04  0.16999149640E+04 0.  0.
        4    1    3    3  502    0 -0.33836791823E+02  0.50927799654E+03 -0.10085465326E+04  0.11303436325E+04  0.12699999809E+01 0.  1.
       -4    1    3    3    0  502  0.33836791823E+02 -0.50927799654E+03  0.42786189780E+03  0.66601533220E+03  0.12699999809E+01 0. -1.
</event>
<event>
 5   0  0.7461128E-06  0.1700451E+04  0.7818609E-02  0.8761107E-01
        1   -1    0    0  501    0  0.00000000000E+00  0.00000000000E+00  0.14393989383E+04  0.14393989383E+04  0.50400001928E-02 0. -1.
       -1   -1    0    0    0  501  0.00000000000E+00  0.00000000000E+00 -0.50221194427E+03  0.50221194430E+03  0.50400001928E-02 0.  1.
    10030    2    1    2    0    0  0.00000000000E+00  0.00000000000E+00  0.93718699405E+03  0.19416108826E+04  0.17004509278E+04 0.  0.
        3    1    3    3  502    0 -0.32101743135E+03  0.34421101888E+03  0.12770721659E+04  0.13610461946E+04  0.10100000352E+00 0. -1.
       -3    1    3    3    0  502  0.32101743135E+03 -0.34421101888E+03 -0.33988517184E+03  0.58056468803E+03  0.10100000352E+00 0.  1.
</event>
<event>
 5   0  0.5229750E-06  0.1696305E+04  0.7818609E-02  0.8763475E-01
        4   -1    0    0  501    0  0.00000000000E+00  0.00000000000E+00  0.10303603603E+04  0.10303611430E+04  0.12699999809E+01 0.  1.
       -4   -1    0    0    0  501  0.00000000000E+00  0.00000000000E+00 -0.69816417757E+03  0.69816533267E+03  0.12699999809E+01 0. -1.
    10030    2    1    2    0    0  0.00000000000E+00  0.00000000000E+00  0.33219618274E+03  0.17285264757E+04  0.16963046523E+04 0.  0.
        5    1    3    3  502    0 -0.78216438940E+03 -0.32600480669E+03  0.12964123220E+03  0.85725679065E+03  0.46999998093E+01 0. -1.
       -5    1    3    3    0  502  0.78216438940E+03  0.32600480669E+03  0.20255495054E+03  0.87126968501E+03  0.46999998093E+01 0.  1.
</event>
<event>
 5   0  0.1374441E-05  0.1700260E+04  0.7818609E-02  0.8761216E-01
        2   -1    0    0  501    0  0.00000000000E+00  0.00000000000E+00  0.12736535432E+04  0.12736535432E+04  0.25500000920E-02 0. -1.
       -2   -1    0    0    0  501  0.00000000000E+00  0.00000000000E+00 -0.56743932666E+03  0.56743932667E+03  0.25500000920E-02 0.  1.
    10030    2    1    2    0    0  0.00000000000E+00  0.00000000000E+00  0.70621421651E+03  0.18410928698E+04  0.17002601083E+04 0.  0.
        1    1    3    3  502    0  0.51386509581E+03  0.66878829758E+03  0.23756357630E+03  0.87622575657E+03  0.50400001928E-02 0.  1.
       -1    1    3    3    0  502 -0.51386509581E+03 -0.66878829758E+03  0.46865064021E+03  0.96486711327E+03  0.50400001928E-02 0. -1.
</event>
<event>
 5   0  0.1423543E-05  0.1699661E+04  0.7818609E-02  0.8761558E-01
       -2   -1    0    0    0  501  0.00000000000E+00  0.00000000000E+00  0.36310935437E+03  0.36310935437E+03  0.25500000920E-02 0.  1.
        2   -1    0    0  501    0  0.00000000000E+00  0.00000000000E+00 -0.19889649679E+04  0.19889649679E+04  0.25500000920E-02 0. -1.
    10030    2    1    2    0    0  0.00000000000E+00  0.00000000000E+00 -0.16258556135E+04  0.23520743222E+04  0.16996608901E+04 0.  0.
        3    1    3    3  502    0 -0.60663248157E+03 -0.48861609292E+03 -0.34269772768E+03  0.85099377008E+03  0.10100000352E+00 0.  1.
       -3    1    3    3    0  502  0.60663248157E+03  0.48861609292E+03 -0.12831578858E+04  0.15010805522E+04  0.10100000352E+00 0. -1.
</event>
<event>
 5   0  0.1419012E-05  0.1699254E+04  0.7818609E-02  0.8761790E-01
       -2   -1    0    0    0  501  0.00000000000E+00  0.00000000000E+00  0.42869357210E+03  0.42869357211E+03  0.25500000920E-02 0. -1.
        2   -1    0    0  501    0  0.00000000000E+00  0.00000000000E+00 -0.16838750667E+04  0.16838750668E+04  0.25500000920E-02 0.  1.
    10030    2    1    2    0    0  0.00000000000E+00  0.00000000000E+00 -0.12551814946E+04  0.21125686389E+04  0.16992544452E+04 0.  0.
        4    1    3    3  502    0 -0.12981816369E+02  0.77095866024E+02  0.42421091249E+03  0.43135694186E+03  0.12699999809E+01 0. -1.
       -4    1    3    3    0  502  0.12981816369E+02 -0.77095866024E+02 -0.16793924071E+04  0.16812116970E+04  0.12699999809E+01 0.  1.
</event>
<event>
 5   0  0.7082527E-06  0.1700837E+04  0.7818609E-02  0.8760887E-01
       -1   -1    0    0    0  501  0.00000000000E+00  0.00000000000E+00  0.11389110245E+04  0.11389110245E+04  0.50400001928E-02 0. -1.
        1   -1    0    0  501    0  0.00000000000E+00  0.00000000000E+00 -0.63500259666E+03  0.63500259668E+03  0.50400001928E-02 0.  1.
    10030    2    1    2    0    0  0.00000000000E+00  0.00000000000E+00  0.50390842783E+03  0.17739136212E+04  0.17008368034E+04 0.  0.
        1    1    3    3  502    0 -0.52306609122E+03 -0.94905803115E+02 -0.44034706048E+03  0.69029760318E+03  0.50400001928E-02 0.  1.
       -1    1    3    3    0  502  0.52306609122E+03  0.94905803115E+02  0.94425548831E+03  0.10836160180E+04  0.50400001928E-02 0. -1.
</event>
<event>
 5   0  0.1419012E-05  0.1698554E+04  0.7818609E-02  0.8762189E-01
        2   -1    0    0  501    0  0.00000000000E+00  0.00000000000E+00  0.68686262939E+03  0.68686262939E+03  0.25500000920E-02 0.  1.
       -2   -1    0    0    0  501  0.00000000000E+00  0.00000000000E+00 -0.10500960437E+04  0.10500960437E+04  0.25500000920E-02 0. -1.
    10030    2    1    2    0    0  0.00000000000E+00  0.00000000000E+00 -0.36323341434E+03  0.17369586731E+04  0.16985543615E+04 0.  0.
        4    1    3    3  502    0  0.94903173576E+02 -0.19935422953E+03 -0.10202325979E+04  0.10438509893E+04  0.12699999809E+01 0. -1.
       -4    1    3    3    0  502 -0.94903173576E+02  0.19935422953E+03  0.65699918358E+03  0.69310768378E+03  0.12699999809E+01 0.  1.
</event>
<event>
 5   0  0.7461128E-06  0.1699826E+04  0.7818609E-02  0.8761464E-01
        1   -1    0    0  501    0  0.00000000000E+00  0.00000000000E+00  0.10862920892E+04  0.10862920892E+04  0.50400001928E-02 0. -1.
       -1   -1    0    0    0  501  0.00000000000E+00  0.00000000000E+00 -0.66497039961E+03  0.66497039963E+03  0.50400001928E-02 0.  1.
    10030    2    1    2    0    0  0.00000000000E+00  0.00000000000E+00  0.42132168959E+03  0.17512624888E+04  0.16998259731E+04 0.  0.
        3    1    3    3  502    0  0.32466709601E+02 -0.64152472557E+02  0.10831531601E+04  0.10855369203E+04  0.10100000352E+00 0. -1.
       -3    1    3    3    0  502 -0.32466709601E+02  0.64152472557E+02 -0.66183147052E+03  0.66572556849E+03  0.10100000352E+00 0.  1.
</event>
<event>
 5   0  0.1423543E-05  0.1699332E+04  0.7818609E-02  0.8761746E-01
        2   -1    0    0  501    0  0.00000000000E+00  0.00000000000E+00  0.38029847042E+03  0.38029847043E+03  0.25500000920E-02 0. -1.
       -2   -1    0    0    0  501  0.00000000000E+00  0.00000000000E+00 -0.18983303476E+04  0.18983303476E+04  0.25500000920E-02 0.  1.
    10030    2    1    2    0    0  0.00000000000E+00  0.00000000000E+00 -0.15180318772E+04  0.22786288180E+04  0.16993317834E+04 0.  0.
        3    1    3    3  502    0  0.65890262878E+03  0.27281862927E+03 -0.13965878566E+03  0.72669612996E+03  0.10100000352E+00 0. -1.
       -3    1    3    3    0  502 -0.65890262878E+03 -0.27281862927E+03 -0.13783730915E+04  0.15519326881E+04  0.10100000352E+00 0.  1.
</event>
<event>
 5   0  0.1423543E-05  0.1699075E+04  0.7818609E-02  0.8761892E-01
        2   -1    0    0  501    0  0.00000000000E+00  0.00000000000E+00  0.18526616282E+04  0.18526616282E+04  0.25500000920E-02 0. -1.
       -2   -1    0    0    0  501  0.00000000000E+00  0.00000000000E+00 -0.38955527976E+03  0.38955527977E+03  0.25500000920E-02 0.  1.
    10030    2    1    2    0    0  0.00000000000E+00  0.00000000000E+00  0.14631063484E+04  0.22422169080E+04  0.16990751824E+04 0.  0.
        3    1    3    3  502    0  0.65087232726E+03  0.27003239884E+03  0.10535411960E+03  0.71249686563E+03  0.10100000352E+00 0.  1.
       -3    1    3    3    0  502 -0.65087232726E+03 -0.27003239884E+03  0.13577522288E+04  0.15297200423E+04  0.10100000352E+00 0. -1.
</event>
<event>
 5   0  0.7455669E-06  0.1699834E+04  0.7818609E-02  0.8761459E-01
        1   -1    0    0  501    0  0.00000000000E+00  0.00000000000E+00  0.10253317224E+04  0.10253317224E+04  0.50400001928E-02 0.  1.
       -1   -1    0    0    0  501  0.00000000000E+00  0.00000000000E+00 -0.70451248033E+03  0.70451248035E+03  0.50400001928E-02 0. -1.
    10030    2    1    2    0    0  0.00000000000E+00  0.00000000000E+00  0.32081924208E+03  0.17298442028E+04  0.16998341036E+04 0.  0.
        4    1    3    3  502    0  0.25940269624E+03  0.25186509296E+03  0.94316512986E+03  0.10100929952E+04  0.12699999809E+01 0.  1.
       -4    1    3    3    0  502 -0.25940269624E+03 -0.25186509296E+03 -0.62234588778E+03  0.71975120758E+03  0.12699999809E+01 0. -1.
</event>
<event>
 5   0  0.7082527E-06  0.1699775E+04  0.7818609E-02  0.8761493E-01
       -1   -1    0    0    0  501  0.00000000000E+00  0.00000000000E+00  0.76452603598E+03  0.76452603600E+03  0.50400001928E-02 0. -1.
        1   -1    0    0  501    0  0.00000000000E+00  0.00000000000E+00 -0.94478011251E+03  0.94478011253E+03  0.50400001928E-02 0.  1.
    10030    2    1    2    0    0  0.00000000000E+00  0.00000000000E+00 -0.18025407653E+03  0.17093061485E+04  0.16997752726E+04 0.  0.
        1    1    3    3  502    0  0.37775974770E+03 -0.26277065050E+03 -0.80866704786E+03  0.93042637326E+03  0.50400001928E-02 0.  1.
       -1    1    3    3    0  502 -0.37775974770E+03  0.26277065050E+03  0.62841297132E+03  0.77887977526E+03  0.50400001928E-02 0. -1.
</event>
<event>
 5   0  0.1374441E-05  0.1700110E+04  0.7818609E-02  0.8761302E-01
        2   -1    0    0  501    0  0.00000000000E+00  0.00000000000E+00  0.12801976132E+04  0.12801976133E+04  0.25500000920E-02 0.  1.
       -2   -1    0    0    0  501  0.00000000000E+00  0.00000000000E+00 -0.56443898238E+03  0.56443898239E+03  0.25500000920E-02 0. -1.
    10030    2    1    2    0    0  0.00000000000E+00  0.00000000000E+00  0.71575863087E+03  0.18446365956E+04  0.17001099236E+04 0.  0.
        1    1    3    3  502    0  0.73903779941E+03  0.39987343332E+03  0.21843204939E+03  0.86820976259E+03  0.50400001928E-02 0. -1.
       -1    1    3    3    0  502 -0.73903779941E+03 -0.39987343332E+03  0.49732658148E+03  0.97642683305E+03  0.50400001928E-02 0.  1.
</event>
<event>
 5   0  0.7455669E-06  0.1689192E+04  0.7818609E-02  0.8767552E-01
        1   -1    0    0  501    0  0.00000000000E+00  0.00000000000E+00  0.93234848047E+03  0.93234848048E+03  0.50400001928E-02 0.  1.
       -1   -1    0    0    0  501  0.00000000000E+00  0.00000000000E+00 -0.76510302952E+03  0.76510302954E+03  0.50400001928E-02 0. -1.
    10030    2    1    2    0    0  0.00000000000E+00  0.00000000000E+00  0.16724545095E+03  0.16974515100E+04  0.16891922886E+04 0.  0.
        4    1    3    3  502    0  0.48567705366E+03 -0.49300737191E+02 -0.60897014294E+03  0.78048639387E+03  0.12699999809E+01 0. -1.
       -4    1    3    3    0  502 -0.48567705366E+03  0.49300737191E+02  0.77621559388E+03  0.91696511614E+03  0.12699999809E+01 0.  1.
</event>
<event>
 5   0  0.1441756E-05  0.1700081E+04  0.7818609E-02  0.8761318E-01
        2   -1    0    0  501    0  0.00000000000E+00  0.00000000000E+00  0.82758637083E+03  0.82758637084E+03  0.25500000920E-02 0.  1.
       -2   -1    0    0    0  501  0.00000000000E+00  0.00000000000E+00 -0.87310343497E+03  0.87310343498E+03  0.25500000920E-02 0. -1.
    10030    2    1    2    0    0  0.00000000000E+00  0.00000000000E+00 -0.45517064141E+02  0.17006898058E+04  0.17000805900E+04 0.  0.
        5    1    3    3  502    0  0.80680014134E+02  0.76275762400E+03 -0.38927480699E+03  0.86015430186E+03  0.46999998093E+01 0. -1.
       -5    1    3    3    0  502 -0.80680014134E+02 -0.76275762400E+03  0.34375774285E+03  0.84053550396E+03  0.46999998093E+01 0.  1.
</event>
<event>
 5   0  0.7476457E-06  0.1699634E+04  0.7818609E-02  0.8761573E-01
        1   -1    0    0  501    0  0.00000000000E+00  0.00000000000E+00  0.10631824160E+04  0.10631824160E+04  0.50400001928E-02 0. -1.
       -1   -1    0    0    0  501  0.00000000000E+00  0.00000000000E+00 -0.67927068414E+03  0.67927068416E+03  0.50400001928E-02 0.  1.
    10030    2    1    2    0    0  0.00000000000E+00  0.00000000000E+00  0.38391173185E+03  0.17424531002E+04  0.16996336630E+04 0.  0.
        2    1    3    3  502    0 -0.10976150857E+03  0.76738934437E+03 -0.16503325298E+03  0.79257174389E+03  0.25500000920E-02 0.  1.
       -2    1    3    3    0  502  0.10976150857E+03 -0.76738934437E+03  0.54894498483E+03  0.94988135627E+03  0.25500000920E-02 0. -1.
</event>
<event>
 5   0  0.7583716E-06  0.1701859E+04  0.7818609E-02  0.8760305E-01
        1   -1    0    0  501    0  0.00000000000E+00  0.00000000000E+00  0.69990242862E+03  0.69990242864E+03  0.50400001928E-02 0. -1.
       -1   -1    0    0    0  501  0.00000000000E+00  0.00000000000E+00 -0.10345455682E+04  0.10345455682E+04  0.50400001928E-02 0.  1.
    10030    2    1    2    0    0  0.00000000000E+00  0.00000000000E+00 -0.33464313957E+03  0.17344479968E+04  0.17018589315E+04 0.  0.
        5    1    3    3  502    0  0.10084653267E+03 -0.70071854461E+03  0.31382298752E+03  0.77439231621E+03  0.46999998093E+01 0. -1.
       -5    1    3    3    0  502 -0.10084653267E+03  0.70071854461E+03 -0.64846612709E+03  0.96005568062E+03  0.46999998093E+01 0.  1.
</event>
<event>
 5   0  0.7082527E-06  0.1699212E+04  0.7818609E-02  0.8761814E-01
       -1   -1    0    0    0  501  0.00000000000E+00  0.00000000000E+00  0.13373681308E+04  0.13373681308E+04  0.50400001928E-02 0. -1.
        1   -1    0    0  501    0  0.00000000000E+00  0.00000000000E+00 -0.53973977452E+03  0.53973977454E+03  0.50400001928E-02 0.  1.
    10030    2    1    2    0    0  0.00000000000E+00  0.00000000000E+00  0.79762835631E+03  0.18771079054E+04  0.16992124922E+04 0.  0.
        1    1    3    3  502    0  0.76865829434E+03  0.10909646754E+03  0.78004232432E+03  0.11005469733E+04  0.50400001928E-02 0.  1.
       -1    1    3    3    0  502 -0.76865829434E+03 -0.10909646754E+03  0.17586031995E+02  0.77656093208E+03  0.50400001928E-02 0. -1.
</event>
<event>
 5   0  0.1441756E-05  0.1699908E+04  0.7818609E-02  0.8761417E-01
        2   -1    0    0  501    0  0.00000000000E+00  0.00000000000E+00  0.17890331112E+04  0.17890331112E+04  0.25500000920E-02 0. -1.
       -2   -1    0    0    0  501  0.00000000000E+00  0.00000000000E+00 -0.40380587066E+03  0.40380587067E+03  0.25500000920E-02 0.  1.
    10030    2    1    2    0    0  0.00000000000E+00  0.00000000000E+00  0.13852272405E+04  0.21928389819E+04  0.16999083188E+04 0.  0.
        5    1    3    3  502    0 -0.80190535415E+03  0.19895149387E+03  0.94985313695E+03  0.12589189671E+04  0.46999998093E+01 0. -1.
       -5    1    3    3    0  502  0.80190535415E+03 -0.19895149387E+03  0.43537410359E+03  0.93392001478E+03  0.46999998093E+01 0.  1.
</event>
<event>
 5   0  0.7476457E-06  0.1699991E+04  0.7818609E-02  0.8761369E-01
       -1   -1    0    0    0  501  0.00000000000E+00  0.00000000000E+00  0.20349297725E+04  0.20349297725E+04  0.50400001928E-02 0. -1.
        1   -1    0    0  501    0  0.00000000000E+00  0.00000000000E+00 -0.35504549906E+03  0.35504549910E+03  0.50400001928E-02 0.  1.
    10030    2    1    2    0    0  0.00000000000E+00  0.00000000000E+00  0.16798842735E+04  0.23899752716E+04  0.16999913608E+04 0.  0.
        2    1    3    3  502    0  0.59090903621E+02  0.75370039743E+03  0.13861324852E+04  0.15788981254E+04  0.25500000920E-02 0.  1.
       -2    1    3    3    0  502 -0.59090903621E+02 -0.75370039743E+03  0.29375178829E+03  0.81107714621E+03  0.25500000920E-02 0. -1.
</event>
<event>
 5   0  0.7461128E-06  0.1699455E+04  0.7818609E-02  0.8761675E-01
        1   -1    0    0  501    0  0.00000000000E+00  0.00000000000E+00  0.13394529796E+04  0.13394529796E+04  0.50400001928E-02 0. -1.
       -1   -1    0    0    0  501  0.00000000000E+00  0.00000000000E+00 -0.53905371980E+03  0.53905371982E+03  0.50400001928E-02 0.  1.
    10030    2    1    2    0    0  0.00000000000E+00  0.00000000000E+00  0.80039925975E+03  0.18785066994E+04  0.16994553376E+04 0.  0.
        3    1    3    3  502    0  0.67913756639E+03  0.51031389438E+03  0.37839867057E+03  0.92996433747E+03  0.10100000352E+00 0.  1.
       -3    1    3    3    0  502 -0.67913756639E+03 -0.51031389438E+03  0.42200058919E+03  0.94854236192E+03  0.10100000352E+00 0. -1.
</event>
<event>
 5   0  0.1423543E-05  0.1700271E+04  0.7818609E-02  0.8761210E-01
        2   -1    0    0  501    0  0.00000000000E+00  0.00000000000E+00  0.83850516141E+03  0.83850516142E+03  0.25500000920E-02 0.  1.
       -2   -1    0    0    0  501  0.00000000000E+00  0.00000000000E+00 -0.86192728299E+03  0.86192728300E+03  0.25500000920E-02 0. -1.
    10030    2    1    2    0    0  0.00000000000E+00  0.00000000000E+00 -0.23422121581E+02  0.17004324444E+04  0.17002711261E+04 0.  0.
        3    1    3    3  502    0 -0.58258289274E+03 -0.44141460020E+02  0.60590657365E+03  0.84170902430E+03  0.10100000352E+00 0.  1.
       -3    1    3    3    0  502  0.58258289274E+03  0.44141460020E+02 -0.62932869523E+03  0.85872342011E+03  0.10100000352E+00 0. -1.
</event>
<event>
 5   0  0.1441756E-05  0.1696892E+04  0.7818609E-02  0.8763139E-01
        2   -1    0    0  501    0  0.00000000000E+00  0.00000000000E+00  0.66488592122E+03  0.66488592123E+03  0.25500000920E-02 0.  1.
       -2   -1    0    0    0  501  0.00000000000E+00  0.00000000000E+00 -0.10826829652E+04  0.10826829652E+04  0.25500000920E-02 0. -1.
    10030    2    1    2    0    0  0.00000000000E+00  0.00000000000E+00 -0.41779704395E+03  0.17475688864E+04  0.16968920540E+04 0.  0.
        5    1    3    3  502    0  0.29126237243E+03  0.72791856245E+03 -0.54283415855E+03  0.95361953463E+03  0.46999998093E+01 0. -1.
       -5    1    3    3    0  502 -0.29126237243E+03 -0.72791856245E+03  0.12503711459E+03  0.79394935177E+03  0.46999998093E+01 0.  1.
</event>
<event>
 5   0  0.1374441E-05  0.1699802E+04  0.7818609E-02  0.8761477E-01
        2   -1    0    0  501    0  0.00000000000E+00  0.00000000000E+00  0.13841416570E+04  0.13841416570E+04  0.25500000920E-02 0.  1.
       -2   -1    0    0    0  501  0.00000000000E+00  0.00000000000E+00 -0.52186281569E+03  0.52186281570E+03  0.25500000920E-02 0. -1.
    10030    2    1    2    0    0  0.00000000000E+00  0.00000000000E+00  0.86227884132E+03  0.19060044727E+04  0.16998024149E+04 0.  0.
        1    1    3    3  502    0  0.38895157747E+03  0.68157506676E+03  0.79707847517E+03  0.11185535288E+04  0.50400001928E-02 0. -1.
       -1    1    3    3    0  502 -0.38895157747E+03 -0.68157506676E+03  0.65200366151E+02  0.78745094388E+03  0.50400001928E-02 0.  1.
</event>
<event>
 5   0  0.7455669E-06  0.1700440E+04  0.7818609E-02  0.8761113E-01
       -1   -1    0    0    0  501  0.00000000000E+00  0.00000000000E+00  0.43547320161E+03  0.43547320163E+03  0.50400001928E-02 0.  1.
        1   -1    0    0  501    0  0.00000000000E+00  0.00000000000E+00 -0.16599735024E+04  0.16599735024E+04  0.50400001928E-02 0. -1.
    10030    2    1    2    0    0  0.00000000000E+00  0.00000000000E+00 -0.12245003008E+04  0.20954467040E+04  0.17004399145E+04 0.  0.
        4    1    3    3  502    0  0.34931920985E+03  0.57444522873E+03 -0.12535906607E+04  0.14224986428E+04  0.12699999809E+01 0. -1.
       -4    1    3    3    0  502 -0.34931920985E+03 -0.57444522873E+03  0.29090359947E+02  0.67294806124E+03  0.12699999809E+01 0.  1.
</event>
<event>
 5   0  0.7461128E-06  0.1699991E+04  0.7818609E-02  0.8761370E-01
       -1   -1    0    0    0  501  0.00000000000E+00  0.00000000000E+00  0.44686324129E+03  0.44686324131E+03  0.50400001928E-02 0.  1.
        1   -1    0    0  501    0  0.00000000000E+00  0.00000000000E+00 -0.16168077698E+04  0.16168077698E+04  0.50400001928E-02 0. -1.
    10030    2    1    2    0    0  0.00000000000E+00  0.00000000000E+00 -0.11699445285E+04  0.20636710111E+04  0.16999905418E+04 0.  0.
        3    1    3    3  502    0 -0.36808808751E+03  0.31524418655E+03  0.26271681789E+03  0.55126025970E+03  0.10100000352E+00 0.  1.
       -3    1    3    3    0  502  0.36808808751E+03 -0.31524418655E+03 -0.14326613464E+04  0.15124107514E+04  0.10100000352E+00 0. -1.
</event>
<event>
 5   0  0.7082527E-06  0.1700526E+04  0.7818609E-02  0.8761065E-01
       -1   -1    0    0    0  501  0.00000000000E+00  0.00000000000E+00  0.64178149890E+03  0.64178149892E+03  0.50400001928E-02 0. -1.
        1   -1    0    0  501    0  0.00000000000E+00  0.00000000000E+00 -0.11264688154E+04  0.11264688154E+04  0.50400001928E-02 0.  1.
    10030    2    1    2    0    0  0.00000000000E+00  0.00000000000E+00 -0.48468731647E+03  0.17682503143E+04  0.17005256185E+04 0.  0.
        1    1    3    3  502    0  0.74892403914E+03  0.39900865516E+03 -0.18681539126E+03  0.86890454811E+03  0.50400001928E-02 0. -1.
       -1    1    3    3    0  502 -0.74892403914E+03 -0.39900865516E+03 -0.29787192521E+03  0.89934576618E+03  0.50400001928E-02 0.  1.
</event>
<event>
 5   0  0.1435301E-05  0.1712707E+04  0.7818609E-02  0.8754150E-01
        2   -1    0    0  501    0  0.00000000000E+00  0.00000000000E+00  0.63349129250E+03  0.63349129251E+03  0.25500000920E-02 0.  1.
       -2   -1    0    0    0  501  0.00000000000E+00  0.00000000000E+00 -0.11576189312E+04  0.11576189312E+04  0.25500000920E-02 0. -1.
    10030    2    1    2    0    0  0.00000000000E+00  0.00000000000E+00 -0.52412763867E+03  0.17911102237E+04  0.17127072288E+04 0.  0.
        2    1    3    3  502    0  0.52211396280E+03  0.25869745051E+03  0.39420964046E+03  0.70351162158E+03  0.25500000920E-02 0.  1.
       -2    1    3    3    0  502 -0.52211396280E+03 -0.25869745051E+03 -0.91833727912E+03  0.10875986021E+04  0.25500000920E-02 0. -1.
</event>
<event>
 5   0  0.7082527E-06  0.1699266E+04  0.7818609E-02  0.8761783E-01
        1   -1    0    0  501    0  0.00000000000E+00  0.00000000000E+00  0.12439263242E+04  0.12439263242E+04  0.50400001928E-02 0. -1.
       -1   -1    0    0    0  501  0.00000000000E+00  0.00000000000E+00 -0.58032056638E+03  0.58032056641E+03  0.50400001928E-02 0.  1.
    10030    2    1    2    0    0  0.00000000000E+00  0.00000000000E+00  0.66360575778E+03  0.18242468906E+04  0.16992657579E+04 0.  0.
        1    1    3    3  502    0 -0.59399028369E+03 -0.56238901540E+03  0.85189550908E+02  0.82241298711E+03  0.50400001928E-02 0. -1.
       -1    1    3    3    0  502  0.59399028369E+03  0.56238901540E+03  0.57841620687E+03  0.10018339035E+04  0.50400001928E-02 0.  1.
</event>
<event>
 5   0  0.5229750E-06  0.1700090E+04  0.7818609E-02  0.8761313E-01
        4   -1    0    0  501    0  0.00000000000E+00  0.00000000000E+00  0.10071826362E+04  0.10071834369E+04  0.12699999809E+01 0. -1.
       -4   -1    0    0    0  501  0.00000000000E+00  0.00000000000E+00 -0.71742227166E+03  0.71742339575E+03  0.12699999809E+01 0.  1.
    10030    2    1    2    0    0  0.00000000000E+00  0.00000000000E+00  0.28976036453E+03  0.17246068326E+04  0.17000904853E+04 0.  0.
        3    1    3    3  502    0 -0.11940744332E+03 -0.82768747062E+03 -0.98055498473E+01  0.83631384393E+03  0.10100000352E+00 0.  1.
       -3    1    3    3    0  502  0.11940744332E+03  0.82768747062E+03  0.29956591437E+03  0.88829298871E+03  0.10100000352E+00 0. -1.
</event>
<event>
 5   0  0.7455669E-06  0.1700970E+04  0.7818609E-02  0.8760811E-01
       -1   -1    0    0    0  501  0.00000000000E+00  0.00000000000E+00  0.10942539556E+04  0.10942539556E+04  0.50400001928E-02 0.  1.
        1   -1    0    0  501    0  0.00000000000E+00  0.00000000000E+00 -0.66102081002E+03  0.66102081004E+03  0.50400001928E-02 0. -1.
    10030    2    1    2    0    0  0.00000000000E+00  0.00000000000E+00  0.43323314559E+03  0.17552747657E+04  0.17009698835E+04 0.  0.
        4    1    3    3  502    0  0.22009249524E+03  0.36910078163E+03 -0.54074031493E+03  0.69070818336E+03  0.12699999809E+01 0. -1.
       -4    1    3    3    0  502 -0.22009249524E+03 -0.36910078163E+03  0.97397346052E+03  0.10645665823E+04  0.12699999809E+01 0.  1.
</event>
<event>
 5   0  0.1374441E-05  0.1700156E+04  0.7818609E-02  0.8761276E-01
       -2   -1    0    0    0  501  0.00000000000E+00  0.00000000000E+00  0.83584502054E+03  0.83584502054E+03  0.25500000920E-02 0.  1.
        2   -1    0    0  501    0  0.00000000000E+00  0.00000000000E+00 -0.86455296445E+03  0.86455296445E+03  0.25500000920E-02 0. -1.
    10030    2    1    2    0    0  0.00000000000E+00  0.00000000000E+00 -0.28707943908E+02  0.17003979850E+04  0.17001556286E+04 0.  0.
        1    1    3    3  502    0 -0.83870126221E+03  0.13823552616E+03 -0.41828426379E+01  0.85002727257E+03  0.50400001928E-02 0. -1.
       -1    1    3    3    0  502  0.83870126221E+03 -0.13823552616E+03 -0.24525101270E+02  0.85037071242E+03  0.50400001928E-02 0.  1.
</event>
<event>
 5   0  0.1423543E-05  0.1700201E+04  0.7818609E-02  0.8761250E-01
       -2   -1    0    0    0  501  0.00000000000E+00  0.00000000000E+00  0.45007383487E+03  0.45007383487E+03  0.25500000920E-02 0.  1.
        2   -1    0    0  501    0  0.00000000000E+00  0.00000000000E+00 -0.16056708838E+04  0.16056708838E+04  0.25500000920E-02 0. -1.
    10030    2    1    2    0    0  0.00000000000E+00  0.00000000000E+00 -0.11555970489E+04  0.20557447187E+04  0.17002005202E+04 0.  0.
        3    1    3    3  502    0 -0.75295953492E+02  0.39403930714E+03  0.32842303195E+03  0.51845747588E+03  0.10100000352E+00 0.  1.
       -3    1    3    3    0  502  0.75295953492E+02 -0.39403930714E+03 -0.14840200809E+04  0.15372872428E+04  0.10100000352E+00 0. -1.
</event>
<event>
 5   0  0.7476457E-06  0.1698512E+04  0.7818609E-02  0.8762214E-01
        1   -1    0    0  501    0  0.00000000000E+00  0.00000000000E+00  0.76267904432E+03  0.76267904433E+03  0.50400001928E-02 0.  1.
       -1   -1    0    0    0  501  0.00000000000E+00  0.00000000000E+00 -0.94566061771E+03  0.94566061772E+03  0.50400001928E-02 0. -1.
    10030    2    1    2    0    0  0.00000000000E+00  0.00000000000E+00 -0.18298157339E+03  0.17083396621E+04  0.16985117441E+04 0.  0.
        2    1    3    3  502    0 -0.11412830015E+03  0.32762994466E+03  0.68815175404E+03  0.77066171964E+03  0.25500000920E-02 0.  1.
       -2    1    3    3    0  502  0.11412830015E+03 -0.32762994466E+03 -0.87113332743E+03  0.93767794241E+03  0.25500000920E-02 0. -1.
</event>
<event>
 5   0  0.5229750E-06  0.1697726E+04  0.7818609E-02  0.8762662E-01
       -3   -1    0    0    0  501  0.00000000000E+00  0.00000000000E+00  0.10684366952E+04  0.10684367000E+04  0.10100000352E+00 0.  1.
        3   -1    0    0  501    0  0.00000000000E+00  0.00000000000E+00 -0.67441365276E+03  0.67441366032E+03  0.10100000352E+00 0. -1.
    10030    2    1    2    0    0  0.00000000000E+00  0.00000000000E+00  0.39402304248E+03  0.17428503603E+04  0.16977258968E+04 0.  0.
        5    1    3    3  502    0 -0.28988585385E+03  0.47294661650E+03 -0.46258780887E+03  0.72230317820E+03  0.46999998093E+01 0. -1.
       -5    1    3    3    0  502  0.28988585385E+03 -0.47294661650E+03  0.85661085135E+03  0.10205471821E+04  0.46999998093E+01 0.  1.
</event>
<event>
 5   0  0.7583716E-06  0.1699534E+04  0.7818609E-02  0.8761630E-01
        1   -1    0    0  501    0  0.00000000000E+00  0.00000000000E+00  0.95357925943E+03  0.95357925944E+03  0.50400001928E-02 0.  1.
       -1   -1    0    0    0  501  0.00000000000E+00  0.00000000000E+00 -0.75725627908E+03  0.75725627909E+03  0.50400001928E-02 0. -1.
    10030    2    1    2    0    0  0.00000000000E+00  0.00000000000E+00  0.19632298035E+03  0.17108355385E+04  0.16995339147E+04 0.  0.
        5    1    3    3  502    0 -0.11094093723E+03 -0.74651674842E+03 -0.29493062413E+03  0.81030939170E+03  0.46999998093E+01 0. -1.
       -5    1    3    3    0  502  0.11094093723E+03  0.74651674842E+03  0.49125360447E+03  0.90052614684E+03  0.46999998093E+01 0.  1.
</event>
<event>
 5   0  0.1441756E-05  0.1699913E+04  0.7818609E-02  0.8761414E-01
       -2   -1    0    0    0  501  0.00000000000E+00  0.00000000000E+00  0.90087223200E+03  0.90087223200E+03  0.25500000920E-02 0. -1.
        2   -1    0    0  501    0  0.00000000000E+00  0.00000000000E+00 -0.80191858669E+03  0.80191858669E+03  0.25500000920E-02 0.  1.
    10030    2    1    2    0    0  0.00000000000E+00  0.00000000000E+00  0.98953645309E+02  0.17027908187E+04  0.16999131591E+04 0.  0.
        5    1    3    3  502    0 -0.60631957545E+03 -0.34982610574E+03 -0.43342054268E+03  0.82333297556E+03  0.46999998093E+01 0.  1.
       -5    1    3    3    0  502  0.60631957545E+03  0.34982610574E+03  0.53237418799E+03  0.87945784314E+03  0.46999998093E+01 0. -1.
</event>
<event>
 5   0  0.1374441E-05  0.1700132E+04  0.7818609E-02  0.8761289E-01
        2   -1    0    0  501    0  0.00000000000E+00  0.00000000000E+00  0.13729517744E+04  0.13729517744E+04  0.25500000920E-02 0. -1.
       -2   -1    0    0    0  501  0.00000000000E+00  0.00000000000E+00 -0.52632023083E+03  0.52632023084E+03  0.25500000920E-02 0.  1.
    10030    2    1    2    0    0  0.00000000000E+00  0.00000000000E+00  0.84663154355E+03  0.18992720052E+04  0.17001321064E+04 0.  0.
        1    1    3    3  502    0  0.66427176710E+03 -0.35371973989E+03 -0.18251992011E+02  0.75279995364E+03  0.50400001928E-02 0.  1.
       -1    1    3    3    0  502 -0.66427176710E+03  0.35371973989E+03  0.86488353557E+03  0.11464720516E+04  0.50400001928E-02 0. -1.
</event>
<event>
 5   0  0.5229750E-06  0.1700606E+04  0.7818609E-02  0.8761019E-01
        3   -1    0    0  501    0  0.00000000000E+00  0.00000000000E+00  0.15337704349E+04  0.15337704382E+04  0.10100000352E+00 0. -1.
       -3   -1    0    0    0  501  0.00000000000E+00  0.00000000000E+00 -0.47139731382E+03  0.47139732464E+03  0.10100000352E+00 0.  1.
    10030    2    1    2    0    0  0.00000000000E+00  0.00000000000E+00  0.10623731210E+04  0.20051677628E+04  0.17006061004E+04 0.  0.
        2    1    3    3  502    0  0.31565532057E+03  0.15086025573E+03  0.14449761746E+04  0.14867256786E+04  0.25500000920E-02 0. -1.
       -2    1    3    3    0  502 -0.31565532057E+03 -0.15086025573E+03 -0.38260305354E+03  0.51844208427E+03  0.25500000920E-02 0.  1.
</event>
<event>
 5   0  0.7455669E-06  0.1699396E+04  0.7818609E-02  0.8761709E-01
       -1   -1    0    0    0  501  0.00000000000E+00  0.00000000000E+00  0.92529549240E+03  0.92529549241E+03  0.50400001928E-02 0. -1.
        1   -1    0    0  501    0  0.00000000000E+00  0.00000000000E+00 -0.78027706614E+03  0.78027706615E+03  0.50400001928E-02 0.  1.
    10030    2    1    2    0    0  0.00000000000E+00  0.00000000000E+00  0.14501842626E+03  0.17055725586E+04  0.16993961894E+04 0.  0.
        4    1    3    3  502    0 -0.10262440105E+03  0.30476070660E+03 -0.71684426189E+03  0.78567051916E+03  0.12699999809E+01 0.  1.
       -4    1    3    3    0  502  0.10262440105E+03 -0.30476070660E+03  0.86186268815E+03  0.91990203941E+03  0.12699999809E+01 0. -1.
</event>
<event>
 5   0  0.1419012E-05  0.1700203E+04  0.7818609E-02  0.8761249E-01
       -2   -1    0    0    0  501  0.00000000000E+00  0.00000000000E+00  0.75995791706E+03  0.75995791706E+03  0.25500000920E-02 0.  1.
        2   -1    0    0  501    0  0.00000000000E+00  0.00000000000E+00 -0.95093751674E+03  0.95093751674E+03  0.25500000920E-02 0. -1.
    10030    2    1    2    0    0  0.00000000000E+00  0.00000000000E+00 -0.19097959968E+03  0.17108954338E+04  0.17002029226E+04 0.  0.
        4    1    3    3  502    0  0.80360518690E+03 -0.20460544004E+03  0.92840073660E+02  0.83442529605E+03  0.12699999809E+01 0. -1.
       -4    1    3    3    0  502 -0.80360518690E+03  0.20460544004E+03 -0.28381967334E+03  0.87647013776E+03  0.12699999809E+01 0.  1.
</event>
<event>
 5   0  0.1374441E-05  0.1699985E+04  0.7818609E-02  0.8761373E-01
        2   -1    0    0  501    0  0.00000000000E+00  0.00000000000E+00  0.57093902300E+03  0.57093902301E+03  0.25500000920E-02 0.  1.
       -2   -1    0    0    0  501  0.00000000000E+00  0.00000000000E+00 -0.12654372999E+04  0.12654372999E+04  0.25500000920E-02 0. -1.
    10030    2    1    2    0    0  0.00000000000E+00  0.00000000000E+00 -0.69449827692E+03  0.18363763229E+04  0.16999853360E+04 0.  0.
        1    1    3    3  502    0 -0.15349975624E+03  0.75072126817E+03  0.50156760504E+02  0.76789341598E+03  0.50400001928E-02 0.  1.
       -1    1    3    3    0  502  0.15349975624E+03 -0.75072126817E+03 -0.74465503742E+03  0.10684829069E+04  0.50400001928E-02 0. -1.
</event>
<event>
 5   0  0.1441756E-05  0.1701900E+04  0.7818609E-02  0.8760281E-01
       -2   -1    0    0    0  501  0.00000000000E+00  0.00000000000E+00  0.43092587991E+03  0.43092587991E+03  0.25500000920E-02 0. -1.
        2   -1    0    0  501    0  0.00000000000E+00  0.00000000000E+00 -0.16803732142E+04  0.16803732142E+04  0.25500000920E-02 0.  1.
    10030    2    1    2    0    0  0.00000000000E+00  0.00000000000E+00 -0.12494473343E+04  0.21112990941E+04  0.17019004741E+04 0.  0.
        5    1    3    3  502    0 -0.12350605961E+03 -0.33097982971E+03  0.33563871436E+03  0.48731594578E+03  0.46999998093E+01 0. -1.
       -5    1    3    3    0  502  0.12350605961E+03  0.33097982971E+03 -0.15850860486E+04  0.16239831483E+04  0.46999998093E+01 0.  1.
</event>
<event>
 5   0  0.1441756E-05  0.1700630E+04  0.7818609E-02  0.8761005E-01
       -2   -1    0    0    0  501  0.00000000000E+00  0.00000000000E+00  0.77188039046E+03  0.77188039047E+03  0.25500000920E-02 0. -1.
        2   -1    0    0  501    0  0.00000000000E+00  0.00000000000E+00 -0.93671965573E+03  0.93671965574E+03  0.25500000920E-02 0.  1.
    10030    2    1    2    0    0  0.00000000000E+00  0.00000000000E+00 -0.16483926527E+03  0.17086000462E+04  0.17006299229E+04 0.  0.
        5    1    3    3  502    0 -0.72680492726E+02 -0.57904057446E+03  0.53889839823E+03  0.79435761122E+03  0.46999998093E+01 0. -1.
       -5    1    3    3    0  502  0.72680492726E+02  0.57904057446E+03 -0.70373766350E+03  0.91424243498E+03  0.46999998093E+01 0.  1.
</event>
<event>
 5   0  0.1441756E-05  0.1701144E+04  0.7818609E-02  0.8760712E-01
        2   -1    0    0  501    0  0.00000000000E+00  0.00000000000E+00  0.40193521033E+03  0.40193521033E+03  0.25500000920E-02 0.  1.
       -2   -1    0    0    0  501  0.00000000000E+00  0.00000000000E+00 -0.17999742690E+04  0.17999742690E+04  0.25500000920E-02 0. -1.
    10030    2    1    2    0    0  0.00000000000E+00  0.00000000000E+00 -0.13980390586E+04  0.22019094793E+04  0.17011443635E+04 0.  0.
        5    1    3    3  502    0 -0.22954421492E+03 -0.81862466253E+03 -0.66694470467E+03  0.10805897528E+04  0.46999998093E+01 0.  1.
       -5    1    3    3    0  502  0.22954421492E+03  0.81862466253E+03 -0.73109435396E+03  0.11213197265E+04  0.46999998093E+01 0. -1.
</event>
<event>
 5   0  0.7583716E-06  0.1699552E+04  0.7818609E-02  0.8761620E-01
       -1   -1    0    0    0  501  0.00000000000E+00  0.00000000000E+00  0.51044508957E+03  0.51044508960E+03  0.50400001928E-02 0.  1.
        1   -1    0    0  501    0  0.00000000000E+00  0.00000000000E+00 -0.14146862364E+04  0.14146862364E+04  0.50400001928E-02 0. -1.
    10030    2    1    2    0    0  0.00000000000E+00  0.00000000000E+00 -0.90424114678E+03  0.19251313260E+04  0.16995524619E+04 0.  0.
        5    1    3    3  502    0 -0.79142155533E+03 -0.15736501891E+03 -0.15032608930E+03  0.82081170225E+03  0.46999998093E+01 0.  1.
       -5    1    3    3    0  502  0.79142155533E+03  0.15736501891E+03 -0.75391505749E+03  0.11043196237E+04  0.46999998093E+01 0. -1.
</event>
<event>
 5   0  0.1374441E-05  0.1700160E+04  0.7818609E-02  0.8761273E-01
        2   -1    0    0  501    0  0.00000000000E+00  0.00000000000E+00  0.12981085307E+04  0.12981085307E+04  0.25500000920E-02 0. -1.
       -2   -1    0    0    0  501  0.00000000000E+00  0.00000000000E+00 -0.55668374979E+03  0.55668374980E+03  0.25500000920E-02 0.  1.
    10030    2    1    2    0    0  0.00000000000E+00  0.00000000000E+00  0.74142478095E+03  0.18547922805E+04  0.17001599037E+04 0.  0.
        1    1    3    3  502    0 -0.61501764816E+03  0.55913685775E+03  0.56511982830E+03  0.10051075334E+04  0.50400001928E-02 0. -1.
       -1    1    3    3    0  502  0.61501764816E+03 -0.55913685775E+03  0.17630495265E+03  0.84968474719E+03  0.50400001928E-02 0.  1.
</event>
<event>
 5   0  0.7476457E-06  0.1700216E+04  0.7818609E-02  0.8761241E-01
       -1   -1    0    0    0  501  0.00000000000E+00  0.00000000000E+00  0.60399908802E+03  0.60399908804E+03  0.50400001928E-02 0.  1.
        1   -1    0    0  501    0  0.00000000000E+00  0.00000000000E+00 -0.11964985420E+04  0.11964985421E+04  0.50400001928E-02 0. -1.
    10030    2    1    2    0    0  0.00000000000E+00  0.00000000000E+00 -0.59249945403E+03  0.18004976301E+04  0.17002164900E+04 0.  0.
        2    1    3    3  502    0 -0.46951326175E+03 -0.53033904424E+03 -0.79406315436E+03  0.10640669612E+04  0.25500000920E-02 0. -1.
       -2    1    3    3    0  502  0.46951326175E+03  0.53033904424E+03  0.20156370033E+03  0.73643066890E+03  0.25500000920E-02 0.  1.
</event>
<event>
 5   0  0.7476457E-06  0.1699835E+04  0.7818609E-02  0.8761458E-01
       -1   -1    0    0    0  501  0.00000000000E+00  0.00000000000E+00  0.67536101414E+03  0.67536101416E+03  0.50400001928E-02 0. -1.
        1   -1    0    0  501    0  0.00000000000E+00  0.00000000000E+00 -0.10695909680E+04  0.10695909680E+04  0.50400001928E-02 0.  1.
    10030    2    1    2    0    0  0.00000000000E+00  0.00000000000E+00 -0.39422995390E+03  0.17449519822E+04  0.16998353343E+04 0.  0.
        2    1    3    3  502    0  0.33443724901E+03 -0.57383593657E+03  0.34726592936E+03  0.74948621156E+03  0.25500000920E-02 0. -1.
       -2    1    3    3    0  502 -0.33443724901E+03  0.57383593657E+03 -0.74149588325E+03  0.99546577064E+03  0.25500000920E-02 0.  1.
</event>
<event>
 5   0  0.7461128E-06  0.1700901E+04  0.7818609E-02  0.8760850E-01
        1   -1    0    0  501    0  0.00000000000E+00  0.00000000000E+00  0.10116342341E+04  0.10116342341E+04  0.50400001928E-02 0. -1.
       -1   -1    0    0    0  501  0.00000000000E+00  0.00000000000E+00 -0.71494850174E+03  0.71494850176E+03  0.50400001928E-02 0.  1.
    10030    2    1    2    0    0  0.00000000000E+00  0.00000000000E+00  0.29668573232E+03  0.17265827358E+04  0.17009013845E+04 0.  0.
        3    1    3    3  502    0 -0.57185866471E+03  0.31845936001E+03 -0.40283577785E+03  0.76858010025E+03  0.10100000352E+00 0.  1.
       -3    1    3    3    0  502  0.57185866471E+03 -0.31845936001E+03  0.69952151018E+03  0.95800263558E+03  0.10100000352E+00 0. -1.
</event>
<event>
 5   0  0.1374441E-05  0.1699949E+04  0.7818609E-02  0.8761393E-01
       -2   -1    0    0    0  501  0.00000000000E+00  0.00000000000E+00  0.51330503802E+03  0.51330503803E+03  0.25500000920E-02 0.  1.
        2   -1    0    0  501    0  0.00000000000E+00  0.00000000000E+00 -0.14074610810E+04  0.14074610810E+04  0.25500000920E-02 0. -1.
    10030    2    1    2    0    0  0.00000000000E+00  0.00000000000E+00 -0.89415604295E+03  0.19207661190E+04  0.16999492506E+04 0.  0.
        1    1    3    3  502    0 -0.22444526868E+03  0.16941987196E+02  0.47901932588E+03  0.52926574058E+03  0.50400001928E-02 0.  1.
       -1    1    3    3    0  502  0.22444526868E+03 -0.16941987196E+02 -0.13731753688E+04  0.13915003784E+04  0.50400001928E-02 0. -1.
</event>
<event>
 5   0  0.7455669E-06  0.1699424E+04  0.7818609E-02  0.8761693E-01
        1   -1    0    0  501    0  0.00000000000E+00  0.00000000000E+00  0.98808895930E+03  0.98808895931E+03  0.50400001928E-02 0.  1.
       -1   -1    0    0    0  501  0.00000000000E+00  0.00000000000E+00 -0.73071426280E+03  0.73071426282E+03  0.50400001928E-02 0. -1.
    10030    2    1    2    0    0  0.00000000000E+00  0.00000000000E+00  0.25737469650E+03  0.17188032221E+04  0.16994242501E+04 0.  0.
        4    1    3    3  502    0 -0.95365352377E+02  0.25197846970E+03 -0.68636901069E+03  0.73735454930E+03  0.12699999809E+01 0. -1.
       -4    1    3    3    0  502  0.95365352377E+02 -0.25197846970E+03  0.94374370719E+03  0.98144867283E+03  0.12699999809E+01 0.  1.
</event>
<event>
 5   0  0.7455669E-06  0.1699335E+04  0.7818609E-02  0.8761744E-01
        1   -1    0    0  501    0  0.00000000000E+00  0.00000000000E+00  0.18278329066E+04  0.18278329066E+04  0.50400001928E-02 0.  1.
       -1   -1    0    0    0  501  0.00000000000E+00  0.00000000000E+00 -0.39496768464E+03  0.39496768467E+03  0.50400001928E-02 0. -1.
    10030    2    1    2    0    0  0.00000000000E+00  0.00000000000E+00  0.14328652219E+04  0.22228005913E+04  0.16993350830E+04 0.  0.
        4    1    3    3  502    0  0.78200908679E+03 -0.23084711551E+03  0.10290099334E+04  0.13128943820E+04  0.12699999809E+01 0.  1.
       -4    1    3    3    0  502 -0.78200908679E+03  0.23084711551E+03  0.40385528858E+03  0.90990620922E+03  0.12699999809E+01 0. -1.
</event>
<event>
 5   0  0.7583716E-06  0.1704060E+04  0.7818609E-02  0.8759052E-01
        1   -1    0    0  501    0  0.00000000000E+00  0.00000000000E+00  0.15286113971E+04  0.15286113971E+04  0.50400001928E-02 0. -1.
       -1   -1    0    0    0  501  0.00000000000E+00  0.00000000000E+00 -0.47491130044E+03  0.47491130047E+03  0.50400001928E-02 0.  1.
    10030    2    1    2    0    0  0.00000000000E+00  0.00000000000E+00  0.10537000967E+04  0.20035226976E+04  0.17040596545E+04 0.  0.
        5    1    3    3  502    0 -0.58968789059E+03 -0.31938785356E+03  0.11447458970E+04  0.13267274279E+04  0.46999998093E+01 0. -1.
       -5    1    3    3    0  502  0.58968789059E+03  0.31938785356E+03 -0.91045800310E+02  0.67679526968E+03  0.46999998093E+01 0.  1.
</event>
<event>
 5   0  0.1435301E-05  0.1700434E+04  0.7818609E-02  0.8761117E-01
       -2   -1    0    0    0  501  0.00000000000E+00  0.00000000000E+00  0.90980030968E+03  0.90980030968E+03  0.25500000920E-02 0.  1.
        2   -1    0    0  501    0  0.00000000000E+00  0.00000000000E+00 -0.79453568944E+03  0.79453568944E+03  0.25500000920E-02 0. -1.
    10030    2    1    2    0    0  0.00000000000E+00  0.00000000000E+00  0.11526462024E+03  0.17043359991E+04  0.17004338462E+04 0.  0.
        2    1    3    3  502    0 -0.80079707737E+03 -0.52355725503E+02  0.33908221349E+03  0.87120251872E+03  0.25500000920E-02 0.  1.
       -2    1    3    3    0  502  0.80079707737E+03  0.52355725503E+02 -0.22381759325E+03  0.83313348040E+03  0.25500000920E-02 0. -1.
</event>
<event>
 5   0  0.1419012E-05  0.1699326E+04  0.7818609E-02  0.8761749E-01
       -2   -1    0    0    0  501  0.00000000000E+00  0.00000000000E+00  0.61011682486E+03  0.61011682487E+03  0.25500000920E-02 0. -1.
        2   -1    0    0  501    0  0.00000000000E+00  0.00000000000E+00 -0.11832608689E+04  0.11832608689E+04  0.25500000920E-02 0.  1.
    10030    2    1    2    0    0  0.00000000000E+00  0.00000000000E+00 -0.57314404408E+03  0.17933776938E+04  0.16993261775E+04 0.  0.
        4    1    3    3  502    0 -0.65161268948E+03  0.41612882959E+02  0.28720555776E+03  0.71331576067E+03  0.12699999809E+01 0.  1.
       -4    1    3    3    0  502  0.65161268948E+03 -0.41612882959E+02 -0.86034960184E+03  0.10800619331E+04  0.12699999809E+01 0. -1.
</event>
<event>
 5   0  0.1441756E-05  0.1699876E+04  0.7818609E-02  0.8761435E-01
        2   -1    0    0  501    0  0.00000000000E+00  0.00000000000E+00  0.67219750923E+03  0.67219750924E+03  0.25500000920E-02 0. -1.
       -2   -1    0    0    0  501  0.00000000000E+00  0.00000000000E+00 -0.10746757486E+04  0.10746757486E+04  0.25500000920E-02 0.  1.
    10030    2    1    2    0    0  0.00000000000E+00  0.00000000000E+00 -0.40247823938E+03  0.17468732579E+04  0.16998757148E+04 0.  0.
        5    1    3    3  502    0  0.55087127966E+03 -0.62759708834E+03 -0.38640063730E+02  0.83597393295E+03  0.46999998093E+01 0.  1.
       -5    1    3    3    0  502 -0.55087127966E+03  0.62759708834E+03 -0.36383817565E+03  0.91089932490E+03  0.46999998093E+01 0. -1.
</event>
<event>
 5   0  0.1423543E-05  0.1700641E+04  0.7818609E-02  0.8760999E-01
       -2   -1    0    0    0  501  0.00000000000E+00  0.00000000000E+00  0.62809856287E+03  0.62809856288E+03  0.25500000920E-02 0.  1.
        2   -1    0    0  501    0  0.00000000000E+00  0.00000000000E+00 -0.11511647362E+04  0.11511647362E+04  0.25500000920E-02 0. -1.
    10030    2    1    2    0    0  0.00000000000E+00  0.00000000000E+00 -0.52306617330E+03  0.17792632991E+04  0.17006409573E+04 0.  0.
        3    1    3    3  502    0 -0.41672940121E+03 -0.26287255632E+03 -0.98659422013E+03  0.11027844486E+04  0.10100000352E+00 0. -1.
       -3    1    3    3    0  502  0.41672940121E+03  0.26287255632E+03  0.46352804683E+03  0.67647885044E+03  0.10100000352E+00 0.  1.
</event>
<event>
 5   0  0.1441756E-05  0.1700739E+04  0.7818609E-02  0.8760943E-01
       -2   -1    0    0    0  501  0.00000000000E+00  0.00000000000E+00  0.35452157384E+03  0.35452157385E+03  0.25500000920E-02 0. -1.
        2   -1    0    0  501    0  0.00000000000E+00  0.00000000000E+00 -0.20397292314E+04  0.20397292314E+04  0.25500000920E-02 0.  1.
    10030    2    1    2    0    0  0.00000000000E+00  0.00000000000E+00 -0.16852076576E+04  0.23942508053E+04  0.17007386834E+04 0.  0.
        5    1    3    3  502    0 -0.84155007922E+03 -0.11287455328E+03 -0.90801183133E+03  0.12431632139E+04  0.46999998093E+01 0. -1.
       -5    1    3    3    0  502  0.84155007922E+03  0.11287455328E+03 -0.77719582623E+03  0.11510875913E+04  0.46999998093E+01 0.  1.
</event>
<event>
 5   0  0.1435301E-05  0.1700357E+04  0.7818609E-02  0.8761161E-01
       -2   -1    0    0    0  501  0.00000000000E+00  0.00000000000E+00  0.41150438712E+03  0.41150438713E+03  0.25500000920E-02 0. -1.
        2   -1    0    0  501    0  0.00000000000E+00  0.00000000000E+00 -0.17564896176E+04  0.17564896176E+04  0.25500000920E-02 0.  1.
    10030    2    1    2    0    0  0.00000000000E+00  0.00000000000E+00 -0.13449852305E+04  0.21679940047E+04  0.17003566492E+04 0.  0.
        2    1    3    3  502    0  0.53721234750E+03  0.35084209715E+03  0.38686765115E+02  0.64279386217E+03  0.25500000920E-02 0. -1.
       -2    1    3    3    0  502 -0.53721234750E+03 -0.35084209715E+03 -0.13836719956E+04  0.15252001425E+04  0.25500000920E-02 0.  1.
</event>
<event>
 5   0  0.7082527E-06  0.1701330E+04  0.7818609E-02  0.8760606E-01
       -1   -1    0    0    0  501  0.00000000000E+00  0.00000000000E+00  0.28644219072E+03  0.28644219076E+03  0.50400001928E-02 0. -1.
        1   -1    0    0  501    0  0.00000000000E+00  0.00000000000E+00 -0.25262726858E+04  0.25262726858E+04  0.50400001928E-02 0.  1.
    10030    2    1    2    0    0  0.00000000000E+00  0.00000000000E+00 -0.22398304951E+04  0.28127148766E+04  0.17013301650E+04 0.  0.
        1    1    3    3  502    0 -0.38984428674E+03  0.37020958725E+01 -0.23698805592E+04  0.24017339858E+04  0.50400001928E-02 0.  1.
       -1    1    3    3    0  502  0.38984428674E+03 -0.37020958725E+01  0.13005006411E+03  0.41098089082E+03  0.50400001928E-02 0. -1.
</event>
<event>
 5   0  0.7455669E-06  0.1700059E+04  0.7818609E-02  0.8761330E-01
        1   -1    0    0  501    0  0.00000000000E+00  0.00000000000E+00  0.28166123347E+03  0.28166123352E+03  0.50400001928E-02 0. -1.
       -1   -1    0    0    0  501  0.00000000000E+00  0.00000000000E+00 -0.25653176198E+04  0.25653176198E+04  0.50400001928E-02 0.  1.
    10030    2    1    2    0    0  0.00000000000E+00  0.00000000000E+00 -0.22836563863E+04  0.28469788533E+04  0.17000594403E+04 0.  0.
        4    1    3    3  502    0  0.20357763876E+03  0.67606786145E+03 -0.34918031024E+03  0.78768020811E+03  0.12699999809E+01 0. -1.
       -4    1    3    3    0  502 -0.20357763876E+03 -0.67606786145E+03 -0.19344760761E+04  0.20592986452E+04  0.12699999809E+01 0.  1.
</event>
<event>
 5   0  0.1419012E-05  0.1700614E+04  0.7818609E-02  0.8761014E-01
       -2   -1    0    0    0  501  0.00000000000E+00  0.00000000000E+00  0.53958376759E+03  0.53958376759E+03  0.25500000920E-02 0. -1.
        2   -1    0    0  501    0  0.00000000000E+00  0.00000000000E+00 -0.13399629760E+04  0.13399629760E+04  0.25500000920E-02 0.  1.
    10030    2    1    2    0    0  0.00000000000E+00  0.00000000000E+00 -0.80037920841E+03  0.18795467436E+04  0.17006143255E+04 0.  0.
        4    1    3    3  502    0  0.83981957193E+03 -0.13371883079E+02 -0.54658358155E+03  0.10021132397E+04  0.12699999809E+01 0. -1.
       -4    1    3    3    0  502 -0.83981957193E+03  0.13371883079E+02 -0.25379562686E+03  0.87743350390E+03  0.12699999809E+01 0.  1.
</event>
<event>
 5   0  0.1419012E-05  0.1703280E+04  0.7818609E-02  0.8759496E-01
       -2   -1    0    0    0  501  0.00000000000E+00  0.00000000000E+00  0.56631833930E+03  0.56631833931E+03  0.25500000920E-02 0.  1.
        2   -1    0    0  501    0  0.00000000000E+00  0.00000000000E+00 -0.12807127076E+04  0.12807127076E+04  0.25500000920E-02 0. -1.
    10030    2    1    2    0    0  0.00000000000E+00  0.00000000000E+00 -0.71439436826E+03  0.18470310469E+04  0.17032804745E+04 0.  0.
        4    1    3    3  502    0 -0.61066825838E+03  0.24290333936E+03  0.23015306347E+03  0.69634029008E+03  0.12699999809E+01 0.  1.
       -4    1    3    3    0  502  0.61066825838E+03 -0.24290333936E+03 -0.94454743173E+03  0.11506907568E+04  0.12699999809E+01 0. -1.
</event>
<event>
 5   0  0.7476457E-06  0.1699569E+04  0.7818609E-02  0.8761610E-01
       -1   -1    0    0    0  501  0.00000000000E+00  0.00000000000E+00  0.50464111623E+03  0.50464111626E+03  0.50400001928E-02 0.  1.
        1   -1    0    0  501    0  0.00000000000E+00  0.00000000000E+00 -0.14309841049E+04  0.14309841049E+04  0.50400001928E-02 0. -1.
    10030    2    1    2    0    0  0.00000000000E+00  0.00000000000E+00 -0.92634298864E+03  0.19356252211E+04  0.16995686700E+04 0.  0.
        2    1    3    3  502    0 -0.31295537662E+03  0.71343937313E+02  0.43294360727E+03  0.53895379415E+03  0.25500000920E-02 0.  1.
       -2    1    3    3    0  502  0.31295537662E+03 -0.71343937313E+02 -0.13592865959E+04  0.13966714270E+04  0.25500000920E-02 0. -1.
</event>
<event>
 5   0  0.7476457E-06  0.1700090E+04  0.7818609E-02  0.8761313E-01
        1   -1    0    0  501    0  0.00000000000E+00  0.00000000000E+00  0.65755576833E+03  0.65755576835E+03  0.50400001928E-02 0.  1.
       -1   -1    0    0    0  501  0.00000000000E+00  0.00000000000E+00 -0.10988825112E+04  0.10988825113E+04  0.50400001928E-02 0. -1.
    10030    2    1    2    0    0  0.00000000000E+00  0.00000000000E+00 -0.44132674292E+03  0.17564382796E+04  0.17000900376E+04 0.  0.
        2    1    3    3  502    0  0.36269386519E+03  0.46712762648E+03  0.41016531028E+03  0.71971566679E+03  0.25500000920E-02 0.  1.
       -2    1    3    3    0  502 -0.36269386519E+03 -0.46712762648E+03 -0.85149205319E+03  0.10367226128E+04  0.25500000920E-02 0. -1.
</event>
<event>
 5   0  0.1435301E-05  0.1699163E+04  0.7818609E-02  0.8761842E-01
       -2   -1    0    0    0  501  0.00000000000E+00  0.00000000000E+00  0.26900997283E+03  0.26900997284E+03  0.25500000920E-02 0. -1.
        2   -1    0    0  501    0  0.00000000000E+00  0.00000000000E+00 -0.26831310461E+04  0.26831310461E+04  0.25500000920E-02 0.  1.
    10030    2    1    2    0    0  0.00000000000E+00  0.00000000000E+00 -0.24141210732E+04  0.29521410189E+04  0.16991633351E+04 0.  0.
        2    1    3    3  502    0  0.62199968765E+03  0.16710663053E+03 -0.24443460163E+03  0.68888062238E+03  0.25500000920E-02 0. -1.
       -2    1    3    3    0  502 -0.62199968765E+03 -0.16710663053E+03 -0.21696864716E+04  0.22632603965E+04  0.25500000920E-02 0.  1.
</event>
<event>
 5   0  0.1423543E-05  0.1701363E+04  0.7818609E-02  0.8760587E-01
       -2   -1    0    0    0  501  0.00000000000E+00  0.00000000000E+00  0.49598856343E+03  0.49598856344E+03  0.25500000920E-02 0.  1.
        2   -1    0    0  501    0  0.00000000000E+00  0.00000000000E+00 -0.14590241345E+04  0.14590241345E+04  0.25500000920E-02 0. -1.
    10030    2    1    2    0    0  0.00000000000E+00  0.00000000000E+00 -0.96303557108E+03  0.19550126979E+04  0.17013633175E+04 0.  0.
        3    1    3    3  502    0 -0.23400254144E+03 -0.29533029730E+03 -0.13579036570E+04  0.14092123779E+04  0.10100000352E+00 0. -1.
       -3    1    3    3    0  502  0.23400254144E+03  0.29533029730E+03  0.39486808596E+03  0.54580032009E+03  0.10100000352E+00 0.  1.
</event>
<event>
 5   0  0.1435301E-05  0.1698254E+04  0.7818609E-02  0.8762361E-01
        2   -1    0    0  501    0  0.00000000000E+00  0.00000000000E+00  0.18953914004E+04  0.18953914004E+04  0.25500000920E-02 0.  1.
       -2   -1    0    0    0  501  0.00000000000E+00  0.00000000000E+00 -0.38040518378E+03  0.38040518379E+03  0.25500000920E-02 0. -1.
    10030    2    1    2    0    0  0.00000000000E+00  0.00000000000E+00  0.15149862166E+04  0.22757965842E+04  0.16982540611E+04 0.  0.
        2    1    3    3  502    0 -0.23210042495E+03 -0.73772919607E+03  0.28769658852E+03  0.82515713718E+03  0.25500000920E-02 0. -1.
       -2    1    3    3    0  502  0.23210042495E+03  0.73772919607E+03  0.12272896281E+04  0.14506394470E+04  0.25500000920E-02 0.  1.
</event>
<event>
 5   0  0.1374441E-05  0.1699952E+04  0.7818609E-02  0.8761392E-01
        2   -1    0    0  501    0  0.00000000000E+00  0.00000000000E+00  0.13261492118E+04  0.13261492118E+04  0.25500000920E-02 0. -1.
       -2   -1    0    0    0  501  0.00000000000E+00  0.00000000000E+00 -0.54477970201E+03  0.54477970202E+03  0.25500000920E-02 0.  1.
    10030    2    1    2    0    0  0.00000000000E+00  0.00000000000E+00  0.78136950977E+03  0.18709289138E+04  0.16999519669E+04 0.  0.
        1    1    3    3  502    0 -0.74972702308E+02 -0.32775513788E+03 -0.46848137475E+03  0.57664472165E+03  0.50400001928E-02 0.  1.
       -1    1    3    3    0  502  0.74972702308E+02  0.32775513788E+03  0.12498508845E+04  0.12942841922E+04  0.50400001928E-02 0. -1.
</event>
<event>
 5   0  0.7583716E-06  0.1700208E+04  0.7818609E-02  0.8761246E-01
       -1   -1    0    0    0  501  0.00000000000E+00  0.00000000000E+00  0.92508750279E+03  0.92508750280E+03  0.50400001928E-02 0.  1.
        1   -1    0    0  501    0  0.00000000000E+00  0.00000000000E+00 -0.78119806342E+03  0.78119806344E+03  0.50400001928E-02 0. -1.
    10030    2    1    2    0    0  0.00000000000E+00  0.00000000000E+00  0.14388943937E+03  0.17062855662E+04  0.17002077117E+04 0.  0.
        5    1    3    3  502    0  0.27570848226E+03  0.53251672697E+03  0.67664765040E+03  0.90413680628E+03  0.46999998093E+01 0.  1.
       -5    1    3    3    0  502 -0.27570848226E+03 -0.53251672697E+03 -0.53275821103E+03  0.80214875996E+03  0.46999998093E+01 0. -1.
</event>
<event>
 5   0  0.1441756E-05  0.1701872E+04  0.7818609E-02  0.8760297E-01
        2   -1    0    0  501    0  0.00000000000E+00  0.00000000000E+00  0.12600985850E+04  0.12600985850E+04  0.25500000920E-02 0. -1.
       -2   -1    0    0    0  501  0.00000000000E+00  0.00000000000E+00 -0.57463157809E+03  0.57463157810E+03  0.25500000920E-02 0.  1.
    10030    2    1    2    0    0  0.00000000000E+00  0.00000000000E+00  0.68546700693E+03  0.18347301631E+04  0.17018724259E+04 0.  0.
        5    1    3    3  502    0  0.75655474399E+03 -0.33362443501E+03  0.12607180261E+03  0.83641887455E+03  0.46999998093E+01 0. -1.
       -5    1    3    3    0  502 -0.75655474399E+03  0.33362443501E+03  0.55939520433E+03  0.99831128858E+03  0.46999998093E+01 0.  1.
</event>
<event>
 5   0  0.1419012E-05  0.1699764E+04  0.7818609E-02  0.8761499E-01
        2   -1    0    0  501    0  0.00000000000E+00  0.00000000000E+00  0.85072038877E+03  0.85072038877E+03  0.25500000920E-02 0.  1.
       -2   -1    0    0    0  501  0.00000000000E+00  0.00000000000E+00 -0.84904437384E+03  0.84904437384E+03  0.25500000920E-02 0. -1.
    10030    2    1    2    0    0  0.00000000000E+00  0.00000000000E+00  0.16760149306E+01  0.16997647626E+04  0.16997639363E+04 0.  0.
        4    1    3    3  502    0  0.48273425783E+03 -0.35589050329E+03 -0.60133114271E+03  0.84928862592E+03  0.12699999809E+01 0. -1.
       -4    1    3    3    0  502 -0.48273425783E+03  0.35589050329E+03  0.60300715765E+03  0.85047613669E+03  0.12699999809E+01 0.  1.
</event>
<event>
 5   0  0.1435301E-05  0.1697901E+04  0.7818609E-02  0.8762563E-01
       -2   -1    0    0    0  501  0.00000000000E+00  0.00000000000E+00  0.22188689557E+04  0.22188689557E+04  0.25500000920E-02 0. -1.
        2   -1    0    0  501    0  0.00000000000E+00  0.00000000000E+00 -0.32481259366E+03  0.32481259367E+03  0.25500000920E-02 0.  1.
    10030    2    1    2    0    0  0.00000000000E+00  0.00000000000E+00  0.18940563621E+04  0.25436815494E+04  0.16979005631E+04 0.  0.
        2    1    3    3  502    0  0.14542142872E+03 -0.15821052444E+02 -0.30579019549E+03  0.33897690378E+03  0.25500000920E-02 0.  1.
       -2    1    3    3    0  502 -0.14542142872E+03  0.15821052444E+02  0.21998465576E+04  0.22047046456E+04  0.25500000920E-02 0. -1.
</event>
<event>
 5   0  0.7461128E-06  0.1698610E+04  0.7818609E-02  0.8762158E-01
       -1   -1    0    0    0  501  0.00000000000E+00  0.00000000000E+00  0.51290779091E+03  0.51290779094E+03  0.50400001928E-02 0. -1.
        1   -1    0    0  501    0  0.00000000000E+00  0.00000000000E+00 -0.14063323366E+04  0.14063323366E+04  0.50400001928E-02 0.  1.
    10030    2    1    2    0    0  0.00000000000E+00  0.00000000000E+00 -0.89342454573E+03  0.19192401276E+04  0.16986097988E+04 0.  0.
        3    1    3    3  502    0 -0.82742515740E+02  0.76353758692E+03 -0.85641628230E+03  0.11503411795E+04  0.10100000352E+00 0. -1.
       -3    1    3    3    0  502  0.82742515740E+02 -0.76353758692E+03 -0.37008263428E+02  0.76889894805E+03  0.10100000352E+00 0.  1.
</event>
<event>
 5   0  0.7583716E-06  0.1701070E+04  0.7818609E-02  0.8760754E-01
        1   -1    0    0  501    0  0.00000000000E+00  0.00000000000E+00  0.92719437525E+03  0.92719437526E+03  0.50400001928E-02 0. -1.
       -1   -1    0    0    0  501  0.00000000000E+00  0.00000000000E+00 -0.78021418334E+03  0.78021418336E+03  0.50400001928E-02 0.  1.
    10030    2    1    2    0    0  0.00000000000E+00  0.00000000000E+00  0.14698019190E+03  0.17074085586E+04  0.17010704892E+04 0.  0.
        5    1    3    3  502    0 -0.62113212068E+03  0.55594697367E+03 -0.95976070646E+02  0.83911599020E+03  0.46999998093E+01 0. -1.
       -5    1    3    3    0  502  0.62113212068E+03 -0.55594697367E+03  0.24295626255E+03  0.86829256842E+03  0.46999998093E+01 0.  1.
</event>
<event>
 5   0  0.1374441E-05  0.1700564E+04  0.7818609E-02  0.8761043E-01
       -2   -1    0    0    0  501  0.00000000000E+00  0.00000000000E+00  0.56975766633E+03  0.56975766634E+03  0.25500000920E-02 0.  1.
        2   -1    0    0  501    0  0.00000000000E+00  0.00000000000E+00 -0.12689247926E+04  0.12689247926E+04  0.25500000920E-02 0. -1.
    10030    2    1    2    0    0  0.00000000000E+00  0.00000000000E+00 -0.69916712631E+03  0.18386824590E+04  0.17005641753E+04 0.  0.
        1    1    3    3  502    0 -0.38619265799E+03 -0.81849714181E+02  0.46466521836E+03  0.60971953386E+03  0.50400001928E-02 0.  1.
       -1    1    3    3    0  502  0.38619265799E+03  0.81849714181E+02 -0.11638323447E+04  0.12289629251E+04  0.50400001928E-02 0. -1.
</event>
<event>
 5   0  0.1441756E-05  0.1699192E+04  0.7818609E-02  0.8761825E-01
        2   -1    0    0  501    0  0.00000000000E+00  0.00000000000E+00  0.12608985818E+04  0.12608985818E+04  0.25500000920E-02 0. -1.
       -2   -1    0    0    0  501  0.00000000000E+00  0.00000000000E+00 -0.57245977012E+03  0.57245977012E+03  0.25500000920E-02 0.  1.
    10030    2    1    2    0    0  0.00000000000E+00  0.00000000000E+00  0.68843881168E+03  0.18333583519E+04  0.16991924109E+04 0.  0.
        5    1    3    3  502    0 -0.55811707481E+03 -0.37545816407E+03  0.90416476753E+03  0.11269425535E+04  0.46999998093E+01 0. -1.
       -5    1    3    3    0  502  0.55811707481E+03  0.37545816407E+03 -0.21572595585E+03  0.70641579837E+03  0.46999998093E+01 0.  1.
</event>
<event>
 5   0  0.1441756E-05  0.1700336E+04  0.7818609E-02  0.8761173E-01
        2   -1    0    0  501    0  0.00000000000E+00  0.00000000000E+00  0.13443237978E+04  0.13443237978E+04  0.25500000920E-02 0. -1.
       -2   -1    0    0    0  501  0.00000000000E+00  0.00000000000E+00 -0.53765726172E+03  0.53765726172E+03  0.25500000920E-02 0.  1.
    10030    2    1    2    0    0  0.00000000000E+00  0.00000000000E+00  0.80666653603E+03  0.18819810595E+04  0.17003357927E+04 0.  0.
        5    1    3    3  502    0 -0.45692307611E+03  0.10901670749E+03  0.11876214511E+04  0.12771570542E+04  0.46999998093E+01 0. -1.
       -5    1    3    3    0  502  0.45692307611E+03 -0.10901670749E+03 -0.38095491509E+03  0.60482400525E+03  0.46999998093E+01 0.  1.
</event>
<event>
 5   0  0.7455669E-06  0.1700480E+04  0.7818609E-02  0.8761091E-01
        1   -1    0    0  501    0  0.00000000000E+00  0.00000000000E+00  0.19206136140E+04  0.19206136140E+04  0.50400001928E-02 0.  1.
       -1   -1    0    0    0  501  0.00000000000E+00  0.00000000000E+00 -0.37639425064E+03  0.37639425068E+03  0.50400001928E-02 0. -1.
    10030    2    1    2    0    0  0.00000000000E+00  0.00000000000E+00  0.15442193634E+04  0.22970078647E+04  0.17004798406E+04 0.  0.
        4    1    3    3  502    0 -0.76457994193E+03  0.35556736621E+03  0.62478163113E+03  0.10494590697E+04  0.12699999809E+01 0. -1.
       -4    1    3    3    0  502  0.76457994193E+03 -0.35556736621E+03  0.91943773225E+03  0.12475487950E+04  0.12699999809E+01 0.  1.
</event>
<event>
 5   0  0.7455669E-06  0.1700897E+04  0.7818609E-02  0.8760853E-01
       -1   -1    0    0    0  501  0.00000000000E+00  0.00000000000E+00  0.50817390753E+03  0.50817390755E+03  0.50400001928E-02 0. -1.
        1   -1    0    0  501    0  0.00000000000E+00  0.00000000000E+00 -0.14232587300E+04  0.14232587300E+04  0.50400001928E-02 0.  1.
    10030    2    1    2    0    0  0.00000000000E+00  0.00000000000E+00 -0.91508482248E+03  0.19314326376E+04  0.17008973517E+04 0.  0.
        4    1    3    3  502    0  0.16533598992E+03 -0.80577619784E+03 -0.21228191876E+03  0.84951544807E+03  0.12699999809E+01 0. -1.
       -4    1    3    3    0  502 -0.16533598992E+03  0.80577619784E+03 -0.70280290373E+03  0.10819171895E+04  0.12699999809E+01 0.  1.
</event>
<event>
 5   0  0.7476457E-06  0.1699524E+04  0.7818609E-02  0.8761636E-01
        1   -1    0    0  501    0  0.00000000000E+00  0.00000000000E+00  0.94799649345E+03  0.94799649347E+03  0.50400001928E-02 0.  1.
       -1   -1    0    0    0  501  0.00000000000E+00  0.00000000000E+00 -0.76170729531E+03  0.76170729532E+03  0.50400001928E-02 0. -1.
    10030    2    1    2    0    0  0.00000000000E+00  0.00000000000E+00  0.18628919815E+03  0.17097037888E+04  0.16995244570E+04 0.  0.
        2    1    3    3  502    0 -0.50454472457E+03 -0.46939032769E+03  0.59331787918E+03  0.90935073794E+03  0.25500000920E-02 0.  1.
       -2    1    3    3    0  502  0.50454472457E+03  0.46939032769E+03 -0.40702868104E+03  0.80035305086E+03  0.25500000920E-02 0. -1.
</event>
<event>
 5   0  0.1374441E-05  0.1700182E+04  0.7818609E-02  0.8761261E-01
       -2   -1    0    0    0  501  0.00000000000E+00  0.00000000000E+00  0.47075454719E+03  0.47075454720E+03  0.25500000920E-02 0.  1.
        2   -1    0    0  501    0  0.00000000000E+00  0.00000000000E+00 -0.15350983178E+04  0.15350983178E+04  0.25500000920E-02 0. -1.
    10030    2    1    2    0    0  0.00000000000E+00  0.00000000000E+00 -0.10643437706E+04  0.20058528650E+04  0.17001817708E+04 0.  0.
        1    1    3    3  502    0  0.58053982288E+03 -0.56281274159E+03 -0.22255953814E+03  0.83864021851E+03  0.50400001928E-02 0. -1.
       -1    1    3    3    0  502 -0.58053982288E+03  0.56281274159E+03 -0.84178423241E+03  0.11672126464E+04  0.50400001928E-02 0.  1.
</event>
<event>
 5   0  0.1441756E-05  0.1699166E+04  0.7818609E-02  0.8761840E-01
        2   -1    0    0  501    0  0.00000000000E+00  0.00000000000E+00  0.13849372719E+04  0.13849372719E+04  0.25500000920E-02 0.  1.
       -2   -1    0    0    0  501  0.00000000000E+00  0.00000000000E+00 -0.52117248926E+03  0.52117248927E+03  0.25500000920E-02 0. -1.
    10030    2    1    2    0    0  0.00000000000E+00  0.00000000000E+00  0.86376478265E+03  0.19061097612E+04  0.16991659195E+04 0.  0.
        5    1    3    3  502    0  0.64965019337E+02 -0.69924877863E+03 -0.10446978434E+03  0.71000375632E+03  0.46999998093E+01 0. -1.
       -5    1    3    3    0  502 -0.64965019337E+02  0.69924877863E+03  0.96823456698E+03  0.11961060049E+04  0.46999998093E+01 0.  1.
</event>
<event>
 5   0  0.1423543E-05  0.1700002E+04  0.7818609E-02  0.8761363E-01
        2   -1    0    0  501    0  0.00000000000E+00  0.00000000000E+00  0.13605727343E+04  0.13605727343E+04  0.25500000920E-02 0.  1.
       -2   -1    0    0    0  501  0.00000000000E+00  0.00000000000E+00 -0.53102742144E+03  0.53102742144E+03  0.25500000920E-02 0. -1.
    10030    2    1    2    0    0  0.00000000000E+00  0.00000000000E+00  0.82954531289E+03  0.18916001558E+04  0.17000016833E+04 0.  0.
        3    1    3    3  502    0  0.22906318093E+03 -0.69370032862E+03  0.89826991928E+03  0.11578337294E+04  0.10100000352E+00 0.  1.
       -3    1    3    3    0  502 -0.22906318093E+03  0.69370032862E+03 -0.68724606395E+02  0.73376642640E+03  0.10100000352E+00 0. -1.
</event>
<event>
 5   0  0.7455669E-06  0.1700488E+04  0.7818609E-02  0.8761086E-01
        1   -1    0    0  501    0  0.00000000000E+00  0.00000000000E+00  0.70685825828E+03  0.70685825829E+03  0.50400001928E-02 0.  1.
       -1   -1    0    0    0  501  0.00000000000E+00  0.00000000000E+00 -0.10227152772E+04  0.10227152772E+04  0.50400001928E-02 0. -1.
    10030    2    1    2    0    0  0.00000000000E+00  0.00000000000E+00 -0.31585701890E+03  0.17295735355E+04  0.17004878589E+04 0.  0.
        4    1    3    3  502    0 -0.81537151546E+01  0.68001080282E+03  0.36112559389E+03  0.76999641719E+03  0.12699999809E+01 0.  1.
       -4    1    3    3    0  502  0.81537151546E+01 -0.68001080282E+03 -0.67698261280E+03  0.95957711829E+03  0.12699999809E+01 0. -1.
</event>
<event>
 5   0  0.1374441E-05  0.1700227E+04  0.7818609E-02  0.8761235E-01
       -2   -1    0    0    0  501  0.00000000000E+00  0.00000000000E+00  0.32998883175E+03  0.32998883176E+03  0.25500000920E-02 0. -1.
        2   -1    0    0  501    0  0.00000000000E+00  0.00000000000E+00 -0.21900534918E+04  0.21900534918E+04  0.25500000920E-02 0.  1.
    10030    2    1    2    0    0  0.00000000000E+00  0.00000000000E+00 -0.18600646600E+04  0.25200423236E+04  0.17002272710E+04 0.  0.
        1    1    3    3  502    0  0.79143677662E+03  0.11786364879E+03 -0.13555732736E+04  0.15741165495E+04  0.50400001928E-02 0.  1.
       -1    1    3    3    0  502 -0.79143677662E+03 -0.11786364879E+03 -0.50449138641E+03  0.94592577409E+03  0.50400001928E-02 0. -1.
</event>
<event>
 5   0  0.7455669E-06  0.1699387E+04  0.7818609E-02  0.8761714E-01
        1   -1    0    0  501    0  0.00000000000E+00  0.00000000000E+00  0.53488250307E+03  0.53488250310E+03  0.50400001928E-02 0.  1.
       -1   -1    0    0    0  501  0.00000000000E+00  0.00000000000E+00 -0.13497899198E+04  0.13497899198E+04  0.50400001928E-02 0. -1.
    10030    2    1    2    0    0  0.00000000000E+00  0.00000000000E+00 -0.81490741669E+03  0.18846724229E+04  0.16993869612E+04 0.  0.
        4    1    3    3  502    0 -0.25098612790E+03 -0.11366950932E+03 -0.12988706752E+04  0.13277731122E+04  0.12699999809E+01 0. -1.
       -4    1    3    3    0  502  0.25098612790E+03  0.11366950932E+03  0.48396325849E+03  0.55689931066E+03  0.12699999809E+01 0.  1.
</event>
<event>
 5   0  0.1423543E-05  0.1699807E+04  0.7818609E-02  0.8761474E-01
       -2   -1    0    0    0  501  0.00000000000E+00  0.00000000000E+00  0.71555695863E+03  0.71555695863E+03  0.25500000920E-02 0. -1.
        2   -1    0    0  501    0  0.00000000000E+00  0.00000000000E+00 -0.10094736662E+04  0.10094736662E+04  0.25500000920E-02 0.  1.
    10030    2    1    2    0    0  0.00000000000E+00  0.00000000000E+00 -0.29391670759E+03  0.17250306248E+04  0.16998069378E+04 0.  0.
        3    1    3    3  502    0  0.32962640899E+03 -0.27926377693E+03 -0.88973053758E+03  0.98907141618E+03  0.10100000352E+00 0.  1.
       -3    1    3    3    0  502 -0.32962640899E+03  0.27926377693E+03  0.59581382999E+03  0.73595920867E+03  0.10100000352E+00 0. -1.
</event>
<event>
 5   0  0.1419012E-05  0.1699513E+04  0.7818609E-02  0.8761642E-01
       -2   -1    0    0    0  501  0.00000000000E+00  0.00000000000E+00  0.88662727352E+03  0.88662727353E+03  0.25500000920E-02 0. -1.
        2   -1    0    0  501    0  0.00000000000E+00  0.00000000000E+00 -0.81441934566E+03  0.81441934566E+03  0.25500000920E-02 0.  1.
    10030    2    1    2    0    0  0.00000000000E+00  0.00000000000E+00  0.72207927864E+02  0.17010466192E+04  0.16995133468E+04 0.  0.
        4    1    3    3  502    0 -0.55334551021E+03 -0.29485105084E+03 -0.53796068472E+03  0.82615477185E+03  0.12699999809E+01 0.  1.
       -4    1    3    3    0  502  0.55334551021E+03  0.29485105084E+03  0.61016861259E+03  0.87489184734E+03  0.12699999809E+01 0. -1.
</event>
<event>
 5   0  0.7082527E-06  0.1700225E+04  0.7818609E-02  0.8761236E-01
       -1   -1    0    0    0  501  0.00000000000E+00  0.00000000000E+00  0.49218771218E+03  0.49218771221E+03  0.50400001928E-02 0. -1.
        1   -1    0    0  501    0  0.00000000000E+00  0.00000000000E+00 -0.14683242858E+04  0.14683242858E+04  0.50400001928E-02 0.  1.
    10030    2    1    2    0    0  0.00000000000E+00  0.00000000000E+00 -0.97613657360E+03  0.19605119980E+04  0.17002248922E+04 0.  0.
        1    1    3    3  502    0  0.20256005810E+03 -0.72397953636E+02  0.46028701192E+03  0.50807103263E+03  0.50400001928E-02 0. -1.
       -1    1    3    3    0  502 -0.20256005810E+03  0.72397953636E+02 -0.14364235855E+04  0.14524409654E+04  0.50400001928E-02 0.  1.
</event>
<event>
 5   0  0.1374441E-05  0.1700310E+04  0.7818609E-02  0.8761188E-01
       -2   -1    0    0    0  501  0.00000000000E+00  0.00000000000E+00  0.13718930214E+04  0.13718930214E+04  0.25500000920E-02 0. -1.
        2   -1    0    0  501    0  0.00000000000E+00  0.00000000000E+00 -0.52683662605E+03  0.52683662606E+03  0.25500000920E-02 0.  1.
    10030    2    1    2    0    0  0.00000000000E+00  0.00000000000E+00  0.84505639534E+03  0.18987296475E+04  0.17003099608E+04 0.  0.
        1    1    3    3  502    0 -0.33860195907E+03 -0.30410818891E+03  0.12243988063E+04  0.13062486418E+04  0.50400001928E-02 0. -1.
       -1    1    3    3    0  502  0.33860195907E+03  0.30410818891E+03 -0.37934241099E+03  0.59248100565E+03  0.50400001928E-02 0.  1.
</event>
<event>
 5   0  0.7583716E-06  0.1699664E+04  0.7818609E-02  0.8761556E-01
       -1   -1    0    0    0  501  0.00000000000E+00  0.00000000000E+00  0.17274292053E+04  0.17274292053E+04  0.50400001928E-02 0. -1.
        1   -1    0    0  501    0  0.00000000000E+00  0.00000000000E+00 -0.41808622787E+03  0.41808622790E+03  0.50400001928E-02 0.  1.
    10030    2    1    2    0    0  0.00000000000E+00  0.00000000000E+00  0.13093429774E+04  0.21455154332E+04  0.16996639202E+04 0.  0.
        5    1    3    3  502    0  0.15279940955E+03  0.83003250876E+03  0.52913184275E+03  0.99614467934E+03  0.46999998093E+01 0. -1.
       -5    1    3    3    0  502 -0.15279940955E+03 -0.83003250876E+03  0.78021113465E+03  0.11493707538E+04  0.46999998093E+01 0.  1.
</event>
<event>
 5   0  0.7583716E-06  0.1699616E+04  0.7818609E-02  0.8761583E-01
        1   -1    0    0  501    0  0.00000000000E+00  0.00000000000E+00  0.64817798342E+03  0.64817798344E+03  0.50400001928E-02 0.  1.
       -1   -1    0    0    0  501  0.00000000000E+00  0.00000000000E+00 -0.11141594474E+04  0.11141594474E+04  0.50400001928E-02 0. -1.
    10030    2    1    2    0    0  0.00000000000E+00  0.00000000000E+00 -0.46598146399E+03  0.17623374309E+04  0.16996159847E+04 0.  0.
        5    1    3    3  502    0  0.29650146145E+02 -0.36416949682E+03  0.56256009602E+03  0.67081629766E+03  0.46999998093E+01 0.  1.
       -5    1    3    3    0  502 -0.29650146145E+02  0.36416949682E+03 -0.10285415600E+04  0.10915211332E+04  0.46999998093E+01 0. -1.
</event>
<event>
 5   0  0.7455669E-06  0.1700086E+04  0.7818609E-02  0.8761315E-01
        1   -1    0    0  501    0  0.00000000000E+00  0.00000000000E+00  0.43655671326E+03  0.43655671329E+03  0.50400001928E-02 0.  1.
       -1   -1    0    0    0  501  0.00000000000E+00  0.00000000000E+00 -0.16551641020E+04  0.16551641020E+04  0.50400001928E-02 0. -1.
    10030    2    1    2    0    0  0.00000000000E+00  0.00000000000E+00 -0.12186073887E+04  0.20917208153E+04  0.17000858805E+04 0.  0.
        4    1    3    3  502    0 -0.13668787603E+03  0.80483761077E+03 -0.90078322683E+03  0.12156723201E+04  0.12699999809E+01 0. -1.
       -4    1    3    3    0  502  0.13668787603E+03 -0.80483761077E+03 -0.31782416190E+03  0.87604849521E+03  0.12699999809E+01 0.  1.
</event>
<event>
 5   0  0.7461128E-06  0.1699661E+04  0.7818609E-02  0.8761558E-01
       -1   -1    0    0    0  501  0.00000000000E+00  0.00000000000E+00  0.59175043091E+03  0.59175043093E+03  0.50400001928E-02 0. -1.
        1   -1    0    0  501    0  0.00000000000E+00  0.00000000000E+00 -0.12204674530E+04  0.12204674531E+04  0.50400001928E-02 0.  1.
    10030    2    1    2    0    0  0.00000000000E+00  0.00000000000E+00 -0.62871702214E+03  0.18122178840E+04  0.16996613089E+04 0.  0.
        3    1    3    3  502    0  0.33842171390E+03 -0.70919082309E+03 -0.65941179852E+03  0.10258190924E+04  0.10100000352E+00 0.  1.
       -3    1    3    3    0  502 -0.33842171390E+03  0.70919082309E+03  0.30694776384E+02  0.78639879164E+03  0.10100000352E+00 0. -1.
</event>
<event>
 5   0  0.7461128E-06  0.1699800E+04  0.7818609E-02  0.8761478E-01
       -1   -1    0    0    0  501  0.00000000000E+00  0.00000000000E+00  0.91083523405E+03  0.91083523406E+03  0.50400001928E-02 0.  1.
        1   -1    0    0  501    0  0.00000000000E+00  0.00000000000E+00 -0.79304157147E+03  0.79304157148E+03  0.50400001928E-02 0. -1.
    10030    2    1    2    0    0  0.00000000000E+00  0.00000000000E+00  0.11779366258E+03  0.17038768055E+04  0.16998002299E+04 0.  0.
        3    1    3    3  502    0  0.13618448679E+03  0.66409321902E+03  0.57273147989E+03  0.88746119704E+03  0.10100000352E+00 0.  1.
       -3    1    3    3    0  502 -0.13618448679E+03 -0.66409321902E+03 -0.45493781731E+03  0.81641560851E+03  0.10100000352E+00 0. -1.
</event>
<event>
 5   0  0.7455669E-06  0.1699679E+04  0.7818609E-02  0.8761547E-01
        1   -1    0    0  501    0  0.00000000000E+00  0.00000000000E+00  0.17275632284E+04  0.17275632284E+04  0.50400001928E-02 0.  1.
       -1   -1    0    0    0  501  0.00000000000E+00  0.00000000000E+00 -0.41806137395E+03  0.41806137398E+03  0.50400001928E-02 0. -1.
    10030    2    1    2    0    0  0.00000000000E+00  0.00000000000E+00  0.13095018545E+04  0.21456246024E+04  0.16996793308E+04 0.  0.
        4    1    3    3  502    0 -0.43841152349E+03 -0.72792878858E+03  0.63976861780E+03  0.10636684081E+04  0.12699999809E+01 0. -1.
       -4    1    3    3    0  502  0.43841152349E+03  0.72792878858E+03  0.66973323668E+03  0.10819561943E+04  0.12699999809E+01 0.  1.
</event>
<event>
 5   0  0.7461128E-06  0.1697352E+04  0.7818609E-02  0.8762876E-01
       -1   -1    0    0    0  501  0.00000000000E+00  0.00000000000E+00  0.59801898211E+03  0.59801898213E+03  0.50400001928E-02 0.  1.
        1   -1    0    0  501    0  0.00000000000E+00  0.00000000000E+00 -0.12043944875E+04  0.12043944875E+04  0.50400001928E-02 0. -1.
    10030    2    1    2    0    0  0.00000000000E+00  0.00000000000E+00 -0.60637550534E+03  0.18024134696E+04  0.16973517791E+04 0.  0.
        3    1    3    3  502    0 -0.24113924633E+02  0.60428993710E+03  0.32906756181E+03  0.68850074791E+03  0.10100000352E+00 0.  1.
       -3    1    3    3    0  502  0.24113924633E+02 -0.60428993710E+03 -0.93544306715E+03  0.11139127217E+04  0.10100000352E+00 0. -1.
</event>
<event>
 5   0  0.7082527E-06  0.1700082E+04  0.7818609E-02  0.8761317E-01
        1   -1    0    0  501    0  0.00000000000E+00  0.00000000000E+00  0.92912292806E+03  0.92912292807E+03  0.50400001928E-02 0.  1.
       -1   -1    0    0    0  501  0.00000000000E+00  0.00000000000E+00 -0.77769043802E+03  0.77769043803E+03  0.50400001928E-02 0. -1.
    10030    2    1    2    0    0  0.00000000000E+00  0.00000000000E+00  0.15143249004E+03  0.17068133661E+04  0.17000823708E+04 0.  0.
        1    1    3    3  502    0 -0.69529481707E+03  0.48534137328E+03  0.13577688861E+03  0.85873540439E+03  0.50400001928E-02 0.  1.
       -1    1    3    3    0  502  0.69529481707E+03 -0.48534137328E+03  0.15655601434E+02  0.84807796171E+03  0.50400001928E-02 0. -1.
</event>
<event>
 5   0  0.7583716E-06  0.1699659E+04  0.7818609E-02  0.8761559E-01
        1   -1    0    0  501    0  0.00000000000E+00  0.00000000000E+00  0.11485665894E+04  0.11485665895E+04  0.50400001928E-02 0.  1.
       -1   -1    0    0    0  501  0.00000000000E+00  0.00000000000E+00 -0.62879231024E+03  0.62879231026E+03  0.50400001928E-02 0. -1.
    10030    2    1    2    0    0  0.00000000000E+00  0.00000000000E+00  0.51977427921E+03  0.17773588997E+04  0.16996586002E+04 0.  0.
        5    1    3    3  502    0  0.53833162981E+02 -0.79134678365E+03 -0.59116016223E+02  0.79538954909E+03  0.46999998093E+01 0. -1.
       -5    1    3    3    0  502 -0.53833162981E+02  0.79134678365E+03  0.57889029544E+03  0.98196935063E+03  0.46999998093E+01 0.  1.
</event>
<event>
 5   0  0.1423543E-05  0.1700802E+04  0.7818609E-02  0.8760907E-01
       -2   -1    0    0    0  501  0.00000000000E+00  0.00000000000E+00  0.42500740364E+03  0.42500740365E+03  0.25500000920E-02 0. -1.
        2   -1    0    0  501    0  0.00000000000E+00  0.00000000000E+00 -0.17015754225E+04  0.17015754225E+04  0.25500000920E-02 0.  1.
    10030    2    1    2    0    0  0.00000000000E+00  0.00000000000E+00 -0.12765680189E+04  0.21265828261E+04  0.17008023429E+04 0.  0.
        3    1    3    3  502    0  0.26456901841E+03  0.76610993829E+03 -0.96013677887E+03  0.12564966563E+04  0.10100000352E+00 0.  1.
       -3    1    3    3    0  502 -0.26456901841E+03 -0.76610993829E+03 -0.31643123999E+03  0.87008616981E+03  0.10100000352E+00 0. -1.
</event>
<event>
 5   0  0.1435301E-05  0.1703774E+04  0.7818609E-02  0.8759215E-01
       -2   -1    0    0    0  501  0.00000000000E+00  0.00000000000E+00  0.48110545119E+03  0.48110545120E+03  0.25500000920E-02 0. -1.
        2   -1    0    0  501    0  0.00000000000E+00  0.00000000000E+00 -0.15084254004E+04  0.15084254004E+04  0.25500000920E-02 0.  1.
    10030    2    1    2    0    0  0.00000000000E+00  0.00000000000E+00 -0.10273199492E+04  0.19895308516E+04  0.17037742607E+04 0.  0.
        2    1    3    3  502    0 -0.52961060038E+03 -0.59638580707E+03 -0.16422432448E+03  0.81432981504E+03  0.25500000920E-02 0.  1.
       -2    1    3    3    0  502  0.52961060038E+03  0.59638580707E+03 -0.86309562474E+03  0.11752010366E+04  0.25500000920E-02 0. -1.
</event>
<event>
 5   0  0.7583716E-06  0.1699457E+04  0.7818609E-02  0.8761674E-01
        1   -1    0    0  501    0  0.00000000000E+00  0.00000000000E+00  0.19563271827E+04  0.19563271827E+04  0.50400001928E-02 0. -1.
       -1   -1    0    0    0  501  0.00000000000E+00  0.00000000000E+00 -0.36907853507E+03  0.36907853511E+03  0.50400001928E-02 0.  1.
    10030    2    1    2    0    0  0.00000000000E+00  0.00000000000E+00  0.15872486476E+04  0.23254057178E+04  0.16994568200E+04 0.  0.
        5    1    3    3  502    0  0.58950684470E+03  0.33800624899E+03  0.14916698544E+04  0.16391667361E+04  0.46999998093E+01 0. -1.
       -5    1    3    3    0  502 -0.58950684470E+03 -0.33800624899E+03  0.95578793253E+02  0.68623898171E+03  0.46999998093E+01 0.  1.
</event>
<event>
 5   0  0.1423543E-05  0.1699995E+04  0.7818609E-02  0.8761367E-01
        2   -1    0    0  501    0  0.00000000000E+00  0.00000000000E+00  0.13424681849E+04  0.13424681849E+04  0.25500000920E-02 0.  1.
       -2   -1    0    0    0  501  0.00000000000E+00  0.00000000000E+00 -0.53818460541E+03  0.53818460541E+03  0.25500000920E-02 0. -1.
    10030    2    1    2    0    0  0.00000000000E+00  0.00000000000E+00  0.80428357950E+03  0.18806527903E+04  0.16999949534E+04 0.  0.
        3    1    3    3  502    0 -0.69470508548E+03  0.47421995396E+03  0.26667014246E+03  0.88239033064E+03  0.10100000352E+00 0.  1.
       -3    1    3    3    0  502  0.69470508548E+03 -0.47421995396E+03  0.53761343704E+03  0.99826245968E+03  0.10100000352E+00 0. -1.
</event>
<event>
 5   0  0.1374441E-05  0.1699820E+04  0.7818609E-02  0.8761467E-01
        2   -1    0    0  501    0  0.00000000000E+00  0.00000000000E+00  0.61329363171E+03  0.61329363171E+03  0.25500000920E-02 0.  1.
       -2   -1    0    0    0  501  0.00000000000E+00  0.00000000000E+00 -0.11778156921E+04  0.11778156921E+04  0.25500000920E-02 0. -1.
    10030    2    1    2    0    0  0.00000000000E+00  0.00000000000E+00 -0.56452206040E+03  0.17911093238E+04  0.16998198296E+04 0.  0.
        1    1    3    3  502    0 -0.19343881278E+03  0.79690044142E+03 -0.51758903458E+03  0.96972537173E+03  0.50400001928E-02 0. -1.
       -1    1    3    3    0  502  0.19343881278E+03 -0.79690044142E+03 -0.46933025824E+02  0.82138395210E+03  0.50400001928E-02 0.  1.
</event>
<event>
 5   0  0.1419012E-05  0.1700153E+04  0.7818609E-02  0.8761277E-01
        2   -1    0    0  501    0  0.00000000000E+00  0.00000000000E+00  0.13303622068E+04  0.13303622068E+04  0.25500000920E-02 0. -1.
       -2   -1    0    0    0  501  0.00000000000E+00  0.00000000000E+00 -0.54318291074E+03  0.54318291074E+03  0.25500000920E-02 0.  1.
    10030    2    1    2    0    0  0.00000000000E+00  0.00000000000E+00  0.78717929606E+03  0.18735451175E+04  0.17001529529E+04 0.  0.
        4    1    3    3  502    0 -0.61535538048E+03 -0.22479677238E+03 -0.20334985596E+03  0.68596545830E+03  0.12699999809E+01 0.  1.
       -4    1    3    3    0  502  0.61535538048E+03  0.22479677238E+03  0.99052915202E+03  0.11875796592E+04  0.12699999809E+01 0. -1.
</event>
<event>
 5   0  0.1435301E-05  0.1699694E+04  0.7818609E-02  0.8761539E-01
       -2   -1    0    0    0  501  0.00000000000E+00  0.00000000000E+00  0.61134193191E+03  0.61134193191E+03  0.25500000920E-02 0.  1.
        2   -1    0    0  501    0  0.00000000000E+00  0.00000000000E+00 -0.11814011751E+04  0.11814011751E+04  0.25500000920E-02 0. -1.
    10030    2    1    2    0    0  0.00000000000E+00  0.00000000000E+00 -0.57005924322E+03  0.17927431070E+04  0.16996941805E+04 0.  0.
        2    1    3    3  502    0  0.33785259066E+03 -0.77653606408E+03 -0.20979856971E+03  0.87244946656E+03  0.25500000920E-02 0.  1.
       -2    1    3    3    0  502 -0.33785259066E+03  0.77653606408E+03 -0.36026067351E+03  0.92029364049E+03  0.25500000920E-02 0. -1.
</event>
<event>
 5   0  0.7583716E-06  0.1700144E+04  0.7818609E-02  0.8761282E-01
       -1   -1    0    0    0  501  0.00000000000E+00  0.00000000000E+00  0.18209544339E+04  0.18209544339E+04  0.50400001928E-02 0. -1.
        1   -1    0    0  501    0  0.00000000000E+00  0.00000000000E+00 -0.39683716341E+03  0.39683716344E+03  0.50400001928E-02 0.  1.
    10030    2    1    2    0    0  0.00000000000E+00  0.00000000000E+00  0.14241172704E+04  0.22177915973E+04  0.17001439848E+04 0.  0.
        5    1    3    3  502    0 -0.66234952468E+02 -0.22837842361E+03 -0.35255144845E+03  0.42527448442E+03  0.46999998093E+01 0.  1.
       -5    1    3    3    0  502  0.66234952468E+02  0.22837842361E+03  0.17766687189E+04  0.17925171129E+04  0.46999998093E+01 0. -1.
</event>
<event>
 5   0  0.1435301E-05  0.1704066E+04  0.7818609E-02  0.8759049E-01
       -2   -1    0    0    0  501  0.00000000000E+00  0.00000000000E+00  0.50695996988E+03  0.50695996988E+03  0.25500000920E-02 0.  1.
        2   -1    0    0  501    0  0.00000000000E+00  0.00000000000E+00 -0.14319870068E+04  0.14319870068E+04  0.25500000920E-02 0. -1.
    10030    2    1    2    0    0  0.00000000000E+00  0.00000000000E+00 -0.92502703692E+03  0.19389469767E+04  0.17040658319E+04 0.  0.
        2    1    3    3  502    0  0.28108329482E+03 -0.80101341615E+03 -0.37944544503E+03  0.92984361978E+03  0.25500000920E-02 0. -1.
       -2    1    3    3    0  502 -0.28108329482E+03  0.80101341615E+03 -0.54558159189E+03  0.10091033569E+04  0.25500000920E-02 0.  1.
</event>
<event>
 5   0  0.7583716E-06  0.1700332E+04  0.7818609E-02  0.8761175E-01
        1   -1    0    0  501    0  0.00000000000E+00  0.00000000000E+00  0.43921599865E+03  0.43921599868E+03  0.50400001928E-02 0. -1.
       -1   -1    0    0    0  501  0.00000000000E+00  0.00000000000E+00 -0.16456192374E+04  0.16456192374E+04  0.50400001928E-02 0.  1.
    10030    2    1    2    0    0  0.00000000000E+00  0.00000000000E+00 -0.12064032388E+04  0.20848352361E+04  0.17003320815E+04 0.  0.
        5    1    3    3  502    0 -0.30410413542E+03 -0.67745163610E+03 -0.11107384654E+04  0.13361070589E+04  0.46999998093E+01 0.  1.
       -5    1    3    3    0  502  0.30410413542E+03  0.67745163610E+03 -0.95664773367E+02  0.74872817717E+03  0.46999998093E+01 0. -1.
</event>
<event>
 5   0  0.7476457E-06  0.1700091E+04  0.7818609E-02  0.8761313E-01
       -1   -1    0    0    0  501  0.00000000000E+00  0.00000000000E+00  0.44494493637E+03  0.44494493640E+03  0.50400001928E-02 0.  1.
        1   -1    0    0  501    0  0.00000000000E+00  0.00000000000E+00 -0.16239700479E+04  0.16239700479E+04  0.50400001928E-02 0. -1.
    10030    2    1    2    0    0  0.00000000000E+00  0.00000000000E+00 -0.11790251115E+04  0.20689149843E+04  0.17000908795E+04 0.  0.
        2    1    3    3  502    0  0.68939537110E+03  0.64549629371E+02 -0.11895838301E+04  0.13764237433E+04  0.25500000920E-02 0. -1.
       -2    1    3    3    0  502 -0.68939537110E+03 -0.64549629371E+02  0.10558718536E+02  0.69249124102E+03  0.25500000920E-02 0.  1.
</event>
<event>
 5   0  0.7476457E-06  0.1700018E+04  0.7818609E-02  0.8761354E-01
        1   -1    0    0  501    0  0.00000000000E+00  0.00000000000E+00  0.12291127559E+04  0.12291127559E+04  0.50400001928E-02 0. -1.
       -1   -1    0    0    0  501  0.00000000000E+00  0.00000000000E+00 -0.58783510604E+03  0.58783510606E+03  0.50400001928E-02 0.  1.
    10030    2    1    2    0    0  0.00000000000E+00  0.00000000000E+00  0.64127764983E+03  0.18169478619E+04  0.17000183848E+04 0.  0.
        2    1    3    3  502    0 -0.15755856485E+03 -0.66143702295E+03  0.86581367010E+03  0.11008891625E+04  0.25500000920E-02 0. -1.
       -2    1    3    3    0  502  0.15755856485E+03  0.66143702295E+03 -0.22453602027E+03  0.71605869948E+03  0.25500000920E-02 0.  1.
</event>
<event>
 5   0  0.7455669E-06  0.1700335E+04  0.7818609E-02  0.8761174E-01
        1   -1    0    0  501    0  0.00000000000E+00  0.00000000000E+00  0.13189603031E+04  0.13189603031E+04  0.50400001928E-02 0.  1.
       -1   -1    0    0    0  501  0.00000000000E+00  0.00000000000E+00 -0.54799555264E+03  0.54799555266E+03  0.50400001928E-02 0. -1.
    10030    2    1    2    0    0  0.00000000000E+00  0.00000000000E+00  0.77096475046E+03  0.18669558558E+04  0.17003345321E+04 0.  0.
        4    1    3    3  502    0  0.14811433344E+03 -0.82229317246E+03  0.55797166507E+03  0.10047078726E+04  0.12699999809E+01 0.  1.
       -4    1    3    3    0  502 -0.14811433344E+03  0.82229317246E+03  0.21299308539E+03  0.86224798322E+03  0.12699999809E+01 0. -1.
</event>
<event>
 5   0  0.1374441E-05  0.1699881E+04  0.7818609E-02  0.8761432E-01
       -2   -1    0    0    0  501  0.00000000000E+00  0.00000000000E+00  0.50446490314E+03  0.50446490314E+03  0.25500000920E-02 0. -1.
        2   -1    0    0  501    0  0.00000000000E+00  0.00000000000E+00 -0.14320100385E+04  0.14320100385E+04  0.25500000920E-02 0.  1.
    10030    2    1    2    0    0  0.00000000000E+00  0.00000000000E+00 -0.92754513532E+03  0.19364749416E+04  0.16998809433E+04 0.  0.
        1    1    3    3  502    0  0.53089496120E+02 -0.65859390557E+03  0.14527415017E+03  0.67651238406E+03  0.50400001928E-02 0. -1.
       -1    1    3    3    0  502 -0.53089496120E+02  0.65859390557E+03 -0.10728192855E+04  0.12599625575E+04  0.50400001928E-02 0.  1.
</event>
<event>
 5   0  0.1419012E-05  0.1699938E+04  0.7818609E-02  0.8761400E-01
        2   -1    0    0  501    0  0.00000000000E+00  0.00000000000E+00  0.78816406473E+03  0.78816406473E+03  0.25500000920E-02 0.  1.
       -2   -1    0    0    0  501  0.00000000000E+00  0.00000000000E+00 -0.91662076890E+03  0.91662076890E+03  0.25500000920E-02 0. -1.
    10030    2    1    2    0    0  0.00000000000E+00  0.00000000000E+00 -0.12845670417E+03  0.17047848336E+04  0.16999382942E+04 0.  0.
        4    1    3    3  502    0 -0.43238452368E+03  0.20987319522E+03  0.63880010684E+03  0.79941874120E+03  0.12699999809E+01 0.  1.
       -4    1    3    3    0  502  0.43238452368E+03 -0.20987319522E+03 -0.76725681101E+03  0.90536609243E+03  0.12699999809E+01 0. -1.
</event>
<event>
 5   0  0.7461128E-06  0.1700057E+04  0.7818609E-02  0.8761332E-01
        1   -1    0    0  501    0  0.00000000000E+00  0.00000000000E+00  0.15990314470E+04  0.15990314470E+04  0.50400001928E-02 0. -1.
       -1   -1    0    0    0  501  0.00000000000E+00  0.00000000000E+00 -0.45186623482E+03  0.45186623484E+03  0.50400001928E-02 0.  1.
    10030    2    1    2    0    0  0.00000000000E+00  0.00000000000E+00  0.11471652122E+04  0.20508976819E+04  0.17000568454E+04 0.  0.
        3    1    3    3  502    0 -0.48109221195E+03 -0.27126284164E+03  0.13530835142E+04  0.14614609992E+04  0.10100000352E+00 0. -1.
       -3    1    3    3    0  502  0.48109221195E+03  0.27126284164E+03 -0.20591830193E+03  0.58943668271E+03  0.10100000352E+00 0.  1.
</event>
<event>
 5   0  0.1423543E-05  0.1700477E+04  0.7818609E-02  0.8761092E-01
        2   -1    0    0  501    0  0.00000000000E+00  0.00000000000E+00  0.89050746554E+03  0.89050746554E+03  0.25500000920E-02 0. -1.
       -2   -1    0    0    0  501  0.00000000000E+00  0.00000000000E+00 -0.81179044167E+03  0.81179044168E+03  0.25500000920E-02 0.  1.
    10030    2    1    2    0    0  0.00000000000E+00  0.00000000000E+00  0.78717023867E+02  0.17022979072E+04  0.17004769317E+04 0.  0.
        3    1    3    3  502    0 -0.66086271712E+03  0.76007841635E+02 -0.49072596462E+03  0.82663698528E+03  0.10100000352E+00 0.  1.
       -3    1    3    3    0  502  0.66086271712E+03 -0.76007841635E+02  0.56944298849E+03  0.87566092194E+03  0.10100000352E+00 0. -1.
</event>
<event>
 5   0  0.7461128E-06  0.1698904E+04  0.7818609E-02  0.8761990E-01
        1   -1    0    0  501    0  0.00000000000E+00  0.00000000000E+00  0.66137948054E+03  0.66137948056E+03  0.50400001928E-02 0.  1.
       -1   -1    0    0    0  501  0.00000000000E+00  0.00000000000E+00 -0.10910057978E+04  0.10910057979E+04  0.50400001928E-02 0. -1.
    10030    2    1    2    0    0  0.00000000000E+00  0.00000000000E+00 -0.42962631730E+03  0.17523852784E+04  0.16989041737E+04 0.  0.
        3    1    3    3  502    0  0.45287382602E+03 -0.55788253349E+03 -0.68211016673E+03  0.99075825166E+03  0.10100000352E+00 0. -1.
       -3    1    3    3    0  502 -0.45287382602E+03  0.55788253349E+03  0.25248384943E+03  0.76162702676E+03  0.10100000352E+00 0.  1.
</event>
<event>
 5   0  0.7476457E-06  0.1700503E+04  0.7818609E-02  0.8761078E-01
       -1   -1    0    0    0  501  0.00000000000E+00  0.00000000000E+00  0.70541409982E+03  0.70541409984E+03  0.50400001928E-02 0. -1.
        1   -1    0    0  501    0  0.00000000000E+00  0.00000000000E+00 -0.10248266825E+04  0.10248266825E+04  0.50400001928E-02 0.  1.
    10030    2    1    2    0    0  0.00000000000E+00  0.00000000000E+00 -0.31941258264E+03  0.17302407823E+04  0.17005025042E+04 0.  0.
        2    1    3    3  502    0 -0.65944963409E+03 -0.64066555451E+02 -0.70189357081E+03  0.96521133861E+03  0.25500000920E-02 0.  1.
       -2    1    3    3    0  502  0.65944963409E+03  0.64066555451E+02  0.38248098817E+03  0.76502944371E+03  0.25500000920E-02 0. -1.
</event>
<event>
 5   0  0.1435301E-05  0.1700229E+04  0.7818609E-02  0.8761234E-01
        2   -1    0    0  501    0  0.00000000000E+00  0.00000000000E+00  0.14084242736E+04  0.14084242736E+04  0.25500000920E-02 0. -1.
       -2   -1    0    0    0  501  0.00000000000E+00  0.00000000000E+00 -0.51312308560E+03  0.51312308560E+03  0.25500000920E-02 0.  1.
    10030    2    1    2    0    0  0.00000000000E+00  0.00000000000E+00  0.89530118803E+03  0.19215473592E+04  0.17002294070E+04 0.  0.
        2    1    3    3  502    0  0.95065357170E+02 -0.40109878320E+03 -0.39261908096E+03  0.56926917953E+03  0.25500000920E-02 0.  1.
       -2    1    3    3    0  502 -0.95065357170E+02  0.40109878320E+03  0.12879202690E+04  0.13522781797E+04  0.25500000920E-02 0. -1.
</event>
<event>
 5   0  0.7583716E-06  0.1700769E+04  0.7818609E-02  0.8760926E-01
       -1   -1    0    0    0  501  0.00000000000E+00  0.00000000000E+00  0.71821069825E+03  0.71821069827E+03  0.50400001928E-02 0.  1.
        1   -1    0    0  501    0  0.00000000000E+00  0.00000000000E+00 -0.10068827609E+04  0.10068827609E+04  0.50400001928E-02 0. -1.
    10030    2    1    2    0    0  0.00000000000E+00  0.00000000000E+00 -0.28867206264E+03  0.17250934592E+04  0.17007692034E+04 0.  0.
        5    1    3    3  502    0 -0.13773284994E+03 -0.14064247976E+03 -0.98344099865E+03  0.10029600854E+04  0.46999998093E+01 0. -1.
       -5    1    3    3    0  502  0.13773284994E+03  0.14064247976E+03  0.69476893602E+03  0.72213337378E+03  0.46999998093E+01 0.  1.
</event>
<event>
 5   0  0.7082527E-06  0.1699772E+04  0.7818609E-02  0.8761494E-01
        1   -1    0    0  501    0  0.00000000000E+00  0.00000000000E+00  0.25941769533E+04  0.25941769533E+04  0.50400001928E-02 0.  1.
       -1   -1    0    0    0  501  0.00000000000E+00  0.00000000000E+00 -0.27843379686E+03  0.27843379691E+03  0.50400001928E-02 0. -1.
    10030    2    1    2    0    0  0.00000000000E+00  0.00000000000E+00  0.23157431564E+04  0.28726107502E+04  0.16997723835E+04 0.  0.
        1    1    3    3  502    0  0.22043339261E+03 -0.17829633558E+03  0.25119023088E+04  0.25278515923E+04  0.50400001928E-02 0.  1.
       -1    1    3    3    0  502 -0.22043339261E+03  0.17829633558E+03 -0.19615915237E+03  0.34475915788E+03  0.50400001928E-02 0. -1.
</event>
<event>
 5   0  0.1419012E-05  0.1700408E+04  0.7818609E-02  0.8761132E-01
        2   -1    0    0  501    0  0.00000000000E+00  0.00000000000E+00  0.11789572574E+04  0.11789572574E+04  0.25500000920E-02 0. -1.
       -2   -1    0    0    0  501  0.00000000000E+00  0.00000000000E+00 -0.61312404625E+03  0.61312404626E+03  0.25500000920E-02 0.  1.
    10030    2    1    2    0    0  0.00000000000E+00  0.00000000000E+00  0.56583321112E+03  0.17920813036E+04  0.17004082380E+04 0.  0.
        4    1    3    3  502    0 -0.41149090001E+03  0.53004749059E+02  0.10650241046E+04  0.11429839109E+04  0.12699999809E+01 0. -1.
       -4    1    3    3    0  502  0.41149090001E+03 -0.53004749059E+02 -0.49919089350E+03  0.64909739274E+03  0.12699999809E+01 0.  1.
</event>
<event>
 5   0  0.7082527E-06  0.1699691E+04  0.7818609E-02  0.8761540E-01
        1   -1    0    0  501    0  0.00000000000E+00  0.00000000000E+00  0.68329907957E+03  0.68329907959E+03  0.50400001928E-02 0. -1.
       -1   -1    0    0    0  501  0.00000000000E+00  0.00000000000E+00 -0.10569861627E+04  0.10569861627E+04  0.50400001928E-02 0.  1.
    10030    2    1    2    0    0  0.00000000000E+00  0.00000000000E+00 -0.37368708312E+03  0.17402852423E+04  0.16996913509E+04 0.  0.
        1    1    3    3  502    0 -0.42411477483E+03 -0.46378271186E+03  0.39889448823E+03  0.74436856383E+03  0.50400001928E-02 0. -1.
       -1    1    3    3    0  502  0.42411477483E+03  0.46378271186E+03 -0.77258157134E+03  0.99591667847E+03  0.50400001928E-02 0.  1.
</event>
<event>
 5   0  0.1419012E-05  0.1699843E+04  0.7818609E-02  0.8761454E-01
       -2   -1    0    0    0  501  0.00000000000E+00  0.00000000000E+00  0.30370055080E+03  0.30370055081E+03  0.25500000920E-02 0.  1.
        2   -1    0    0  501    0  0.00000000000E+00  0.00000000000E+00 -0.23785476419E+04  0.23785476419E+04  0.25500000920E-02 0. -1.
    10030    2    1    2    0    0  0.00000000000E+00  0.00000000000E+00 -0.20748470911E+04  0.26822481927E+04  0.16998426150E+04 0.  0.
        4    1    3    3  502    0 -0.34645199562E+03 -0.30372943950E+03 -0.21643903503E+04  0.22128867479E+04  0.12699999809E+01 0. -1.
       -4    1    3    3    0  502  0.34645199562E+03  0.30372943950E+03  0.89543259214E+02  0.46936144480E+03  0.12699999809E+01 0.  1.
</event>
<event>
 5   0  0.1441756E-05  0.1699947E+04  0.7818609E-02  0.8761395E-01
       -2   -1    0    0    0  501  0.00000000000E+00  0.00000000000E+00  0.58657980050E+03  0.58657980051E+03  0.25500000920E-02 0. -1.
        2   -1    0    0  501    0  0.00000000000E+00  0.00000000000E+00 -0.12316389923E+04  0.12316389923E+04  0.25500000920E-02 0.  1.
    10030    2    1    2    0    0  0.00000000000E+00  0.00000000000E+00 -0.64505919180E+03  0.18182187928E+04  0.16999465338E+04 0.  0.
        5    1    3    3  502    0 -0.78104511950E+03  0.30433640451E+03 -0.17210192173E+03  0.85574136704E+03  0.46999998093E+01 0. -1.
       -5    1    3    3    0  502  0.78104511950E+03 -0.30433640451E+03 -0.47295727007E+03  0.96247742577E+03  0.46999998093E+01 0.  1.
</event>
<event>
 5   0  0.7455669E-06  0.1700042E+04  0.7818609E-02  0.8761340E-01
       -1   -1    0    0    0  501  0.00000000000E+00  0.00000000000E+00  0.47208991469E+03  0.47208991472E+03  0.50400001928E-02 0. -1.
        1   -1    0    0  501    0  0.00000000000E+00  0.00000000000E+00 -0.15305051712E+04  0.15305051712E+04  0.50400001928E-02 0.  1.
    10030    2    1    2    0    0  0.00000000000E+00  0.00000000000E+00 -0.10584152565E+04  0.20025950860E+04  0.17000424180E+04 0.  0.
        4    1    3    3  502    0  0.16529567395E+03 -0.28153732731E+03  0.39528956121E+03  0.51268057950E+03  0.12699999809E+01 0. -1.
       -4    1    3    3    0  502 -0.16529567395E+03  0.28153732731E+03 -0.14537048177E+04  0.14899145064E+04  0.12699999809E+01 0.  1.
</event>
<event>
 5   0  0.1441756E-05  0.1699813E+04  0.7818609E-02  0.8761471E-01
        2   -1    0    0  501    0  0.00000000000E+00  0.00000000000E+00  0.13744680906E+04  0.13744680906E+04  0.25500000920E-02 0.  1.
       -2   -1    0    0    0  501  0.00000000000E+00  0.00000000000E+00 -0.52554231167E+03  0.52554231167E+03  0.25500000920E-02 0. -1.
    10030    2    1    2    0    0  0.00000000000E+00  0.00000000000E+00  0.84892577889E+03  0.19000104022E+04  0.16998130928E+04 0.  0.
        5    1    3    3  502    0 -0.62411819978E+00  0.34586268897E+01  0.13744454419E+04  0.13744579711E+04  0.46999998093E+01 0.  1.
       -5    1    3    3    0  502  0.62411819978E+00 -0.34586268897E+01 -0.52551966301E+03  0.52555243110E+03  0.46999998093E+01 0. -1.
</event>
<event>
 5   0  0.7476457E-06  0.1700782E+04  0.7818609E-02  0.8760919E-01
       -1   -1    0    0    0  501  0.00000000000E+00  0.00000000000E+00  0.97621778524E+03  0.97621778525E+03  0.50400001928E-02 0. -1.
        1   -1    0    0  501    0  0.00000000000E+00  0.00000000000E+00 -0.74078215482E+03  0.74078215484E+03  0.50400001928E-02 0.  1.
    10030    2    1    2    0    0  0.00000000000E+00  0.00000000000E+00  0.23543563042E+03  0.17169999401E+04  0.17007818373E+04 0.  0.
        2    1    3    3  502    0  0.69979740692E+03  0.17350417987E+03  0.57295528006E+03  0.92092228994E+03  0.25500000920E-02 0. -1.
       -2    1    3    3    0  502 -0.69979740692E+03 -0.17350417987E+03 -0.33751964964E+03  0.79607765015E+03  0.25500000920E-02 0.  1.
</event>
<event>
 5   0  0.1435301E-05  0.1699733E+04  0.7818609E-02  0.8761516E-01
       -2   -1    0    0    0  501  0.00000000000E+00  0.00000000000E+00  0.44400196732E+03  0.44400196733E+03  0.25500000920E-02 0.  1.
        2   -1    0    0  501    0  0.00000000000E+00  0.00000000000E+00 -0.16267344540E+04  0.16267344540E+04  0.25500000920E-02 0. -1.
    10030    2    1    2    0    0  0.00000000000E+00  0.00000000000E+00 -0.11827324867E+04  0.20707364213E+04  0.16997332707E+04 0.  0.
        2    1    3    3  502    0  0.67653657723E+03  0.12953132229E+03 -0.11978074926E+04  0.13817463201E+04  0.25500000920E-02 0.  1.
       -2    1    3    3    0  502 -0.67653657723E+03 -0.12953132229E+03  0.15075005912E+02  0.68899010123E+03  0.25500000920E-02 0. -1.
</event>
<event>
 5   0  0.7583716E-06  0.1706326E+04  0.7818609E-02  0.8757765E-01
       -1   -1    0    0    0  501  0.00000000000E+00  0.00000000000E+00  0.66158622397E+03  0.66158622399E+03  0.50400001928E-02 0.  1.
        1   -1    0    0  501    0  0.00000000000E+00  0.00000000000E+00 -0.11002152629E+04  0.11002152629E+04  0.50400001928E-02 0. -1.
    10030    2    1    2    0    0  0.00000000000E+00  0.00000000000E+00 -0.43862903894E+03  0.17618014869E+04  0.17063261838E+04 0.  0.
        5    1    3    3  502    0 -0.13861218477E+03 -0.84132259317E+03 -0.18960171745E+03  0.87350325976E+03  0.46999998093E+01 0.  1.
       -5    1    3    3    0  502  0.13861218477E+03  0.84132259317E+03 -0.24902732149E+03  0.88829822717E+03  0.46999998093E+01 0. -1.
</event>
</LesHouchesEvents>
