<LesHouchesEvents version="3.0">
<header>
<!--
#*********************************************************************
#                                                                    *
#                        MadGraph5_aMC@NLO                           *
#                                                                    *
#                           Going Beyond                             *
#                                                                    *
#                   http://madgraph.hep.uiuc.edu                     *
#                   http://madgraph.phys.ucl.ac.be                   *
#                   http://amcatnlo.cern.ch                          *
#                                                                    *
#                     The MadGraph5_aMC@NLO team                     *
#                                                                    *
#....................................................................*
#                                                                    *
# This file contains all the information necessary to reproduce      *
# the events generated:                                              *
#                                                                    *
# 1. software version                                                *
# 2. proc_card          : code generation info including model       *
# 3. param_card         : model primary parameters in the LH format  *
# 4. run_card           : running parameters (collider and cuts)     *
# 5. pythia_card        : present only if pythia has been run        *
# 6. pgs_card           : present only if pgs has been run           *
# 7. delphes_cards      : present only if delphes has been run       *
#                                                                    *
#                                                                    *
#*********************************************************************
-->
<MGVersion>
#5.2.2.3
</MGVersion>
<MG5ProcCard>
#************************************************************
#*                     MadGraph5_aMC@NLO                    *
#*                                                          *
#*                *                       *                 *
#*                  *        * *        *                   *
#*                    * * * * 5 * * * *                     *
#*                  *        * *        *                   *
#*                *                       *                 *
#*                                                          *
#*                                                          *
#*         VERSION 2.2.3                 2015-02-10         *
#*                                                          *
#*    The MadGraph5_aMC@NLO Development Team - Find us at   *
#*    https://server06.fynu.ucl.ac.be/projects/madgraph     *
#*                                                          *
#************************************************************
#*                                                          *
#*               Command File for MadGraph5_aMC@NLO         *
#*                                                          *
#*     run as ./bin/mg5_aMC  filename                       *
#*                                                          *
#************************************************************
set group_subprocesses Auto
set ignore_six_quark_processes False
set loop_optimized_output True
set gauge unitary
set complex_mass_scheme False
import model sm
define p = g u c d s u~ c~ d~ s~
define j = g u c d s u~ c~ d~ s~
define l+ = e+ mu+
define l- = e- mu-
define vl = ve vm vt
define vl~ = ve~ vm~ vt~
import model Zprime_UFO
generate p p > zph, zph > j j
add process p p > zph, zph > b b~
output Dijet_signal
</MG5ProcCard>
<MGProcCard>
#*********************************************************************
#                        MadGraph/MadEvent                           *
#                   http://madgraph.hep.uiuc.edu                     *
#                                                                    *
#                          proc_card.dat                             *
#*********************************************************************
#                                                                    *
#            This Files is generated by MADGRAPH 5                   *
#                                                                    *
# WARNING: This Files is generated for MADEVENT (compatibility issue)*
#          This files is NOT a valid MG4 proc_card.dat               *
#          Running this in MG4 will NEVER reproduce the result of MG5*
#                                                                    *
#*********************************************************************
#*********************************************************************
# Process(es) requested : mg2 input                                  *
#*********************************************************************
# Begin PROCESS # This is TAG. Do not modify this line
p p > zph , zph > j j           #Process
# Be carefull the coupling are here in MG5 convention
          
end_coup           # End the couplings input

done               # this tells MG there are no more procs
# End PROCESS  # This is TAG. Do not modify this line
#*********************************************************************
# Model information                                                  *
#*********************************************************************
# Begin MODEL  # This is TAG. Do not modify this line
Zprime_UFO
# End   MODEL  # This is TAG. Do not modify this line
#*********************************************************************
# Start multiparticle definitions                                    *
#*********************************************************************
# Begin MULTIPARTICLES # This is TAG. Do not modify this line

# End  MULTIPARTICLES # This is TAG. Do not modify this line
</MGProcCard>
<MGRunCard>
#*********************************************************************
#                       MadGraph5_aMC@NLO                            *
#                                                                    *
#                     run_card.dat MadEvent                          *
#                                                                    *
#  This file is used to set the parameters of the run.               *
#                                                                    *
#  Some notation/conventions:                                        *
#                                                                    *
#   Lines starting with a '# ' are info or comments                  *
#                                                                    *
#   mind the format:   value    = variable     ! comment             *
#*********************************************************************
#
#*******************                                                 
# Running parameters
#*******************                                                 
#                                                                    
#*********************************************************************
# Tag name for the run (one word)                                    *
#*********************************************************************
  tag_1     = run_tag ! name of the run 
#*********************************************************************
# Run to generate the grid pack                                      *
#*********************************************************************
  .false.     = gridpack  !True = setting up the grid pack
#*********************************************************************
# Number of events and rnd seed                                      *
# Warning: Do not generate more than 1M events in a single run       *
# If you want to run Pythia, avoid more than 50k events in a run.    *
#*********************************************************************
  2000 = nevents ! Number of unweighted events requested 
 858 = iseed   ! rnd seed (0=assigned automatically=default))
#*********************************************************************
# Collider type and energy                                           *
# lpp: 0=No PDF, 1=proton, -1=antiproton, 2=photon from proton,      *
#                                         3=photon from electron     *
#*********************************************************************
        1     = lpp1    ! beam 1 type 
        1     = lpp2    ! beam 2 type
     4000     = ebeam1  ! beam 1 total energy in GeV
     4000     = ebeam2  ! beam 2 total energy in GeV
#*********************************************************************
# Beam polarization from -100 (left-handed) to 100 (right-handed)    *
#*********************************************************************
        0     = polbeam1 ! beam polarization for beam 1
        0     = polbeam2 ! beam polarization for beam 2
#*********************************************************************
# PDF CHOICE: this automatically fixes also alpha_s and its evol.    *
#*********************************************************************
 'nn23lo1'    = pdlabel     ! PDF set                                     
 230000    = lhaid     ! if pdlabel=lhapdf, this is the lhapdf number
#*********************************************************************
# Renormalization and factorization scales                           *
#*********************************************************************
 F        = fixed_ren_scale  ! if .true. use fixed ren scale
 F        = fixed_fac_scale  ! if .true. use fixed fac scale
 91.1880  = scale            ! fixed ren scale
 91.1880  = dsqrt_q2fact1    ! fixed fact scale for pdf1
 91.1880  = dsqrt_q2fact2    ! fixed fact scale for pdf2
 1        = scalefact        ! scale factor for event-by-event scales
#*********************************************************************
# Matching - Warning! ickkw > 1 is still beta
#*********************************************************************
 0        = ickkw            ! 0 no matching, 1 MLM, 2 CKKW matching
 1        = highestmult      ! for ickkw=2, highest mult group
 1        = ktscheme         ! for ickkw=1, 1 Durham kT, 2 Pythia pTE
 1        = alpsfact         ! scale factor for QCD emission vx
 F        = chcluster        ! cluster only according to channel diag
 T        = pdfwgt           ! for ickkw=1, perform pdf reweighting
 5        = asrwgtflavor     ! highest quark flavor for a_s reweight
 T        = clusinfo         ! include clustering tag in output
 3.0      = lhe_version       ! Change the way clustering information pass to shower.        
#*********************************************************************
#**********************************************************
#
#**********************************************************
# Automatic ptj and mjj cuts if xqcut > 0
# (turn off for VBF and single top processes)
#**********************************************************
   T  = auto_ptj_mjj  ! Automatic setting of ptj and mjj
#**********************************************************
#                                                                    
#**********************************
# BW cutoff (M+/-bwcutoff*Gamma)
#**********************************
  15  = bwcutoff      ! (M+/-bwcutoff*Gamma)
#**********************************************************
# Apply pt/E/eta/dr/mij cuts on decay products or not
# (note that etmiss/ptll/ptheavy/ht/sorted cuts always apply)
#**********************************************************
   T  = cut_decays    ! Cut decay products 
#*************************************************************
# Number of helicities to sum per event (0 = all helicities)
# 0 gives more stable result, but longer run time (needed for
# long decay chains e.g.).
# Use >=2 if most helicities contribute, e.g. pure QCD.
#*************************************************************
   0  = nhel          ! Number of helicities used per event
#*******************                                                 
# Standard Cuts
#*******************                                                 
#                                                                    
#*********************************************************************
# Minimum and maximum pt's (for max, -1 means no cut)                *
#*********************************************************************
 20  = ptj       ! minimum pt for the jets 
  0  = ptb       ! minimum pt for the b 
 10  = pta       ! minimum pt for the photons 
 10  = ptl       ! minimum pt for the charged leptons 
  0  = misset    ! minimum missing Et (sum of neutrino's momenta)
  0  = ptheavy   ! minimum pt for one heavy final state
 1.0 = ptonium   ! minimum pt for the quarkonium states
 -1  = ptjmax    ! maximum pt for the jets
 -1  = ptbmax    ! maximum pt for the b
 -1  = ptamax    ! maximum pt for the photons
 -1  = ptlmax    ! maximum pt for the charged leptons
 -1  = missetmax ! maximum missing Et (sum of neutrino's momenta)
#*********************************************************************
# Minimum and maximum E's (in the center of mass frame)              *
#*********************************************************************
  0  = ej     ! minimum E for the jets 
  0  = eb     ! minimum E for the b 
  0  = ea     ! minimum E for the photons 
  0  = el     ! minimum E for the charged leptons 
 -1   = ejmax ! maximum E for the jets
 -1   = ebmax ! maximum E for the b
 -1   = eamax ! maximum E for the photons
 -1   = elmax ! maximum E for the charged leptons
#*********************************************************************
# Maximum and minimum absolute rapidity (for max, -1 means no cut)   *
#*********************************************************************
   5  = etaj    ! max rap for the jets 
  -1  = etab    ! max rap for the b
 2.5  = etaa    ! max rap for the photons 
 2.5  = etal    ! max rap for the charged leptons 
 0.6  = etaonium ! max rap for the quarkonium states
   0  = etajmin ! min rap for the jets
   0  = etabmin ! min rap for the b
   0  = etaamin ! min rap for the photons
   0  = etalmin ! main rap for the charged leptons
#*********************************************************************
# Minimum and maximum DeltaR distance                                *
#*********************************************************************
 0.4 = drjj    ! min distance between jets 
 0   = drbb    ! min distance between b's 
 0.4 = drll    ! min distance between leptons 
 0.4 = draa    ! min distance between gammas 
 0   = drbj    ! min distance between b and jet 
 0.4 = draj    ! min distance between gamma and jet 
 0.4 = drjl    ! min distance between jet and lepton 
 0   = drab    ! min distance between gamma and b 
 0   = drbl    ! min distance between b and lepton 
 0.4 = dral    ! min distance between gamma and lepton 
 -1  = drjjmax ! max distance between jets
 -1  = drbbmax ! max distance between b's
 -1  = drllmax ! max distance between leptons
 -1  = draamax ! max distance between gammas
 -1  = drbjmax ! max distance between b and jet
 -1  = drajmax ! max distance between gamma and jet
 -1  = drjlmax ! max distance between jet and lepton
 -1  = drabmax ! max distance between gamma and b
 -1  = drblmax ! max distance between b and lepton
 -1  = dralmax ! maxdistance between gamma and lepton
#*********************************************************************
# Minimum and maximum invariant mass for pairs                       *
# WARNING: for four lepton final state mmll cut require to have      *
#          different lepton masses for each flavor!                  *           
#*********************************************************************
 0   = mmjj    ! min invariant mass of a jet pair 
 0   = mmbb    ! min invariant mass of a b pair 
 0   = mmaa    ! min invariant mass of gamma gamma pair
 0   = mmll    ! min invariant mass of l+l- (same flavour) lepton pair
 -1  = mmjjmax ! max invariant mass of a jet pair
 -1  = mmbbmax ! max invariant mass of a b pair
 -1  = mmaamax ! max invariant mass of gamma gamma pair
 -1  = mmllmax ! max invariant mass of l+l- (same flavour) lepton pair
#*********************************************************************
# Minimum and maximum invariant mass for all letpons                 *
#*********************************************************************
 0   = mmnl    ! min invariant mass for all letpons (l+- and vl) 
 -1  = mmnlmax ! max invariant mass for all letpons (l+- and vl) 
#*********************************************************************
# Minimum and maximum pt for 4-momenta sum of leptons                *
#*********************************************************************
 0   = ptllmin  ! Minimum pt for 4-momenta sum of leptons(l and vl)
 -1  = ptllmax  ! Maximum pt for 4-momenta sum of leptons(l and vl)
#*********************************************************************
# Inclusive cuts                                                     *
#*********************************************************************
 0  = xptj ! minimum pt for at least one jet  
 0  = xptb ! minimum pt for at least one b 
 0  = xpta ! minimum pt for at least one photon 
 0  = xptl ! minimum pt for at least one charged lepton 
#*********************************************************************
# Control the pt's of the jets sorted by pt                          *
#*********************************************************************
 0   = ptj1min ! minimum pt for the leading jet in pt
 0   = ptj2min ! minimum pt for the second jet in pt
 0   = ptj3min ! minimum pt for the third jet in pt
 0   = ptj4min ! minimum pt for the fourth jet in pt
 -1  = ptj1max ! maximum pt for the leading jet in pt 
 -1  = ptj2max ! maximum pt for the second jet in pt
 -1  = ptj3max ! maximum pt for the third jet in pt
 -1  = ptj4max ! maximum pt for the fourth jet in pt
 0   = cutuse  ! reject event if fails any (0) / all (1) jet pt cuts
#*********************************************************************
# Control the pt's of leptons sorted by pt                           *
#*********************************************************************
 0   = ptl1min ! minimum pt for the leading lepton in pt
 0   = ptl2min ! minimum pt for the second lepton in pt
 0   = ptl3min ! minimum pt for the third lepton in pt
 0   = ptl4min ! minimum pt for the fourth lepton in pt
 -1  = ptl1max ! maximum pt for the leading lepton in pt 
 -1  = ptl2max ! maximum pt for the second lepton in pt
 -1  = ptl3max ! maximum pt for the third lepton in pt
 -1  = ptl4max ! maximum pt for the fourth lepton in pt
#*********************************************************************
# Control the Ht(k)=Sum of k leading jets                            *
#*********************************************************************
 0   = htjmin ! minimum jet HT=Sum(jet pt)
 -1  = htjmax ! maximum jet HT=Sum(jet pt)
 0   = ihtmin  !inclusive Ht for all partons (including b)
 -1  = ihtmax  !inclusive Ht for all partons (including b)
 0   = ht2min ! minimum Ht for the two leading jets
 0   = ht3min ! minimum Ht for the three leading jets
 0   = ht4min ! minimum Ht for the four leading jets
 -1  = ht2max ! maximum Ht for the two leading jets
 -1  = ht3max ! maximum Ht for the three leading jets
 -1  = ht4max ! maximum Ht for the four leading jets
#***********************************************************************
# Photon-isolation cuts, according to hep-ph/9801442                   *
# When ptgmin=0, all the other parameters are ignored                  *
# When ptgmin>0, pta and draj are not going to be used                 *
#***********************************************************************
   0 = ptgmin ! Min photon transverse momentum
 0.4 = R0gamma ! Radius of isolation code
 1.0 = xn ! n parameter of eq.(3.4) in hep-ph/9801442
 1.0 = epsgamma ! epsilon_gamma parameter of eq.(3.4) in hep-ph/9801442
 .true. = isoEM ! isolate photons from EM energy (photons and leptons)
#*********************************************************************
# WBF cuts                                                           *
#*********************************************************************
 0   = xetamin ! minimum rapidity for two jets in the WBF case  
 0   = deltaeta ! minimum rapidity for two jets in the WBF case 
#*********************************************************************
# KT DURHAM CUT                                                      *
#*********************************************************************
 -1    =  ktdurham        
 0.4  =  dparameter 
#*********************************************************************
# maximal pdg code for quark to be considered as a light jet         *
# (otherwise b cuts are applied)                                     *
#*********************************************************************
 4 = maxjetflavor    ! Maximum jet pdg code
#*********************************************************************
# Jet measure cuts                                                   *
#*********************************************************************
 0   = xqcut   ! minimum kt jet measure between partons
#*********************************************************************
#
#*********************************************************************
# Store info for systematics studies                                 *
# WARNING: If use_syst is T, matched Pythia output is                *
#          meaningful ONLY if plotted taking matchscale              *
#          reweighting into account!                                 *
#*********************************************************************
   F  = use_syst      ! Enable systematics studies
#
#**************************************
# Parameter of the systematics study
#  will be used by SysCalc (if installed)
#**************************************                                  
#
0.5 1 2 = sys_scalefact  # factorization/renormalization scale factor
0.5 1 2 = sys_alpsfact  # \alpha_s emission scale factors
30 50 = sys_matchscale # variation of merging scale
# PDF sets and number of members (0 or none for all members).
CT10nlo.LHgrid = sys_pdf # matching scales
# MSTW2008nlo68cl.LHgrid 1  = sys_pdf
</MGRunCard>
<slha>
######################################################################
## PARAM_CARD AUTOMATICALY GENERATED BY MG5 FOLLOWING UFO MODEL   ####
######################################################################
##                                                                  ##
##  Width set on Auto will be computed following the information    ##
##        present in the decay.py files of the model.               ##
##        See  arXiv:1402.1178 for more details.                    ##
##                                                                  ##
######################################################################

###################################
## INFORMATION FOR CKMBLOCK
###################################
Block ckmblock 
    1 2.277360e-01 # cabi 

###################################
## INFORMATION FOR FRBLOCK
###################################
Block frblock 
    1 4.000000e-01 # gz 

###################################
## INFORMATION FOR MASS
###################################
Block mass 
    1 5.040000e-03 # MD 
    2 2.550000e-03 # MU 
    3 1.010000e-01 # MS 
    4 1.270000e+00 # MC 
    5 4.700000e+00 # MB 
    6 1.720000e+02 # MT 
   11 5.110000e-04 # Me 
   13 1.056600e-01 # MM 
   15 1.777000e+00 # MTA 
   23 9.118760e+01 # MZ 
   25 1.200000e+02 # MH 
  10030 9.000000e+02 # MZph 
  10031 3.000000e+02 # MZpl 
## Dependent parameters, given by model restrictions.
## Those values should be edited following the 
## analytical expression. MG5 ignores those values 
## but they are important for interfacing the output of MG5
## to external program such as Pythia.
  12 0.000000 # ve : 0.0 
  14 0.000000 # vm : 0.0 
  16 0.000000 # vt : 0.0 
  21 0.000000 # g : 0.0 
  22 0.000000 # a : 0.0 
  24 79.824360 # w+ : cmath.sqrt(MZ__exp__2/2. + cmath.sqrt(MZ__exp__4/4. - (aEW*cmath.pi*MZ__exp__2)/(Gf*sqrt__2))) 

###################################
## INFORMATION FOR SMINPUTS
###################################
Block sminputs 
    1 1.279000e+02 # aEWM1 
    2 1.166370e-05 # Gf 
    3 1.184000e-01 # aS 

###################################
## INFORMATION FOR YUKAWA
###################################
Block yukawa 
    1 5.040000e-03 # ymdo 
    2 2.550000e-03 # ymup 
    3 1.010000e-01 # yms 
    4 1.270000e+00 # ymc 
    5 4.700000e+00 # ymb 
    6 1.720000e+02 # ymt 
   11 5.110000e-04 # yme 
   13 1.056600e-01 # ymm 
   15 1.777000e+00 # ymtau 

###################################
## INFORMATION FOR DECAY
###################################
DECAY   6 1.508336e+00 # WT 
DECAY  23 2.495200e+00 # WZ 
DECAY  24 2.085000e+00 # WW 
DECAY  25 5.753088e-03 # WH 
## Dependent parameters, given by model restrictions.
## Those values should be edited following the 
## analytical expression. MG5 ignores those values 
## but they are important for interfacing the output of MG5
## to external program such as Pythia.
DECAY  1 0.000000 # d : 0.0 
DECAY  2 0.000000 # u : 0.0 
DECAY  3 0.000000 # s : 0.0 
DECAY  4 0.000000 # c : 0.0 
DECAY  5 0.000000 # b : 0.0 
DECAY  11 0.000000 # e- : 0.0 
DECAY  12 0.000000 # ve : 0.0 
DECAY  13 0.000000 # mu- : 0.0 
DECAY  14 0.000000 # vm : 0.0 
DECAY  15 0.000000 # ta- : 0.0 
DECAY  16 0.000000 # vt : 0.0 
DECAY  21 0.000000 # g : 0.0 
DECAY  22 0.000000 # a : 0.0 
DECAY  10030 0.308725 # zph : (gz__exp__2*MZph*(5 + cmath.sqrt(1 - (4*MT__exp__2)/MZph__exp__2)))/(144.*cmath.pi) 
DECAY  10031 0.132629 # zpl : (5*gz__exp__2*MZpl)/(144.*cmath.pi) 
#===========================================================
# QUANTUM NUMBERS OF NEW STATE(S) (NON SM PDG CODE)
#===========================================================

Block QNUMBERS 10030  # zph 
        1 0  # 3 times electric charge
        2 3  # number of spin states (2S+1)
        3 1  # colour rep (1: singlet, 3: triplet, 8: octet)
        4 0  # Particle/Antiparticle distinction (0=own anti)
Block QNUMBERS 10031  # zpl 
        1 0  # 3 times electric charge
        2 3  # number of spin states (2S+1)
        3 1  # colour rep (1: singlet, 3: triplet, 8: octet)
        4 0  # Particle/Antiparticle distinction (0=own anti)
</slha>
## END BANNER##
<MGGenerationInfo>
#  Number of Events        :         4068
#  Integrated weight (pb)  :  0.51005E+00
#  Max wgt                 :  0.17044E-03
#  Average wgt             :  0.12538E-03
</MGGenerationInfo>
</header>
<init>
     2212     2212  0.40000000000E+04  0.40000000000E+04 0 0  247000  247000 2   1
  0.50971940418E+00  0.95458087417E-03  0.17044160000E-03   0
</init>
<event>
 5   0  0.1641516E-03  0.8997266E+03  0.7818609E-02  0.9425923E-01
        2   -1    0    0  501    0  0.00000000000E+00  0.00000000000E+00  0.14760513787E+04  0.14760513787E+04  0.25500000920E-02 0.  1.
       -2   -1    0    0    0  501  0.00000000000E+00  0.00000000000E+00 -0.13710699704E+03  0.13710699707E+03  0.25500000920E-02 0. -1.
    10030    2    1    2    0    0  0.00000000000E+00  0.00000000000E+00  0.13389443816E+04  0.16131583757E+04  0.89972656298E+03 0.  0.
        1    1    3    3  502    0  0.20710122767E+03 -0.27219201354E+03  0.11934214120E+04  0.12414644890E+04  0.50400001928E-02 0.  1.
       -1    1    3    3    0  502 -0.20710122767E+03  0.27219201354E+03  0.14552296961E+03  0.37169388676E+03  0.50400001928E-02 0. -1.
</event>
<event>
 5   0  0.1641516E-03  0.8994938E+03  0.7818609E-02  0.9426214E-01
        2   -1    0    0  501    0  0.00000000000E+00  0.00000000000E+00  0.52652042489E+03  0.52652042490E+03  0.25500000920E-02 0. -1.
       -2   -1    0    0    0  501  0.00000000000E+00  0.00000000000E+00 -0.38416795449E+03  0.38416795450E+03  0.25500000920E-02 0.  1.
    10030    2    1    2    0    0  0.00000000000E+00  0.00000000000E+00  0.14235247040E+03  0.91068837940E+03  0.89949380128E+03 0.  0.
        1    1    3    3  502    0  0.22520193643E+03  0.11110922965E+03  0.44892978577E+03  0.51439199611E+03  0.50400001928E-02 0. -1.
       -1    1    3    3    0  502 -0.22520193643E+03 -0.11110922965E+03 -0.30657731537E+03  0.39629638329E+03  0.50400001928E-02 0.  1.
</event>
<event>
 5   0  0.1704416E-03  0.9005151E+03  0.7818609E-02  0.9424938E-01
       -2   -1    0    0    0  501  0.00000000000E+00  0.00000000000E+00  0.30925849999E+03  0.30925850000E+03  0.25500000920E-02 0. -1.
        2   -1    0    0  501    0  0.00000000000E+00  0.00000000000E+00 -0.65554180674E+03  0.65554180675E+03  0.25500000920E-02 0.  1.
    10030    2    1    2    0    0  0.00000000000E+00  0.00000000000E+00 -0.34628330676E+03  0.96480030674E+03  0.90051513222E+03 0.  0.
        3    1    3    3  502    0  0.88504689241E+02  0.44004225924E+03 -0.21119619699E+03  0.49605857896E+03  0.10100000352E+00 0.  1.
       -3    1    3    3    0  502 -0.88504689241E+02 -0.44004225924E+03 -0.13508710977E+03  0.46874172778E+03  0.10100000352E+00 0. -1.
</event>
<event>
 5   0  0.1641516E-03  0.8964608E+03  0.7818609E-02  0.9430016E-01
        2   -1    0    0  501    0  0.00000000000E+00  0.00000000000E+00  0.28722832490E+03  0.28722832491E+03  0.25500000920E-02 0. -1.
       -2   -1    0    0    0  501  0.00000000000E+00  0.00000000000E+00 -0.69948004545E+03  0.69948004545E+03  0.25500000920E-02 0.  1.
    10030    2    1    2    0    0  0.00000000000E+00  0.00000000000E+00 -0.41225172055E+03  0.98670837037E+03  0.89646077831E+03 0.  0.
        1    1    3    3  502    0  0.29018937562E+03  0.34159334083E+03 -0.21033116062E+03  0.49511118082E+03  0.50400001928E-02 0. -1.
       -1    1    3    3    0  502 -0.29018937562E+03 -0.34159334083E+03 -0.20192055993E+03  0.49159718954E+03  0.50400001928E-02 0.  1.
</event>
<event>
 5   0  0.1704416E-03  0.8810923E+03  0.7818609E-02  0.9449531E-01
        2   -1    0    0  501    0  0.00000000000E+00  0.00000000000E+00  0.50794274919E+03  0.50794274920E+03  0.25500000920E-02 0.  1.
       -2   -1    0    0    0  501  0.00000000000E+00  0.00000000000E+00 -0.38209211933E+03  0.38209211934E+03  0.25500000920E-02 0. -1.
    10030    2    1    2    0    0  0.00000000000E+00  0.00000000000E+00  0.12585062986E+03  0.89003486854E+03  0.88109232557E+03 0.  0.
        3    1    3    3  502    0 -0.16993560998E+03 -0.12696061102E+03 -0.32710721863E+03  0.38986696573E+03  0.10100000352E+00 0. -1.
       -3    1    3    3    0  502  0.16993560998E+03  0.12696061102E+03  0.45295784849E+03  0.50016790281E+03  0.10100000352E+00 0.  1.
</event>
<event>
 5   0  0.9223454E-04  0.8730779E+03  0.7818609E-02  0.9459875E-01
        1   -1    0    0  501    0  0.00000000000E+00  0.00000000000E+00  0.10817449684E+04  0.10817449684E+04  0.50400001928E-02 0.  1.
       -1   -1    0    0    0  501  0.00000000000E+00  0.00000000000E+00 -0.17616562248E+03  0.17616562255E+03  0.50400001928E-02 0. -1.
    10030    2    1    2    0    0  0.00000000000E+00  0.00000000000E+00  0.90557934589E+03  0.12579105909E+04  0.87307794787E+03 0.  0.
        1    1    3    3  502    0  0.22248889954E+03  0.37258350774E+03  0.38450087147E+03  0.57979367093E+03  0.50400001928E-02 0. -1.
       -1    1    3    3    0  502 -0.22248889954E+03 -0.37258350774E+03  0.52107847442E+03  0.67811692000E+03  0.50400001928E-02 0.  1.
</event>
<event>
 5   0  0.9321543E-04  0.9003024E+03  0.7818609E-02  0.9425203E-01
        1   -1    0    0  501    0  0.00000000000E+00  0.00000000000E+00  0.10119249387E+04  0.10119249387E+04  0.50400001928E-02 0. -1.
       -1   -1    0    0    0  501  0.00000000000E+00  0.00000000000E+00 -0.20024815297E+03  0.20024815303E+03  0.50400001928E-02 0.  1.
    10030    2    1    2    0    0  0.00000000000E+00  0.00000000000E+00  0.81167678570E+03  0.12121730917E+04  0.90030239356E+03 0.  0.
        3    1    3    3  502    0 -0.13814975988E+03  0.34633709675E+02 -0.16911229057E+03  0.22109687249E+03  0.10100000352E+00 0.  1.
       -3    1    3    3    0  502  0.13814975988E+03 -0.34633709675E+02  0.98078907627E+03  0.99107621923E+03  0.10100000352E+00 0. -1.
</event>
<event>
 5   0  0.1641516E-03  0.8986139E+03  0.7818609E-02  0.9427316E-01
       -2   -1    0    0    0  501  0.00000000000E+00  0.00000000000E+00  0.29869704669E+03  0.29869704670E+03  0.25500000920E-02 0.  1.
        2   -1    0    0  501    0  0.00000000000E+00  0.00000000000E+00 -0.67585783467E+03  0.67585783468E+03  0.25500000920E-02 0. -1.
    10030    2    1    2    0    0  0.00000000000E+00  0.00000000000E+00 -0.37716078798E+03  0.97455488138E+03  0.89861390865E+03 0.  0.
        1    1    3    3  502    0  0.69684673471E+02 -0.75987284934E+02  0.28569452695E+03  0.30372912923E+03  0.50400001928E-02 0.  1.
       -1    1    3    3    0  502 -0.69684673471E+02  0.75987284934E+02 -0.66285531493E+03  0.67082575215E+03  0.50400001928E-02 0. -1.
</event>
<event>
 5   0  0.1007561E-03  0.8984896E+03  0.7818609E-02  0.9427471E-01
       -1   -1    0    0    0  501  0.00000000000E+00  0.00000000000E+00  0.13760762124E+03  0.13760762134E+03  0.50400001928E-02 0. -1.
        1   -1    0    0  501    0  0.00000000000E+00  0.00000000000E+00 -0.14666404716E+04  0.14666404716E+04  0.50400001928E-02 0.  1.
    10030    2    1    2    0    0  0.00000000000E+00  0.00000000000E+00 -0.13290328503E+04  0.16042480929E+04  0.89848963621E+03 0.  0.
        2    1    3    3  502    0 -0.29424981229E+03  0.30673150650E+03 -0.40482834554E+03  0.58698650621E+03  0.25500000920E-02 0. -1.
       -2    1    3    3    0  502  0.29424981229E+03 -0.30673150650E+03 -0.92420450480E+03  0.10172615867E+04  0.25500000920E-02 0.  1.
</event>
<event>
 5   0  0.1641516E-03  0.9026639E+03  0.7818609E-02  0.9422257E-01
        2   -1    0    0  501    0  0.00000000000E+00  0.00000000000E+00  0.92715466079E+03  0.92715466080E+03  0.25500000920E-02 0.  1.
       -2   -1    0    0    0  501  0.00000000000E+00  0.00000000000E+00 -0.21970503646E+03  0.21970503647E+03  0.25500000920E-02 0. -1.
    10030    2    1    2    0    0  0.00000000000E+00  0.00000000000E+00  0.70744962434E+03  0.11468596973E+04  0.90266394314E+03 0.  0.
        1    1    3    3  502    0 -0.43178764246E+03  0.11187571252E+03  0.44123278525E+03  0.62740984534E+03  0.50400001928E-02 0.  1.
       -1    1    3    3    0  502  0.43178764246E+03 -0.11187571252E+03  0.26621683909E+03  0.51944985193E+03  0.50400001928E-02 0. -1.
</event>
<event>
 5   0  0.6375625E-04  0.8997135E+03  0.7818609E-02  0.9425940E-01
        4   -1    0    0  501    0  0.00000000000E+00  0.00000000000E+00  0.12103075770E+04  0.12103082433E+04  0.12699999809E+01 0.  1.
       -4   -1    0    0    0  501  0.00000000000E+00  0.00000000000E+00 -0.16720321799E+03  0.16720804109E+03  0.12699999809E+01 0. -1.
    10030    2    1    2    0    0  0.00000000000E+00  0.00000000000E+00  0.10431043590E+04  0.13775162844E+04  0.89971351552E+03 0.  0.
        4    1    3    3  502    0  0.14591487199E+03  0.27669501680E+03  0.10165331164E+04  0.10635753249E+04  0.12699999809E+01 0.  1.
       -4    1    3    3    0  502 -0.14591487199E+03 -0.27669501680E+03  0.26571242590E+02  0.31394095945E+03  0.12699999809E+01 0. -1.
</event>
<event>
 5   0  0.1635686E-03  0.9016437E+03  0.7818609E-02  0.9423529E-01
       -2   -1    0    0    0  501  0.00000000000E+00  0.00000000000E+00  0.30498104754E+03  0.30498104755E+03  0.25500000920E-02 0. -1.
        2   -1    0    0  501    0  0.00000000000E+00  0.00000000000E+00 -0.66640322348E+03  0.66640322349E+03  0.25500000920E-02 0.  1.
    10030    2    1    2    0    0  0.00000000000E+00  0.00000000000E+00 -0.36142217594E+03  0.97138427104E+03  0.90164372829E+03 0.  0.
        5    1    3    3  502    0  0.24264733951E+03 -0.12693437020E+03 -0.56649833717E+03  0.62923169161E+03  0.46999998093E+01 0.  1.
       -5    1    3    3    0  502 -0.24264733951E+03  0.12693437020E+03  0.20507616123E+03  0.34215257943E+03  0.46999998093E+01 0. -1.
</event>
<event>
 5   0  0.9697941E-04  0.8958007E+03  0.7818609E-02  0.9430846E-01
       -1   -1    0    0    0  501  0.00000000000E+00  0.00000000000E+00  0.33789155477E+03  0.33789155480E+03  0.50400001928E-02 0. -1.
        1   -1    0    0  501    0  0.00000000000E+00  0.00000000000E+00 -0.59372522062E+03  0.59372522064E+03  0.50400001928E-02 0.  1.
    10030    2    1    2    0    0  0.00000000000E+00  0.00000000000E+00 -0.25583366585E+03  0.93161677545E+03  0.89580073214E+03 0.  0.
        5    1    3    3  502    0  0.33572468158E+03 -0.45086829394E+02  0.17679751938E+03  0.38212999995E+03  0.46999998093E+01 0. -1.
       -5    1    3    3    0  502 -0.33572468158E+03  0.45086829394E+02 -0.43263118524E+03  0.54948677549E+03  0.46999998093E+01 0.  1.
</event>
<event>
 5   0  0.6375625E-04  0.8975838E+03  0.7818609E-02  0.9428607E-01
       -3   -1    0    0    0  501  0.00000000000E+00  0.00000000000E+00  0.34569229920E+03  0.34569231395E+03  0.10100000352E+00 0. -1.
        3   -1    0    0  501    0  0.00000000000E+00  0.00000000000E+00 -0.58263998155E+03  0.58263999030E+03  0.10100000352E+00 0.  1.
    10030    2    1    2    0    0  0.00000000000E+00  0.00000000000E+00 -0.23694768235E+03  0.92833230425E+03  0.89758379160E+03 0.  0.
        4    1    3    3  502    0 -0.94919016241E+02 -0.24191221698E+03 -0.49690649609E+03  0.56075736208E+03  0.12699999809E+01 0.  1.
       -4    1    3    3    0  502  0.94919016241E+02  0.24191221698E+03  0.25995881375E+03  0.36757494217E+03  0.12699999809E+01 0. -1.
</event>
<event>
 5   0  0.9223454E-04  0.8997151E+03  0.7818609E-02  0.9425938E-01
       -1   -1    0    0    0  501  0.00000000000E+00  0.00000000000E+00  0.49623263607E+03  0.49623263609E+03  0.50400001928E-02 0. -1.
        1   -1    0    0  501    0  0.00000000000E+00  0.00000000000E+00 -0.40781640276E+03  0.40781640280E+03  0.50400001928E-02 0.  1.
    10030    2    1    2    0    0  0.00000000000E+00  0.00000000000E+00  0.88416233303E+02  0.90404903889E+03  0.89971508513E+03 0.  0.
        1    1    3    3  502    0 -0.19278354925E+03 -0.31172393297E+03 -0.21788257057E+03  0.42639198144E+03  0.50400001928E-02 0.  1.
       -1    1    3    3    0  502  0.19278354925E+03  0.31172393297E+03  0.30629880388E+03  0.47765705745E+03  0.50400001928E-02 0. -1.
</event>
<event>
 5   0  0.9321543E-04  0.9003242E+03  0.7818609E-02  0.9425176E-01
       -1   -1    0    0    0  501  0.00000000000E+00  0.00000000000E+00  0.46134232168E+03  0.46134232171E+03  0.50400001928E-02 0.  1.
        1   -1    0    0  501    0  0.00000000000E+00  0.00000000000E+00 -0.43925286178E+03  0.43925286181E+03  0.50400001928E-02 0. -1.
    10030    2    1    2    0    0  0.00000000000E+00  0.00000000000E+00  0.22089459898E+02  0.90059518352E+03  0.90032424179E+03 0.  0.
        3    1    3    3  502    0  0.29882877861E+03  0.39299601237E+01  0.34779398881E+03  0.45855725091E+03  0.10100000352E+00 0.  1.
       -3    1    3    3    0  502 -0.29882877861E+03 -0.39299601237E+01 -0.32570452892E+03  0.44203793261E+03  0.10100000352E+00 0. -1.
</event>
<event>
 5   0  0.9321543E-04  0.8995112E+03  0.7818609E-02  0.9426193E-01
        1   -1    0    0  501    0  0.00000000000E+00  0.00000000000E+00  0.68363763298E+03  0.68363763299E+03  0.50400001928E-02 0. -1.
       -1   -1    0    0    0  501  0.00000000000E+00  0.00000000000E+00 -0.29588788931E+03  0.29588788936E+03  0.50400001928E-02 0.  1.
    10030    2    1    2    0    0  0.00000000000E+00  0.00000000000E+00  0.38774974366E+03  0.97952552235E+03  0.89951119239E+03 0.  0.
        3    1    3    3  502    0 -0.24306699315E+03  0.65209017245E+02  0.59978761811E+03  0.65044521378E+03  0.10100000352E+00 0. -1.
       -3    1    3    3    0  502  0.24306699315E+03 -0.65209017245E+02 -0.21203787445E+03  0.32908030857E+03  0.10100000352E+00 0.  1.
</event>
<event>
 5   0  0.1641516E-03  0.8998303E+03  0.7818609E-02  0.9425794E-01
        2   -1    0    0  501    0  0.00000000000E+00  0.00000000000E+00  0.13154753482E+04  0.13154753482E+04  0.25500000920E-02 0.  1.
       -2   -1    0    0    0  501  0.00000000000E+00  0.00000000000E+00 -0.15387871700E+03  0.15387871702E+03  0.25500000920E-02 0. -1.
    10030    2    1    2    0    0  0.00000000000E+00  0.00000000000E+00  0.11615966312E+04  0.14693540653E+04  0.89983033701E+03 0.  0.
        1    1    3    3  502    0 -0.42352947799E+03 -0.14059658566E+03  0.48729237605E+03  0.66075599007E+03  0.50400001928E-02 0. -1.
       -1    1    3    3    0  502  0.42352947799E+03  0.14059658566E+03  0.67430425519E+03  0.80859807520E+03  0.50400001928E-02 0.  1.
</event>
<event>
 5   0  0.9981885E-04  0.9010988E+03  0.7818609E-02  0.9424209E-01
       -1   -1    0    0    0  501  0.00000000000E+00  0.00000000000E+00  0.42573589582E+03  0.42573589585E+03  0.50400001928E-02 0. -1.
        1   -1    0    0  501    0  0.00000000000E+00  0.00000000000E+00 -0.47680912180E+03  0.47680912182E+03  0.50400001928E-02 0.  1.
    10030    2    1    2    0    0  0.00000000000E+00  0.00000000000E+00 -0.51073225978E+02  0.90254501767E+03  0.90109879287E+03 0.  0.
        4    1    3    3  502    0  0.41756056106E+03 -0.46966454531E+02  0.13729883573E+03  0.44205797493E+03  0.12699999809E+01 0.  1.
       -4    1    3    3    0  502 -0.41756056106E+03  0.46966454531E+02 -0.18837206171E+03  0.46048704274E+03  0.12699999809E+01 0. -1.
</event>
<event>
 5   0  0.9223454E-04  0.9005002E+03  0.7818609E-02  0.9424956E-01
       -1   -1    0    0    0  501  0.00000000000E+00  0.00000000000E+00  0.86814101360E+03  0.86814101362E+03  0.50400001928E-02 0. -1.
        1   -1    0    0  501    0  0.00000000000E+00  0.00000000000E+00 -0.23351639786E+03  0.23351639791E+03  0.50400001928E-02 0.  1.
    10030    2    1    2    0    0  0.00000000000E+00  0.00000000000E+00  0.63462461574E+03  0.11016574115E+04  0.90050022180E+03 0.  0.
        1    1    3    3  502    0 -0.65489994715E+02 -0.40225402731E+03  0.83175945032E+02  0.41595129492E+03  0.50400001928E-02 0.  1.
       -1    1    3    3    0  502  0.65489994715E+02  0.40225402731E+03  0.55144867071E+03  0.68570611660E+03  0.50400001928E-02 0. -1.
</event>
<event>
 5   0  0.1536020E-03  0.9005744E+03  0.7818609E-02  0.9424864E-01
       -2   -1    0    0    0  501  0.00000000000E+00  0.00000000000E+00  0.15719235974E+03  0.15719235976E+03  0.25500000920E-02 0. -1.
        2   -1    0    0  501    0  0.00000000000E+00  0.00000000000E+00 -0.12898754226E+04  0.12898754226E+04  0.25500000920E-02 0.  1.
    10030    2    1    2    0    0  0.00000000000E+00  0.00000000000E+00 -0.11326830629E+04  0.14470677824E+04  0.90057439776E+03 0.  0.
        2    1    3    3  502    0 -0.27257369526E+03  0.29034778358E+03 -0.90400596506E+03  0.98783856963E+03  0.25500000920E-02 0.  1.
       -2    1    3    3    0  502  0.27257369526E+03 -0.29034778358E+03 -0.22867709783E+03  0.45922921277E+03  0.25500000920E-02 0. -1.
</event>
<event>
 5   0  0.9321543E-04  0.9013925E+03  0.7818609E-02  0.9423842E-01
        1   -1    0    0  501    0  0.00000000000E+00  0.00000000000E+00  0.36783630544E+03  0.36783630547E+03  0.50400001928E-02 0. -1.
       -1   -1    0    0    0  501  0.00000000000E+00  0.00000000000E+00 -0.55222146226E+03  0.55222146228E+03  0.50400001928E-02 0.  1.
    10030    2    1    2    0    0  0.00000000000E+00  0.00000000000E+00 -0.18438515682E+03  0.92005776775E+03  0.90139248385E+03 0.  0.
        3    1    3    3  502    0  0.47645414103E+02 -0.38441938293E+02 -0.54795772931E+03  0.55136698434E+03  0.10100000352E+00 0.  1.
       -3    1    3    3    0  502 -0.47645414103E+02  0.38441938293E+02  0.36357257249E+03  0.36869078341E+03  0.10100000352E+00 0. -1.
</event>
<event>
 5   0  0.6375625E-04  0.8983950E+03  0.7818609E-02  0.9427590E-01
        3   -1    0    0  501    0  0.00000000000E+00  0.00000000000E+00  0.95083409251E+03  0.95083409788E+03  0.10100000352E+00 0. -1.
       -3   -1    0    0    0  501  0.00000000000E+00  0.00000000000E+00 -0.21221195489E+03  0.21221197892E+03  0.10100000352E+00 0.  1.
    10030    2    1    2    0    0  0.00000000000E+00  0.00000000000E+00  0.73862213762E+03  0.11630460768E+04  0.89839496580E+03 0.  0.
        1    1    3    3  502    0  0.11834729231E+03 -0.30035204892E+03 -0.35048390667E+02  0.32472422854E+03  0.50400001928E-02 0.  1.
       -1    1    3    3    0  502 -0.11834729231E+03  0.30035204892E+03  0.77367052829E+03  0.83832184826E+03  0.50400001928E-02 0. -1.
</event>
<event>
 5   0  0.1704416E-03  0.9003982E+03  0.7818609E-02  0.9425084E-01
        2   -1    0    0  501    0  0.00000000000E+00  0.00000000000E+00  0.86239279308E+03  0.86239279308E+03  0.25500000920E-02 0. -1.
       -2   -1    0    0    0  501  0.00000000000E+00  0.00000000000E+00 -0.23501964170E+03  0.23501964172E+03  0.25500000920E-02 0.  1.
    10030    2    1    2    0    0  0.00000000000E+00  0.00000000000E+00  0.62737315138E+03  0.10974124348E+04  0.90039823467E+03 0.  0.
        3    1    3    3  502    0 -0.22201603783E+03 -0.28912307186E+03  0.63568251503E+03  0.73278615015E+03  0.10100000352E+00 0. -1.
       -3    1    3    3    0  502  0.22201603783E+03  0.28912307186E+03 -0.83093636540E+01  0.36462628465E+03  0.10100000352E+00 0.  1.
</event>
<event>
 5   0  0.9223454E-04  0.9002198E+03  0.7818609E-02  0.9425307E-01
        1   -1    0    0  501    0  0.00000000000E+00  0.00000000000E+00  0.19412029454E+04  0.19412029454E+04  0.50400001928E-02 0. -1.
       -1   -1    0    0    0  501  0.00000000000E+00  0.00000000000E+00 -0.10436771452E+03  0.10436771464E+03  0.50400001928E-02 0.  1.
    10030    2    1    2    0    0  0.00000000000E+00  0.00000000000E+00  0.18368352309E+04  0.20455706600E+04  0.90021978417E+03 0.  0.
        1    1    3    3  502    0  0.36036803628E+03  0.25720927703E+03  0.11027008537E+04  0.11882638202E+04  0.50400001928E-02 0.  1.
       -1    1    3    3    0  502 -0.36036803628E+03 -0.25720927703E+03  0.73413437719E+03  0.85730683979E+03  0.50400001928E-02 0. -1.
</event>
<event>
 5   0  0.1536020E-03  0.9008670E+03  0.7818609E-02  0.9424498E-01
        2   -1    0    0  501    0  0.00000000000E+00  0.00000000000E+00  0.10024491084E+04  0.10024491084E+04  0.25500000920E-02 0. -1.
       -2   -1    0    0    0  501  0.00000000000E+00  0.00000000000E+00 -0.20239465503E+03  0.20239465505E+03  0.25500000920E-02 0.  1.
    10030    2    1    2    0    0  0.00000000000E+00  0.00000000000E+00  0.80005445336E+03  0.12048437634E+04  0.90086700792E+03 0.  0.
        2    1    3    3  502    0  0.65134222562E+01 -0.41089607973E+03  0.15337318622E+03  0.43863577974E+03  0.25500000920E-02 0. -1.
       -2    1    3    3    0  502 -0.65134222562E+01  0.41089607973E+03  0.64668126714E+03  0.76620798370E+03  0.25500000920E-02 0.  1.
</event>
<event>
 5   0  0.1007561E-03  0.8984787E+03  0.7818609E-02  0.9427485E-01
       -1   -1    0    0    0  501  0.00000000000E+00  0.00000000000E+00  0.44942319568E+03  0.44942319571E+03  0.50400001928E-02 0. -1.
        1   -1    0    0  501    0  0.00000000000E+00  0.00000000000E+00 -0.44905557687E+03  0.44905557690E+03  0.50400001928E-02 0.  1.
    10030    2    1    2    0    0  0.00000000000E+00  0.00000000000E+00  0.36761881126E+00  0.89847877261E+03  0.89847869741E+03 0.  0.
        2    1    3    3  502    0 -0.25814248093E+02  0.20921921418E+03 -0.39652384590E+03  0.44907707062E+03  0.25500000920E-02 0.  1.
       -2    1    3    3    0  502  0.25814248093E+02 -0.20921921418E+03  0.39689146471E+03  0.44940170199E+03  0.25500000920E-02 0. -1.
</event>
<event>
 5   0  0.1704416E-03  0.8980393E+03  0.7818609E-02  0.9428036E-01
        2   -1    0    0  501    0  0.00000000000E+00  0.00000000000E+00  0.20252035499E+04  0.20252035499E+04  0.25500000920E-02 0.  1.
       -2   -1    0    0    0  501  0.00000000000E+00  0.00000000000E+00 -0.99554752861E+02  0.99554752893E+02  0.25500000920E-02 0. -1.
    10030    2    1    2    0    0  0.00000000000E+00  0.00000000000E+00  0.19256487971E+04  0.21247583028E+04  0.89803928409E+03 0.  0.
        3    1    3    3  502    0  0.32129267642E+03  0.29709030099E+03  0.12009217473E+04  0.12781645763E+04  0.10100000352E+00 0. -1.
       -3    1    3    3    0  502 -0.32129267642E+03 -0.29709030099E+03  0.72472704978E+03  0.84659372649E+03  0.10100000352E+00 0.  1.
</event>
<event>
 5   0  0.1635686E-03  0.8994952E+03  0.7818609E-02  0.9426213E-01
       -2   -1    0    0    0  501  0.00000000000E+00  0.00000000000E+00  0.15936739648E+03  0.15936739650E+03  0.25500000920E-02 0. -1.
        2   -1    0    0  501    0  0.00000000000E+00  0.00000000000E+00 -0.12692239955E+04  0.12692239955E+04  0.25500000920E-02 0.  1.
    10030    2    1    2    0    0  0.00000000000E+00  0.00000000000E+00 -0.11098565990E+04  0.14285913920E+04  0.89949524451E+03 0.  0.
        5    1    3    3  502    0 -0.24217518790E+02  0.15217724872E+03 -0.12259492659E+04  0.12356043443E+04  0.46999998093E+01 0.  1.
       -5    1    3    3    0  502  0.24217518790E+02 -0.15217724872E+03  0.11609266690E+03  0.19298704762E+03  0.46999998093E+01 0. -1.
</event>
<event>
 5   0  0.1007561E-03  0.9005096E+03  0.7818609E-02  0.9424945E-01
       -1   -1    0    0    0  501  0.00000000000E+00  0.00000000000E+00  0.15496525598E+03  0.15496525606E+03  0.50400001928E-02 0. -1.
        1   -1    0    0  501    0  0.00000000000E+00  0.00000000000E+00 -0.13082246643E+04  0.13082246644E+04  0.50400001928E-02 0.  1.
    10030    2    1    2    0    0  0.00000000000E+00  0.00000000000E+00 -0.11532594084E+04  0.14631899204E+04  0.90050956697E+03 0.  0.
        2    1    3    3  502    0  0.16061809786E+03  0.41381073642E+03 -0.69921542870E+03  0.82821477569E+03  0.25500000920E-02 0.  1.
       -2    1    3    3    0  502 -0.16061809786E+03 -0.41381073642E+03 -0.45404397966E+03  0.63497514472E+03  0.25500000920E-02 0. -1.
</event>
<event>
 5   0  0.1704416E-03  0.8998639E+03  0.7818609E-02  0.9425752E-01
       -2   -1    0    0    0  501  0.00000000000E+00  0.00000000000E+00  0.98618836384E+02  0.98618836417E+02  0.25500000920E-02 0.  1.
        2   -1    0    0  501    0  0.00000000000E+00  0.00000000000E+00 -0.20527394507E+04  0.20527394507E+04  0.25500000920E-02 0. -1.
    10030    2    1    2    0    0  0.00000000000E+00  0.00000000000E+00 -0.19541206143E+04  0.21513582871E+04  0.89986393652E+03 0.  0.
        3    1    3    3  502    0 -0.32539299917E+03  0.29536054416E+03 -0.12078684340E+04  0.12853266585E+04  0.10100000352E+00 0. -1.
       -3    1    3    3    0  502  0.32539299917E+03 -0.29536054416E+03 -0.74625218027E+03  0.86603162859E+03  0.10100000352E+00 0.  1.
</event>
<event>
 5   0  0.1641516E-03  0.8965989E+03  0.7818609E-02  0.9429843E-01
       -2   -1    0    0    0  501  0.00000000000E+00  0.00000000000E+00  0.14240382241E+03  0.14240382243E+03  0.25500000920E-02 0. -1.
        2   -1    0    0  501    0  0.00000000000E+00  0.00000000000E+00 -0.14112850521E+04  0.14112850521E+04  0.25500000920E-02 0.  1.
    10030    2    1    2    0    0  0.00000000000E+00  0.00000000000E+00 -0.12688812297E+04  0.15536888746E+04  0.89659887564E+03 0.  0.
        1    1    3    3  502    0 -0.32117741712E+03 -0.69220173292E+02 -0.11629687206E+04  0.12084877372E+04  0.50400001928E-02 0.  1.
       -1    1    3    3    0  502  0.32117741712E+03  0.69220173292E+02 -0.10591250909E+03  0.34520113741E+03  0.50400001928E-02 0. -1.
</event>
<event>
 5   0  0.9321543E-04  0.9002198E+03  0.7818609E-02  0.9425307E-01
        1   -1    0    0  501    0  0.00000000000E+00  0.00000000000E+00  0.26667924606E+03  0.26667924611E+03  0.50400001928E-02 0. -1.
       -1   -1    0    0    0  501  0.00000000000E+00  0.00000000000E+00 -0.75971014599E+03  0.75971014600E+03  0.50400001928E-02 0.  1.
    10030    2    1    2    0    0  0.00000000000E+00  0.00000000000E+00 -0.49303089992E+03  0.10263893921E+04  0.90021981536E+03 0.  0.
        3    1    3    3  502    0  0.19333351601E+03  0.56007611811E+02  0.21250702616E+03  0.29270112293E+03  0.10100000352E+00 0. -1.
       -3    1    3    3    0  502 -0.19333351601E+03 -0.56007611811E+02 -0.70553792609E+03  0.73368826919E+03  0.10100000352E+00 0.  1.
</event>
<event>
 5   0  0.1704416E-03  0.9016680E+03  0.7818609E-02  0.9423499E-01
        2   -1    0    0  501    0  0.00000000000E+00  0.00000000000E+00  0.84916777349E+03  0.84916777350E+03  0.25500000920E-02 0.  1.
       -2   -1    0    0    0  501  0.00000000000E+00  0.00000000000E+00 -0.23935353283E+03  0.23935353285E+03  0.25500000920E-02 0. -1.
    10030    2    1    2    0    0  0.00000000000E+00  0.00000000000E+00  0.60981424066E+03  0.10885213063E+04  0.90166802441E+03 0.  0.
        3    1    3    3  502    0  0.28289018765E+03  0.51894659728E+02  0.72402900108E+03  0.77906220456E+03  0.10100000352E+00 0.  1.
       -3    1    3    3    0  502 -0.28289018765E+03 -0.51894659728E+02 -0.11421476041E+03  0.30945910178E+03  0.10100000352E+00 0. -1.
</event>
<event>
 5   0  0.9981885E-04  0.8997374E+03  0.7818609E-02  0.9425910E-01
        1   -1    0    0  501    0  0.00000000000E+00  0.00000000000E+00  0.43869892850E+03  0.43869892853E+03  0.50400001928E-02 0. -1.
       -1   -1    0    0    0  501  0.00000000000E+00  0.00000000000E+00 -0.46132282918E+03  0.46132282921E+03  0.50400001928E-02 0.  1.
    10030    2    1    2    0    0  0.00000000000E+00  0.00000000000E+00 -0.22623900680E+02  0.90002175773E+03  0.89973736363E+03 0.  0.
        4    1    3    3  502    0  0.22173501856E+03 -0.49010114794E+02 -0.39977966090E+03  0.45977581491E+03  0.12699999809E+01 0.  1.
       -4    1    3    3    0  502 -0.22173501856E+03  0.49010114794E+02  0.37715576022E+03  0.44024594282E+03  0.12699999809E+01 0. -1.
</event>
<event>
 5   0  0.9223454E-04  0.8999475E+03  0.7818609E-02  0.9425647E-01
       -1   -1    0    0    0  501  0.00000000000E+00  0.00000000000E+00  0.15873216570E+03  0.15873216578E+03  0.50400001928E-02 0.  1.
        1   -1    0    0  501    0  0.00000000000E+00  0.00000000000E+00 -0.12755849475E+04  0.12755849475E+04  0.50400001928E-02 0. -1.
    10030    2    1    2    0    0  0.00000000000E+00  0.00000000000E+00 -0.11168527818E+04  0.14343171133E+04  0.89994746807E+03 0.  0.
        1    1    3    3  502    0 -0.23971263333E+03  0.32128613479E+03 -0.23261874880E+03  0.46346349296E+03  0.50400001928E-02 0.  1.
       -1    1    3    3    0  502  0.23971263333E+03 -0.32128613479E+03 -0.88423403302E+03  0.97085362036E+03  0.50400001928E-02 0. -1.
</event>
<event>
 5   0  0.9321543E-04  0.9078147E+03  0.7818609E-02  0.9415865E-01
       -1   -1    0    0    0  501  0.00000000000E+00  0.00000000000E+00  0.16533731578E+03  0.16533731585E+03  0.50400001928E-02 0. -1.
        1   -1    0    0  501    0  0.00000000000E+00  0.00000000000E+00 -0.12461306729E+04  0.12461306729E+04  0.50400001928E-02 0.  1.
    10030    2    1    2    0    0  0.00000000000E+00  0.00000000000E+00 -0.10807933571E+04  0.14114679888E+04  0.90781474019E+03 0.  0.
        3    1    3    3  502    0  0.25785298803E+03 -0.22700345300E+03 -0.79134752315E+02  0.35253517602E+03  0.10100000352E+00 0. -1.
       -3    1    3    3    0  502 -0.25785298803E+03  0.22700345300E+03 -0.10016586048E+04  0.10589328127E+04  0.10100000352E+00 0.  1.
</event>
<event>
 5   0  0.1630202E-03  0.9004139E+03  0.7818609E-02  0.9425064E-01
       -2   -1    0    0    0  501  0.00000000000E+00  0.00000000000E+00  0.26666374587E+03  0.26666374588E+03  0.25500000920E-02 0. -1.
        2   -1    0    0  501    0  0.00000000000E+00  0.00000000000E+00 -0.76008192804E+03  0.76008192804E+03  0.25500000920E-02 0.  1.
    10030    2    1    2    0    0  0.00000000000E+00  0.00000000000E+00 -0.49341818217E+03  0.10267456739E+04  0.90041389173E+03 0.  0.
        4    1    3    3  502    0  0.10675825786E+03 -0.23090287598E+03 -0.67026909454E+03  0.71692101082E+03  0.12699999809E+01 0.  1.
       -4    1    3    3    0  502 -0.10675825786E+03  0.23090287598E+03  0.17685091237E+03  0.30982466310E+03  0.12699999809E+01 0. -1.
</event>
<event>
 5   0  0.1630202E-03  0.9006337E+03  0.7818609E-02  0.9424790E-01
        2   -1    0    0  501    0  0.00000000000E+00  0.00000000000E+00  0.27212471483E+04  0.27212471483E+04  0.25500000920E-02 0. -1.
       -2   -1    0    0    0  501  0.00000000000E+00  0.00000000000E+00 -0.74519241059E+02  0.74519241102E+02  0.25500000920E-02 0.  1.
    10030    2    1    2    0    0  0.00000000000E+00  0.00000000000E+00  0.26467279072E+04  0.27957663894E+04  0.90063371531E+03 0.  0.
        4    1    3    3  502    0  0.11157193403E+03  0.40452291989E+03  0.81616258869E+03  0.91772004079E+03  0.12699999809E+01 0.  1.
       -4    1    3    3    0  502 -0.11157193403E+03 -0.40452291989E+03  0.18305653186E+04  0.18780463486E+04  0.12699999809E+01 0. -1.
</event>
<event>
 5   0  0.6375625E-04  0.8990626E+03  0.7818609E-02  0.9426754E-01
       -4   -1    0    0    0  501  0.00000000000E+00  0.00000000000E+00  0.39577493551E+03  0.39577697315E+03  0.12699999809E+01 0.  1.
        4   -1    0    0  501    0  0.00000000000E+00  0.00000000000E+00 -0.51058497157E+03  0.51058655103E+03  0.12699999809E+01 0. -1.
    10030    2    1    2    0    0  0.00000000000E+00  0.00000000000E+00 -0.11481003606E+03  0.90636352418E+03  0.89906256377E+03 0.  0.
        1    1    3    3  502    0 -0.63173786809E+02  0.29938764067E+03  0.27459359281E+03  0.41112714331E+03  0.50400001928E-02 0.  1.
       -1    1    3    3    0  502  0.63173786809E+02 -0.29938764067E+03 -0.38940362887E+03  0.49523638087E+03  0.50400001928E-02 0. -1.
</event>
<event>
 5   0  0.9321543E-04  0.8994935E+03  0.7818609E-02  0.9426215E-01
       -1   -1    0    0    0  501  0.00000000000E+00  0.00000000000E+00  0.29332808512E+03  0.29332808517E+03  0.50400001928E-02 0.  1.
        1   -1    0    0  501    0  0.00000000000E+00  0.00000000000E+00 -0.68957645444E+03  0.68957645446E+03  0.50400001928E-02 0. -1.
    10030    2    1    2    0    0  0.00000000000E+00  0.00000000000E+00 -0.39624836932E+03  0.98290453962E+03  0.89949350405E+03 0.  0.
        3    1    3    3  502    0 -0.14678986045E+03  0.35640354257E+02 -0.66102787902E+03  0.67806737499E+03  0.10100000352E+00 0. -1.
       -3    1    3    3    0  502  0.14678986045E+03 -0.35640354257E+02  0.26477950970E+03  0.30483716463E+03  0.10100000352E+00 0.  1.
</event>
<event>
 5   0  0.9697941E-04  0.9015467E+03  0.7818609E-02  0.9423650E-01
        1   -1    0    0  501    0  0.00000000000E+00  0.00000000000E+00  0.52574132696E+03  0.52574132698E+03  0.50400001928E-02 0. -1.
       -1   -1    0    0    0  501  0.00000000000E+00  0.00000000000E+00 -0.38649543045E+03  0.38649543048E+03  0.50400001928E-02 0.  1.
    10030    2    1    2    0    0  0.00000000000E+00  0.00000000000E+00  0.13924589651E+03  0.91223675746E+03  0.90154671647E+03 0.  0.
        5    1    3    3  502    0 -0.44816247844E+03  0.33216096098E+02  0.34256911170E+02  0.45072002628E+03  0.46999998093E+01 0.  1.
       -5    1    3    3    0  502  0.44816247844E+03 -0.33216096098E+02  0.10498898534E+03  0.46151673119E+03  0.46999998093E+01 0. -1.
</event>
<event>
 5   0  0.1536020E-03  0.8999087E+03  0.7818609E-02  0.9425696E-01
       -2   -1    0    0    0  501  0.00000000000E+00  0.00000000000E+00  0.30154665021E+03  0.30154665022E+03  0.25500000920E-02 0. -1.
        2   -1    0    0  501    0  0.00000000000E+00  0.00000000000E+00 -0.67140166578E+03  0.67140166578E+03  0.25500000920E-02 0.  1.
    10030    2    1    2    0    0  0.00000000000E+00  0.00000000000E+00 -0.36985501556E+03  0.97294831601E+03  0.89990871375E+03 0.  0.
        2    1    3    3  502    0 -0.10028955412E+03  0.20029304524E+03  0.23698064372E+03  0.32609066859E+03  0.25500000920E-02 0. -1.
       -2    1    3    3    0  502  0.10028955412E+03 -0.20029304524E+03 -0.60683565928E+03  0.64685764742E+03  0.25500000920E-02 0.  1.
</event>
<event>
 5   0  0.1704416E-03  0.8997424E+03  0.7818609E-02  0.9425904E-01
        2   -1    0    0  501    0  0.00000000000E+00  0.00000000000E+00  0.15420984989E+04  0.15420984989E+04  0.25500000920E-02 0.  1.
       -2   -1    0    0    0  501  0.00000000000E+00  0.00000000000E+00 -0.13123940577E+03  0.13123940579E+03  0.25500000920E-02 0. -1.
    10030    2    1    2    0    0  0.00000000000E+00  0.00000000000E+00  0.14108590931E+04  0.16733379047E+04  0.89974238680E+03 0.  0.
        3    1    3    3  502    0  0.15398224344E+03  0.20006328455E+01 -0.80693875515E+02  0.17385639353E+03  0.10100000352E+00 0. -1.
       -3    1    3    3    0  502 -0.15398224344E+03 -0.20006328455E+01  0.14915529687E+04  0.14994815112E+04  0.10100000352E+00 0.  1.
</event>
<event>
 5   0  0.1641516E-03  0.8992406E+03  0.7818609E-02  0.9426531E-01
       -2   -1    0    0    0  501  0.00000000000E+00  0.00000000000E+00  0.91492970296E+02  0.91492970332E+02  0.25500000920E-02 0. -1.
        2   -1    0    0  501    0  0.00000000000E+00  0.00000000000E+00 -0.22095511753E+04  0.22095511753E+04  0.25500000920E-02 0.  1.
    10030    2    1    2    0    0  0.00000000000E+00  0.00000000000E+00 -0.21180582050E+04  0.23010441457E+04  0.89924056869E+03 0.  0.
        1    1    3    3  502    0  0.42128292193E+02 -0.11204798151E+03  0.49967503035E+02  0.12971620773E+03  0.50400001928E-02 0. -1.
       -1    1    3    3    0  502 -0.42128292193E+02  0.11204798151E+03 -0.21680257081E+04  0.21713279379E+04  0.50400001928E-02 0.  1.
</event>
<event>
 5   0  0.1536020E-03  0.9002280E+03  0.7818609E-02  0.9425296E-01
       -2   -1    0    0    0  501  0.00000000000E+00  0.00000000000E+00  0.35991879956E+03  0.35991879956E+03  0.25500000920E-02 0. -1.
        2   -1    0    0  501    0  0.00000000000E+00  0.00000000000E+00 -0.56291198651E+03  0.56291198652E+03  0.25500000920E-02 0.  1.
    10030    2    1    2    0    0  0.00000000000E+00  0.00000000000E+00 -0.20299318695E+03  0.92283078608E+03  0.90022798545E+03 0.  0.
        2    1    3    3  502    0  0.27178157596E+03 -0.23779586812E+03 -0.37692555782E+03  0.52200093493E+03  0.25500000920E-02 0.  1.
       -2    1    3    3    0  502 -0.27178157596E+03  0.23779586812E+03  0.17393237087E+03  0.40082985115E+03  0.25500000920E-02 0. -1.
</event>
<event>
 5   0  0.1704416E-03  0.9022976E+03  0.7818609E-02  0.9422714E-01
       -2   -1    0    0    0  501  0.00000000000E+00  0.00000000000E+00  0.15533749465E+03  0.15533749467E+03  0.25500000920E-02 0. -1.
        2   -1    0    0  501    0  0.00000000000E+00  0.00000000000E+00 -0.13102775310E+04  0.13102775310E+04  0.25500000920E-02 0.  1.
    10030    2    1    2    0    0  0.00000000000E+00  0.00000000000E+00 -0.11549400363E+04  0.14656150256E+04  0.90229757613E+03 0.  0.
        3    1    3    3  502    0  0.13231326888E+03  0.13115792250E+03  0.89935518843E+02  0.20687583113E+03  0.10100000352E+00 0. -1.
       -3    1    3    3    0  502 -0.13231326888E+03 -0.13115792250E+03 -0.12448755551E+04  0.12587391945E+04  0.10100000352E+00 0.  1.
</event>
<event>
 5   0  0.9321543E-04  0.9007878E+03  0.7818609E-02  0.9424597E-01
        1   -1    0    0  501    0  0.00000000000E+00  0.00000000000E+00  0.27287250162E+03  0.27287250167E+03  0.50400001928E-02 0.  1.
       -1   -1    0    0    0  501  0.00000000000E+00  0.00000000000E+00 -0.74340449103E+03  0.74340449105E+03  0.50400001928E-02 0. -1.
    10030    2    1    2    0    0  0.00000000000E+00  0.00000000000E+00 -0.47053198941E+03  0.10162769927E+04  0.90078775129E+03 0.  0.
        3    1    3    3  502    0  0.16878281513E+03  0.38213356123E+03 -0.42519737052E+03  0.59607592755E+03  0.10100000352E+00 0. -1.
       -3    1    3    3    0  502 -0.16878281513E+03 -0.38213356123E+03 -0.45334618890E+02  0.42020106517E+03  0.10100000352E+00 0.  1.
</event>
<event>
 5   0  0.1635686E-03  0.9002388E+03  0.7818609E-02  0.9425283E-01
        2   -1    0    0  501    0  0.00000000000E+00  0.00000000000E+00  0.62027249158E+03  0.62027249159E+03  0.25500000920E-02 0.  1.
       -2   -1    0    0    0  501  0.00000000000E+00  0.00000000000E+00 -0.32664272000E+03  0.32664272001E+03  0.25500000920E-02 0. -1.
    10030    2    1    2    0    0  0.00000000000E+00  0.00000000000E+00  0.29362977158E+03  0.94691521160E+03  0.90023884341E+03 0.  0.
        5    1    3    3  502    0 -0.33602683681E+03 -0.14281120667E+03  0.42366568097E+03  0.55930651260E+03  0.46999998093E+01 0.  1.
       -5    1    3    3    0  502  0.33602683681E+03  0.14281120667E+03 -0.13003590939E+03  0.38760869899E+03  0.46999998093E+01 0. -1.
</event>
<event>
 5   0  0.9697941E-04  0.9003140E+03  0.7818609E-02  0.9425189E-01
       -1   -1    0    0    0  501  0.00000000000E+00  0.00000000000E+00  0.19674664124E+03  0.19674664131E+03  0.50400001928E-02 0. -1.
        1   -1    0    0  501    0  0.00000000000E+00  0.00000000000E+00 -0.10299608368E+04  0.10299608368E+04  0.50400001928E-02 0.  1.
    10030    2    1    2    0    0  0.00000000000E+00  0.00000000000E+00 -0.83321419555E+03  0.12267074781E+04  0.90031402365E+03 0.  0.
        5    1    3    3  502    0  0.17631084152E+03  0.17274969303E+03  0.96276196687E+02  0.26498899095E+03  0.46999998093E+01 0. -1.
       -5    1    3    3    0  502 -0.17631084152E+03 -0.17274969303E+03 -0.92949039224E+03  0.96171848716E+03  0.46999998093E+01 0.  1.
</event>
<event>
 5   0  0.9321543E-04  0.9036046E+03  0.7818609E-02  0.9421087E-01
       -1   -1    0    0    0  501  0.00000000000E+00  0.00000000000E+00  0.54463410026E+03  0.54463410029E+03  0.50400001928E-02 0. -1.
        1   -1    0    0  501    0  0.00000000000E+00  0.00000000000E+00 -0.37479345958E+03  0.37479345962E+03  0.50400001928E-02 0.  1.
    10030    2    1    2    0    0  0.00000000000E+00  0.00000000000E+00  0.16984064068E+03  0.91942755990E+03  0.90360455659E+03 0.  0.
        3    1    3    3  502    0  0.26001936458E+03  0.13416063774E+03  0.43521041588E+03  0.52442088342E+03  0.10100000352E+00 0. -1.
       -3    1    3    3    0  502 -0.26001936458E+03 -0.13416063774E+03 -0.26536977520E+03  0.39500667648E+03  0.10100000352E+00 0.  1.
</event>
<event>
 5   0  0.1704416E-03  0.8986609E+03  0.7818609E-02  0.9427257E-01
        2   -1    0    0  501    0  0.00000000000E+00  0.00000000000E+00  0.11103352128E+04  0.11103352128E+04  0.25500000920E-02 0.  1.
       -2   -1    0    0    0  501  0.00000000000E+00  0.00000000000E+00 -0.18183506230E+03  0.18183506231E+03  0.25500000920E-02 0. -1.
    10030    2    1    2    0    0  0.00000000000E+00  0.00000000000E+00  0.92850015047E+03  0.12921702751E+04  0.89866094295E+03 0.  0.
        3    1    3    3  502    0 -0.12811342417E+03 -0.36490441582E+03  0.13532460447E+03  0.40973288971E+03  0.10100000352E+00 0. -1.
       -3    1    3    3    0  502  0.12811342417E+03  0.36490441582E+03  0.79317554600E+03  0.88243738537E+03  0.10100000352E+00 0.  1.
</event>
<event>
 5   0  0.9223454E-04  0.8984013E+03  0.7818609E-02  0.9427582E-01
        1   -1    0    0  501    0  0.00000000000E+00  0.00000000000E+00  0.18258927589E+04  0.18258927589E+04  0.50400001928E-02 0.  1.
       -1   -1    0    0    0  501  0.00000000000E+00  0.00000000000E+00 -0.11051099411E+03  0.11051099422E+03  0.50400001928E-02 0. -1.
    10030    2    1    2    0    0  0.00000000000E+00  0.00000000000E+00  0.17153817648E+04  0.19364037532E+04  0.89840130019E+03 0.  0.
        1    1    3    3  502    0 -0.17497735643E+03  0.12435818348E+03  0.17081799235E+04  0.17216157190E+04  0.50400001928E-02 0.  1.
       -1    1    3    3    0  502  0.17497735643E+03 -0.12435818348E+03  0.72018413555E+01  0.21478803413E+03  0.50400001928E-02 0. -1.
</event>
<event>
 5   0  0.9321543E-04  0.8981239E+03  0.7818609E-02  0.9427930E-01
        1   -1    0    0  501    0  0.00000000000E+00  0.00000000000E+00  0.10188397862E+04  0.10188397862E+04  0.50400001928E-02 0.  1.
       -1   -1    0    0    0  501  0.00000000000E+00  0.00000000000E+00 -0.19792771402E+03  0.19792771408E+03  0.50400001928E-02 0. -1.
    10030    2    1    2    0    0  0.00000000000E+00  0.00000000000E+00  0.82091207220E+03  0.12167675003E+04  0.89812388875E+03 0.  0.
        3    1    3    3  502    0 -0.20836463851E+03 -0.18981916390E+03  0.88406924368E+03  0.92791463799E+03  0.10100000352E+00 0.  1.
       -3    1    3    3    0  502  0.20836463851E+03  0.18981916390E+03 -0.63157171483E+02  0.28885286233E+03  0.10100000352E+00 0. -1.
</event>
<event>
 5   0  0.1007561E-03  0.8994254E+03  0.7818609E-02  0.9426300E-01
        1   -1    0    0  501    0  0.00000000000E+00  0.00000000000E+00  0.16292650965E+04  0.16292650965E+04  0.50400001928E-02 0. -1.
       -1   -1    0    0    0  501  0.00000000000E+00  0.00000000000E+00 -0.12413051776E+03  0.12413051786E+03  0.50400001928E-02 0.  1.
    10030    2    1    2    0    0  0.00000000000E+00  0.00000000000E+00  0.15051345788E+04  0.17533956144E+04  0.89942541679E+03 0.  0.
        2    1    3    3  502    0  0.32724686556E+03 -0.22894107609E+03  0.11555781402E+04  0.12226468687E+04  0.25500000920E-02 0. -1.
       -2    1    3    3    0  502 -0.32724686556E+03  0.22894107609E+03  0.34955643856E+03  0.53074874572E+03  0.25500000920E-02 0.  1.
</event>
<event>
 5   0  0.9697941E-04  0.8998737E+03  0.7818609E-02  0.9425739E-01
        1   -1    0    0  501    0  0.00000000000E+00  0.00000000000E+00  0.55645058398E+03  0.55645058400E+03  0.50400001928E-02 0. -1.
       -1   -1    0    0    0  501  0.00000000000E+00  0.00000000000E+00 -0.36381157464E+03  0.36381157468E+03  0.50400001928E-02 0.  1.
    10030    2    1    2    0    0  0.00000000000E+00  0.00000000000E+00  0.19263900934E+03  0.92026215868E+03  0.89987368713E+03 0.  0.
        5    1    3    3  502    0  0.15596632809E+03  0.25498837729E+03 -0.24756784483E+03  0.38814494180E+03  0.46999998093E+01 0.  1.
       -5    1    3    3    0  502 -0.15596632809E+03 -0.25498837729E+03  0.44020685417E+03  0.53211721689E+03  0.46999998093E+01 0. -1.
</event>
<event>
 5   0  0.1630202E-03  0.9022376E+03  0.7818609E-02  0.9422789E-01
        2   -1    0    0  501    0  0.00000000000E+00  0.00000000000E+00  0.14221750759E+04  0.14221750759E+04  0.25500000920E-02 0. -1.
       -2   -1    0    0    0  501  0.00000000000E+00  0.00000000000E+00 -0.14309642922E+03  0.14309642924E+03  0.25500000920E-02 0.  1.
    10030    2    1    2    0    0  0.00000000000E+00  0.00000000000E+00  0.12790786467E+04  0.15652715051E+04  0.90223760750E+03 0.  0.
        4    1    3    3  502    0 -0.44338170592E+03 -0.33866375972E+02  0.50773096188E+03  0.67492711541E+03  0.12699999809E+01 0. -1.
       -4    1    3    3    0  502  0.44338170592E+03  0.33866375972E+02  0.77134768478E+03  0.89034438970E+03  0.12699999809E+01 0.  1.
</event>
<event>
 5   0  0.1641516E-03  0.8970242E+03  0.7818609E-02  0.9429309E-01
        2   -1    0    0  501    0  0.00000000000E+00  0.00000000000E+00  0.55906045037E+03  0.55906045037E+03  0.25500000920E-02 0.  1.
       -2   -1    0    0    0  501  0.00000000000E+00  0.00000000000E+00 -0.35982354146E+03  0.35982354147E+03  0.25500000920E-02 0. -1.
    10030    2    1    2    0    0  0.00000000000E+00  0.00000000000E+00  0.19923690891E+03  0.91888399184E+03  0.89702421628E+03 0.  0.
        1    1    3    3  502    0 -0.14817866187E+03 -0.20797046758E+03  0.47732392889E+03  0.54133793912E+03  0.50400001928E-02 0.  1.
       -1    1    3    3    0  502  0.14817866187E+03  0.20797046758E+03 -0.27808701998E+03  0.37754605272E+03  0.50400001928E-02 0. -1.
</event>
<event>
 5   0  0.9981885E-04  0.9006351E+03  0.7818609E-02  0.9424788E-01
       -1   -1    0    0    0  501  0.00000000000E+00  0.00000000000E+00  0.64329573056E+03  0.64329573058E+03  0.50400001928E-02 0.  1.
        1   -1    0    0  501    0  0.00000000000E+00  0.00000000000E+00 -0.31522964684E+03  0.31522964688E+03  0.50400001928E-02 0. -1.
    10030    2    1    2    0    0  0.00000000000E+00  0.00000000000E+00  0.32806608371E+03  0.95852537746E+03  0.90063507813E+03 0.  0.
        4    1    3    3  502    0  0.37047997277E+03 -0.17424279728E+03 -0.35553158319E+02  0.41095206849E+03  0.12699999809E+01 0. -1.
       -4    1    3    3    0  502 -0.37047997277E+03  0.17424279728E+03  0.36361924203E+03  0.54757330897E+03  0.12699999809E+01 0.  1.
</event>
<event>
 5   0  0.1536020E-03  0.9012233E+03  0.7818609E-02  0.9424053E-01
        2   -1    0    0  501    0  0.00000000000E+00  0.00000000000E+00  0.14688048372E+04  0.14688048372E+04  0.25500000920E-02 0. -1.
       -2   -1    0    0    0  501  0.00000000000E+00  0.00000000000E+00 -0.13824224551E+03  0.13824224553E+03  0.25500000920E-02 0.  1.
    10030    2    1    2    0    0  0.00000000000E+00  0.00000000000E+00  0.13305625917E+04  0.16070470827E+04  0.90122334396E+03 0.  0.
        2    1    3    3  502    0 -0.21469048333E+03  0.38436199664E+03  0.49401456046E+03  0.66172239954E+03  0.25500000920E-02 0.  1.
       -2    1    3    3    0  502  0.21469048333E+03 -0.38436199664E+03  0.83654803124E+03  0.94532468320E+03  0.25500000920E-02 0. -1.
</event>
<event>
 5   0  0.9697941E-04  0.9008723E+03  0.7818609E-02  0.9424492E-01
       -1   -1    0    0    0  501  0.00000000000E+00  0.00000000000E+00  0.41302041873E+03  0.41302041876E+03  0.50400001928E-02 0. -1.
        1   -1    0    0  501    0  0.00000000000E+00  0.00000000000E+00 -0.49124142249E+03  0.49124142252E+03  0.50400001928E-02 0.  1.
    10030    2    1    2    0    0  0.00000000000E+00  0.00000000000E+00 -0.78221003765E+02  0.90426184128E+03  0.90087232845E+03 0.  0.
        5    1    3    3  502    0 -0.17989915575E+03  0.11472886734E+03  0.35904834178E+03  0.41768914395E+03  0.46999998093E+01 0. -1.
       -5    1    3    3    0  502  0.17989915575E+03 -0.11472886734E+03 -0.43726934554E+03  0.48657269733E+03  0.46999998093E+01 0.  1.
</event>
<event>
 5   0  0.1536020E-03  0.9000466E+03  0.7818609E-02  0.9425523E-01
        2   -1    0    0  501    0  0.00000000000E+00  0.00000000000E+00  0.11773900035E+04  0.11773900035E+04  0.25500000920E-02 0. -1.
       -2   -1    0    0    0  501  0.00000000000E+00  0.00000000000E+00 -0.17200839378E+03  0.17200839380E+03  0.25500000920E-02 0.  1.
    10030    2    1    2    0    0  0.00000000000E+00  0.00000000000E+00  0.10053816097E+04  0.13493983973E+04  0.90004658407E+03 0.  0.
        2    1    3    3  502    0  0.19607900167E+01 -0.17059543186E+03 -0.12164418834E+03  0.20953270540E+03  0.25500000920E-02 0.  1.
       -2    1    3    3    0  502 -0.19607900167E+01  0.17059543186E+03  0.11270257981E+04  0.11398656919E+04  0.25500000920E-02 0. -1.
</event>
<event>
 5   0  0.9981885E-04  0.8995508E+03  0.7818609E-02  0.9426143E-01
       -1   -1    0    0    0  501  0.00000000000E+00  0.00000000000E+00  0.14222324689E+03  0.14222324697E+03  0.50400001928E-02 0. -1.
        1   -1    0    0  501    0  0.00000000000E+00  0.00000000000E+00 -0.14223969956E+04  0.14223969956E+04  0.50400001928E-02 0.  1.
    10030    2    1    2    0    0  0.00000000000E+00  0.00000000000E+00 -0.12801737488E+04  0.15646202426E+04  0.89955081937E+03 0.  0.
        4    1    3    3  502    0  0.94341101626E+02 -0.43586305948E+03 -0.74179643132E+03  0.86552897612E+03  0.12699999809E+01 0. -1.
       -4    1    3    3    0  502 -0.94341101626E+02  0.43586305948E+03 -0.53837731743E+03  0.69909126651E+03  0.12699999809E+01 0.  1.
</event>
<event>
 5   0  0.1007561E-03  0.9015592E+03  0.7818609E-02  0.9423634E-01
        1   -1    0    0  501    0  0.00000000000E+00  0.00000000000E+00  0.56069870010E+03  0.56069870012E+03  0.50400001928E-02 0. -1.
       -1   -1    0    0    0  501  0.00000000000E+00  0.00000000000E+00 -0.36240899491E+03  0.36240899494E+03  0.50400001928E-02 0.  1.
    10030    2    1    2    0    0  0.00000000000E+00  0.00000000000E+00  0.19828970519E+03  0.92310769506E+03  0.90155921020E+03 0.  0.
        2    1    3    3  502    0 -0.31702832504E+03 -0.30705050797E+03  0.52174359733E+01  0.44137761040E+03  0.25500000920E-02 0.  1.
       -2    1    3    3    0  502  0.31702832504E+03  0.30705050797E+03  0.19307226922E+03  0.48173008466E+03  0.25500000920E-02 0. -1.
</event>
<event>
 5   0  0.1007561E-03  0.9008961E+03  0.7818609E-02  0.9424462E-01
        1   -1    0    0  501    0  0.00000000000E+00  0.00000000000E+00  0.24394369138E+04  0.24394369138E+04  0.50400001928E-02 0. -1.
       -1   -1    0    0    0  501  0.00000000000E+00  0.00000000000E+00 -0.83176344310E+02  0.83176344463E+02  0.50400001928E-02 0.  1.
    10030    2    1    2    0    0  0.00000000000E+00  0.00000000000E+00  0.23562605695E+04  0.25226132582E+04  0.90089609803E+03 0.  0.
        2    1    3    3  502    0  0.14380044853E+02 -0.12107627720E+03 -0.36091021399E+02  0.12715664521E+03  0.25500000920E-02 0.  1.
       -2    1    3    3    0  502 -0.14380044853E+02  0.12107627720E+03  0.23923515909E+04  0.23954566130E+04  0.25500000920E-02 0. -1.
</event>
<event>
 5   0  0.1536020E-03  0.8992041E+03  0.7818609E-02  0.9426577E-01
       -2   -1    0    0    0  501  0.00000000000E+00  0.00000000000E+00  0.44207512252E+03  0.44207512253E+03  0.25500000920E-02 0.  1.
        2   -1    0    0  501    0  0.00000000000E+00  0.00000000000E+00 -0.45725717206E+03  0.45725717206E+03  0.25500000920E-02 0. -1.
    10030    2    1    2    0    0  0.00000000000E+00  0.00000000000E+00 -0.15182049533E+02  0.89933229459E+03  0.89920413782E+03 0.  0.
        2    1    3    3  502    0 -0.39237199373E+03  0.20762596771E+03  0.63677088068E+02  0.44846303692E+03  0.25500000920E-02 0. -1.
       -2    1    3    3    0  502  0.39237199373E+03 -0.20762596771E+03 -0.78859137601E+02  0.45086925768E+03  0.25500000920E-02 0.  1.
</event>
<event>
 5   0  0.9697941E-04  0.9023857E+03  0.7818609E-02  0.9422604E-01
        1   -1    0    0  501    0  0.00000000000E+00  0.00000000000E+00  0.59091566317E+03  0.59091566319E+03  0.50400001928E-02 0.  1.
       -1   -1    0    0    0  501  0.00000000000E+00  0.00000000000E+00 -0.34450771461E+03  0.34450771464E+03  0.50400001928E-02 0. -1.
    10030    2    1    2    0    0  0.00000000000E+00  0.00000000000E+00  0.24640794857E+03  0.93542337784E+03  0.90238573719E+03 0.  0.
        5    1    3    3  502    0 -0.15606295941E+03  0.73463302039E+02 -0.30895287066E+03  0.35387352308E+03  0.46999998093E+01 0. -1.
       -5    1    3    3    0  502  0.15606295941E+03 -0.73463302039E+02  0.55536081923E+03  0.58154985476E+03  0.46999998093E+01 0.  1.
</event>
<event>
 5   0  0.1635686E-03  0.9045656E+03  0.7818609E-02  0.9419892E-01
       -2   -1    0    0    0  501  0.00000000000E+00  0.00000000000E+00  0.17191128305E+03  0.17191128307E+03  0.25500000920E-02 0. -1.
        2   -1    0    0  501    0  0.00000000000E+00  0.00000000000E+00 -0.11899144612E+04  0.11899144612E+04  0.25500000920E-02 0.  1.
    10030    2    1    2    0    0  0.00000000000E+00  0.00000000000E+00 -0.10180031781E+04  0.13618257442E+04  0.90456557917E+03 0.  0.
        5    1    3    3  502    0  0.51127816863E+02  0.43342628780E+03 -0.33045361821E+03  0.54744322482E+03  0.46999998093E+01 0. -1.
       -5    1    3    3    0  502 -0.51127816863E+02 -0.43342628780E+03 -0.68754955992E+03  0.81438251943E+03  0.46999998093E+01 0.  1.
</event>
<event>
 5   0  0.1635686E-03  0.8937849E+03  0.7818609E-02  0.9433384E-01
       -2   -1    0    0    0  501  0.00000000000E+00  0.00000000000E+00  0.19852705709E+03  0.19852705711E+03  0.25500000920E-02 0.  1.
        2   -1    0    0  501    0  0.00000000000E+00  0.00000000000E+00 -0.10059730720E+04  0.10059730720E+04  0.25500000920E-02 0. -1.
    10030    2    1    2    0    0  0.00000000000E+00  0.00000000000E+00 -0.80744601488E+03  0.12045001291E+04  0.89378492604E+03 0.  0.
        5    1    3    3  502    0 -0.31566608544E+03 -0.28678106413E+02 -0.82822584502E+03  0.88681883812E+03  0.46999998093E+01 0. -1.
       -5    1    3    3    0  502  0.31566608544E+03  0.28678106413E+02  0.20779830142E+02  0.31768129096E+03  0.46999998093E+01 0.  1.
</event>
<event>
 5   0  0.1630202E-03  0.9004345E+03  0.7818609E-02  0.9425038E-01
        2   -1    0    0  501    0  0.00000000000E+00  0.00000000000E+00  0.74152212992E+03  0.74152212992E+03  0.25500000920E-02 0. -1.
       -2   -1    0    0    0  501  0.00000000000E+00  0.00000000000E+00 -0.27335065608E+03  0.27335065609E+03  0.25500000920E-02 0.  1.
    10030    2    1    2    0    0  0.00000000000E+00  0.00000000000E+00  0.46817147384E+03  0.10148727860E+04  0.90043447450E+03 0.  0.
        4    1    3    3  502    0  0.30430365858E+03  0.33154454895E+03  0.21932800267E+03  0.50062849522E+03  0.12699999809E+01 0.  1.
       -4    1    3    3    0  502 -0.30430365858E+03 -0.33154454895E+03  0.24884347117E+03  0.51424429079E+03  0.12699999809E+01 0. -1.
</event>
<event>
 5   0  0.9981885E-04  0.9000791E+03  0.7818609E-02  0.9425483E-01
        1   -1    0    0  501    0  0.00000000000E+00  0.00000000000E+00  0.17808021596E+04  0.17808021596E+04  0.50400001928E-02 0.  1.
       -1   -1    0    0    0  501  0.00000000000E+00  0.00000000000E+00 -0.11373279276E+03  0.11373279287E+03  0.50400001928E-02 0. -1.
    10030    2    1    2    0    0  0.00000000000E+00  0.00000000000E+00  0.16670693668E+04  0.18945349524E+04  0.90007911446E+03 0.  0.
        4    1    3    3  502    0  0.32031703112E+03 -0.28076244508E+03  0.52776209039E+03  0.67820718659E+03  0.12699999809E+01 0. -1.
       -4    1    3    3    0  502 -0.32031703112E+03  0.28076244508E+03  0.11393072764E+04  0.12163277659E+04  0.12699999809E+01 0.  1.
</event>
<event>
 5   0  0.1007561E-03  0.8980328E+03  0.7818609E-02  0.9428044E-01
       -1   -1    0    0    0  501  0.00000000000E+00  0.00000000000E+00  0.23874460842E+03  0.23874460847E+03  0.50400001928E-02 0. -1.
        1   -1    0    0  501    0  0.00000000000E+00  0.00000000000E+00 -0.84448277953E+03  0.84448277954E+03  0.50400001928E-02 0.  1.
    10030    2    1    2    0    0  0.00000000000E+00  0.00000000000E+00 -0.60573817111E+03  0.10832273880E+04  0.89803276232E+03 0.  0.
        2    1    3    3  502    0 -0.50346003786E+02  0.27434025505E+03 -0.72731276529E+03  0.77896158712E+03  0.25500000920E-02 0.  1.
       -2    1    3    3    0  502  0.50346003786E+02 -0.27434025505E+03  0.12157459418E+03  0.30426580090E+03  0.25500000920E-02 0. -1.
</event>
<event>
 5   0  0.6375625E-04  0.8993049E+03  0.7818609E-02  0.9426451E-01
       -3   -1    0    0    0  501  0.00000000000E+00  0.00000000000E+00  0.44693331478E+03  0.44693332619E+03  0.10100000352E+00 0. -1.
        3   -1    0    0  501    0  0.00000000000E+00  0.00000000000E+00 -0.45238811072E+03  0.45238812200E+03  0.10100000352E+00 0.  1.
    10030    2    1    2    0    0  0.00000000000E+00  0.00000000000E+00 -0.54547959409E+01  0.89932144819E+03  0.89930490512E+03 0.  0.
        3    1    3    3  502    0 -0.12957050014E+03 -0.21035921569E+03 -0.37843073406E+03  0.45193953668E+03  0.10100000352E+00 0.  1.
       -3    1    3    3    0  502  0.12957050014E+03  0.21035921569E+03  0.37297593812E+03  0.44738191151E+03  0.10100000352E+00 0. -1.
</event>
<event>
 5   0  0.1536020E-03  0.8873288E+03  0.7818609E-02  0.9441561E-01
       -2   -1    0    0    0  501  0.00000000000E+00  0.00000000000E+00  0.13081445314E+03  0.13081445316E+03  0.25500000920E-02 0.  1.
        2   -1    0    0  501    0  0.00000000000E+00  0.00000000000E+00 -0.15047122877E+04  0.15047122877E+04  0.25500000920E-02 0. -1.
    10030    2    1    2    0    0  0.00000000000E+00  0.00000000000E+00 -0.13738978346E+04  0.16355267409E+04  0.88732883435E+03 0.  0.
        2    1    3    3  502    0 -0.20706572609E+03 -0.30801059928E+03 -0.23889003881E+03  0.44137874308E+03  0.25500000920E-02 0.  1.
       -2    1    3    3    0  502  0.20706572609E+03  0.30801059928E+03 -0.11350077957E+04  0.11941479978E+04  0.25500000920E-02 0. -1.
</event>
<event>
 5   0  0.1007561E-03  0.8975995E+03  0.7818609E-02  0.9428587E-01
        1   -1    0    0  501    0  0.00000000000E+00  0.00000000000E+00  0.21117142658E+03  0.21117142664E+03  0.50400001928E-02 0.  1.
       -1   -1    0    0    0  501  0.00000000000E+00  0.00000000000E+00 -0.95382807144E+03  0.95382807146E+03  0.50400001928E-02 0. -1.
    10030    2    1    2    0    0  0.00000000000E+00  0.00000000000E+00 -0.74265664486E+03  0.11649994981E+04  0.89759954235E+03 0.  0.
        2    1    3    3  502    0  0.40438728661E+02 -0.24307077857E+03  0.11552045662E+03  0.27214641294E+03  0.25500000920E-02 0.  1.
       -2    1    3    3    0  502 -0.40438728661E+02  0.24307077857E+03 -0.85817710148E+03  0.89285308516E+03  0.25500000920E-02 0. -1.
</event>
<event>
 5   0  0.1704416E-03  0.9003271E+03  0.7818609E-02  0.9425173E-01
        2   -1    0    0  501    0  0.00000000000E+00  0.00000000000E+00  0.86214330440E+03  0.86214330441E+03  0.25500000920E-02 0. -1.
       -2   -1    0    0    0  501  0.00000000000E+00  0.00000000000E+00 -0.23505051025E+03  0.23505051026E+03  0.25500000920E-02 0.  1.
    10030    2    1    2    0    0  0.00000000000E+00  0.00000000000E+00  0.62709279416E+03  0.10971938147E+04  0.90032710415E+03 0.  0.
        3    1    3    3  502    0 -0.23472781764E+03  0.36652714499E+03  0.45360190473E+03  0.62864456934E+03  0.10100000352E+00 0.  1.
       -3    1    3    3    0  502  0.23472781764E+03 -0.36652714499E+03  0.17349088943E+03  0.46854924533E+03  0.10100000352E+00 0. -1.
</event>
<event>
 5   0  0.1635686E-03  0.8971115E+03  0.7818609E-02  0.9429199E-01
        2   -1    0    0  501    0  0.00000000000E+00  0.00000000000E+00  0.14619024469E+03  0.14619024471E+03  0.25500000920E-02 0.  1.
       -2   -1    0    0    0  501  0.00000000000E+00  0.00000000000E+00 -0.13763042684E+04  0.13763042684E+04  0.25500000920E-02 0. -1.
    10030    2    1    2    0    0  0.00000000000E+00  0.00000000000E+00 -0.12301140237E+04  0.15224945131E+04  0.89711149314E+03 0.  0.
        5    1    3    3  502    0  0.92317120059E+02  0.26756532131E+03 -0.24555059505E+02  0.28414554856E+03  0.46999998093E+01 0.  1.
       -5    1    3    3    0  502 -0.92317120059E+02 -0.26756532131E+03 -0.12055589642E+04  0.12383489646E+04  0.46999998093E+01 0. -1.
</event>
<event>
 5   0  0.9697941E-04  0.8996212E+03  0.7818609E-02  0.9426055E-01
        1   -1    0    0  501    0  0.00000000000E+00  0.00000000000E+00  0.21504509343E+03  0.21504509349E+03  0.50400001928E-02 0.  1.
       -1   -1    0    0    0  501  0.00000000000E+00  0.00000000000E+00 -0.94087049598E+03  0.94087049600E+03  0.50400001928E-02 0. -1.
    10030    2    1    2    0    0  0.00000000000E+00  0.00000000000E+00 -0.72582540255E+03  0.11559155895E+04  0.89962121754E+03 0.  0.
        5    1    3    3  502    0 -0.33395030706E+01  0.10477799738E+03 -0.92492296678E+03  0.93085668365E+03  0.46999998093E+01 0. -1.
       -5    1    3    3    0  502  0.33395030706E+01 -0.10477799738E+03  0.19909756424E+03  0.22505890584E+03  0.46999998093E+01 0.  1.
</event>
<event>
 5   0  0.9321543E-04  0.8999364E+03  0.7818609E-02  0.9425661E-01
       -1   -1    0    0    0  501  0.00000000000E+00  0.00000000000E+00  0.10987510382E+04  0.10987510382E+04  0.50400001928E-02 0. -1.
        1   -1    0    0  501    0  0.00000000000E+00  0.00000000000E+00 -0.18427412487E+03  0.18427412494E+03  0.50400001928E-02 0.  1.
    10030    2    1    2    0    0  0.00000000000E+00  0.00000000000E+00  0.91447691333E+03  0.12830251632E+04  0.89993641124E+03 0.  0.
        3    1    3    3  502    0 -0.25910810648E+03 -0.34190899394E+03  0.26367796915E+03  0.50355223423E+03  0.10100000352E+00 0.  1.
       -3    1    3    3    0  502  0.25910810648E+03  0.34190899394E+03  0.65079894417E+03  0.77947292892E+03  0.10100000352E+00 0. -1.
</event>
<event>
 5   0  0.1704416E-03  0.8993214E+03  0.7818609E-02  0.9426430E-01
       -2   -1    0    0    0  501  0.00000000000E+00  0.00000000000E+00  0.89747444035E+02  0.89747444071E+02  0.25500000920E-02 0. -1.
        2   -1    0    0  501    0  0.00000000000E+00  0.00000000000E+00 -0.22529304993E+04  0.22529304993E+04  0.25500000920E-02 0.  1.
    10030    2    1    2    0    0  0.00000000000E+00  0.00000000000E+00 -0.21631830553E+04  0.23426779434E+04  0.89932141962E+03 0.  0.
        3    1    3    3  502    0  0.16390220091E+03  0.71138657280E+02 -0.66945257185E+01  0.17880007522E+03  0.10100000352E+00 0. -1.
       -3    1    3    3    0  502 -0.16390220091E+03 -0.71138657280E+02 -0.21564885296E+04  0.21638778682E+04  0.10100000352E+00 0.  1.
</event>
<event>
 5   0  0.1630202E-03  0.9004679E+03  0.7818609E-02  0.9424997E-01
        2   -1    0    0  501    0  0.00000000000E+00  0.00000000000E+00  0.83594788320E+03  0.83594788321E+03  0.25500000920E-02 0.  1.
       -2   -1    0    0    0  501  0.00000000000E+00  0.00000000000E+00 -0.24249192703E+03  0.24249192705E+03  0.25500000920E-02 0. -1.
    10030    2    1    2    0    0  0.00000000000E+00  0.00000000000E+00  0.59345595617E+03  0.10784398103E+04  0.90046790749E+03 0.  0.
        4    1    3    3  502    0  0.27643941640E+03 -0.29509020634E+03  0.53388570352E+03  0.66972571859E+03  0.12699999809E+01 0.  1.
       -4    1    3    3    0  502 -0.27643941640E+03  0.29509020634E+03  0.59570252649E+02  0.40871409166E+03  0.12699999809E+01 0. -1.
</event>
<event>
 5   0  0.1641516E-03  0.9031477E+03  0.7818609E-02  0.9421655E-01
        2   -1    0    0  501    0  0.00000000000E+00  0.00000000000E+00  0.43955438366E+03  0.43955438366E+03  0.25500000920E-02 0.  1.
       -2   -1    0    0    0  501  0.00000000000E+00  0.00000000000E+00 -0.46392196785E+03  0.46392196786E+03  0.25500000920E-02 0. -1.
    10030    2    1    2    0    0  0.00000000000E+00  0.00000000000E+00 -0.24367584193E+02  0.90347635152E+03  0.90314768371E+03 0.  0.
        1    1    3    3  502    0 -0.39389023507E+03 -0.11348782549E+03  0.17733152979E+03  0.44662677406E+03  0.50400001928E-02 0.  1.
       -1    1    3    3    0  502  0.39389023507E+03  0.11348782549E+03 -0.20169911399E+03  0.45684957746E+03  0.50400001928E-02 0. -1.
</event>
<event>
 5   0  0.1536020E-03  0.9004344E+03  0.7818609E-02  0.9425039E-01
        2   -1    0    0  501    0  0.00000000000E+00  0.00000000000E+00  0.84117398318E+03  0.84117398318E+03  0.25500000920E-02 0.  1.
       -2   -1    0    0    0  501  0.00000000000E+00  0.00000000000E+00 -0.24096744390E+03  0.24096744391E+03  0.25500000920E-02 0. -1.
    10030    2    1    2    0    0  0.00000000000E+00  0.00000000000E+00  0.60020653928E+03  0.10821414271E+04  0.90043443872E+03 0.  0.
        2    1    3    3  502    0 -0.92048284966E+02  0.20881380349E+03  0.76651821672E+03  0.79976638331E+03  0.25500000920E-02 0.  1.
       -2    1    3    3    0  502  0.92048284966E+02 -0.20881380349E+03 -0.16631167744E+03  0.28237504379E+03  0.25500000920E-02 0. -1.
</event>
<event>
 5   0  0.9223454E-04  0.9003368E+03  0.7818609E-02  0.9425160E-01
       -1   -1    0    0    0  501  0.00000000000E+00  0.00000000000E+00  0.13125771086E+04  0.13125771086E+04  0.50400001928E-02 0. -1.
        1   -1    0    0  501    0  0.00000000000E+00  0.00000000000E+00 -0.15439215135E+03  0.15439215144E+03  0.50400001928E-02 0.  1.
    10030    2    1    2    0    0  0.00000000000E+00  0.00000000000E+00  0.11581849572E+04  0.14669692600E+04  0.90033683404E+03 0.  0.
        1    1    3    3  502    0  0.43646385971E+03 -0.90730404928E+02  0.68109194253E+03  0.81401409165E+03  0.50400001928E-02 0. -1.
       -1    1    3    3    0  502 -0.43646385971E+03  0.90730404928E+02  0.47709301472E+03  0.65295516840E+03  0.50400001928E-02 0.  1.
</event>
<event>
 5   0  0.1630202E-03  0.8996973E+03  0.7818609E-02  0.9425960E-01
        2   -1    0    0  501    0  0.00000000000E+00  0.00000000000E+00  0.14150953115E+04  0.14150953115E+04  0.25500000920E-02 0.  1.
       -2   -1    0    0    0  501  0.00000000000E+00  0.00000000000E+00 -0.14300367068E+03  0.14300367071E+03  0.25500000920E-02 0. -1.
    10030    2    1    2    0    0  0.00000000000E+00  0.00000000000E+00  0.12720916408E+04  0.15580989822E+04  0.89969733562E+03 0.  0.
        4    1    3    3  502    0  0.12072787813E+03  0.17978270605E+02  0.13858662784E+04  0.13912316102E+04  0.12699999809E+01 0.  1.
       -4    1    3    3    0  502 -0.12072787813E+03 -0.17978270605E+02 -0.11377463759E+03  0.16686737198E+03  0.12699999809E+01 0. -1.
</event>
<event>
 5   0  0.1630202E-03  0.9003873E+03  0.7818609E-02  0.9425097E-01
       -2   -1    0    0    0  501  0.00000000000E+00  0.00000000000E+00  0.59188969702E+03  0.59188969702E+03  0.25500000920E-02 0.  1.
        2   -1    0    0  501    0  0.00000000000E+00  0.00000000000E+00 -0.34241905886E+03  0.34241905887E+03  0.25500000920E-02 0. -1.
    10030    2    1    2    0    0  0.00000000000E+00  0.00000000000E+00  0.24947063816E+03  0.93430875590E+03  0.90038727892E+03 0.  0.
        4    1    3    3  502    0  0.33487507047E+03 -0.27695305734E+03  0.24675978031E+03  0.49973624130E+03  0.12699999809E+01 0.  1.
       -4    1    3    3    0  502 -0.33487507047E+03  0.27695305734E+03  0.27108578430E+01  0.43457251460E+03  0.12699999809E+01 0. -1.
</event>
<event>
 5   0  0.1704416E-03  0.9041922E+03  0.7818609E-02  0.9420356E-01
        2   -1    0    0  501    0  0.00000000000E+00  0.00000000000E+00  0.42141747513E+03  0.42141747514E+03  0.25500000920E-02 0. -1.
       -2   -1    0    0    0  501  0.00000000000E+00  0.00000000000E+00 -0.48500805874E+03  0.48500805875E+03  0.25500000920E-02 0.  1.
    10030    2    1    2    0    0  0.00000000000E+00  0.00000000000E+00 -0.63590583605E+02  0.90642553389E+03  0.90419217325E+03 0.  0.
        3    1    3    3  502    0 -0.43924088178E+03 -0.10354709223E+02  0.75009356461E+02  0.44571985146E+03  0.10100000352E+00 0. -1.
       -3    1    3    3    0  502  0.43924088178E+03  0.10354709223E+02 -0.13859994007E+03  0.46070568242E+03  0.10100000352E+00 0.  1.
</event>
<event>
 5   0  0.9321543E-04  0.9009146E+03  0.7818609E-02  0.9424439E-01
       -1   -1    0    0    0  501  0.00000000000E+00  0.00000000000E+00  0.20344765238E+03  0.20344765244E+03  0.50400001928E-02 0. -1.
        1   -1    0    0  501    0  0.00000000000E+00  0.00000000000E+00 -0.99736598017E+03  0.99736598018E+03  0.50400001928E-02 0.  1.
    10030    2    1    2    0    0  0.00000000000E+00  0.00000000000E+00 -0.79391832779E+03  0.12008136326E+04  0.90091457368E+03 0.  0.
        3    1    3    3  502    0 -0.38243100989E+03  0.57286049656E+01 -0.79784944454E+02  0.39070697690E+03  0.10100000352E+00 0. -1.
       -3    1    3    3    0  502  0.38243100989E+03 -0.57286049656E+01 -0.71413338334E+03  0.81010665572E+03  0.10100000352E+00 0.  1.
</event>
<event>
 5   0  0.6375625E-04  0.8990243E+03  0.7818609E-02  0.9426802E-01
        4   -1    0    0  501    0  0.00000000000E+00  0.00000000000E+00  0.18339138994E+03  0.18339578731E+03  0.12699999809E+01 0. -1.
       -4   -1    0    0    0  501  0.00000000000E+00  0.00000000000E+00 -0.11017850893E+04  0.11017858212E+04  0.12699999809E+01 0.  1.
    10030    2    1    2    0    0  0.00000000000E+00  0.00000000000E+00 -0.91839369934E+03  0.12851816085E+04  0.89902434892E+03 0.  0.
        3    1    3    3  502    0  0.16218792553E+03 -0.34667202234E+03 -0.12219530861E+03  0.40176873685E+03  0.10100000352E+00 0.  1.
       -3    1    3    3    0  502 -0.16218792553E+03  0.34667202234E+03 -0.79619839074E+03  0.88341287169E+03  0.10100000352E+00 0. -1.
</event>
<event>
 5   0  0.1641516E-03  0.8992632E+03  0.7818609E-02  0.9426503E-01
       -2   -1    0    0    0  501  0.00000000000E+00  0.00000000000E+00  0.36995300546E+03  0.36995300547E+03  0.25500000920E-02 0. -1.
        2   -1    0    0  501    0  0.00000000000E+00  0.00000000000E+00 -0.54647102067E+03  0.54647102068E+03  0.25500000920E-02 0.  1.
    10030    2    1    2    0    0  0.00000000000E+00  0.00000000000E+00 -0.17651801522E+03  0.91642402615E+03  0.89926324622E+03 0.  0.
        1    1    3    3  502    0 -0.88113972974E+02  0.19148926721E+03 -0.49299848295E+03  0.53617134939E+03  0.50400001928E-02 0.  1.
       -1    1    3    3    0  502  0.88113972974E+02 -0.19148926721E+03  0.31648046774E+03  0.38025267675E+03  0.50400001928E-02 0. -1.
</event>
<event>
 5   0  0.1630202E-03  0.9006374E+03  0.7818609E-02  0.9424785E-01
       -2   -1    0    0    0  501  0.00000000000E+00  0.00000000000E+00  0.11762371529E+03  0.11762371532E+03  0.25500000920E-02 0.  1.
        2   -1    0    0  501    0  0.00000000000E+00  0.00000000000E+00 -0.17240309759E+04  0.17240309759E+04  0.25500000920E-02 0. -1.
    10030    2    1    2    0    0  0.00000000000E+00  0.00000000000E+00 -0.16064072606E+04  0.18416546913E+04  0.90063739361E+03 0.  0.
        4    1    3    3  502    0  0.30047999996E+03 -0.25574374825E+03 -0.12469479577E+04  0.13078891074E+04  0.12699999809E+01 0. -1.
       -4    1    3    3    0  502 -0.30047999996E+03  0.25574374825E+03 -0.35945930298E+03  0.53376558389E+03  0.12699999809E+01 0.  1.
</event>
<event>
 5   0  0.1704416E-03  0.8932860E+03  0.7818609E-02  0.9434013E-01
       -2   -1    0    0    0  501  0.00000000000E+00  0.00000000000E+00  0.19496967832E+03  0.19496967834E+03  0.25500000920E-02 0. -1.
        2   -1    0    0  501    0  0.00000000000E+00  0.00000000000E+00 -0.10231845437E+04  0.10231845437E+04  0.25500000920E-02 0.  1.
    10030    2    1    2    0    0  0.00000000000E+00  0.00000000000E+00 -0.82821486537E+03  0.12181542220E+04  0.89328598189E+03 0.  0.
        3    1    3    3  502    0  0.30473600517E+03  0.13314143913E+03 -0.82070134024E+03  0.88551757505E+03  0.10100000352E+00 0.  1.
       -3    1    3    3    0  502 -0.30473600517E+03 -0.13314143913E+03 -0.75135251337E+01  0.33263664699E+03  0.10100000352E+00 0. -1.
</event>
<event>
 5   0  0.9223454E-04  0.9000851E+03  0.7818609E-02  0.9425475E-01
        1   -1    0    0  501    0  0.00000000000E+00  0.00000000000E+00  0.98838399175E+03  0.98838399176E+03  0.50400001928E-02 0. -1.
       -1   -1    0    0    0  501  0.00000000000E+00  0.00000000000E+00 -0.20491861506E+03  0.20491861513E+03  0.50400001928E-02 0.  1.
    10030    2    1    2    0    0  0.00000000000E+00  0.00000000000E+00  0.78346537669E+03  0.11933026069E+04  0.90008505995E+03 0.  0.
        1    1    3    3  502    0  0.31194698852E+03  0.18839514259E+03  0.41633364262E+02  0.36679284405E+03  0.50400001928E-02 0.  1.
       -1    1    3    3    0  502 -0.31194698852E+03 -0.18839514259E+03  0.74183201242E+03  0.82650976285E+03  0.50400001928E-02 0. -1.
</event>
<event>
 5   0  0.1536020E-03  0.8971834E+03  0.7818609E-02  0.9429109E-01
        2   -1    0    0  501    0  0.00000000000E+00  0.00000000000E+00  0.71480830892E+03  0.71480830893E+03  0.25500000920E-02 0.  1.
       -2   -1    0    0    0  501  0.00000000000E+00  0.00000000000E+00 -0.28152234469E+03  0.28152234470E+03  0.25500000920E-02 0. -1.
    10030    2    1    2    0    0  0.00000000000E+00  0.00000000000E+00  0.43328596423E+03  0.99633065362E+03  0.89718339516E+03 0.  0.
        2    1    3    3  502    0  0.39560128543E+03 -0.21061198993E+01 -0.18223071110E+02  0.39602637930E+03  0.25500000920E-02 0. -1.
       -2    1    3    3    0  502 -0.39560128543E+03  0.21061198993E+01  0.45150903534E+03  0.60030427433E+03  0.25500000920E-02 0.  1.
</event>
<event>
 5   0  0.9223454E-04  0.9029740E+03  0.7818609E-02  0.9421871E-01
        1   -1    0    0  501    0  0.00000000000E+00  0.00000000000E+00  0.59178248460E+03  0.59178248462E+03  0.50400001928E-02 0.  1.
       -1   -1    0    0    0  501  0.00000000000E+00  0.00000000000E+00 -0.34445175720E+03  0.34445175724E+03  0.50400001928E-02 0. -1.
    10030    2    1    2    0    0  0.00000000000E+00  0.00000000000E+00  0.24733072740E+03  0.93623424187E+03  0.90297401232E+03 0.  0.
        1    1    3    3  502    0  0.11481967325E+03  0.16263717005E+03 -0.29648420912E+03  0.35712363788E+03  0.50400001928E-02 0. -1.
       -1    1    3    3    0  502 -0.11481967325E+03 -0.16263717005E+03  0.54381493652E+03  0.57911060399E+03  0.50400001928E-02 0.  1.
</event>
<event>
 5   0  0.1007561E-03  0.9078137E+03  0.7818609E-02  0.9415866E-01
        1   -1    0    0  501    0  0.00000000000E+00  0.00000000000E+00  0.55996235766E+03  0.55996235769E+03  0.50400001928E-02 0. -1.
       -1   -1    0    0    0  501  0.00000000000E+00  0.00000000000E+00 -0.36793796579E+03  0.36793796582E+03  0.50400001928E-02 0.  1.
    10030    2    1    2    0    0  0.00000000000E+00  0.00000000000E+00  0.19202439188E+03  0.92790032351E+03  0.90781366111E+03 0.  0.
        2    1    3    3  502    0  0.15091894137E+03  0.36089487054E+03 -0.13932067787E+03  0.41524918511E+03  0.25500000920E-02 0.  1.
       -2    1    3    3    0  502 -0.15091894137E+03 -0.36089487054E+03  0.33134506975E+03  0.51265113840E+03  0.25500000920E-02 0. -1.
</event>
<event>
 5   0  0.1635686E-03  0.9002233E+03  0.7818609E-02  0.9425302E-01
        2   -1    0    0  501    0  0.00000000000E+00  0.00000000000E+00  0.96107963372E+03  0.96107963372E+03  0.25500000920E-02 0. -1.
       -2   -1    0    0    0  501  0.00000000000E+00  0.00000000000E+00 -0.21080511018E+03  0.21080511020E+03  0.25500000920E-02 0.  1.
    10030    2    1    2    0    0  0.00000000000E+00  0.00000000000E+00  0.75027452353E+03  0.11718847439E+04  0.90022330139E+03 0.  0.
        5    1    3    3  502    0  0.43673255203E+03 -0.16188881690E+02  0.51522747540E+03  0.67563218047E+03  0.46999998093E+01 0.  1.
       -5    1    3    3    0  502 -0.43673255203E+03  0.16188881690E+02  0.23504704814E+03  0.49625256345E+03  0.46999998093E+01 0. -1.
</event>
<event>
 5   0  0.9223454E-04  0.8973816E+03  0.7818609E-02  0.9428861E-01
        1   -1    0    0  501    0  0.00000000000E+00  0.00000000000E+00  0.89118542318E+03  0.89118542319E+03  0.50400001928E-02 0. -1.
       -1   -1    0    0    0  501  0.00000000000E+00  0.00000000000E+00 -0.22590519367E+03  0.22590519373E+03  0.50400001928E-02 0.  1.
    10030    2    1    2    0    0  0.00000000000E+00  0.00000000000E+00  0.66528022951E+03  0.11170906169E+04  0.89738155912E+03 0.  0.
        1    1    3    3  502    0  0.25310229364E+03  0.13311018147E+03  0.76304356473E+03  0.81487089355E+03  0.50400001928E-02 0. -1.
       -1    1    3    3    0  502 -0.25310229364E+03 -0.13311018147E+03 -0.97763335227E+02  0.30221972337E+03  0.50400001928E-02 0.  1.
</event>
<event>
 5   0  0.1630202E-03  0.8946005E+03  0.7818609E-02  0.9432356E-01
       -2   -1    0    0    0  501  0.00000000000E+00  0.00000000000E+00  0.25377523863E+03  0.25377523865E+03  0.25500000920E-02 0. -1.
        2   -1    0    0  501    0  0.00000000000E+00  0.00000000000E+00 -0.78840436870E+03  0.78840436870E+03  0.25500000920E-02 0.  1.
    10030    2    1    2    0    0  0.00000000000E+00  0.00000000000E+00 -0.53462913006E+03  0.10421796073E+04  0.89460048472E+03 0.  0.
        4    1    3    3  502    0  0.43507239441E+03 -0.10325833620E+03 -0.28037162827E+03  0.52778796425E+03  0.12699999809E+01 0.  1.
       -4    1    3    3    0  502 -0.43507239441E+03  0.10325833620E+03 -0.25425750179E+03  0.51439164310E+03  0.12699999809E+01 0. -1.
</event>
<event>
 5   0  0.9697941E-04  0.9005046E+03  0.7818609E-02  0.9424951E-01
       -1   -1    0    0    0  501  0.00000000000E+00  0.00000000000E+00  0.26239337559E+03  0.26239337564E+03  0.50400001928E-02 0.  1.
        1   -1    0    0  501    0  0.00000000000E+00  0.00000000000E+00 -0.77260770229E+03  0.77260770231E+03  0.50400001928E-02 0. -1.
    10030    2    1    2    0    0  0.00000000000E+00  0.00000000000E+00 -0.51021432670E+03  0.10350010779E+04  0.90050462085E+03 0.  0.
        5    1    3    3  502    0  0.43708703067E+03 -0.69636827235E+02 -0.16025428652E+03  0.47074184691E+03  0.46999998093E+01 0. -1.
       -5    1    3    3    0  502 -0.43708703067E+03  0.69636827235E+02 -0.34996004018E+03  0.56425923103E+03  0.46999998093E+01 0.  1.
</event>
<event>
 5   0  0.1704416E-03  0.8997687E+03  0.7818609E-02  0.9425871E-01
       -2   -1    0    0    0  501  0.00000000000E+00  0.00000000000E+00  0.13644913572E+03  0.13644913574E+03  0.25500000920E-02 0. -1.
        2   -1    0    0  501    0  0.00000000000E+00  0.00000000000E+00 -0.14833068166E+04  0.14833068166E+04  0.25500000920E-02 0.  1.
    10030    2    1    2    0    0  0.00000000000E+00  0.00000000000E+00 -0.13468576809E+04  0.16197559524E+04  0.89976871062E+03 0.  0.
        3    1    3    3  502    0 -0.25239565166E+02 -0.26159355682E+03 -0.13307519317E+04  0.13564545472E+04  0.10100000352E+00 0.  1.
       -3    1    3    3    0  502  0.25239565166E+02  0.26159355682E+03 -0.16105749213E+02  0.26330140520E+03  0.10100000352E+00 0. -1.
</event>
<event>
 5   0  0.1704416E-03  0.8970462E+03  0.7818609E-02  0.9429281E-01
       -2   -1    0    0    0  501  0.00000000000E+00  0.00000000000E+00  0.64329231362E+03  0.64329231362E+03  0.25500000920E-02 0. -1.
        2   -1    0    0  501    0  0.00000000000E+00  0.00000000000E+00 -0.31272405667E+03  0.31272405668E+03  0.25500000920E-02 0.  1.
    10030    2    1    2    0    0  0.00000000000E+00  0.00000000000E+00  0.33056825695E+03  0.95601637030E+03  0.89704622388E+03 0.  0.
        3    1    3    3  502    0 -0.25400608411E+03  0.32070518216E+03  0.36122369206E+03  0.54575953546E+03  0.10100000352E+00 0.  1.
       -3    1    3    3    0  502  0.25400608411E+03 -0.32070518216E+03 -0.30655435114E+02  0.41025683484E+03  0.10100000352E+00 0. -1.
</event>
<event>
 5   0  0.9321543E-04  0.8995518E+03  0.7818609E-02  0.9426142E-01
       -1   -1    0    0    0  501  0.00000000000E+00  0.00000000000E+00  0.60819017282E+03  0.60819017284E+03  0.50400001928E-02 0. -1.
        1   -1    0    0  501    0  0.00000000000E+00  0.00000000000E+00 -0.33262355247E+03  0.33262355251E+03  0.50400001928E-02 0.  1.
    10030    2    1    2    0    0  0.00000000000E+00  0.00000000000E+00  0.27556662035E+03  0.94081372535E+03  0.89955183483E+03 0.  0.
        3    1    3    3  502    0 -0.29723719963E+03 -0.17764119956E+03  0.43798975983E+03  0.55833805937E+03  0.10100000352E+00 0. -1.
       -3    1    3    3    0  502  0.29723719963E+03  0.17764119956E+03 -0.16242313948E+03  0.38247566598E+03  0.10100000352E+00 0.  1.
</event>
<event>
 5   0  0.1536020E-03  0.8983327E+03  0.7818609E-02  0.9427668E-01
       -2   -1    0    0    0  501  0.00000000000E+00  0.00000000000E+00  0.20478822160E+03  0.20478822162E+03  0.25500000920E-02 0. -1.
        2   -1    0    0  501    0  0.00000000000E+00  0.00000000000E+00 -0.98516609654E+03  0.98516609655E+03  0.25500000920E-02 0.  1.
    10030    2    1    2    0    0  0.00000000000E+00  0.00000000000E+00 -0.78037787494E+03  0.11899543182E+04  0.89833270653E+03 0.  0.
        2    1    3    3  502    0  0.26115723848E+03 -0.24534100850E+03 -0.74895242079E+03  0.83025601008E+03  0.25500000920E-02 0.  1.
       -2    1    3    3    0  502 -0.26115723848E+03  0.24534100850E+03 -0.31425454152E+02  0.35969830809E+03  0.25500000920E-02 0. -1.
</event>
<event>
 5   0  0.1630202E-03  0.8977504E+03  0.7818609E-02  0.9428398E-01
       -2   -1    0    0    0  501  0.00000000000E+00  0.00000000000E+00  0.10272552094E+03  0.10272552097E+03  0.25500000920E-02 0.  1.
        2   -1    0    0  501    0  0.00000000000E+00  0.00000000000E+00 -0.19614303814E+04  0.19614303814E+04  0.25500000920E-02 0. -1.
    10030    2    1    2    0    0  0.00000000000E+00  0.00000000000E+00 -0.18587048604E+04  0.20641559024E+04  0.89775042801E+03 0.  0.
        4    1    3    3  502    0 -0.29591266555E+03 -0.47188726981E+02 -0.16091909428E+03  0.34012887174E+03  0.12699999809E+01 0.  1.
       -4    1    3    3    0  502  0.29591266555E+03  0.47188726981E+02 -0.16977857662E+04  0.17240270306E+04  0.12699999809E+01 0. -1.
</event>
<event>
 5   0  0.1630202E-03  0.8991124E+03  0.7818609E-02  0.9426692E-01
        2   -1    0    0  501    0  0.00000000000E+00  0.00000000000E+00  0.16012394926E+04  0.16012394926E+04  0.25500000920E-02 0. -1.
       -2   -1    0    0    0  501  0.00000000000E+00  0.00000000000E+00 -0.12621520631E+03  0.12621520633E+03  0.25500000920E-02 0.  1.
    10030    2    1    2    0    0  0.00000000000E+00  0.00000000000E+00  0.14750242863E+04  0.17274546989E+04  0.89911239105E+03 0.  0.
        4    1    3    3  502    0  0.20713218520E+03  0.36506124113E+03  0.10468677544E+04  0.11278772806E+04  0.12699999809E+01 0.  1.
       -4    1    3    3    0  502 -0.20713218520E+03 -0.36506124113E+03  0.42815653190E+03  0.59957741838E+03  0.12699999809E+01 0. -1.
</event>
<event>
 5   0  0.9981885E-04  0.8999411E+03  0.7818609E-02  0.9425655E-01
       -1   -1    0    0    0  501  0.00000000000E+00  0.00000000000E+00  0.31388075118E+03  0.31388075122E+03  0.50400001928E-02 0. -1.
        1   -1    0    0  501    0  0.00000000000E+00  0.00000000000E+00 -0.64506504513E+03  0.64506504515E+03  0.50400001928E-02 0.  1.
    10030    2    1    2    0    0  0.00000000000E+00  0.00000000000E+00 -0.33118429395E+03  0.95894579637E+03  0.89994111130E+03 0.  0.
        4    1    3    3  502    0 -0.73534157412E+02  0.37385403725E+03  0.89471664508E+02  0.39138332249E+03  0.12699999809E+01 0. -1.
       -4    1    3    3    0  502  0.73534157412E+02 -0.37385403725E+03 -0.42065595846E+03  0.56756247388E+03  0.12699999809E+01 0.  1.
</event>
<event>
 5   0  0.9321543E-04  0.9017098E+03  0.7818609E-02  0.9423447E-01
        1   -1    0    0  501    0  0.00000000000E+00  0.00000000000E+00  0.11671935252E+04  0.11671935252E+04  0.50400001928E-02 0.  1.
       -1   -1    0    0    0  501  0.00000000000E+00  0.00000000000E+00 -0.17415291088E+03  0.17415291095E+03  0.50400001928E-02 0. -1.
    10030    2    1    2    0    0  0.00000000000E+00  0.00000000000E+00  0.99304061434E+03  0.13413464362E+04  0.90170982036E+03 0.  0.
        3    1    3    3  502    0 -0.53595402606E+01  0.76093382032E+02  0.11575242691E+04  0.11600350732E+04  0.10100000352E+00 0.  1.
       -3    1    3    3    0  502  0.53595402606E+01 -0.76093382032E+02 -0.16448365473E+03  0.18131136295E+03  0.10100000352E+00 0. -1.
</event>
<event>
 5   0  0.9223454E-04  0.8997712E+03  0.7818609E-02  0.9425867E-01
        1   -1    0    0  501    0  0.00000000000E+00  0.00000000000E+00  0.67945986047E+03  0.67945986049E+03  0.50400001928E-02 0.  1.
       -1   -1    0    0    0  501  0.00000000000E+00  0.00000000000E+00 -0.29787935034E+03  0.29787935038E+03  0.50400001928E-02 0. -1.
    10030    2    1    2    0    0  0.00000000000E+00  0.00000000000E+00  0.38158051014E+03  0.97733921087E+03  0.89977121948E+03 0.  0.
        1    1    3    3  502    0 -0.38597310045E+03 -0.22482255083E+03  0.13253211688E+03  0.46592400202E+03  0.50400001928E-02 0. -1.
       -1    1    3    3    0  502  0.38597310045E+03  0.22482255083E+03  0.24904839326E+03  0.51141520885E+03  0.50400001928E-02 0.  1.
</event>
<event>
 5   0  0.9981885E-04  0.8999363E+03  0.7818609E-02  0.9425661E-01
       -1   -1    0    0    0  501  0.00000000000E+00  0.00000000000E+00  0.13214531990E+03  0.13214532000E+03  0.50400001928E-02 0. -1.
        1   -1    0    0  501    0  0.00000000000E+00  0.00000000000E+00 -0.15321868957E+04  0.15321868957E+04  0.50400001928E-02 0.  1.
    10030    2    1    2    0    0  0.00000000000E+00  0.00000000000E+00 -0.14000415758E+04  0.16643322157E+04  0.89993628124E+03 0.  0.
        4    1    3    3  502    0 -0.20230517028E+03 -0.40116441078E+03 -0.74567666444E+03  0.87057197703E+03  0.12699999809E+01 0.  1.
       -4    1    3    3    0  502  0.20230517028E+03  0.40116441078E+03 -0.65436491136E+03  0.79376023868E+03  0.12699999809E+01 0. -1.
</event>
<event>
 5   0  0.9223454E-04  0.9053985E+03  0.7818609E-02  0.9418858E-01
        1   -1    0    0  501    0  0.00000000000E+00  0.00000000000E+00  0.47789101134E+03  0.47789101137E+03  0.50400001928E-02 0. -1.
       -1   -1    0    0    0  501  0.00000000000E+00  0.00000000000E+00 -0.42883543636E+03  0.42883543639E+03  0.50400001928E-02 0.  1.
    10030    2    1    2    0    0  0.00000000000E+00  0.00000000000E+00  0.49055574978E+02  0.90672644776E+03  0.90539847671E+03 0.  0.
        1    1    3    3  502    0  0.43525015972E+03  0.10373728499E+03  0.93421671174E+02  0.45709051019E+03  0.50400001928E-02 0.  1.
       -1    1    3    3    0  502 -0.43525015972E+03 -0.10373728499E+03 -0.44366096196E+02  0.44963593757E+03  0.50400001928E-02 0. -1.
</event>
<event>
 5   0  0.1536020E-03  0.9010546E+03  0.7818609E-02  0.9424264E-01
        2   -1    0    0  501    0  0.00000000000E+00  0.00000000000E+00  0.12423920855E+04  0.12423920855E+04  0.25500000920E-02 0. -1.
       -2   -1    0    0    0  501  0.00000000000E+00  0.00000000000E+00 -0.16337421758E+03  0.16337421760E+03  0.25500000920E-02 0.  1.
    10030    2    1    2    0    0  0.00000000000E+00  0.00000000000E+00  0.10790178679E+04  0.14057663031E+04  0.90105457084E+03 0.  0.
        2    1    3    3  502    0  0.77058980126E+00  0.12153769236E+03  0.12163319362E+04  0.12223892112E+04  0.25500000920E-02 0. -1.
       -2    1    3    3    0  502 -0.77058980126E+00 -0.12153769236E+03 -0.13731406833E+03  0.18337709192E+03  0.25500000920E-02 0.  1.
</event>
<event>
 5   0  0.9981885E-04  0.8947149E+03  0.7818609E-02  0.9432212E-01
        1   -1    0    0  501    0  0.00000000000E+00  0.00000000000E+00  0.10544103866E+04  0.10544103867E+04  0.50400001928E-02 0. -1.
       -1   -1    0    0    0  501  0.00000000000E+00  0.00000000000E+00 -0.18980151906E+03  0.18980151912E+03  0.50400001928E-02 0.  1.
    10030    2    1    2    0    0  0.00000000000E+00  0.00000000000E+00  0.86460886758E+03  0.12442119058E+04  0.89471491134E+03 0.  0.
        4    1    3    3  502    0  0.83688919093E+02  0.43923737222E+03  0.41294647454E+03  0.60865401343E+03  0.12699999809E+01 0. -1.
       -4    1    3    3    0  502 -0.83688919093E+02 -0.43923737222E+03  0.45166239304E+03  0.63555789235E+03  0.12699999809E+01 0.  1.
</event>
<event>
 5   0  0.1536020E-03  0.9007213E+03  0.7818609E-02  0.9424680E-01
        2   -1    0    0  501    0  0.00000000000E+00  0.00000000000E+00  0.58358112366E+03  0.58358112367E+03  0.25500000920E-02 0.  1.
       -2   -1    0    0    0  501  0.00000000000E+00  0.00000000000E+00 -0.34755187205E+03  0.34755187206E+03  0.25500000920E-02 0. -1.
    10030    2    1    2    0    0  0.00000000000E+00  0.00000000000E+00  0.23602925161E+03  0.93113299573E+03  0.90072129325E+03 0.  0.
        2    1    3    3  502    0  0.39570436507E+03 -0.45339504485E+02 -0.99290024950E+02  0.41048279412E+03  0.25500000920E-02 0. -1.
       -2    1    3    3    0  502 -0.39570436507E+03  0.45339504485E+02  0.33531927656E+03  0.52065020161E+03  0.25500000920E-02 0.  1.
</event>
<event>
 5   0  0.9223454E-04  0.9001156E+03  0.7818609E-02  0.9425437E-01
       -1   -1    0    0    0  501  0.00000000000E+00  0.00000000000E+00  0.15960680732E+03  0.15960680740E+03  0.50400001928E-02 0.  1.
        1   -1    0    0  501    0  0.00000000000E+00  0.00000000000E+00 -0.12690688753E+04  0.12690688753E+04  0.50400001928E-02 0. -1.
    10030    2    1    2    0    0  0.00000000000E+00  0.00000000000E+00 -0.11094620680E+04  0.14286756827E+04  0.90011561817E+03 0.  0.
        1    1    3    3  502    0  0.37929857405E+03  0.74839273871E+02 -0.92042346726E+03  0.99832243504E+03  0.50400001928E-02 0. -1.
       -1    1    3    3    0  502 -0.37929857405E+03 -0.74839273871E+02 -0.18903860069E+03  0.43035324765E+03  0.50400001928E-02 0.  1.
</event>
<event>
 5   0  0.9321543E-04  0.8991623E+03  0.7818609E-02  0.9426629E-01
       -1   -1    0    0    0  501  0.00000000000E+00  0.00000000000E+00  0.14272716856E+03  0.14272716864E+03  0.50400001928E-02 0.  1.
        1   -1    0    0  501    0  0.00000000000E+00  0.00000000000E+00 -0.14161508149E+04  0.14161508150E+04  0.50400001928E-02 0. -1.
    10030    2    1    2    0    0  0.00000000000E+00  0.00000000000E+00 -0.12734236464E+04  0.15588779836E+04  0.89916226821E+03 0.  0.
        3    1    3    3  502    0  0.15270394684E+03 -0.11753180851E+02 -0.13695290651E+04  0.13780662186E+04  0.10100000352E+00 0. -1.
       -3    1    3    3    0  502 -0.15270394684E+03  0.11753180851E+02  0.96105418702E+02  0.18081176495E+03  0.10100000352E+00 0.  1.
</event>
<event>
 5   0  0.1536020E-03  0.9010757E+03  0.7818609E-02  0.9424238E-01
       -2   -1    0    0    0  501  0.00000000000E+00  0.00000000000E+00  0.36935707230E+03  0.36935707230E+03  0.25500000920E-02 0. -1.
        2   -1    0    0  501    0  0.00000000000E+00  0.00000000000E+00 -0.54956134483E+03  0.54956134484E+03  0.25500000920E-02 0.  1.
    10030    2    1    2    0    0  0.00000000000E+00  0.00000000000E+00 -0.18020427253E+03  0.91891841714E+03  0.90107573351E+03 0.  0.
        2    1    3    3  502    0 -0.13590193747E+03  0.40187508262E+03 -0.24480119150E+03  0.48979642914E+03  0.25500000920E-02 0.  1.
       -2    1    3    3    0  502  0.13590193747E+03 -0.40187508262E+03  0.64596918966E+02  0.42912198800E+03  0.25500000920E-02 0. -1.
</event>
<event>
 5   0  0.1641516E-03  0.8991991E+03  0.7818609E-02  0.9426583E-01
       -2   -1    0    0    0  501  0.00000000000E+00  0.00000000000E+00  0.80232887640E+03  0.80232887640E+03  0.25500000920E-02 0.  1.
        2   -1    0    0  501    0  0.00000000000E+00  0.00000000000E+00 -0.25194125003E+03  0.25194125004E+03  0.25500000920E-02 0. -1.
    10030    2    1    2    0    0  0.00000000000E+00  0.00000000000E+00  0.55038762637E+03  0.10542701264E+04  0.89919906598E+03 0.  0.
        1    1    3    3  502    0 -0.20989534285E+03 -0.93223669702E+02 -0.17797626330E+03  0.29055508577E+03  0.50400001928E-02 0. -1.
       -1    1    3    3    0  502  0.20989534285E+03  0.93223669702E+02  0.72836388967E+03  0.76371504067E+03  0.50400001928E-02 0.  1.
</event>
<event>
 5   0  0.1635686E-03  0.9003823E+03  0.7818609E-02  0.9425104E-01
        2   -1    0    0  501    0  0.00000000000E+00  0.00000000000E+00  0.98258664772E+03  0.98258664772E+03  0.25500000920E-02 0. -1.
       -2   -1    0    0    0  501  0.00000000000E+00  0.00000000000E+00 -0.20626380095E+03  0.20626380097E+03  0.25500000920E-02 0.  1.
    10030    2    1    2    0    0  0.00000000000E+00  0.00000000000E+00  0.77632284677E+03  0.11888504487E+04  0.90038226712E+03 0.  0.
        5    1    3    3  502    0 -0.24565333326E+03 -0.33954739209E+03  0.60517078207E+03  0.73613297514E+03  0.46999998093E+01 0. -1.
       -5    1    3    3    0  502  0.24565333326E+03  0.33954739209E+03  0.17115206470E+03  0.45271747356E+03  0.46999998093E+01 0.  1.
</event>
<event>
 5   0  0.9981885E-04  0.8996435E+03  0.7818609E-02  0.9426027E-01
       -1   -1    0    0    0  501  0.00000000000E+00  0.00000000000E+00  0.37240098104E+03  0.37240098108E+03  0.50400001928E-02 0. -1.
        1   -1    0    0  501    0  0.00000000000E+00  0.00000000000E+00 -0.54333800905E+03  0.54333800908E+03  0.50400001928E-02 0.  1.
    10030    2    1    2    0    0  0.00000000000E+00  0.00000000000E+00 -0.17093702801E+03  0.91573899016E+03  0.89964350192E+03 0.  0.
        4    1    3    3  502    0 -0.28792486021E+03  0.34151904008E+03 -0.31587411128E+02  0.44781174315E+03  0.12699999809E+01 0. -1.
       -4    1    3    3    0  502  0.28792486021E+03 -0.34151904008E+03 -0.13934961688E+03  0.46792724700E+03  0.12699999809E+01 0.  1.
</event>
<event>
 5   0  0.9223454E-04  0.9002195E+03  0.7818609E-02  0.9425307E-01
        1   -1    0    0  501    0  0.00000000000E+00  0.00000000000E+00  0.21102692825E+04  0.21102692825E+04  0.50400001928E-02 0.  1.
       -1   -1    0    0    0  501  0.00000000000E+00  0.00000000000E+00 -0.96006127270E+02  0.96006127403E+02  0.50400001928E-02 0. -1.
    10030    2    1    2    0    0  0.00000000000E+00  0.00000000000E+00  0.20142631553E+04  0.22062754099E+04  0.90021948761E+03 0.  0.
        1    1    3    3  502    0  0.15318711343E+03  0.44351967571E+02 -0.24443307109E+02  0.16134083190E+03  0.50400001928E-02 0. -1.
       -1    1    3    3    0  502 -0.15318711343E+03 -0.44351967571E+02  0.20387064624E+04  0.20449345780E+04  0.50400001928E-02 0.  1.
</event>
<event>
 5   0  0.9321543E-04  0.9027126E+03  0.7818609E-02  0.9422197E-01
       -1   -1    0    0    0  501  0.00000000000E+00  0.00000000000E+00  0.25535447994E+03  0.25535447999E+03  0.50400001928E-02 0. -1.
        1   -1    0    0  501    0  0.00000000000E+00  0.00000000000E+00 -0.79780279024E+03  0.79780279025E+03  0.50400001928E-02 0.  1.
    10030    2    1    2    0    0  0.00000000000E+00  0.00000000000E+00 -0.54244831030E+03  0.10531572702E+04  0.90271261569E+03 0.  0.
        3    1    3    3  502    0 -0.87365052318E+02 -0.35189845653E+03  0.42382069492E+02  0.36504989534E+03  0.10100000352E+00 0. -1.
       -3    1    3    3    0  502  0.87365052318E+02  0.35189845653E+03 -0.58483037979E+03  0.68810737490E+03  0.10100000352E+00 0.  1.
</event>
<event>
 5   0  0.1704416E-03  0.8992829E+03  0.7818609E-02  0.9426478E-01
       -2   -1    0    0    0  501  0.00000000000E+00  0.00000000000E+00  0.87751453020E+02  0.87751453057E+02  0.25500000920E-02 0. -1.
        2   -1    0    0  501    0  0.00000000000E+00  0.00000000000E+00 -0.23039780528E+04  0.23039780528E+04  0.25500000920E-02 0.  1.
    10030    2    1    2    0    0  0.00000000000E+00  0.00000000000E+00 -0.22162265998E+04  0.23917295059E+04  0.89928287409E+03 0.  0.
        3    1    3    3  502    0  0.32759288059E+03  0.10962308825E+03 -0.34261558988E+03  0.48653855913E+03  0.10100000352E+00 0. -1.
       -3    1    3    3    0  502 -0.32759288059E+03 -0.10962308825E+03 -0.18736110099E+04  0.19051909468E+04  0.10100000352E+00 0.  1.
</event>
<event>
 5   0  0.1536020E-03  0.9010711E+03  0.7818609E-02  0.9424243E-01
        2   -1    0    0  501    0  0.00000000000E+00  0.00000000000E+00  0.15374882609E+03  0.15374882611E+03  0.25500000920E-02 0.  1.
       -2   -1    0    0    0  501  0.00000000000E+00  0.00000000000E+00 -0.13202201200E+04  0.13202201200E+04  0.25500000920E-02 0. -1.
    10030    2    1    2    0    0  0.00000000000E+00  0.00000000000E+00 -0.11664712939E+04  0.14739689461E+04  0.90107112628E+03 0.  0.
        2    1    3    3  502    0 -0.30823787025E+02  0.36657742167E+03 -0.15776130680E+03  0.40027208478E+03  0.25500000920E-02 0.  1.
       -2    1    3    3    0  502  0.30823787025E+02 -0.36657742167E+03 -0.10087099871E+04  0.10736968614E+04  0.25500000920E-02 0. -1.
</event>
<event>
 5   0  0.6375625E-04  0.9003589E+03  0.7818609E-02  0.9425133E-01
        4   -1    0    0  501    0  0.00000000000E+00  0.00000000000E+00  0.52560770408E+03  0.52560923840E+03  0.12699999809E+01 0.  1.
       -4   -1    0    0    0  501  0.00000000000E+00  0.00000000000E+00 -0.38557253487E+03  0.38557462643E+03  0.12699999809E+01 0. -1.
    10030    2    1    2    0    0  0.00000000000E+00  0.00000000000E+00  0.14003516921E+03  0.91118386483E+03  0.90035892116E+03 0.  0.
        3    1    3    3  502    0  0.29916492726E+03 -0.17127119649E+03 -0.22299417910E+03  0.41056045908E+03  0.10100000352E+00 0. -1.
       -3    1    3    3    0  502 -0.29916492726E+03  0.17127119649E+03  0.36302934831E+03  0.50062340575E+03  0.10100000352E+00 0.  1.
</event>
<event>
 5   0  0.1007561E-03  0.9032216E+03  0.7818609E-02  0.9421563E-01
       -1   -1    0    0    0  501  0.00000000000E+00  0.00000000000E+00  0.30504750243E+03  0.30504750247E+03  0.50400001928E-02 0.  1.
        1   -1    0    0  501    0  0.00000000000E+00  0.00000000000E+00 -0.66859200789E+03  0.66859200791E+03  0.50400001928E-02 0. -1.
    10030    2    1    2    0    0  0.00000000000E+00  0.00000000000E+00 -0.36354450546E+03  0.97363951038E+03  0.90322161662E+03 0.  0.
        2    1    3    3  502    0 -0.21438630534E+03 -0.34702208311E+02 -0.60860558309E+03  0.64619384626E+03  0.25500000920E-02 0. -1.
       -2    1    3    3    0  502  0.21438630534E+03  0.34702208311E+02  0.24506107763E+03  0.32744566412E+03  0.25500000920E-02 0.  1.
</event>
<event>
 5   0  0.1630202E-03  0.9036570E+03  0.7818609E-02  0.9421022E-01
       -2   -1    0    0    0  501  0.00000000000E+00  0.00000000000E+00  0.23790475047E+03  0.23790475048E+03  0.25500000920E-02 0. -1.
        2   -1    0    0  501    0  0.00000000000E+00  0.00000000000E+00 -0.85811231787E+03  0.85811231787E+03  0.25500000920E-02 0.  1.
    10030    2    1    2    0    0  0.00000000000E+00  0.00000000000E+00 -0.62020756740E+03  0.10960170684E+04  0.90365700765E+03 0.  0.
        4    1    3    3  502    0 -0.37383925221E+03 -0.12077359782E+03 -0.39426610782E+02  0.39483935843E+03  0.12699999809E+01 0. -1.
       -4    1    3    3    0  502  0.37383925221E+03  0.12077359782E+03 -0.58078095662E+03  0.70117770993E+03  0.12699999809E+01 0.  1.
</event>
<event>
 5   0  0.9321543E-04  0.8999842E+03  0.7818609E-02  0.9425601E-01
        1   -1    0    0  501    0  0.00000000000E+00  0.00000000000E+00  0.15866665370E+04  0.15866665371E+04  0.50400001928E-02 0. -1.
       -1   -1    0    0    0  501  0.00000000000E+00  0.00000000000E+00 -0.12762159045E+03  0.12762159055E+03  0.50400001928E-02 0.  1.
    10030    2    1    2    0    0  0.00000000000E+00  0.00000000000E+00  0.14590449466E+04  0.17142881276E+04  0.89998423777E+03 0.  0.
        3    1    3    3  502    0  0.42156668720E+03  0.12226399825E+03  0.91833724354E+03  0.10178458921E+04  0.10100000352E+00 0.  1.
       -3    1    3    3    0  502 -0.42156668720E+03 -0.12226399825E+03  0.54070770306E+03  0.69644223549E+03  0.10100000352E+00 0. -1.
</event>
<event>
 5   0  0.1641516E-03  0.9001882E+03  0.7818609E-02  0.9425346E-01
        2   -1    0    0  501    0  0.00000000000E+00  0.00000000000E+00  0.18996968077E+04  0.18996968077E+04  0.25500000920E-02 0. -1.
       -2   -1    0    0    0  501  0.00000000000E+00  0.00000000000E+00 -0.10664054368E+03  0.10664054371E+03  0.25500000920E-02 0.  1.
    10030    2    1    2    0    0  0.00000000000E+00  0.00000000000E+00  0.17930562640E+04  0.20063373514E+04  0.90018820349E+03 0.  0.
        1    1    3    3  502    0  0.37222425469E+03  0.10005862783E+02  0.14600821069E+04  0.15068147769E+04  0.50400001928E-02 0. -1.
       -1    1    3    3    0  502 -0.37222425469E+03 -0.10005862783E+02  0.33297415711E+03  0.49952257446E+03  0.50400001928E-02 0.  1.
</event>
<event>
 5   0  0.6375625E-04  0.9018789E+03  0.7818609E-02  0.9423236E-01
        4   -1    0    0  501    0  0.00000000000E+00  0.00000000000E+00  0.24041344120E+03  0.24041679561E+03  0.12699999809E+01 0.  1.
       -4   -1    0    0    0  501  0.00000000000E+00  0.00000000000E+00 -0.84580985440E+03  0.84581080787E+03  0.12699999809E+01 0. -1.
    10030    2    1    2    0    0  0.00000000000E+00  0.00000000000E+00 -0.60539641320E+03  0.10862276035E+04  0.90187892171E+03 0.  0.
        5    1    3    3  502    0  0.42548276264E+02 -0.44736640564E+03 -0.34739528037E+03  0.56802519973E+03  0.46999998093E+01 0. -1.
       -5    1    3    3    0  502 -0.42548276264E+02  0.44736640564E+03 -0.25800113283E+03  0.51820240374E+03  0.46999998093E+01 0.  1.
</event>
<event>
 5   0  0.9981885E-04  0.8971514E+03  0.7818609E-02  0.9429149E-01
        1   -1    0    0  501    0  0.00000000000E+00  0.00000000000E+00  0.47474936892E+03  0.47474936894E+03  0.50400001928E-02 0.  1.
       -1   -1    0    0    0  501  0.00000000000E+00  0.00000000000E+00 -0.42384506560E+03  0.42384506563E+03  0.50400001928E-02 0. -1.
    10030    2    1    2    0    0  0.00000000000E+00  0.00000000000E+00  0.50904303317E+02  0.89859443457E+03  0.89715144192E+03 0.  0.
        4    1    3    3  502    0 -0.77441640320E+02  0.38076836146E+03 -0.19904405127E+03  0.43657977506E+03  0.12699999809E+01 0. -1.
       -4    1    3    3    0  502  0.77441640320E+02 -0.38076836146E+03  0.24994835459E+03  0.46201465951E+03  0.12699999809E+01 0.  1.
</event>
<event>
 5   0  0.1630202E-03  0.9000371E+03  0.7818609E-02  0.9425535E-01
        2   -1    0    0  501    0  0.00000000000E+00  0.00000000000E+00  0.89019525244E+03  0.89019525244E+03  0.25500000920E-02 0. -1.
       -2   -1    0    0    0  501  0.00000000000E+00  0.00000000000E+00 -0.22749695077E+03  0.22749695078E+03  0.25500000920E-02 0.  1.
    10030    2    1    2    0    0  0.00000000000E+00  0.00000000000E+00  0.66269830167E+03  0.11176922032E+04  0.90003712263E+03 0.  0.
        4    1    3    3  502    0 -0.28423333735E+03 -0.32709178373E+03  0.48210467334E+03  0.64823155893E+03  0.12699999809E+01 0. -1.
       -4    1    3    3    0  502  0.28423333735E+03  0.32709178373E+03  0.18059362833E+03  0.46946064429E+03  0.12699999809E+01 0.  1.
</event>
<event>
 5   0  0.1536020E-03  0.9009329E+03  0.7818609E-02  0.9424416E-01
       -2   -1    0    0    0  501  0.00000000000E+00  0.00000000000E+00  0.13336123922E+03  0.13336123924E+03  0.25500000920E-02 0.  1.
        2   -1    0    0  501    0  0.00000000000E+00  0.00000000000E+00 -0.15215816683E+04  0.15215816683E+04  0.25500000920E-02 0. -1.
    10030    2    1    2    0    0  0.00000000000E+00  0.00000000000E+00 -0.13882204290E+04  0.16549429075E+04  0.90093288734E+03 0.  0.
        2    1    3    3  502    0  0.39529659574E+03 -0.21599043148E+03 -0.68867597803E+03  0.82291303782E+03  0.25500000920E-02 0.  1.
       -2    1    3    3    0  502 -0.39529659574E+03  0.21599043148E+03 -0.69954445101E+03  0.83202986968E+03  0.25500000920E-02 0. -1.
</event>
<event>
 5   0  0.9697941E-04  0.8993720E+03  0.7818609E-02  0.9426367E-01
       -1   -1    0    0    0  501  0.00000000000E+00  0.00000000000E+00  0.89861074629E+03  0.89861074631E+03  0.50400001928E-02 0.  1.
        1   -1    0    0  501    0  0.00000000000E+00  0.00000000000E+00 -0.22503348149E+03  0.22503348155E+03  0.50400001928E-02 0. -1.
    10030    2    1    2    0    0  0.00000000000E+00  0.00000000000E+00  0.67357726480E+03  0.11236442279E+04  0.89937201376E+03 0.  0.
        5    1    3    3  502    0  0.32092755708E+03  0.24749754260E+03  0.58016129583E+03  0.70771374839E+03  0.46999998093E+01 0.  1.
       -5    1    3    3    0  502 -0.32092755708E+03 -0.24749754260E+03  0.93415968969E+02  0.41593047946E+03  0.46999998093E+01 0. -1.
</event>
<event>
 5   0  0.1635686E-03  0.8993790E+03  0.7818609E-02  0.9426358E-01
       -2   -1    0    0    0  501  0.00000000000E+00  0.00000000000E+00  0.11192824166E+03  0.11192824169E+03  0.25500000920E-02 0. -1.
        2   -1    0    0  501    0  0.00000000000E+00  0.00000000000E+00 -0.18066989836E+04  0.18066989836E+04  0.25500000920E-02 0.  1.
    10030    2    1    2    0    0  0.00000000000E+00  0.00000000000E+00 -0.16947707419E+04  0.19186272253E+04  0.89937898678E+03 0.  0.
        5    1    3    3  502    0 -0.11105799234E+03 -0.40084546093E+03 -0.12118429444E+04  0.12812479749E+04  0.46999998093E+01 0.  1.
       -5    1    3    3    0  502  0.11105799234E+03  0.40084546093E+03 -0.48292779747E+03  0.63737925035E+03  0.46999998093E+01 0. -1.
</event>
<event>
 5   0  0.1536020E-03  0.8978205E+03  0.7818609E-02  0.9428310E-01
       -2   -1    0    0    0  501  0.00000000000E+00  0.00000000000E+00  0.53636675035E+03  0.53636675035E+03  0.25500000920E-02 0.  1.
        2   -1    0    0  501    0  0.00000000000E+00  0.00000000000E+00 -0.37571382840E+03  0.37571382841E+03  0.25500000920E-02 0. -1.
    10030    2    1    2    0    0  0.00000000000E+00  0.00000000000E+00  0.16065292194E+03  0.91208057877E+03  0.89782048363E+03 0.  0.
        2    1    3    3  502    0  0.43344442815E+03 -0.24304764716E+02  0.19640242650E+03  0.47648578890E+03  0.25500000920E-02 0.  1.
       -2    1    3    3    0  502 -0.43344442815E+03  0.24304764716E+02 -0.35749504555E+02  0.43559478987E+03  0.25500000920E-02 0. -1.
</event>
<event>
 5   0  0.6375625E-04  0.9004399E+03  0.7818609E-02  0.9425032E-01
        4   -1    0    0  501    0  0.00000000000E+00  0.00000000000E+00  0.34073190850E+03  0.34073427531E+03  0.12699999809E+01 0. -1.
       -4   -1    0    0    0  501  0.00000000000E+00  0.00000000000E+00 -0.59488490169E+03  0.59488625733E+03  0.12699999809E+01 0.  1.
    10030    2    1    2    0    0  0.00000000000E+00  0.00000000000E+00 -0.25415299319E+03  0.93562053264E+03  0.90043991313E+03 0.  0.
        2    1    3    3  502    0 -0.25077637619E+03  0.12418138148E+03 -0.49354326913E+03  0.56735770451E+03  0.25500000920E-02 0.  1.
       -2    1    3    3    0  502  0.25077637619E+03 -0.12418138148E+03  0.23939027594E+03  0.36826282813E+03  0.25500000920E-02 0. -1.
</event>
<event>
 5   0  0.9321543E-04  0.8850575E+03  0.7818609E-02  0.9444456E-01
        1   -1    0    0  501    0  0.00000000000E+00  0.00000000000E+00  0.12545943144E+04  0.12545943144E+04  0.50400001928E-02 0. -1.
       -1   -1    0    0    0  501  0.00000000000E+00  0.00000000000E+00 -0.15609163304E+03  0.15609163312E+03  0.50400001928E-02 0.  1.
    10030    2    1    2    0    0  0.00000000000E+00  0.00000000000E+00  0.10985026813E+04  0.14106859475E+04  0.88505745665E+03 0.  0.
        3    1    3    3  502    0  0.32362365311E+03 -0.28075980514E+03  0.72583074519E+03  0.84284554807E+03  0.10100000352E+00 0. -1.
       -3    1    3    3    0  502 -0.32362365311E+03  0.28075980514E+03  0.37267193614E+03  0.56784039943E+03  0.10100000352E+00 0.  1.
</event>
<event>
 5   0  0.1641516E-03  0.8850053E+03  0.7818609E-02  0.9444522E-01
        2   -1    0    0  501    0  0.00000000000E+00  0.00000000000E+00  0.13281930598E+04  0.13281930598E+04  0.25500000920E-02 0.  1.
       -2   -1    0    0    0  501  0.00000000000E+00  0.00000000000E+00 -0.14742481360E+03  0.14742481362E+03  0.25500000920E-02 0. -1.
    10030    2    1    2    0    0  0.00000000000E+00  0.00000000000E+00  0.11807682462E+04  0.14756178734E+04  0.88500534300E+03 0.  0.
        1    1    3    3  502    0 -0.10824066462E+03  0.27509169224E+03  0.11393899766E+04  0.11771155420E+04  0.50400001928E-02 0.  1.
       -1    1    3    3    0  502  0.10824066462E+03 -0.27509169224E+03  0.41378269638E+02  0.29850233138E+03  0.50400001928E-02 0. -1.
</event>
<event>
 5   0  0.9321543E-04  0.9000969E+03  0.7818609E-02  0.9425460E-01
       -1   -1    0    0    0  501  0.00000000000E+00  0.00000000000E+00  0.31429678904E+03  0.31429678908E+03  0.50400001928E-02 0. -1.
        1   -1    0    0  501    0  0.00000000000E+00  0.00000000000E+00 -0.64443425099E+03  0.64443425101E+03  0.50400001928E-02 0.  1.
    10030    2    1    2    0    0  0.00000000000E+00  0.00000000000E+00 -0.33013746195E+03  0.95873104008E+03  0.90009691891E+03 0.  0.
        3    1    3    3  502    0  0.59083051120E+02  0.14504675992E+03  0.28433314488E+03  0.32461472082E+03  0.10100000352E+00 0. -1.
       -3    1    3    3    0  502 -0.59083051120E+02 -0.14504675992E+03 -0.61447060684E+03  0.63411631927E+03  0.10100000352E+00 0.  1.
</event>
<event>
 5   0  0.1536020E-03  0.8999757E+03  0.7818609E-02  0.9425612E-01
       -2   -1    0    0    0  501  0.00000000000E+00  0.00000000000E+00  0.79390617253E+03  0.79390617254E+03  0.25500000920E-02 0. -1.
        2   -1    0    0  501    0  0.00000000000E+00  0.00000000000E+00 -0.25505417129E+03  0.25505417130E+03  0.25500000920E-02 0.  1.
    10030    2    1    2    0    0  0.00000000000E+00  0.00000000000E+00  0.53885200125E+03  0.10489603438E+04  0.89997573506E+03 0.  0.
        2    1    3    3  502    0  0.20647462027E+03  0.32527479152E+03  0.54040814190E+03  0.66368397499E+03  0.25500000920E-02 0.  1.
       -2    1    3    3    0  502 -0.20647462027E+03 -0.32527479152E+03 -0.15561406594E+01  0.38527636885E+03  0.25500000920E-02 0. -1.
</event>
<event>
 5   0  0.1704416E-03  0.8995124E+03  0.7818609E-02  0.9426191E-01
       -2   -1    0    0    0  501  0.00000000000E+00  0.00000000000E+00  0.15349722577E+03  0.15349722579E+03  0.25500000920E-02 0. -1.
        2   -1    0    0  501    0  0.00000000000E+00  0.00000000000E+00 -0.13178130083E+04  0.13178130083E+04  0.25500000920E-02 0.  1.
    10030    2    1    2    0    0  0.00000000000E+00  0.00000000000E+00 -0.11643157825E+04  0.14713102341E+04  0.89951240319E+03 0.  0.
        3    1    3    3  502    0 -0.29091363877E+03 -0.40718414464E+02 -0.11392293700E+04  0.11764915224E+04  0.10100000352E+00 0.  1.
       -3    1    3    3    0  502  0.29091363877E+03  0.40718414464E+02 -0.25086412545E+02  0.29481871175E+03  0.10100000352E+00 0. -1.
</event>
<event>
 5   0  0.1641516E-03  0.9004612E+03  0.7818609E-02  0.9425005E-01
        2   -1    0    0  501    0  0.00000000000E+00  0.00000000000E+00  0.27200621195E+03  0.27200621196E+03  0.25500000920E-02 0.  1.
       -2   -1    0    0    0  501  0.00000000000E+00  0.00000000000E+00 -0.74523147899E+03  0.74523147899E+03  0.25500000920E-02 0. -1.
    10030    2    1    2    0    0  0.00000000000E+00  0.00000000000E+00 -0.47322526704E+03  0.10172376910E+04  0.90046119657E+03 0.  0.
        1    1    3    3  502    0  0.17939452423E+03 -0.23127703823E+03 -0.62308408051E+03  0.68840775355E+03  0.50400001928E-02 0. -1.
       -1    1    3    3    0  502 -0.17939452423E+03  0.23127703823E+03  0.14985881347E+03  0.32882993740E+03  0.50400001928E-02 0.  1.
</event>
<event>
 5   0  0.1635686E-03  0.9005490E+03  0.7818609E-02  0.9424895E-01
       -2   -1    0    0    0  501  0.00000000000E+00  0.00000000000E+00  0.25817145971E+03  0.25817145972E+03  0.25500000920E-02 0. -1.
        2   -1    0    0  501    0  0.00000000000E+00  0.00000000000E+00 -0.78531965746E+03  0.78531965747E+03  0.25500000920E-02 0.  1.
    10030    2    1    2    0    0  0.00000000000E+00  0.00000000000E+00 -0.52714819776E+03  0.10434911172E+04  0.90054899325E+03 0.  0.
        5    1    3    3  502    0  0.84268369961E+02  0.34760731510E+03  0.53318408785E+02  0.36165860477E+03  0.46999998093E+01 0. -1.
       -5    1    3    3    0  502 -0.84268369961E+02 -0.34760731510E+03 -0.58046660654E+03  0.68183251242E+03  0.46999998093E+01 0.  1.
</event>
<event>
 5   0  0.9981885E-04  0.8997576E+03  0.7818609E-02  0.9425885E-01
       -1   -1    0    0    0  501  0.00000000000E+00  0.00000000000E+00  0.25594194521E+03  0.25594194526E+03  0.50400001928E-02 0.  1.
        1   -1    0    0  501    0  0.00000000000E+00  0.00000000000E+00 -0.79076884391E+03  0.79076884393E+03  0.50400001928E-02 0. -1.
    10030    2    1    2    0    0  0.00000000000E+00  0.00000000000E+00 -0.53482689870E+03  0.10467107892E+04  0.89975755881E+03 0.  0.
        4    1    3    3  502    0  0.14657494961E+03  0.26376677009E+03 -0.65557413862E+03  0.72168981494E+03  0.12699999809E+01 0. -1.
       -4    1    3    3    0  502 -0.14657494961E+03 -0.26376677009E+03  0.12074723992E+03  0.32502097426E+03  0.12699999809E+01 0.  1.
</event>
<event>
 5   0  0.9697941E-04  0.8982903E+03  0.7818609E-02  0.9427721E-01
       -1   -1    0    0    0  501  0.00000000000E+00  0.00000000000E+00  0.11168054482E+04  0.11168054482E+04  0.50400001928E-02 0. -1.
        1   -1    0    0  501    0  0.00000000000E+00  0.00000000000E+00 -0.18063251484E+03  0.18063251491E+03  0.50400001928E-02 0.  1.
    10030    2    1    2    0    0  0.00000000000E+00  0.00000000000E+00  0.93617293340E+03  0.12974379632E+04  0.89829032446E+03 0.  0.
        5    1    3    3  502    0  0.21250665284E+03 -0.13375997851E+02  0.10392341132E+04  0.10608334586E+04  0.46999998093E+01 0. -1.
       -5    1    3    3    0  502 -0.21250665284E+03  0.13375997851E+02 -0.10306117978E+03  0.23660450459E+03  0.46999998093E+01 0.  1.
</event>
<event>
 5   0  0.6375625E-04  0.9005535E+03  0.7818609E-02  0.9424890E-01
       -3   -1    0    0    0  501  0.00000000000E+00  0.00000000000E+00  0.26993358300E+03  0.26993360190E+03  0.10100000352E+00 0. -1.
        3   -1    0    0  501    0  0.00000000000E+00  0.00000000000E+00 -0.75110750645E+03  0.75110751324E+03  0.10100000352E+00 0.  1.
    10030    2    1    2    0    0  0.00000000000E+00  0.00000000000E+00 -0.48117392345E+03  0.10210411151E+04  0.90055350435E+03 0.  0.
        1    1    3    3  502    0  0.37311316795E+03 -0.23692932363E+03 -0.14305300990E+03  0.46455689012E+03  0.50400001928E-02 0.  1.
       -1    1    3    3    0  502 -0.37311316795E+03  0.23692932363E+03 -0.33812091355E+03  0.55648422502E+03  0.50400001928E-02 0. -1.
</event>
<event>
 5   0  0.1630202E-03  0.8995258E+03  0.7818609E-02  0.9426174E-01
       -2   -1    0    0    0  501  0.00000000000E+00  0.00000000000E+00  0.48928165234E+03  0.48928165235E+03  0.25500000920E-02 0. -1.
        2   -1    0    0  501    0  0.00000000000E+00  0.00000000000E+00 -0.41343607244E+03  0.41343607245E+03  0.25500000920E-02 0.  1.
    10030    2    1    2    0    0  0.00000000000E+00  0.00000000000E+00  0.75845579898E+02  0.90271772479E+03  0.89952584102E+03 0.  0.
        4    1    3    3  502    0  0.38161793309E+01  0.24427217776E+03 -0.34104346758E+03  0.41951843789E+03  0.12699999809E+01 0.  1.
       -4    1    3    3    0  502 -0.38161793309E+01 -0.24427217776E+03  0.41688904748E+03  0.48319928690E+03  0.12699999809E+01 0. -1.
</event>
<event>
 5   0  0.9981885E-04  0.9024459E+03  0.7818609E-02  0.9422529E-01
        1   -1    0    0  501    0  0.00000000000E+00  0.00000000000E+00  0.17455196535E+03  0.17455196543E+03  0.50400001928E-02 0.  1.
       -1   -1    0    0    0  501  0.00000000000E+00  0.00000000000E+00 -0.11664272010E+04  0.11664272010E+04  0.50400001928E-02 0. -1.
    10030    2    1    2    0    0  0.00000000000E+00  0.00000000000E+00 -0.99187523563E+03  0.13409791664E+04  0.90244592177E+03 0.  0.
        4    1    3    3  502    0 -0.22657346244E+03  0.22144316800E+03 -0.18518871464E+02  0.31735968874E+03  0.12699999809E+01 0.  1.
       -4    1    3    3    0  502  0.22657346244E+03 -0.22144316800E+03 -0.97335636417E+03  0.10236194777E+04  0.12699999809E+01 0. -1.
</event>
<event>
 5   0  0.6375625E-04  0.8988338E+03  0.7818609E-02  0.9427040E-01
       -3   -1    0    0    0  501  0.00000000000E+00  0.00000000000E+00  0.62286921830E+03  0.62286922649E+03  0.10100000352E+00 0.  1.
        3   -1    0    0  501    0  0.00000000000E+00  0.00000000000E+00 -0.32426636002E+03  0.32426637575E+03  0.10100000352E+00 0. -1.
    10030    2    1    2    0    0  0.00000000000E+00  0.00000000000E+00  0.29860285828E+03  0.94713560224E+03  0.89883379000E+03 0.  0.
        3    1    3    3  502    0  0.30461594400E+03  0.18977237630E+01  0.49748351737E+03  0.58333895374E+03  0.10100000352E+00 0.  1.
       -3    1    3    3    0  502 -0.30461594400E+03 -0.18977237630E+01 -0.19888065909E+03  0.36379664849E+03  0.10100000352E+00 0. -1.
</event>
<event>
 5   0  0.9223454E-04  0.8991547E+03  0.7818609E-02  0.9426639E-01
       -1   -1    0    0    0  501  0.00000000000E+00  0.00000000000E+00  0.46455632865E+03  0.46455632868E+03  0.50400001928E-02 0.  1.
        1   -1    0    0  501    0  0.00000000000E+00  0.00000000000E+00 -0.43508130593E+03  0.43508130596E+03  0.50400001928E-02 0. -1.
    10030    2    1    2    0    0  0.00000000000E+00  0.00000000000E+00  0.29475022719E+02  0.89963763464E+03  0.89915465671E+03 0.  0.
        1    1    3    3  502    0 -0.17313249684E+03 -0.38183251698E+03  0.17714796561E+03  0.45513990622E+03  0.50400001928E-02 0. -1.
       -1    1    3    3    0  502  0.17313249684E+03  0.38183251698E+03 -0.14767294289E+03  0.44449772842E+03  0.50400001928E-02 0.  1.
</event>
<event>
 5   0  0.1641516E-03  0.8999392E+03  0.7818609E-02  0.9425657E-01
        2   -1    0    0  501    0  0.00000000000E+00  0.00000000000E+00  0.58902512916E+03  0.58902512917E+03  0.25500000920E-02 0.  1.
       -2   -1    0    0    0  501  0.00000000000E+00  0.00000000000E+00 -0.34374193286E+03  0.34374193287E+03  0.25500000920E-02 0. -1.
    10030    2    1    2    0    0  0.00000000000E+00  0.00000000000E+00  0.24528319630E+03  0.93276706203E+03  0.89993918996E+03 0.  0.
        1    1    3    3  502    0  0.36608873316E+03 -0.82425020040E+02 -0.13472608979E+03  0.39870535959E+03  0.50400001928E-02 0. -1.
       -1    1    3    3    0  502 -0.36608873316E+03  0.82425020040E+02  0.38000928609E+03  0.53406170244E+03  0.50400001928E-02 0.  1.
</event>
<event>
 5   0  0.9697941E-04  0.9006172E+03  0.7818609E-02  0.9424810E-01
       -1   -1    0    0    0  501  0.00000000000E+00  0.00000000000E+00  0.59864926689E+03  0.59864926691E+03  0.50400001928E-02 0.  1.
        1   -1    0    0  501    0  0.00000000000E+00  0.00000000000E+00 -0.33872562876E+03  0.33872562880E+03  0.50400001928E-02 0. -1.
    10030    2    1    2    0    0  0.00000000000E+00  0.00000000000E+00  0.25992363813E+03  0.93737489571E+03  0.90061723138E+03 0.  0.
        5    1    3    3  502    0  0.15002089522E+03  0.11686087985E+03  0.55477841397E+03  0.58648436709E+03  0.46999998093E+01 0.  1.
       -5    1    3    3    0  502 -0.15002089522E+03 -0.11686087985E+03 -0.29485477584E+03  0.35089052862E+03  0.46999998093E+01 0. -1.
</event>
<event>
 5   0  0.1630202E-03  0.9001190E+03  0.7818609E-02  0.9425433E-01
       -2   -1    0    0    0  501  0.00000000000E+00  0.00000000000E+00  0.97342677312E+02  0.97342677345E+02  0.25500000920E-02 0.  1.
        2   -1    0    0  501    0  0.00000000000E+00  0.00000000000E+00 -0.20808299702E+04  0.20808299702E+04  0.25500000920E-02 0. -1.
    10030    2    1    2    0    0  0.00000000000E+00  0.00000000000E+00 -0.19834872929E+04  0.21781726475E+04  0.90011901517E+03 0.  0.
        4    1    3    3  502    0 -0.39724571773E+03  0.50007656831E+01 -0.47999493543E+03  0.62307777914E+03  0.12699999809E+01 0.  1.
       -4    1    3    3    0  502  0.39724571773E+03 -0.50007656831E+01 -0.15034923574E+04  0.15550948684E+04  0.12699999809E+01 0. -1.
</event>
<event>
 5   0  0.1641516E-03  0.9017271E+03  0.7818609E-02  0.9423425E-01
       -2   -1    0    0    0  501  0.00000000000E+00  0.00000000000E+00  0.15036184124E+03  0.15036184126E+03  0.25500000920E-02 0. -1.
        2   -1    0    0  501    0  0.00000000000E+00  0.00000000000E+00 -0.13519250588E+04  0.13519250588E+04  0.25500000920E-02 0.  1.
    10030    2    1    2    0    0  0.00000000000E+00  0.00000000000E+00 -0.12015632176E+04  0.15022869001E+04  0.90172710081E+03 0.  0.
        1    1    3    3  502    0 -0.37018543837E+03 -0.24568447920E+03 -0.72853126347E+03  0.85332052828E+03  0.50400001928E-02 0.  1.
       -1    1    3    3    0  502  0.37018543837E+03  0.24568447920E+03 -0.47303195412E+03  0.64896637182E+03  0.50400001928E-02 0. -1.
</event>
<event>
 5   0  0.1704416E-03  0.8994427E+03  0.7818609E-02  0.9426278E-01
        2   -1    0    0  501    0  0.00000000000E+00  0.00000000000E+00  0.90000752940E+03  0.90000752940E+03  0.25500000920E-02 0. -1.
       -2   -1    0    0    0  501  0.00000000000E+00  0.00000000000E+00 -0.22471955951E+03  0.22471955953E+03  0.25500000920E-02 0.  1.
    10030    2    1    2    0    0  0.00000000000E+00  0.00000000000E+00  0.67528796989E+03  0.11247270889E+04  0.89944270651E+03 0.  0.
        3    1    3    3  502    0 -0.41357600231E+03  0.14718944977E+03  0.21551039388E+03  0.48903433814E+03  0.10100000352E+00 0.  1.
       -3    1    3    3    0  502  0.41357600231E+03 -0.14718944977E+03  0.45977757600E+03  0.63569275079E+03  0.10100000352E+00 0. -1.
</event>
<event>
 5   0  0.1536020E-03  0.9008128E+03  0.7818609E-02  0.9424566E-01
       -2   -1    0    0    0  501  0.00000000000E+00  0.00000000000E+00  0.12315290215E+03  0.12315290218E+03  0.25500000920E-02 0.  1.
        2   -1    0    0  501    0  0.00000000000E+00  0.00000000000E+00 -0.16472686788E+04  0.16472686788E+04  0.25500000920E-02 0. -1.
    10030    2    1    2    0    0  0.00000000000E+00  0.00000000000E+00 -0.15241157766E+04  0.17704215810E+04  0.90081278507E+03 0.  0.
        2    1    3    3  502    0 -0.13644715061E+02  0.25668943526E+03 -0.14889496776E+04  0.15109754421E+04  0.25500000920E-02 0. -1.
       -2    1    3    3    0  502  0.13644715061E+02 -0.25668943526E+03 -0.35166099083E+02  0.25944613883E+03  0.25500000920E-02 0.  1.
</event>
<event>
 5   0  0.1641516E-03  0.8918933E+03  0.7818609E-02  0.9435772E-01
       -2   -1    0    0    0  501  0.00000000000E+00  0.00000000000E+00  0.34495062537E+03  0.34495062538E+03  0.25500000920E-02 0.  1.
        2   -1    0    0  501    0  0.00000000000E+00  0.00000000000E+00 -0.57651268905E+03  0.57651268905E+03  0.25500000920E-02 0. -1.
    10030    2    1    2    0    0  0.00000000000E+00  0.00000000000E+00 -0.23156206368E+03  0.92146331443E+03  0.89189329547E+03 0.  0.
        1    1    3    3  502    0  0.31029675911E+03 -0.20760231122E+03 -0.36776396426E+03  0.52405451221E+03  0.50400001928E-02 0. -1.
       -1    1    3    3    0  502 -0.31029675911E+03  0.20760231122E+03  0.13620190058E+03  0.39740880222E+03  0.50400001928E-02 0.  1.
</event>
<event>
 5   0  0.1635686E-03  0.9006898E+03  0.7818609E-02  0.9424720E-01
       -2   -1    0    0    0  501  0.00000000000E+00  0.00000000000E+00  0.17956637209E+03  0.17956637210E+03  0.25500000920E-02 0. -1.
        2   -1    0    0  501    0  0.00000000000E+00  0.00000000000E+00 -0.11294460873E+04  0.11294460873E+04  0.25500000920E-02 0.  1.
    10030    2    1    2    0    0  0.00000000000E+00  0.00000000000E+00 -0.94987971523E+03  0.13090124594E+04  0.90068981648E+03 0.  0.
        5    1    3    3  502    0  0.41420624371E+03 -0.10505604610E+03 -0.26845823151E+03  0.50467365417E+03  0.46999998093E+01 0. -1.
       -5    1    3    3    0  502 -0.41420624371E+03  0.10505604610E+03 -0.68142148372E+03  0.80433880524E+03  0.46999998093E+01 0.  1.
</event>
<event>
 5   0  0.1536020E-03  0.8987776E+03  0.7818609E-02  0.9427111E-01
       -2   -1    0    0    0  501  0.00000000000E+00  0.00000000000E+00  0.18344122858E+03  0.18344122860E+03  0.25500000920E-02 0. -1.
        2   -1    0    0  501    0  0.00000000000E+00  0.00000000000E+00 -0.11008990755E+04  0.11008990755E+04  0.25500000920E-02 0.  1.
    10030    2    1    2    0    0  0.00000000000E+00  0.00000000000E+00 -0.91745784687E+03  0.12843403041E+04  0.89877756749E+03 0.  0.
        2    1    3    3  502    0 -0.34369079372E+03  0.79956415336E+01 -0.45154221923E+02  0.34673649322E+03  0.25500000920E-02 0. -1.
       -2    1    3    3    0  502  0.34369079372E+03 -0.79956415336E+01 -0.87230362495E+03  0.93760381083E+03  0.25500000920E-02 0.  1.
</event>
<event>
 5   0  0.9321543E-04  0.9002343E+03  0.7818609E-02  0.9425289E-01
        1   -1    0    0  501    0  0.00000000000E+00  0.00000000000E+00  0.90169321938E+03  0.90169321940E+03  0.50400001928E-02 0. -1.
       -1   -1    0    0    0  501  0.00000000000E+00  0.00000000000E+00 -0.22469445856E+03  0.22469445862E+03  0.50400001928E-02 0.  1.
    10030    2    1    2    0    0  0.00000000000E+00  0.00000000000E+00  0.67699876082E+03  0.11263876780E+04  0.90023434673E+03 0.  0.
        3    1    3    3  502    0  0.20441008787E+03 -0.17182133252E+03 -0.11488201176E+03  0.29069561600E+03  0.10100000352E+00 0.  1.
       -3    1    3    3    0  502 -0.20441008787E+03  0.17182133252E+03  0.79188077258E+03  0.83569206202E+03  0.10100000352E+00 0. -1.
</event>
<event>
 5   0  0.9223454E-04  0.9006174E+03  0.7818609E-02  0.9424810E-01
       -1   -1    0    0    0  501  0.00000000000E+00  0.00000000000E+00  0.67454307437E+03  0.67454307438E+03  0.50400001928E-02 0.  1.
        1   -1    0    0  501    0  0.00000000000E+00  0.00000000000E+00 -0.30061522376E+03  0.30061522380E+03  0.50400001928E-02 0. -1.
    10030    2    1    2    0    0  0.00000000000E+00  0.00000000000E+00  0.37392785061E+03  0.97515829818E+03  0.90061738217E+03 0.  0.
        1    1    3    3  502    0  0.13381205610E+02  0.33206496347E+03  0.51597480579E+03  0.61373951874E+03  0.50400001928E-02 0.  1.
       -1    1    3    3    0  502 -0.13381205610E+02 -0.33206496347E+03 -0.14204695519E+03  0.36141877944E+03  0.50400001928E-02 0. -1.
</event>
<event>
 5   0  0.1536020E-03  0.8994916E+03  0.7818609E-02  0.9426217E-01
       -2   -1    0    0    0  501  0.00000000000E+00  0.00000000000E+00  0.42947577207E+03  0.42947577208E+03  0.25500000920E-02 0. -1.
        2   -1    0    0  501    0  0.00000000000E+00  0.00000000000E+00 -0.47097253450E+03  0.47097253451E+03  0.25500000920E-02 0.  1.
    10030    2    1    2    0    0  0.00000000000E+00  0.00000000000E+00 -0.41496762425E+02  0.90044830659E+03  0.89949161839E+03 0.  0.
        2    1    3    3  502    0  0.74386334635E+02  0.35484274444E+03  0.24566357285E+03  0.43794667608E+03  0.25500000920E-02 0. -1.
       -2    1    3    3    0  502 -0.74386334635E+02 -0.35484274444E+03 -0.28716033527E+03  0.46250163051E+03  0.25500000920E-02 0.  1.
</event>
<event>
 5   0  0.1635686E-03  0.8999971E+03  0.7818609E-02  0.9425585E-01
        2   -1    0    0  501    0  0.00000000000E+00  0.00000000000E+00  0.80298653977E+03  0.80298653977E+03  0.25500000920E-02 0. -1.
       -2   -1    0    0    0  501  0.00000000000E+00  0.00000000000E+00 -0.25218194107E+03  0.25218194108E+03  0.25500000920E-02 0.  1.
    10030    2    1    2    0    0  0.00000000000E+00  0.00000000000E+00  0.55080459870E+03  0.10551684809E+04  0.89999712057E+03 0.  0.
        5    1    3    3  502    0  0.14543391856E+03  0.41901756355E+03  0.18650066569E+03  0.48117702723E+03  0.46999998093E+01 0.  1.
       -5    1    3    3    0  502 -0.14543391856E+03 -0.41901756355E+03  0.36430393301E+03  0.57399145362E+03  0.46999998093E+01 0. -1.
</event>
<event>
 5   0  0.1635686E-03  0.9001104E+03  0.7818609E-02  0.9425443E-01
       -2   -1    0    0    0  501  0.00000000000E+00  0.00000000000E+00  0.17046741326E+03  0.17046741328E+03  0.25500000920E-02 0.  1.
        2   -1    0    0  501    0  0.00000000000E+00  0.00000000000E+00 -0.11882017889E+04  0.11882017889E+04  0.25500000920E-02 0. -1.
    10030    2    1    2    0    0  0.00000000000E+00  0.00000000000E+00 -0.10177343756E+04  0.13586692022E+04  0.90011040523E+03 0.  0.
        5    1    3    3  502    0 -0.43170170171E+03  0.44436694074E+02 -0.68865380511E+03  0.81400683802E+03  0.46999998093E+01 0. -1.
       -5    1    3    3    0  502  0.43170170171E+03 -0.44436694074E+02 -0.32908057052E+03  0.54466236417E+03  0.46999998093E+01 0.  1.
</event>
<event>
 5   0  0.9981885E-04  0.8967805E+03  0.7818609E-02  0.9429615E-01
        1   -1    0    0  501    0  0.00000000000E+00  0.00000000000E+00  0.97373234278E+03  0.97373234279E+03  0.50400001928E-02 0. -1.
       -1   -1    0    0    0  501  0.00000000000E+00  0.00000000000E+00 -0.20647750306E+03  0.20647750312E+03  0.50400001928E-02 0.  1.
    10030    2    1    2    0    0  0.00000000000E+00  0.00000000000E+00  0.76725483972E+03  0.11802098459E+04  0.89678051457E+03 0.  0.
        4    1    3    3  502    0 -0.11828184919E+02  0.44816028464E+03  0.37304458986E+03  0.58322502142E+03  0.12699999809E+01 0.  1.
       -4    1    3    3    0  502  0.11828184919E+02 -0.44816028464E+03  0.39421024986E+03  0.59698482450E+03  0.12699999809E+01 0. -1.
</event>
<event>
 5   0  0.9697941E-04  0.9000610E+03  0.7818609E-02  0.9425505E-01
       -1   -1    0    0    0  501  0.00000000000E+00  0.00000000000E+00  0.21190655445E+03  0.21190655451E+03  0.50400001928E-02 0.  1.
        1   -1    0    0  501    0  0.00000000000E+00  0.00000000000E+00 -0.95573942033E+03  0.95573942034E+03  0.50400001928E-02 0. -1.
    10030    2    1    2    0    0  0.00000000000E+00  0.00000000000E+00 -0.74383286587E+03  0.11676459749E+04  0.90006099251E+03 0.  0.
        5    1    3    3  502    0  0.26311680278E+02 -0.35887066799E+03 -0.72248641132E+03  0.80714878765E+03  0.46999998093E+01 0. -1.
       -5    1    3    3    0  502 -0.26311680278E+02  0.35887066799E+03 -0.21346454557E+02  0.36049718721E+03  0.46999998093E+01 0.  1.
</event>
<event>
 5   0  0.1641516E-03  0.9015101E+03  0.7818609E-02  0.9423696E-01
        2   -1    0    0  501    0  0.00000000000E+00  0.00000000000E+00  0.42466151478E+03  0.42466151478E+03  0.25500000920E-02 0.  1.
       -2   -1    0    0    0  501  0.00000000000E+00  0.00000000000E+00 -0.47845186528E+03  0.47845186528E+03  0.25500000920E-02 0. -1.
    10030    2    1    2    0    0  0.00000000000E+00  0.00000000000E+00 -0.53790350502E+02  0.90311338007E+03  0.90151005288E+03 0.  0.
        1    1    3    3  502    0 -0.38993350872E+03  0.19984729296E+03 -0.13288036690E+03  0.45786927573E+03  0.50400001928E-02 0. -1.
       -1    1    3    3    0  502  0.38993350872E+03 -0.19984729296E+03  0.79090016399E+02  0.44524410434E+03  0.50400001928E-02 0.  1.
</event>
<event>
 5   0  0.1630202E-03  0.8991794E+03  0.7818609E-02  0.9426608E-01
        2   -1    0    0  501    0  0.00000000000E+00  0.00000000000E+00  0.87298627920E+03  0.87298627920E+03  0.25500000920E-02 0.  1.
       -2   -1    0    0    0  501  0.00000000000E+00  0.00000000000E+00 -0.23153961660E+03  0.23153961661E+03  0.25500000920E-02 0. -1.
    10030    2    1    2    0    0  0.00000000000E+00  0.00000000000E+00  0.64144666260E+03  0.11045258958E+04  0.89917942235E+03 0.  0.
        4    1    3    3  502    0  0.32692748551E+03  0.30852612255E+03  0.33018628652E+03  0.55775850131E+03  0.12699999809E+01 0.  1.
       -4    1    3    3    0  502 -0.32692748551E+03 -0.30852612255E+03  0.31126037608E+03  0.54676739451E+03  0.12699999809E+01 0. -1.
</event>
<event>
 5   0  0.1536020E-03  0.8998391E+03  0.7818609E-02  0.9425783E-01
        2   -1    0    0  501    0  0.00000000000E+00  0.00000000000E+00  0.59366406924E+03  0.59366406925E+03  0.25500000920E-02 0. -1.
       -2   -1    0    0    0  501  0.00000000000E+00  0.00000000000E+00 -0.34098006391E+03  0.34098006392E+03  0.25500000920E-02 0.  1.
    10030    2    1    2    0    0  0.00000000000E+00  0.00000000000E+00  0.25268400533E+03  0.93464413317E+03  0.89983912402E+03 0.  0.
        2    1    3    3  502    0 -0.20457374799E+03 -0.17024014364E+03 -0.25045020336E+03  0.36545509881E+03  0.25500000920E-02 0.  1.
       -2    1    3    3    0  502  0.20457374799E+03  0.17024014364E+03  0.50313420870E+03  0.56918903436E+03  0.25500000920E-02 0. -1.
</event>
<event>
 5   0  0.1536020E-03  0.9029476E+03  0.7818609E-02  0.9421904E-01
       -2   -1    0    0    0  501  0.00000000000E+00  0.00000000000E+00  0.44738572602E+03  0.44738572603E+03  0.25500000920E-02 0. -1.
        2   -1    0    0  501    0  0.00000000000E+00  0.00000000000E+00 -0.45559922662E+03  0.45559922663E+03  0.25500000920E-02 0.  1.
    10030    2    1    2    0    0  0.00000000000E+00  0.00000000000E+00 -0.82135006001E+01  0.90298495265E+03  0.90294759711E+03 0.  0.
        2    1    3    3  502    0  0.24158603572E+03 -0.37083340035E+03 -0.93258446281E+02  0.45230339516E+03  0.25500000920E-02 0.  1.
       -2    1    3    3    0  502 -0.24158603572E+03  0.37083340035E+03  0.85044945681E+02  0.45068155749E+03  0.25500000920E-02 0. -1.
</event>
<event>
 5   0  0.6375625E-04  0.8989610E+03  0.7818609E-02  0.9426881E-01
       -4   -1    0    0    0  501  0.00000000000E+00  0.00000000000E+00  0.24697662794E+03  0.24697989320E+03  0.12699999809E+01 0. -1.
        4   -1    0    0  501    0  0.00000000000E+00  0.00000000000E+00 -0.81801449677E+03  0.81801548263E+03  0.12699999809E+01 0.  1.
    10030    2    1    2    0    0  0.00000000000E+00  0.00000000000E+00 -0.57103786883E+03  0.10649953758E+04  0.89896101301E+03 0.  0.
        1    1    3    3  502    0  0.35546084936E+03 -0.25398145262E+03 -0.16028962368E+03  0.46535121917E+03  0.50400001928E-02 0. -1.
       -1    1    3    3    0  502 -0.35546084936E+03  0.25398145262E+03 -0.41074824515E+03  0.59964415666E+03  0.50400001928E-02 0.  1.
</event>
<event>
 5   0  0.9321543E-04  0.9008908E+03  0.7818609E-02  0.9424469E-01
       -1   -1    0    0    0  501  0.00000000000E+00  0.00000000000E+00  0.54787634396E+03  0.54787634399E+03  0.50400001928E-02 0. -1.
        1   -1    0    0  501    0  0.00000000000E+00  0.00000000000E+00 -0.37034096537E+03  0.37034096540E+03  0.50400001928E-02 0.  1.
    10030    2    1    2    0    0  0.00000000000E+00  0.00000000000E+00  0.17753537859E+03  0.91821730939E+03  0.90089079061E+03 0.  0.
        3    1    3    3  502    0 -0.28467768042E+03 -0.25008355922E+03 -0.15946908697E+03  0.41111259798E+03  0.10100000352E+00 0.  1.
       -3    1    3    3    0  502  0.28467768042E+03  0.25008355922E+03  0.33700446556E+03  0.50710471141E+03  0.10100000352E+00 0. -1.
</event>
<event>
 5   0  0.1635686E-03  0.8970842E+03  0.7818609E-02  0.9429234E-01
        2   -1    0    0  501    0  0.00000000000E+00  0.00000000000E+00  0.18304946073E+04  0.18304946073E+04  0.25500000920E-02 0. -1.
       -2   -1    0    0    0  501  0.00000000000E+00  0.00000000000E+00 -0.10991019108E+03  0.10991019111E+03  0.25500000920E-02 0.  1.
    10030    2    1    2    0    0  0.00000000000E+00  0.00000000000E+00  0.17205844162E+04  0.19404047984E+04  0.89708419244E+03 0.  0.
        5    1    3    3  502    0  0.22220335097E+03  0.37905195236E+03  0.66546235511E+03  0.79744400922E+03  0.46999998093E+01 0. -1.
       -5    1    3    3    0  502 -0.22220335097E+03 -0.37905195236E+03  0.10551220611E+04  0.11429607891E+04  0.46999998093E+01 0.  1.
</event>
<event>
 5   0  0.1641516E-03  0.9008395E+03  0.7818609E-02  0.9424533E-01
        2   -1    0    0  501    0  0.00000000000E+00  0.00000000000E+00  0.68849233888E+03  0.68849233888E+03  0.25500000920E-02 0.  1.
       -2   -1    0    0    0  501  0.00000000000E+00  0.00000000000E+00 -0.29466989738E+03  0.29466989739E+03  0.25500000920E-02 0. -1.
    10030    2    1    2    0    0  0.00000000000E+00  0.00000000000E+00  0.39382244150E+03  0.98316223627E+03  0.90083953477E+03 0.  0.
        1    1    3    3  502    0  0.19593537035E+03  0.89494113848E+02  0.62863357300E+03  0.66451488689E+03  0.50400001928E-02 0.  1.
       -1    1    3    3    0  502 -0.19593537035E+03 -0.89494113848E+02 -0.23481113150E+03  0.31864734938E+03  0.50400001928E-02 0. -1.
</event>
<event>
 5   0  0.9981885E-04  0.8996508E+03  0.7818609E-02  0.9426018E-01
        1   -1    0    0  501    0  0.00000000000E+00  0.00000000000E+00  0.10574841061E+04  0.10574841061E+04  0.50400001928E-02 0.  1.
       -1   -1    0    0    0  501  0.00000000000E+00  0.00000000000E+00 -0.19134367008E+03  0.19134367015E+03  0.50400001928E-02 0. -1.
    10030    2    1    2    0    0  0.00000000000E+00  0.00000000000E+00  0.86614043598E+03  0.12488277762E+04  0.89965079882E+03 0.  0.
        4    1    3    3  502    0  0.85533214603E+00 -0.21010293957E+03  0.98518339657E+03  0.10073390266E+04  0.12699999809E+01 0.  1.
       -4    1    3    3    0  502 -0.85533214603E+00  0.21010293957E+03 -0.11904296059E+03  0.24148874958E+03  0.12699999809E+01 0. -1.
</event>
<event>
 5   0  0.9321543E-04  0.8956469E+03  0.7818609E-02  0.9431039E-01
        1   -1    0    0  501    0  0.00000000000E+00  0.00000000000E+00  0.44493901551E+03  0.44493901554E+03  0.50400001928E-02 0. -1.
       -1   -1    0    0    0  501  0.00000000000E+00  0.00000000000E+00 -0.45072654234E+03  0.45072654237E+03  0.50400001928E-02 0.  1.
    10030    2    1    2    0    0  0.00000000000E+00  0.00000000000E+00 -0.57875268339E+01  0.89566555791E+03  0.89564685907E+03 0.  0.
        3    1    3    3  502    0 -0.22311103342E+03  0.24710414198E+03  0.29662346374E+03  0.44589738692E+03  0.10100000352E+00 0. -1.
       -3    1    3    3    0  502  0.22311103342E+03 -0.24710414198E+03 -0.30241099057E+03  0.44976817099E+03  0.10100000352E+00 0.  1.
</event>
<event>
 5   0  0.1635686E-03  0.9270827E+03  0.7818609E-02  0.9392346E-01
        2   -1    0    0  501    0  0.00000000000E+00  0.00000000000E+00  0.14122649011E+04  0.14122649011E+04  0.25500000920E-02 0. -1.
       -2   -1    0    0    0  501  0.00000000000E+00  0.00000000000E+00 -0.15214607691E+03  0.15214607693E+03  0.25500000920E-02 0.  1.
    10030    2    1    2    0    0  0.00000000000E+00  0.00000000000E+00  0.12601188241E+04  0.15644109780E+04  0.92708265925E+03 0.  0.
        5    1    3    3  502    0  0.17153415271E+03  0.34392843172E+03  0.10672952628E+04  0.11343949928E+04  0.46999998093E+01 0. -1.
       -5    1    3    3    0  502 -0.17153415271E+03 -0.34392843172E+03  0.19282356130E+03  0.43001598515E+03  0.46999998093E+01 0.  1.
</event>
<event>
 5   0  0.1635686E-03  0.9004856E+03  0.7818609E-02  0.9424975E-01
        2   -1    0    0  501    0  0.00000000000E+00  0.00000000000E+00  0.45545134334E+03  0.45545134335E+03  0.25500000920E-02 0. -1.
       -2   -1    0    0    0  501  0.00000000000E+00  0.00000000000E+00 -0.44509384813E+03  0.44509384814E+03  0.25500000920E-02 0.  1.
    10030    2    1    2    0    0  0.00000000000E+00  0.00000000000E+00  0.10357495214E+02  0.90054519149E+03  0.90048562687E+03 0.  0.
        5    1    3    3  502    0 -0.26457095076E+02  0.28572489985E+03  0.35212791964E+03  0.45426298337E+03  0.46999998093E+01 0. -1.
       -5    1    3    3    0  502  0.26457095076E+02 -0.28572489985E+03 -0.34177042442E+03  0.44628220812E+03  0.46999998093E+01 0.  1.
</event>
<event>
 5   0  0.1536020E-03  0.9007231E+03  0.7818609E-02  0.9424678E-01
        2   -1    0    0  501    0  0.00000000000E+00  0.00000000000E+00  0.85766893831E+03  0.85766893831E+03  0.25500000920E-02 0.  1.
       -2   -1    0    0    0  501  0.00000000000E+00  0.00000000000E+00 -0.23648462416E+03  0.23648462418E+03  0.25500000920E-02 0. -1.
    10030    2    1    2    0    0  0.00000000000E+00  0.00000000000E+00  0.62118431415E+03  0.10941535625E+04  0.90072307962E+03 0.  0.
        2    1    3    3  502    0 -0.11922339871E+03 -0.17844136211E+03  0.79156265310E+03  0.82013838607E+03  0.25500000920E-02 0.  1.
       -2    1    3    3    0  502  0.11922339871E+03  0.17844136211E+03 -0.17037833896E+03  0.27401517642E+03  0.25500000920E-02 0. -1.
</event>
<event>
 5   0  0.1630202E-03  0.8981378E+03  0.7818609E-02  0.9427912E-01
        2   -1    0    0  501    0  0.00000000000E+00  0.00000000000E+00  0.46657172154E+03  0.46657172155E+03  0.25500000920E-02 0. -1.
       -2   -1    0    0    0  501  0.00000000000E+00  0.00000000000E+00 -0.43222269354E+03  0.43222269355E+03  0.25500000920E-02 0.  1.
    10030    2    1    2    0    0  0.00000000000E+00  0.00000000000E+00  0.34349028006E+02  0.89879441510E+03  0.89813782065E+03 0.  0.
        4    1    3    3  502    0  0.29883247213E+03 -0.30895785670E+03 -0.11294157507E+03  0.44442458966E+03  0.12699999809E+01 0.  1.
       -4    1    3    3    0  502 -0.29883247213E+03  0.30895785670E+03  0.14729060307E+03  0.45436982544E+03  0.12699999809E+01 0. -1.
</event>
<event>
 5   0  0.9223454E-04  0.9017331E+03  0.7818609E-02  0.9423418E-01
        1   -1    0    0  501    0  0.00000000000E+00  0.00000000000E+00  0.79731129093E+03  0.79731129095E+03  0.50400001928E-02 0.  1.
       -1   -1    0    0    0  501  0.00000000000E+00  0.00000000000E+00 -0.25495771527E+03  0.25495771532E+03  0.50400001928E-02 0. -1.
    10030    2    1    2    0    0  0.00000000000E+00  0.00000000000E+00  0.54235357566E+03  0.10522690063E+04  0.90173314264E+03 0.  0.
        1    1    3    3  502    0 -0.44140199388E+03  0.86089601303E+02  0.23366140906E+03  0.50679857316E+03  0.50400001928E-02 0.  1.
       -1    1    3    3    0  502  0.44140199388E+03 -0.86089601303E+02  0.30869216660E+03  0.54547043311E+03  0.50400001928E-02 0. -1.
</event>
<event>
 5   0  0.9223454E-04  0.9007054E+03  0.7818609E-02  0.9424700E-01
       -1   -1    0    0    0  501  0.00000000000E+00  0.00000000000E+00  0.38164943616E+03  0.38164943620E+03  0.50400001928E-02 0. -1.
        1   -1    0    0  501    0  0.00000000000E+00  0.00000000000E+00 -0.53142364603E+03  0.53142364605E+03  0.50400001928E-02 0.  1.
    10030    2    1    2    0    0  0.00000000000E+00  0.00000000000E+00 -0.14977420986E+03  0.91307308225E+03  0.90070535670E+03 0.  0.
        1    1    3    3  502    0 -0.25419989405E+03 -0.26488734920E+03 -0.33930317297E+03  0.49990952893E+03  0.50400001928E-02 0.  1.
       -1    1    3    3    0  502  0.25419989405E+03  0.26488734920E+03  0.18952896311E+03  0.41316355331E+03  0.50400001928E-02 0. -1.
</event>
<event>
 5   0  0.9321543E-04  0.8990105E+03  0.7818609E-02  0.9426819E-01
        1   -1    0    0  501    0  0.00000000000E+00  0.00000000000E+00  0.81616449328E+03  0.81616449329E+03  0.50400001928E-02 0.  1.
       -1   -1    0    0    0  501  0.00000000000E+00  0.00000000000E+00 -0.24756650004E+03  0.24756650009E+03  0.50400001928E-02 0. -1.
    10030    2    1    2    0    0  0.00000000000E+00  0.00000000000E+00  0.56859799324E+03  0.10637309934E+04  0.89901053852E+03 0.  0.
        3    1    3    3  502    0 -0.29633931960E+02 -0.81131205615E+02  0.80625314015E+03  0.81086656033E+03  0.10100000352E+00 0.  1.
       -3    1    3    3    0  502  0.29633931960E+02  0.81131205615E+02 -0.23765514692E+03  0.25286443306E+03  0.10100000352E+00 0. -1.
</event>
<event>
 5   0  0.1641516E-03  0.8994189E+03  0.7818609E-02  0.9426308E-01
        2   -1    0    0  501    0  0.00000000000E+00  0.00000000000E+00  0.13431547596E+04  0.13431547596E+04  0.25500000920E-02 0. -1.
       -2   -1    0    0    0  501  0.00000000000E+00  0.00000000000E+00 -0.15056982834E+03  0.15056982836E+03  0.25500000920E-02 0.  1.
    10030    2    1    2    0    0  0.00000000000E+00  0.00000000000E+00  0.11925849313E+04  0.14937245880E+04  0.89941888263E+03 0.  0.
        1    1    3    3  502    0 -0.14710287907E+03 -0.14240258942E+03 -0.68679752387E+02  0.21595060296E+03  0.50400001928E-02 0.  1.
       -1    1    3    3    0  502  0.14710287907E+03  0.14240258942E+03  0.12612646837E+04  0.12777739850E+04  0.50400001928E-02 0. -1.
</event>
<event>
 5   0  0.6375625E-04  0.9004594E+03  0.7818609E-02  0.9425007E-01
       -3   -1    0    0    0  501  0.00000000000E+00  0.00000000000E+00  0.30937636649E+03  0.30937638297E+03  0.10100000352E+00 0. -1.
        3   -1    0    0  501    0  0.00000000000E+00  0.00000000000E+00 -0.65521095374E+03  0.65521096153E+03  0.10100000352E+00 0.  1.
    10030    2    1    2    0    0  0.00000000000E+00  0.00000000000E+00 -0.34583458726E+03  0.96458734450E+03  0.90045942908E+03 0.  0.
        4    1    3    3  502    0 -0.13370921577E+03 -0.35343194788E+03 -0.43512021878E+03  0.57630158238E+03  0.12699999809E+01 0.  1.
       -4    1    3    3    0  502  0.13370921577E+03  0.35343194788E+03  0.89285631528E+02  0.38828576211E+03  0.12699999809E+01 0. -1.
</event>
<event>
 5   0  0.1536020E-03  0.8896005E+03  0.7818609E-02  0.9438676E-01
       -2   -1    0    0    0  501  0.00000000000E+00  0.00000000000E+00  0.55325690420E+03  0.55325690421E+03  0.25500000920E-02 0.  1.
        2   -1    0    0  501    0  0.00000000000E+00  0.00000000000E+00 -0.35760465645E+03  0.35760465646E+03  0.25500000920E-02 0. -1.
    10030    2    1    2    0    0  0.00000000000E+00  0.00000000000E+00  0.19565224775E+03  0.91086156066E+03  0.88960046124E+03 0.  0.
        2    1    3    3  502    0 -0.40484846297E+03  0.80049977053E+02  0.26773475387E+03  0.49192700194E+03  0.25500000920E-02 0.  1.
       -2    1    3    3    0  502  0.40484846297E+03 -0.80049977053E+02 -0.72082506118E+02  0.41893455872E+03  0.25500000920E-02 0. -1.
</event>
<event>
 5   0  0.9981885E-04  0.8981753E+03  0.7818609E-02  0.9427865E-01
       -1   -1    0    0    0  501  0.00000000000E+00  0.00000000000E+00  0.16717716780E+03  0.16717716788E+03  0.50400001928E-02 0. -1.
        1   -1    0    0  501    0  0.00000000000E+00  0.00000000000E+00 -0.12063830753E+04  0.12063830753E+04  0.50400001928E-02 0.  1.
    10030    2    1    2    0    0  0.00000000000E+00  0.00000000000E+00 -0.10392059075E+04  0.13735602432E+04  0.89817527439E+03 0.  0.
        4    1    3    3  502    0 -0.77535199236E+02  0.77517906703E+02  0.14639281060E+03  0.18290216203E+03  0.12699999809E+01 0. -1.
       -4    1    3    3    0  502  0.77535199236E+02 -0.77517906703E+02 -0.11855987181E+04  0.11906580812E+04  0.12699999809E+01 0.  1.
</event>
<event>
 5   0  0.9697941E-04  0.9005029E+03  0.7818609E-02  0.9424953E-01
       -1   -1    0    0    0  501  0.00000000000E+00  0.00000000000E+00  0.13939484454E+03  0.13939484463E+03  0.50400001928E-02 0.  1.
        1   -1    0    0  501    0  0.00000000000E+00  0.00000000000E+00 -0.14543320120E+04  0.14543320120E+04  0.50400001928E-02 0. -1.
    10030    2    1    2    0    0  0.00000000000E+00  0.00000000000E+00 -0.13149371675E+04  0.15937268566E+04  0.90050293680E+03 0.  0.
        5    1    3    3  502    0  0.11764973105E+02 -0.36551673453E+03 -0.19269859109E+03  0.41339537348E+03  0.46999998093E+01 0.  1.
       -5    1    3    3    0  502 -0.11764973105E+02  0.36551673453E+03 -0.11222385764E+04  0.11803314831E+04  0.46999998093E+01 0. -1.
</event>
<event>
 5   0  0.1641516E-03  0.8981928E+03  0.7818609E-02  0.9427843E-01
        2   -1    0    0  501    0  0.00000000000E+00  0.00000000000E+00  0.61741336501E+03  0.61741336501E+03  0.25500000920E-02 0. -1.
       -2   -1    0    0    0  501  0.00000000000E+00  0.00000000000E+00 -0.32666540534E+03  0.32666540535E+03  0.25500000920E-02 0.  1.
    10030    2    1    2    0    0  0.00000000000E+00  0.00000000000E+00  0.29074795967E+03  0.94407877036E+03  0.89819282372E+03 0.  0.
        1    1    3    3  502    0 -0.16518369565E+03 -0.40556550611E+03  0.40694192087E+02  0.43980114864E+03  0.50400001928E-02 0.  1.
       -1    1    3    3    0  502  0.16518369565E+03  0.40556550611E+03  0.25005376758E+03  0.50427762171E+03  0.50400001928E-02 0. -1.
</event>
<event>
 5   0  0.9321543E-04  0.8994014E+03  0.7818609E-02  0.9426330E-01
        1   -1    0    0  501    0  0.00000000000E+00  0.00000000000E+00  0.67162389411E+03  0.67162389413E+03  0.50400001928E-02 0.  1.
       -1   -1    0    0    0  501  0.00000000000E+00  0.00000000000E+00 -0.30110707890E+03  0.30110707894E+03  0.50400001928E-02 0. -1.
    10030    2    1    2    0    0  0.00000000000E+00  0.00000000000E+00  0.37051681522E+03  0.97273097307E+03  0.89940137625E+03 0.  0.
        3    1    3    3  502    0 -0.89888144291E+02 -0.68185561430E+02 -0.28555148483E+03  0.30703226209E+03  0.10100000352E+00 0. -1.
       -3    1    3    3    0  502  0.89888144291E+02  0.68185561430E+02  0.65606830005E+03  0.66569871098E+03  0.10100000352E+00 0.  1.
</event>
<event>
 5   0  0.1536020E-03  0.8941793E+03  0.7818609E-02  0.9432887E-01
        2   -1    0    0  501    0  0.00000000000E+00  0.00000000000E+00  0.10491430377E+04  0.10491430378E+04  0.25500000920E-02 0. -1.
       -2   -1    0    0    0  501  0.00000000000E+00  0.00000000000E+00 -0.19052611892E+03  0.19052611893E+03  0.25500000920E-02 0.  1.
    10030    2    1    2    0    0  0.00000000000E+00  0.00000000000E+00  0.85861691883E+03  0.12396691567E+04  0.89417929115E+03 0.  0.
        2    1    3    3  502    0  0.24372245958E+03 -0.90002048910E+02  0.93374406888E+03  0.96921565829E+03  0.25500000920E-02 0. -1.
       -2    1    3    3    0  502 -0.24372245958E+03  0.90002048910E+02 -0.75127150047E+02  0.27045349839E+03  0.25500000920E-02 0.  1.
</event>
<event>
 5   0  0.1536020E-03  0.8999296E+03  0.7818609E-02  0.9425669E-01
       -2   -1    0    0    0  501  0.00000000000E+00  0.00000000000E+00  0.30543160180E+03  0.30543160181E+03  0.25500000920E-02 0. -1.
        2   -1    0    0  501    0  0.00000000000E+00  0.00000000000E+00 -0.66289249586E+03  0.66289249586E+03  0.25500000920E-02 0.  1.
    10030    2    1    2    0    0  0.00000000000E+00  0.00000000000E+00 -0.35746089405E+03  0.96832409768E+03  0.89992959023E+03 0.  0.
        2    1    3    3  502    0 -0.15915539790E+03  0.19449744918E+03 -0.58033737910E+03  0.63241692894E+03  0.25500000920E-02 0.  1.
       -2    1    3    3    0  502  0.15915539790E+03 -0.19449744918E+03  0.22287648504E+03  0.33590716874E+03  0.25500000920E-02 0. -1.
</event>
<event>
 5   0  0.1536020E-03  0.8997768E+03  0.7818609E-02  0.9425860E-01
        2   -1    0    0  501    0  0.00000000000E+00  0.00000000000E+00  0.63611021306E+03  0.63611021307E+03  0.25500000920E-02 0.  1.
       -2   -1    0    0    0  501  0.00000000000E+00  0.00000000000E+00 -0.31818319096E+03  0.31818319097E+03  0.25500000920E-02 0. -1.
    10030    2    1    2    0    0  0.00000000000E+00  0.00000000000E+00  0.31792702210E+03  0.95429340404E+03  0.89977681099E+03 0.  0.
        2    1    3    3  502    0  0.29726203720E+03  0.77495279910E+02 -0.18962894765E+03  0.36101159949E+03  0.25500000920E-02 0. -1.
       -2    1    3    3    0  502 -0.29726203720E+03 -0.77495279910E+02  0.50755596975E+03  0.59328180455E+03  0.25500000920E-02 0.  1.
</event>
<event>
 5   0  0.1704416E-03  0.8971612E+03  0.7818609E-02  0.9429137E-01
       -2   -1    0    0    0  501  0.00000000000E+00  0.00000000000E+00  0.31743189897E+03  0.31743189898E+03  0.25500000920E-02 0.  1.
        2   -1    0    0  501    0  0.00000000000E+00  0.00000000000E+00 -0.63391404702E+03  0.63391404702E+03  0.25500000920E-02 0. -1.
    10030    2    1    2    0    0  0.00000000000E+00  0.00000000000E+00 -0.31648214805E+03  0.95134594600E+03  0.89716116664E+03 0.  0.
        3    1    3    3  502    0  0.34978496530E+03  0.13330280290E+03  0.10388347426E+03  0.38847258029E+03  0.10100000352E+00 0. -1.
       -3    1    3    3    0  502 -0.34978496530E+03 -0.13330280290E+03 -0.42036562231E+03  0.56287336571E+03  0.10100000352E+00 0.  1.
</event>
<event>
 5   0  0.1641516E-03  0.8994558E+03  0.7818609E-02  0.9426262E-01
       -2   -1    0    0    0  501  0.00000000000E+00  0.00000000000E+00  0.36387516323E+03  0.36387516324E+03  0.25500000920E-02 0.  1.
        2   -1    0    0  501    0  0.00000000000E+00  0.00000000000E+00 -0.55583679221E+03  0.55583679222E+03  0.25500000920E-02 0. -1.
    10030    2    1    2    0    0  0.00000000000E+00  0.00000000000E+00 -0.19196162898E+03  0.91971195546E+03  0.89945584328E+03 0.  0.
        1    1    3    3  502    0  0.18390621132E+02  0.39962630434E+03 -0.30607281871E+03  0.50370623229E+03  0.50400001928E-02 0. -1.
       -1    1    3    3    0  502 -0.18390621132E+02 -0.39962630434E+03  0.11411118973E+03  0.41600572317E+03  0.50400001928E-02 0.  1.
</event>
<event>
 5   0  0.1635686E-03  0.8923353E+03  0.7818609E-02  0.9435214E-01
        2   -1    0    0  501    0  0.00000000000E+00  0.00000000000E+00  0.24202363447E+04  0.24202363447E+04  0.25500000920E-02 0.  1.
       -2   -1    0    0    0  501  0.00000000000E+00  0.00000000000E+00 -0.82250465218E+02  0.82250465258E+02  0.25500000920E-02 0. -1.
    10030    2    1    2    0    0  0.00000000000E+00  0.00000000000E+00  0.23379858795E+04  0.25024868099E+04  0.89233528528E+03 0.  0.
        5    1    3    3  502    0  0.87028930271E+01 -0.14836656924E+02  0.24192366734E+04  0.24193023868E+04  0.46999998093E+01 0.  1.
       -5    1    3    3    0  502 -0.87028930271E+01  0.14836656924E+02 -0.81250793961E+02  0.83184423141E+02  0.46999998093E+01 0. -1.
</event>
<event>
 5   0  0.9981885E-04  0.9003466E+03  0.7818609E-02  0.9425148E-01
       -1   -1    0    0    0  501  0.00000000000E+00  0.00000000000E+00  0.56059082243E+03  0.56059082245E+03  0.50400001928E-02 0. -1.
        1   -1    0    0  501    0  0.00000000000E+00  0.00000000000E+00 -0.36150434182E+03  0.36150434186E+03  0.50400001928E-02 0.  1.
    10030    2    1    2    0    0  0.00000000000E+00  0.00000000000E+00  0.19908648061E+03  0.92209516431E+03  0.90034663618E+03 0.  0.
        4    1    3    3  502    0  0.41485046759E+03  0.15277635861E+03  0.12563067232E+02  0.44226798412E+03  0.12699999809E+01 0.  1.
       -4    1    3    3    0  502 -0.41485046759E+03 -0.15277635861E+03  0.18652341337E+03  0.47982718019E+03  0.12699999809E+01 0. -1.
</event>
<event>
 5   0  0.9697941E-04  0.9251890E+03  0.7818609E-02  0.9394630E-01
        1   -1    0    0  501    0  0.00000000000E+00  0.00000000000E+00  0.18287241732E+04  0.18287241732E+04  0.50400001928E-02 0. -1.
       -1   -1    0    0    0  501  0.00000000000E+00  0.00000000000E+00 -0.11701801615E+03  0.11701801626E+03  0.50400001928E-02 0.  1.
    10030    2    1    2    0    0  0.00000000000E+00  0.00000000000E+00  0.17117061571E+04  0.19457421895E+04  0.92518900760E+03 0.  0.
        5    1    3    3  502    0  0.81036279886E+02 -0.27234575720E+03  0.16234971704E+04  0.16481821024E+04  0.46999998093E+01 0. -1.
       -5    1    3    3    0  502 -0.81036279886E+02  0.27234575720E+03  0.88208986626E+02  0.29756008712E+03  0.46999998093E+01 0.  1.
</event>
<event>
 5   0  0.1630202E-03  0.8996789E+03  0.7818609E-02  0.9425983E-01
       -2   -1    0    0    0  501  0.00000000000E+00  0.00000000000E+00  0.28182268188E+03  0.28182268189E+03  0.25500000920E-02 0. -1.
        2   -1    0    0  501    0  0.00000000000E+00  0.00000000000E+00 -0.71802436843E+03  0.71802436844E+03  0.25500000920E-02 0.  1.
    10030    2    1    2    0    0  0.00000000000E+00  0.00000000000E+00 -0.43620168655E+03  0.99984705033E+03  0.89967894979E+03 0.  0.
        4    1    3    3  502    0 -0.28648102439E+03  0.34720218590E+02 -0.60159617290E+03  0.66723042427E+03  0.12699999809E+01 0.  1.
       -4    1    3    3    0  502  0.28648102439E+03 -0.34720218590E+02  0.16539448635E+03  0.33261662606E+03  0.12699999809E+01 0. -1.
</event>
<event>
 5   0  0.1536020E-03  0.9003654E+03  0.7818609E-02  0.9425125E-01
        2   -1    0    0  501    0  0.00000000000E+00  0.00000000000E+00  0.12369968026E+04  0.12369968026E+04  0.25500000920E-02 0. -1.
       -2   -1    0    0    0  501  0.00000000000E+00  0.00000000000E+00 -0.16383587036E+03  0.16383587038E+03  0.25500000920E-02 0.  1.
    10030    2    1    2    0    0  0.00000000000E+00  0.00000000000E+00  0.10731609323E+04  0.14008326730E+04  0.90036536540E+03 0.  0.
        2    1    3    3  502    0 -0.28846097607E+03  0.28004434500E+03  0.85173067153E+03  0.94184908914E+03  0.25500000920E-02 0. -1.
       -2    1    3    3    0  502  0.28846097607E+03 -0.28004434500E+03  0.22143026074E+03  0.45898358386E+03  0.25500000920E-02 0.  1.
</event>
<event>
 5   0  0.9697941E-04  0.9007969E+03  0.7818609E-02  0.9424586E-01
        1   -1    0    0  501    0  0.00000000000E+00  0.00000000000E+00  0.30470684186E+03  0.30470684190E+03  0.50400001928E-02 0. -1.
       -1   -1    0    0    0  501  0.00000000000E+00  0.00000000000E+00 -0.66575063986E+03  0.66575063988E+03  0.50400001928E-02 0.  1.
    10030    2    1    2    0    0  0.00000000000E+00  0.00000000000E+00 -0.36104379800E+03  0.97045748177E+03  0.90079692487E+03 0.  0.
        5    1    3    3  502    0  0.29625857522E+03 -0.33861237721E+03 -0.20231490836E+03  0.49333649523E+03  0.46999998093E+01 0. -1.
       -5    1    3    3    0  502 -0.29625857522E+03  0.33861237721E+03 -0.15872888965E+03  0.47712098654E+03  0.46999998093E+01 0.  1.
</event>
<event>
 5   0  0.1007561E-03  0.9006327E+03  0.7818609E-02  0.9424791E-01
        1   -1    0    0  501    0  0.00000000000E+00  0.00000000000E+00  0.38221600293E+03  0.38221600297E+03  0.50400001928E-02 0.  1.
       -1   -1    0    0    0  501  0.00000000000E+00  0.00000000000E+00 -0.53055028070E+03  0.53055028073E+03  0.50400001928E-02 0. -1.
    10030    2    1    2    0    0  0.00000000000E+00  0.00000000000E+00 -0.14833427777E+03  0.91276628369E+03  0.90063268355E+03 0.  0.
        2    1    3    3  502    0 -0.15001871665E+03 -0.38240818260E+03  0.11282653304E+03  0.42599467136E+03  0.25500000920E-02 0.  1.
       -2    1    3    3    0  502  0.15001871665E+03  0.38240818260E+03 -0.26116081082E+03  0.48677161233E+03  0.25500000920E-02 0. -1.
</event>
<event>
 5   0  0.1635686E-03  0.9006245E+03  0.7818609E-02  0.9424801E-01
        2   -1    0    0  501    0  0.00000000000E+00  0.00000000000E+00  0.11083354420E+04  0.11083354420E+04  0.25500000920E-02 0.  1.
       -2   -1    0    0    0  501  0.00000000000E+00  0.00000000000E+00 -0.18296004886E+03  0.18296004887E+03  0.25500000920E-02 0. -1.
    10030    2    1    2    0    0  0.00000000000E+00  0.00000000000E+00  0.92537539316E+03  0.12912954909E+04  0.90062446477E+03 0.  0.
        5    1    3    3  502    0  0.40006783200E+02 -0.25931177964E+03  0.98737182357E+03  0.10216498176E+04  0.46999998093E+01 0.  1.
       -5    1    3    3    0  502 -0.40006783200E+02  0.25931177964E+03 -0.61996430405E+02  0.26964567333E+03  0.46999998093E+01 0. -1.
</event>
<event>
 5   0  0.1007561E-03  0.8999666E+03  0.7818609E-02  0.9425623E-01
        1   -1    0    0  501    0  0.00000000000E+00  0.00000000000E+00  0.59543563125E+03  0.59543563127E+03  0.50400001928E-02 0.  1.
       -1   -1    0    0    0  501  0.00000000000E+00  0.00000000000E+00 -0.34006190378E+03  0.34006190381E+03  0.50400001928E-02 0. -1.
    10030    2    1    2    0    0  0.00000000000E+00  0.00000000000E+00  0.25537372747E+03  0.93549753508E+03  0.89996660908E+03 0.  0.
        2    1    3    3  502    0 -0.22938211835E+03 -0.72741812449E+02 -0.26755826557E+03  0.35985407178E+03  0.25500000920E-02 0. -1.
       -2    1    3    3    0  502  0.22938211835E+03  0.72741812449E+02  0.52293199304E+03  0.57564346331E+03  0.25500000920E-02 0.  1.
</event>
<event>
 5   0  0.9321543E-04  0.9005358E+03  0.7818609E-02  0.9424912E-01
       -1   -1    0    0    0  501  0.00000000000E+00  0.00000000000E+00  0.14783339398E+03  0.14783339407E+03  0.50400001928E-02 0.  1.
        1   -1    0    0  501    0  0.00000000000E+00  0.00000000000E+00 -0.13714167437E+04  0.13714167437E+04  0.50400001928E-02 0. -1.
    10030    2    1    2    0    0  0.00000000000E+00  0.00000000000E+00 -0.12235833497E+04  0.15192501378E+04  0.90053582240E+03 0.  0.
        3    1    3    3  502    0  0.35800258498E+03 -0.67815845920E+02 -0.10580680621E+04  0.11190499873E+04  0.10100000352E+00 0. -1.
       -3    1    3    3    0  502 -0.35800258498E+03  0.67815845920E+02 -0.16551528760E+03  0.40020015047E+03  0.10100000352E+00 0.  1.
</event>
<event>
 5   0  0.9223454E-04  0.9021785E+03  0.7818609E-02  0.9422862E-01
       -1   -1    0    0    0  501  0.00000000000E+00  0.00000000000E+00  0.29934433106E+03  0.29934433111E+03  0.50400001928E-02 0.  1.
        1   -1    0    0  501    0  0.00000000000E+00  0.00000000000E+00 -0.67975728686E+03  0.67975728687E+03  0.50400001928E-02 0. -1.
    10030    2    1    2    0    0  0.00000000000E+00  0.00000000000E+00 -0.38041295579E+03  0.97910161798E+03  0.90217845319E+03 0.  0.
        1    1    3    3  502    0  0.21383992792E+03 -0.37667193673E+03 -0.53479485937E+02  0.43642790714E+03  0.50400001928E-02 0.  1.
       -1    1    3    3    0  502 -0.21383992792E+03  0.37667193673E+03 -0.32693346986E+03  0.54267371083E+03  0.50400001928E-02 0. -1.
</event>
<event>
 5   0  0.1641516E-03  0.8961749E+03  0.7818609E-02  0.9430376E-01
       -2   -1    0    0    0  501  0.00000000000E+00  0.00000000000E+00  0.14120420037E+04  0.14120420037E+04  0.25500000920E-02 0. -1.
        2   -1    0    0  501    0  0.00000000000E+00  0.00000000000E+00 -0.14219291450E+03  0.14219291452E+03  0.25500000920E-02 0.  1.
    10030    2    1    2    0    0  0.00000000000E+00  0.00000000000E+00  0.12698490892E+04  0.15542349182E+04  0.89617491131E+03 0.  0.
        1    1    3    3  502    0 -0.30532318734E+03 -0.17470370892E+03  0.15355518062E+03  0.38382656000E+03  0.50400001928E-02 0.  1.
       -1    1    3    3    0  502  0.30532318734E+03  0.17470370892E+03  0.11162939086E+04  0.11704083582E+04  0.50400001928E-02 0. -1.
</event>
<event>
 5   0  0.6375625E-04  0.9015533E+03  0.7818609E-02  0.9423642E-01
        3   -1    0    0  501    0  0.00000000000E+00  0.00000000000E+00  0.33782033548E+03  0.33782035058E+03  0.10100000352E+00 0.  1.
       -3   -1    0    0    0  501  0.00000000000E+00  0.00000000000E+00 -0.60150189675E+03  0.60150190523E+03  0.10100000352E+00 0. -1.
    10030    2    1    2    0    0  0.00000000000E+00  0.00000000000E+00 -0.26368156127E+03  0.93932225580E+03  0.90155328988E+03 0.  0.
        4    1    3    3  502    0  0.32308769944E+03 -0.26382983856E+03  0.46216683238E+02  0.41967778110E+03  0.12699999809E+01 0. -1.
       -4    1    3    3    0  502 -0.32308769944E+03  0.26382983856E+03 -0.30989824451E+03  0.51964447470E+03  0.12699999809E+01 0.  1.
</event>
<event>
 5   0  0.1704416E-03  0.8974491E+03  0.7818609E-02  0.9428776E-01
        2   -1    0    0  501    0  0.00000000000E+00  0.00000000000E+00  0.10582260498E+04  0.10582260498E+04  0.25500000920E-02 0. -1.
       -2   -1    0    0    0  501  0.00000000000E+00  0.00000000000E+00 -0.19027478738E+03  0.19027478740E+03  0.25500000920E-02 0.  1.
    10030    2    1    2    0    0  0.00000000000E+00  0.00000000000E+00  0.86795126243E+03  0.12485008372E+04  0.89744913314E+03 0.  0.
        3    1    3    3  502    0 -0.15772632950E+03 -0.26156453611E+03 -0.23335453200E+02  0.30633014078E+03  0.10100000352E+00 0.  1.
       -3    1    3    3    0  502  0.15772632950E+03  0.26156453611E+03  0.89128671563E+03  0.94217069644E+03  0.10100000352E+00 0. -1.
</event>
<event>
 5   0  0.1635686E-03  0.8990121E+03  0.7818609E-02  0.9426817E-01
        2   -1    0    0  501    0  0.00000000000E+00  0.00000000000E+00  0.57936312859E+03  0.57936312859E+03  0.25500000920E-02 0. -1.
       -2   -1    0    0    0  501  0.00000000000E+00  0.00000000000E+00 -0.34875483457E+03  0.34875483458E+03  0.25500000920E-02 0.  1.
    10030    2    1    2    0    0  0.00000000000E+00  0.00000000000E+00  0.23060829402E+03  0.92811796317E+03  0.89901210687E+03 0.  0.
        5    1    3    3  502    0  0.11815583097E+03  0.37523183477E+02 -0.33073077925E+03  0.35323324876E+03  0.46999998093E+01 0.  1.
       -5    1    3    3    0  502 -0.11815583097E+03 -0.37523183477E+02  0.56133907326E+03  0.57488471441E+03  0.46999998093E+01 0. -1.
</event>
<event>
 5   0  0.1630202E-03  0.8990221E+03  0.7818609E-02  0.9426805E-01
       -2   -1    0    0    0  501  0.00000000000E+00  0.00000000000E+00  0.60844526318E+03  0.60844526319E+03  0.25500000920E-02 0. -1.
        2   -1    0    0  501    0  0.00000000000E+00  0.00000000000E+00 -0.33209265681E+03  0.33209265682E+03  0.25500000920E-02 0.  1.
    10030    2    1    2    0    0  0.00000000000E+00  0.00000000000E+00  0.27635260637E+03  0.94053792001E+03  0.89902214429E+03 0.  0.
        4    1    3    3  502    0 -0.23992866757E+03  0.32948754244E+03  0.33648386413E+03  0.52853647922E+03  0.12699999809E+01 0. -1.
       -4    1    3    3    0  502  0.23992866757E+03 -0.32948754244E+03 -0.60131257758E+02  0.41200144078E+03  0.12699999809E+01 0.  1.
</event>
<event>
 5   0  0.1641516E-03  0.9010489E+03  0.7818609E-02  0.9424271E-01
       -2   -1    0    0    0  501  0.00000000000E+00  0.00000000000E+00  0.23613157967E+03  0.23613157968E+03  0.25500000920E-02 0. -1.
        2   -1    0    0  501    0  0.00000000000E+00  0.00000000000E+00 -0.85957288102E+03  0.85957288103E+03  0.25500000920E-02 0.  1.
    10030    2    1    2    0    0  0.00000000000E+00  0.00000000000E+00 -0.62344130135E+03  0.10957044607E+04  0.90104894927E+03 0.  0.
        1    1    3    3  502    0  0.32586580136E+03 -0.26842631296E+03 -0.50295536388E+03  0.65666224504E+03  0.50400001928E-02 0.  1.
       -1    1    3    3    0  502 -0.32586580136E+03  0.26842631296E+03 -0.12048593748E+03  0.43904221567E+03  0.50400001928E-02 0. -1.
</event>
<event>
 5   0  0.1007561E-03  0.9001620E+03  0.7818609E-02  0.9425379E-01
        1   -1    0    0  501    0  0.00000000000E+00  0.00000000000E+00  0.11292339950E+04  0.11292339950E+04  0.50400001928E-02 0. -1.
       -1   -1    0    0    0  501  0.00000000000E+00  0.00000000000E+00 -0.17938967964E+03  0.17938967971E+03  0.50400001928E-02 0.  1.
    10030    2    1    2    0    0  0.00000000000E+00  0.00000000000E+00  0.94984431536E+03  0.13086236747E+04  0.90016204020E+03 0.  0.
        2    1    3    3  502    0  0.23159883468E+03  0.37195839973E+03  0.32537610772E+03  0.54576614299E+03  0.25500000920E-02 0.  1.
       -2    1    3    3    0  502 -0.23159883468E+03 -0.37195839973E+03  0.62446820764E+03  0.76285753173E+03  0.25500000920E-02 0. -1.
</event>
<event>
 5   0  0.9321543E-04  0.8880406E+03  0.7818609E-02  0.9440656E-01
       -1   -1    0    0    0  501  0.00000000000E+00  0.00000000000E+00  0.33167647438E+03  0.33167647442E+03  0.50400001928E-02 0.  1.
        1   -1    0    0  501    0  0.00000000000E+00  0.00000000000E+00 -0.59441666554E+03  0.59441666556E+03  0.50400001928E-02 0. -1.
    10030    2    1    2    0    0  0.00000000000E+00  0.00000000000E+00 -0.26274019116E+03  0.92609313998E+03  0.88804059359E+03 0.  0.
        3    1    3    3  502    0  0.92136029911E+02  0.36132777881E+03 -0.38275363147E+03  0.53436613324E+03  0.10100000352E+00 0. -1.
       -3    1    3    3    0  502 -0.92136029911E+02 -0.36132777881E+03  0.12001344031E+03  0.39172700674E+03  0.10100000352E+00 0.  1.
</event>
<event>
 5   0  0.6375625E-04  0.9056232E+03  0.7818609E-02  0.9418579E-01
       -3   -1    0    0    0  501  0.00000000000E+00  0.00000000000E+00  0.19965634407E+03  0.19965636961E+03  0.10100000352E+00 0.  1.
        3   -1    0    0  501    0  0.00000000000E+00  0.00000000000E+00 -0.10269561234E+04  0.10269561284E+04  0.10100000352E+00 0. -1.
    10030    2    1    2    0    0  0.00000000000E+00  0.00000000000E+00 -0.82729977934E+03  0.12266124980E+04  0.90562315304E+03 0.  0.
        3    1    3    3  502    0 -0.21131429226E+03  0.33531886009E+03 -0.11707432942E+03  0.41327820757E+03  0.10100000352E+00 0.  1.
       -3    1    3    3    0  502  0.21131429226E+03 -0.33531886009E+03 -0.71022544992E+03  0.81333429041E+03  0.10100000352E+00 0. -1.
</event>
<event>
 5   0  0.1704416E-03  0.8961166E+03  0.7818609E-02  0.9430449E-01
        2   -1    0    0  501    0  0.00000000000E+00  0.00000000000E+00  0.12472307395E+04  0.12472307395E+04  0.25500000920E-02 0.  1.
       -2   -1    0    0    0  501  0.00000000000E+00  0.00000000000E+00 -0.16096158394E+03  0.16096158396E+03  0.25500000920E-02 0. -1.
    10030    2    1    2    0    0  0.00000000000E+00  0.00000000000E+00  0.10862691555E+04  0.14081923234E+04  0.89611658924E+03 0.  0.
        3    1    3    3  502    0 -0.18079284713E+03  0.61100676834E+02  0.11801720399E+04  0.11955021540E+04  0.10100000352E+00 0.  1.
       -3    1    3    3    0  502  0.18079284713E+03 -0.61100676834E+02 -0.93902884355E+02  0.21269016943E+03  0.10100000352E+00 0. -1.
</event>
<event>
 5   0  0.1704416E-03  0.9019458E+03  0.7818609E-02  0.9423152E-01
        2   -1    0    0  501    0  0.00000000000E+00  0.00000000000E+00  0.79509407828E+03  0.79509407828E+03  0.25500000920E-02 0. -1.
       -2   -1    0    0    0  501  0.00000000000E+00  0.00000000000E+00 -0.25578931034E+03  0.25578931035E+03  0.25500000920E-02 0.  1.
    10030    2    1    2    0    0  0.00000000000E+00  0.00000000000E+00  0.53930476794E+03  0.10508833886E+04  0.90194582087E+03 0.  0.
        3    1    3    3  502    0 -0.22040014389E+02  0.95861337031E+02 -0.24313868615E+03  0.26228150731E+03  0.10100000352E+00 0.  1.
       -3    1    3    3    0  502  0.22040014389E+02 -0.95861337031E+02  0.78244345409E+03  0.78860188132E+03  0.10100000352E+00 0. -1.
</event>
<event>
 5   0  0.1007561E-03  0.9002298E+03  0.7818609E-02  0.9425294E-01
       -1   -1    0    0    0  501  0.00000000000E+00  0.00000000000E+00  0.17422382029E+03  0.17422382036E+03  0.50400001928E-02 0.  1.
        1   -1    0    0  501    0  0.00000000000E+00  0.00000000000E+00 -0.11628916236E+04  0.11628916236E+04  0.50400001928E-02 0. -1.
    10030    2    1    2    0    0  0.00000000000E+00  0.00000000000E+00 -0.98866780329E+03  0.13371154440E+04  0.90022979577E+03 0.  0.
        2    1    3    3  502    0 -0.28669520759E+03 -0.14593547627E+03 -0.26729171136E+02  0.32280916017E+03  0.25500000920E-02 0.  1.
       -2    1    3    3    0  502  0.28669520759E+03  0.14593547627E+03 -0.96193863215E+03  0.10143062838E+04  0.25500000920E-02 0. -1.
</event>
<event>
 5   0  0.9223454E-04  0.9000700E+03  0.7818609E-02  0.9425494E-01
        1   -1    0    0  501    0  0.00000000000E+00  0.00000000000E+00  0.19970613498E+04  0.19970613498E+04  0.50400001928E-02 0.  1.
       -1   -1    0    0    0  501  0.00000000000E+00  0.00000000000E+00 -0.10141476965E+03  0.10141476978E+03  0.50400001928E-02 0. -1.
    10030    2    1    2    0    0  0.00000000000E+00  0.00000000000E+00  0.18956465801E+04  0.20984761196E+04  0.90007003486E+03 0.  0.
        1    1    3    3  502    0  0.27755584256E+03  0.13128538573E+03  0.17149349207E+04  0.17422040296E+04  0.50400001928E-02 0.  1.
       -1    1    3    3    0  502 -0.27755584256E+03 -0.13128538573E+03  0.18071165937E+03  0.35627208999E+03  0.50400001928E-02 0. -1.
</event>
<event>
 5   0  0.1635686E-03  0.8992315E+03  0.7818609E-02  0.9426543E-01
       -2   -1    0    0    0  501  0.00000000000E+00  0.00000000000E+00  0.40938931311E+03  0.40938931312E+03  0.25500000920E-02 0.  1.
        2   -1    0    0  501    0  0.00000000000E+00  0.00000000000E+00 -0.49379486225E+03  0.49379486226E+03  0.25500000920E-02 0. -1.
    10030    2    1    2    0    0  0.00000000000E+00  0.00000000000E+00 -0.84405549141E+02  0.90318417538E+03  0.89923153744E+03 0.  0.
        5    1    3    3  502    0  0.31567568468E+03 -0.19177484525E+03 -0.29965645783E+03  0.47565198611E+03  0.46999998093E+01 0. -1.
       -5    1    3    3    0  502 -0.31567568468E+03  0.19177484525E+03  0.21525090869E+03  0.42753218927E+03  0.46999998093E+01 0.  1.
</event>
<event>
 5   0  0.9981885E-04  0.9011630E+03  0.7818609E-02  0.9424129E-01
        1   -1    0    0  501    0  0.00000000000E+00  0.00000000000E+00  0.47553656691E+03  0.47553656694E+03  0.50400001928E-02 0.  1.
       -1   -1    0    0    0  501  0.00000000000E+00  0.00000000000E+00 -0.42693606218E+03  0.42693606221E+03  0.50400001928E-02 0. -1.
    10030    2    1    2    0    0  0.00000000000E+00  0.00000000000E+00  0.48600504732E+02  0.90247262915E+03  0.90116304702E+03 0.  0.
        4    1    3    3  502    0 -0.38310935825E+03  0.21437680013E+03  0.12589669920E+03  0.45670754820E+03  0.12699999809E+01 0.  1.
       -4    1    3    3    0  502  0.38310935825E+03 -0.21437680013E+03 -0.77296194466E+02  0.44576508095E+03  0.12699999809E+01 0. -1.
</event>
<event>
 5   0  0.9223454E-04  0.9005792E+03  0.7818609E-02  0.9424858E-01
        1   -1    0    0  501    0  0.00000000000E+00  0.00000000000E+00  0.53220852660E+03  0.53220852663E+03  0.50400001928E-02 0.  1.
       -1   -1    0    0    0  501  0.00000000000E+00  0.00000000000E+00 -0.38097981732E+03  0.38097981735E+03  0.50400001928E-02 0. -1.
    10030    2    1    2    0    0  0.00000000000E+00  0.00000000000E+00  0.15122870928E+03  0.91318834398E+03  0.90057916314E+03 0.  0.
        1    1    3    3  502    0  0.39632945363E+03 -0.13347256805E+03 -0.93662340312E+02  0.42856107645E+03  0.50400001928E-02 0. -1.
       -1    1    3    3    0  502 -0.39632945363E+03  0.13347256805E+03  0.24489104960E+03  0.48462726753E+03  0.50400001928E-02 0.  1.
</event>
<event>
 5   0  0.1630202E-03  0.8993554E+03  0.7818609E-02  0.9426388E-01
        2   -1    0    0  501    0  0.00000000000E+00  0.00000000000E+00  0.53624065894E+03  0.53624065894E+03  0.25500000920E-02 0. -1.
       -2   -1    0    0    0  501  0.00000000000E+00  0.00000000000E+00 -0.37708817834E+03  0.37708817835E+03  0.25500000920E-02 0.  1.
    10030    2    1    2    0    0  0.00000000000E+00  0.00000000000E+00  0.15915248060E+03  0.91332883729E+03  0.89935535410E+03 0.  0.
        4    1    3    3  502    0 -0.30614540807E+03 -0.18086405051E+03  0.35911950369E+03  0.50537634144E+03  0.12699999809E+01 0. -1.
       -4    1    3    3    0  502  0.30614540807E+03  0.18086405051E+03 -0.19996702309E+03  0.40795249586E+03  0.12699999809E+01 0.  1.
</event>
<event>
 5   0  0.9223454E-04  0.9008255E+03  0.7818609E-02  0.9424550E-01
       -1   -1    0    0    0  501  0.00000000000E+00  0.00000000000E+00  0.67051496439E+03  0.67051496441E+03  0.50400001928E-02 0. -1.
        1   -1    0    0  501    0  0.00000000000E+00  0.00000000000E+00 -0.30256095378E+03  0.30256095382E+03  0.50400001928E-02 0.  1.
    10030    2    1    2    0    0  0.00000000000E+00  0.00000000000E+00  0.36795401061E+03  0.97307591823E+03  0.90082550403E+03 0.  0.
        1    1    3    3  502    0 -0.29249983758E+03  0.31094114714E+03  0.33913251157E+03  0.54520767823E+03  0.50400001928E-02 0. -1.
       -1    1    3    3    0  502  0.29249983758E+03 -0.31094114714E+03  0.28821499041E+02  0.42786824000E+03  0.50400001928E-02 0.  1.
</event>
<event>
 5   0  0.9223454E-04  0.8913510E+03  0.7818609E-02  0.9436458E-01
        1   -1    0    0  501    0  0.00000000000E+00  0.00000000000E+00  0.97232694161E+03  0.97232694162E+03  0.50400001928E-02 0.  1.
       -1   -1    0    0    0  501  0.00000000000E+00  0.00000000000E+00 -0.20427970820E+03  0.20427970826E+03  0.50400001928E-02 0. -1.
    10030    2    1    2    0    0  0.00000000000E+00  0.00000000000E+00  0.76804723341E+03  0.11766066499E+04  0.89135102839E+03 0.  0.
        1    1    3    3  502    0 -0.41351727551E+03  0.15302238880E+03  0.29833088635E+03  0.53236613941E+03  0.50400001928E-02 0. -1.
       -1    1    3    3    0  502  0.41351727551E+03 -0.15302238880E+03  0.46971634706E+03  0.64424051047E+03  0.50400001928E-02 0.  1.
</event>
<event>
 5   0  0.9223454E-04  0.9021401E+03  0.7818609E-02  0.9422910E-01
        1   -1    0    0  501    0  0.00000000000E+00  0.00000000000E+00  0.52563625449E+03  0.52563625452E+03  0.50400001928E-02 0. -1.
       -1   -1    0    0    0  501  0.00000000000E+00  0.00000000000E+00 -0.38708171990E+03  0.38708171993E+03  0.50400001928E-02 0.  1.
    10030    2    1    2    0    0  0.00000000000E+00  0.00000000000E+00  0.13855453460E+03  0.91271797445E+03  0.90214008991E+03 0.  0.
        1    1    3    3  502    0 -0.71654438285E+02  0.17347782251E+03  0.48425151657E+03  0.51935387238E+03  0.50400001928E-02 0. -1.
       -1    1    3    3    0  502  0.71654438285E+02 -0.17347782251E+03 -0.34569698197E+03  0.39336410207E+03  0.50400001928E-02 0.  1.
</event>
<event>
 5   0  0.9697941E-04  0.9002923E+03  0.7818609E-02  0.9425216E-01
        1   -1    0    0  501    0  0.00000000000E+00  0.00000000000E+00  0.73251102618E+03  0.73251102620E+03  0.50400001928E-02 0. -1.
       -1   -1    0    0    0  501  0.00000000000E+00  0.00000000000E+00 -0.27662596664E+03  0.27662596668E+03  0.50400001928E-02 0.  1.
    10030    2    1    2    0    0  0.00000000000E+00  0.00000000000E+00  0.45588505954E+03  0.10091369929E+04  0.90029233190E+03 0.  0.
        5    1    3    3  502    0  0.17702918313E+03  0.40641880816E+03  0.31544378594E+03  0.54409783256E+03  0.46999998093E+01 0. -1.
       -5    1    3    3    0  502 -0.17702918313E+03 -0.40641880816E+03  0.14044127360E+03  0.46503916032E+03  0.46999998093E+01 0.  1.
</event>
<event>
 5   0  0.9697941E-04  0.9192018E+03  0.7818609E-02  0.9401892E-01
        1   -1    0    0  501    0  0.00000000000E+00  0.00000000000E+00  0.35333733686E+03  0.35333733689E+03  0.50400001928E-02 0.  1.
       -1   -1    0    0    0  501  0.00000000000E+00  0.00000000000E+00 -0.59782239300E+03  0.59782239302E+03  0.50400001928E-02 0. -1.
    10030    2    1    2    0    0  0.00000000000E+00  0.00000000000E+00 -0.24448505614E+03  0.95115972992E+03  0.91920176737E+03 0.  0.
        5    1    3    3  502    0 -0.40243491527E+03  0.22190815551E+03 -0.11839968462E+03  0.47459210468E+03  0.46999998093E+01 0. -1.
       -5    1    3    3    0  502  0.40243491527E+03 -0.22190815551E+03 -0.12608537153E+03  0.47656762524E+03  0.46999998093E+01 0.  1.
</event>
<event>
 5   0  0.1007561E-03  0.8986089E+03  0.7818609E-02  0.9427322E-01
       -1   -1    0    0    0  501  0.00000000000E+00  0.00000000000E+00  0.20069785718E+03  0.20069785725E+03  0.50400001928E-02 0.  1.
        1   -1    0    0  501    0  0.00000000000E+00  0.00000000000E+00 -0.10058626350E+04  0.10058626350E+04  0.50400001928E-02 0. -1.
    10030    2    1    2    0    0  0.00000000000E+00  0.00000000000E+00 -0.80516477781E+03  0.12065604923E+04  0.89860887044E+03 0.  0.
        2    1    3    3  502    0  0.62303762273E+02 -0.19391766975E+03 -0.94031357048E+03  0.96212027952E+03  0.25500000920E-02 0. -1.
       -2    1    3    3    0  502 -0.62303762273E+02  0.19391766975E+03  0.13514879267E+03  0.24444021273E+03  0.25500000920E-02 0.  1.
</event>
<event>
 5   0  0.1007561E-03  0.9001107E+03  0.7818609E-02  0.9425443E-01
       -1   -1    0    0    0  501  0.00000000000E+00  0.00000000000E+00  0.23939178903E+03  0.23939178909E+03  0.50400001928E-02 0. -1.
        1   -1    0    0  501    0  0.00000000000E+00  0.00000000000E+00 -0.84610174461E+03  0.84610174462E+03  0.50400001928E-02 0.  1.
    10030    2    1    2    0    0  0.00000000000E+00  0.00000000000E+00 -0.60670995557E+03  0.10854935337E+04  0.90011068294E+03 0.  0.
        2    1    3    3  502    0  0.10395727157E+03 -0.44814718641E+02 -0.82865121714E+03  0.83634820080E+03  0.25500000920E-02 0.  1.
       -2    1    3    3    0  502 -0.10395727157E+03  0.44814718641E+02  0.22194126156E+03  0.24914533291E+03  0.25500000920E-02 0. -1.
</event>
<event>
 5   0  0.1007561E-03  0.9008602E+03  0.7818609E-02  0.9424507E-01
        1   -1    0    0  501    0  0.00000000000E+00  0.00000000000E+00  0.29618267988E+03  0.29618267992E+03  0.50400001928E-02 0.  1.
       -1   -1    0    0    0  501  0.00000000000E+00  0.00000000000E+00 -0.68500717322E+03  0.68500717324E+03  0.50400001928E-02 0. -1.
    10030    2    1    2    0    0  0.00000000000E+00  0.00000000000E+00 -0.38882449334E+03  0.98118985316E+03  0.90086016746E+03 0.  0.
        2    1    3    3  502    0  0.31378595476E+03 -0.31853990364E+03 -0.25364912413E+03  0.51406923055E+03  0.25500000920E-02 0. -1.
       -2    1    3    3    0  502 -0.31378595476E+03  0.31853990364E+03 -0.13517536921E+03  0.46712062261E+03  0.25500000920E-02 0.  1.
</event>
<event>
 5   0  0.1635686E-03  0.8986341E+03  0.7818609E-02  0.9427290E-01
        2   -1    0    0  501    0  0.00000000000E+00  0.00000000000E+00  0.36288953415E+03  0.36288953416E+03  0.25500000920E-02 0.  1.
       -2   -1    0    0    0  501  0.00000000000E+00  0.00000000000E+00 -0.55632855320E+03  0.55632855321E+03  0.25500000920E-02 0. -1.
    10030    2    1    2    0    0  0.00000000000E+00  0.00000000000E+00 -0.19343901905E+03  0.91921808737E+03  0.89863409575E+03 0.  0.
        5    1    3    3  502    0 -0.16466733610E+03  0.16655948211E+03 -0.48891598095E+03  0.54214234209E+03  0.46999998093E+01 0. -1.
       -5    1    3    3    0  502  0.16466733610E+03 -0.16655948211E+03  0.29547696190E+03  0.37707574528E+03  0.46999998093E+01 0.  1.
</event>
<event>
 5   0  0.9223454E-04  0.9024991E+03  0.7818609E-02  0.9422463E-01
       -1   -1    0    0    0  501  0.00000000000E+00  0.00000000000E+00  0.24656343856E+03  0.24656343861E+03  0.50400001928E-02 0.  1.
        1   -1    0    0  501    0  0.00000000000E+00  0.00000000000E+00 -0.82585711627E+03  0.82585711629E+03  0.50400001928E-02 0. -1.
    10030    2    1    2    0    0  0.00000000000E+00  0.00000000000E+00 -0.57929367771E+03  0.10724205549E+04  0.90249913105E+03 0.  0.
        1    1    3    3  502    0  0.31498913317E+03 -0.23656766145E+02  0.93282098891E+02  0.32936202968E+03  0.50400001928E-02 0.  1.
       -1    1    3    3    0  502 -0.31498913317E+03  0.23656766145E+02 -0.67257577660E+03  0.74305852522E+03  0.50400001928E-02 0. -1.
</event>
<event>
 5   0  0.9697941E-04  0.9043146E+03  0.7818609E-02  0.9420204E-01
       -1   -1    0    0    0  501  0.00000000000E+00  0.00000000000E+00  0.71597975308E+03  0.71597975310E+03  0.50400001928E-02 0.  1.
        1   -1    0    0  501    0  0.00000000000E+00  0.00000000000E+00 -0.28554751470E+03  0.28554751475E+03  0.50400001928E-02 0. -1.
    10030    2    1    2    0    0  0.00000000000E+00  0.00000000000E+00  0.43043223838E+03  0.10015272678E+04  0.90431463352E+03 0.  0.
        5    1    3    3  502    0  0.27657984273E+03  0.12235830141E+03  0.58743485426E+03  0.66073425923E+03  0.46999998093E+01 0.  1.
       -5    1    3    3    0  502 -0.27657984273E+03 -0.12235830141E+03 -0.15700261588E+03  0.34079300862E+03  0.46999998093E+01 0. -1.
</event>
<event>
 5   0  0.1704416E-03  0.8989439E+03  0.7818609E-02  0.9426903E-01
        2   -1    0    0  501    0  0.00000000000E+00  0.00000000000E+00  0.56407620903E+03  0.56407620903E+03  0.25500000920E-02 0.  1.
       -2   -1    0    0    0  501  0.00000000000E+00  0.00000000000E+00 -0.35815201976E+03  0.35815201977E+03  0.25500000920E-02 0. -1.
    10030    2    1    2    0    0  0.00000000000E+00  0.00000000000E+00  0.20592418927E+03  0.92222822880E+03  0.89894389940E+03 0.  0.
        3    1    3    3  502    0 -0.43233424786E+03  0.73435853481E+01 -0.22928201539E+02  0.43300409091E+03  0.10100000352E+00 0. -1.
       -3    1    3    3    0  502  0.43233424786E+03 -0.73435853481E+01  0.22885239081E+03  0.48922413789E+03  0.10100000352E+00 0.  1.
</event>
<event>
 5   0  0.9981885E-04  0.9029814E+03  0.7818609E-02  0.9421862E-01
        1   -1    0    0  501    0  0.00000000000E+00  0.00000000000E+00  0.21467342796E+03  0.21467342802E+03  0.50400001928E-02 0. -1.
       -1   -1    0    0    0  501  0.00000000000E+00  0.00000000000E+00 -0.94955331458E+03  0.94955331459E+03  0.50400001928E-02 0.  1.
    10030    2    1    2    0    0  0.00000000000E+00  0.00000000000E+00 -0.73487988661E+03  0.11642267426E+04  0.90298142863E+03 0.  0.
        4    1    3    3  502    0  0.32623256388E+03 -0.23560728341E+03 -0.10351202980E+03  0.41551754589E+03  0.12699999809E+01 0. -1.
       -4    1    3    3    0  502 -0.32623256388E+03  0.23560728341E+03 -0.63136785681E+03  0.74870919672E+03  0.12699999809E+01 0.  1.
</event>
<event>
 5   0  0.1630202E-03  0.8997137E+03  0.7818609E-02  0.9425939E-01
       -2   -1    0    0    0  501  0.00000000000E+00  0.00000000000E+00  0.89596143189E+02  0.89596143225E+02  0.25500000920E-02 0.  1.
        2   -1    0    0  501    0  0.00000000000E+00  0.00000000000E+00 -0.22587040928E+04  0.22587040928E+04  0.25500000920E-02 0. -1.
    10030    2    1    2    0    0  0.00000000000E+00  0.00000000000E+00 -0.21691079496E+04  0.23483002360E+04  0.89971367749E+03 0.  0.
        4    1    3    3  502    0 -0.52974892711E+02 -0.44491067872E+03 -0.97957561325E+03  0.10771823644E+04  0.12699999809E+01 0.  1.
       -4    1    3    3    0  502  0.52974892711E+02  0.44491067872E+03 -0.11895323364E+04  0.12711178716E+04  0.12699999809E+01 0. -1.
</event>
<event>
 5   0  0.1641516E-03  0.9042059E+03  0.7818609E-02  0.9420339E-01
       -2   -1    0    0    0  501  0.00000000000E+00  0.00000000000E+00  0.13038873999E+03  0.13038874002E+03  0.25500000920E-02 0. -1.
        2   -1    0    0  501    0  0.00000000000E+00  0.00000000000E+00 -0.15675977052E+04  0.15675977052E+04  0.25500000920E-02 0.  1.
    10030    2    1    2    0    0  0.00000000000E+00  0.00000000000E+00 -0.14372089652E+04  0.16979864452E+04  0.90420592702E+03 0.  0.
        1    1    3    3  502    0 -0.78742848422E+02 -0.12785827379E+03  0.82192129088E+02  0.17118329493E+03  0.50400001928E-02 0. -1.
       -1    1    3    3    0  502  0.78742848422E+02  0.12785827379E+03 -0.15194010942E+04  0.15268031502E+04  0.50400001928E-02 0.  1.
</event>
<event>
 5   0  0.9321543E-04  0.9000610E+03  0.7818609E-02  0.9425505E-01
        1   -1    0    0  501    0  0.00000000000E+00  0.00000000000E+00  0.53169506201E+03  0.53169506204E+03  0.50400001928E-02 0.  1.
       -1   -1    0    0    0  501  0.00000000000E+00  0.00000000000E+00 -0.38090905279E+03  0.38090905283E+03  0.50400001928E-02 0. -1.
    10030    2    1    2    0    0  0.00000000000E+00  0.00000000000E+00  0.15078600922E+03  0.91260411486E+03  0.90006102565E+03 0.  0.
        3    1    3    3  502    0 -0.78906411254E+02  0.43484736270E+03 -0.10696068093E+02  0.44207789659E+03  0.10100000352E+00 0.  1.
       -3    1    3    3    0  502  0.78906411254E+02 -0.43484736270E+03  0.16148207731E+03  0.47052621827E+03  0.10100000352E+00 0. -1.
</event>
<event>
 5   0  0.1704416E-03  0.8972850E+03  0.7818609E-02  0.9428982E-01
       -2   -1    0    0    0  501  0.00000000000E+00  0.00000000000E+00  0.37950857015E+03  0.37950857016E+03  0.25500000920E-02 0. -1.
        2   -1    0    0  501    0  0.00000000000E+00  0.00000000000E+00 -0.53037039731E+03  0.53037039732E+03  0.25500000920E-02 0.  1.
    10030    2    1    2    0    0  0.00000000000E+00  0.00000000000E+00 -0.15086182716E+03  0.90987896748E+03  0.89728504087E+03 0.  0.
        3    1    3    3  502    0  0.13467188505E+03  0.39288067566E+03  0.96621850329E+02  0.42641239908E+03  0.10100000352E+00 0. -1.
       -3    1    3    3    0  502 -0.13467188505E+03 -0.39288067566E+03 -0.24748367749E+03  0.48346656840E+03  0.10100000352E+00 0.  1.
</event>
<event>
 5   0  0.9981885E-04  0.9009719E+03  0.7818609E-02  0.9424367E-01
        1   -1    0    0  501    0  0.00000000000E+00  0.00000000000E+00  0.61505950878E+03  0.61505950880E+03  0.50400001928E-02 0.  1.
       -1   -1    0    0    0  501  0.00000000000E+00  0.00000000000E+00 -0.32994787317E+03  0.32994787321E+03  0.50400001928E-02 0. -1.
    10030    2    1    2    0    0  0.00000000000E+00  0.00000000000E+00  0.28511163561E+03  0.94500738201E+03  0.90097186821E+03 0.  0.
        4    1    3    3  502    0 -0.71810002111E+02  0.41970138616E+03  0.29681554927E+03  0.51904432676E+03  0.12699999809E+01 0.  1.
       -4    1    3    3    0  502  0.71810002111E+02 -0.41970138616E+03 -0.11703913661E+02  0.42596305526E+03  0.12699999809E+01 0. -1.
</event>
<event>
 5   0  0.1536020E-03  0.8999008E+03  0.7818609E-02  0.9425705E-01
       -2   -1    0    0    0  501  0.00000000000E+00  0.00000000000E+00  0.18676871038E+03  0.18676871040E+03  0.25500000920E-02 0. -1.
        2   -1    0    0  501    0  0.00000000000E+00  0.00000000000E+00 -0.10839896889E+04  0.10839896889E+04  0.25500000920E-02 0.  1.
    10030    2    1    2    0    0  0.00000000000E+00  0.00000000000E+00 -0.89722097855E+03  0.12707583993E+04  0.89990078626E+03 0.  0.
        2    1    3    3  502    0 -0.24765751119E+03 -0.79127304942E+01  0.81746127582E+02  0.26092007116E+03  0.25500000920E-02 0. -1.
       -2    1    3    3    0  502  0.24765751119E+03  0.79127304942E+01 -0.97896710613E+03  0.10098383282E+04  0.25500000920E-02 0.  1.
</event>
<event>
 5   0  0.9981885E-04  0.8770455E+03  0.7818609E-02  0.9454739E-01
       -1   -1    0    0    0  501  0.00000000000E+00  0.00000000000E+00  0.37555741534E+03  0.37555741538E+03  0.50400001928E-02 0.  1.
        1   -1    0    0  501    0  0.00000000000E+00  0.00000000000E+00 -0.51204474879E+03  0.51204474882E+03  0.50400001928E-02 0. -1.
    10030    2    1    2    0    0  0.00000000000E+00  0.00000000000E+00 -0.13648733345E+03  0.88760216419E+03  0.87704550035E+03 0.  0.
        4    1    3    3  502    0 -0.89714840611E+02 -0.13113543123E+03 -0.48188735632E+03  0.50740742114E+03  0.12699999809E+01 0. -1.
       -4    1    3    3    0  502  0.89714840611E+02  0.13113543123E+03  0.34540002287E+03  0.38019474305E+03  0.12699999809E+01 0.  1.
</event>
<event>
 5   0  0.9981885E-04  0.8925297E+03  0.7818609E-02  0.9434968E-01
        1   -1    0    0  501    0  0.00000000000E+00  0.00000000000E+00  0.17383208314E+04  0.17383208314E+04  0.50400001928E-02 0.  1.
       -1   -1    0    0    0  501  0.00000000000E+00  0.00000000000E+00 -0.11456591107E+03  0.11456591118E+03  0.50400001928E-02 0. -1.
    10030    2    1    2    0    0  0.00000000000E+00  0.00000000000E+00  0.16237549203E+04  0.18528867426E+04  0.89252968555E+03 0.  0.
        4    1    3    3  502    0  0.10542514627E+02 -0.12633236116E+03  0.17001500988E+04  0.17048703709E+04  0.12699999809E+01 0.  1.
       -4    1    3    3    0  502 -0.10542514627E+02  0.12633236116E+03 -0.76395178506E+02  0.14801637170E+03  0.12699999809E+01 0. -1.
</event>
<event>
 5   0  0.1007561E-03  0.9000976E+03  0.7818609E-02  0.9425459E-01
        1   -1    0    0  501    0  0.00000000000E+00  0.00000000000E+00  0.50712671532E+03  0.50712671535E+03  0.50400001928E-02 0.  1.
       -1   -1    0    0    0  501  0.00000000000E+00  0.00000000000E+00 -0.39939506810E+03  0.39939506813E+03  0.50400001928E-02 0. -1.
    10030    2    1    2    0    0  0.00000000000E+00  0.00000000000E+00  0.10773164722E+03  0.90652178348E+03  0.90009757033E+03 0.  0.
        2    1    3    3  502    0  0.54331383897E+02 -0.78859785288E+02  0.49674650267E+03  0.50589312402E+03  0.25500000920E-02 0.  1.
       -2    1    3    3    0  502 -0.54331383897E+02  0.78859785288E+02 -0.38901485545E+03  0.40062865945E+03  0.25500000920E-02 0. -1.
</event>
<event>
 5   0  0.1536020E-03  0.9003869E+03  0.7818609E-02  0.9425098E-01
        2   -1    0    0  501    0  0.00000000000E+00  0.00000000000E+00  0.70741395376E+03  0.70741395377E+03  0.25500000920E-02 0.  1.
       -2   -1    0    0    0  501  0.00000000000E+00  0.00000000000E+00 -0.28650006672E+03  0.28650006673E+03  0.25500000920E-02 0. -1.
    10030    2    1    2    0    0  0.00000000000E+00  0.00000000000E+00  0.42091388704E+03  0.99391402050E+03  0.90038690564E+03 0.  0.
        2    1    3    3  502    0  0.18110371061E+03  0.21221091214E+03 -0.17957503276E+03  0.33178188260E+03  0.25500000920E-02 0. -1.
       -2    1    3    3    0  502 -0.18110371061E+03 -0.21221091214E+03  0.60048891980E+03  0.66213213790E+03  0.25500000920E-02 0.  1.
</event>
<event>
 5   0  0.1641516E-03  0.8976482E+03  0.7818609E-02  0.9428526E-01
        2   -1    0    0  501    0  0.00000000000E+00  0.00000000000E+00  0.14059400332E+04  0.14059400332E+04  0.25500000920E-02 0.  1.
       -2   -1    0    0    0  501  0.00000000000E+00  0.00000000000E+00 -0.14327998224E+03  0.14327998226E+03  0.25500000920E-02 0. -1.
    10030    2    1    2    0    0  0.00000000000E+00  0.00000000000E+00  0.12626600509E+04  0.15492200154E+04  0.89764817830E+03 0.  0.
        1    1    3    3  502    0 -0.12061272944E+03  0.42580809560E+03  0.50237312731E+03  0.66950632846E+03  0.50400001928E-02 0. -1.
       -1    1    3    3    0  502  0.12061272944E+03 -0.42580809560E+03  0.76028692363E+03  0.87971368698E+03  0.50400001928E-02 0.  1.
</event>
<event>
 5   0  0.6375625E-04  0.8969992E+03  0.7818609E-02  0.9429340E-01
        4   -1    0    0  501    0  0.00000000000E+00  0.00000000000E+00  0.28562295868E+03  0.28562578215E+03  0.12699999809E+01 0. -1.
       -4   -1    0    0    0  501  0.00000000000E+00  0.00000000000E+00 -0.70424988259E+03  0.70425102771E+03  0.12699999809E+01 0.  1.
    10030    2    1    2    0    0  0.00000000000E+00  0.00000000000E+00 -0.41862692390E+03  0.98987680985E+03  0.89699921810E+03 0.  0.
        2    1    3    3  502    0  0.20387342919E+02  0.34470019767E+03 -0.52516197269E+03  0.62851329945E+03  0.25500000920E-02 0.  1.
       -2    1    3    3    0  502 -0.20387342919E+02 -0.34470019767E+03  0.10653504879E+03  0.36136351040E+03  0.25500000920E-02 0. -1.
</event>
<event>
 5   0  0.1641516E-03  0.8986978E+03  0.7818609E-02  0.9427211E-01
       -2   -1    0    0    0  501  0.00000000000E+00  0.00000000000E+00  0.19801727631E+03  0.19801727632E+03  0.25500000920E-02 0.  1.
        2   -1    0    0  501    0  0.00000000000E+00  0.00000000000E+00 -0.10196808434E+04  0.10196808434E+04  0.25500000920E-02 0. -1.
    10030    2    1    2    0    0  0.00000000000E+00  0.00000000000E+00 -0.82166356708E+03  0.12176981197E+04  0.89869777639E+03 0.  0.
        1    1    3    3  502    0  0.20190211904E+03 -0.28875163579E+03 -0.32964875665E+02  0.35387661112E+03  0.50400001928E-02 0.  1.
       -1    1    3    3    0  502 -0.20190211904E+03  0.28875163579E+03 -0.78869869141E+03  0.86382150859E+03  0.50400001928E-02 0. -1.
</event>
<event>
 5   0  0.9223454E-04  0.9012686E+03  0.7818609E-02  0.9423997E-01
        1   -1    0    0  501    0  0.00000000000E+00  0.00000000000E+00  0.65122219445E+03  0.65122219447E+03  0.50400001928E-02 0. -1.
       -1   -1    0    0    0  501  0.00000000000E+00  0.00000000000E+00 -0.31183103492E+03  0.31183103496E+03  0.50400001928E-02 0.  1.
    10030    2    1    2    0    0  0.00000000000E+00  0.00000000000E+00  0.33939115953E+03  0.96305322943E+03  0.90126864116E+03 0.  0.
        1    1    3    3  502    0 -0.63619085078E+02  0.18657319792E+03 -0.26331806057E+03  0.32892757138E+03  0.50400001928E-02 0.  1.
       -1    1    3    3    0  502  0.63619085078E+02 -0.18657319792E+03  0.60270922010E+03  0.63412565804E+03  0.50400001928E-02 0. -1.
</event>
<event>
 5   0  0.1635686E-03  0.9100677E+03  0.7818609E-02  0.9413083E-01
        2   -1    0    0  501    0  0.00000000000E+00  0.00000000000E+00  0.13623235361E+04  0.13623235361E+04  0.25500000920E-02 0. -1.
       -2   -1    0    0    0  501  0.00000000000E+00  0.00000000000E+00 -0.15198725492E+03  0.15198725494E+03  0.25500000920E-02 0.  1.
    10030    2    1    2    0    0  0.00000000000E+00  0.00000000000E+00  0.12103362812E+04  0.15143107911E+04  0.91006772184E+03 0.  0.
        5    1    3    3  502    0  0.40295893606E+03  0.18745403537E+03  0.44282553116E+03  0.62740055831E+03  0.46999998093E+01 0.  1.
       -5    1    3    3    0  502 -0.40295893606E+03 -0.18745403537E+03  0.76751075005E+03  0.88691023276E+03  0.46999998093E+01 0. -1.
</event>
<event>
 5   0  0.6375625E-04  0.8998751E+03  0.7818609E-02  0.9425738E-01
       -3   -1    0    0    0  501  0.00000000000E+00  0.00000000000E+00  0.66843502902E+03  0.66843503665E+03  0.10100000352E+00 0. -1.
        3   -1    0    0  501    0  0.00000000000E+00  0.00000000000E+00 -0.30286229252E+03  0.30286230936E+03  0.10100000352E+00 0.  1.
    10030    2    1    2    0    0  0.00000000000E+00  0.00000000000E+00  0.36557273650E+03  0.97129734602E+03  0.89987505172E+03 0.  0.
        2    1    3    3  502    0  0.31752356834E+03  0.24685705158E+03 -0.34925773534E+02  0.40370710922E+03  0.25500000920E-02 0.  1.
       -2    1    3    3    0  502 -0.31752356834E+03 -0.24685705158E+03  0.40049851003E+03  0.56759023680E+03  0.25500000920E-02 0. -1.
</event>
<event>
 5   0  0.1630202E-03  0.8984587E+03  0.7818609E-02  0.9427510E-01
        2   -1    0    0  501    0  0.00000000000E+00  0.00000000000E+00  0.11416844149E+03  0.11416844152E+03  0.25500000920E-02 0. -1.
       -2   -1    0    0    0  501  0.00000000000E+00  0.00000000000E+00 -0.17676251628E+04  0.17676251628E+04  0.25500000920E-02 0.  1.
    10030    2    1    2    0    0  0.00000000000E+00  0.00000000000E+00 -0.16534567213E+04  0.18817936043E+04  0.89845870246E+03 0.  0.
        4    1    3    3  502    0 -0.32545190480E+03  0.30850740068E+03 -0.88252299708E+03  0.98992131600E+03  0.12699999809E+01 0.  1.
       -4    1    3    3    0  502  0.32545190480E+03 -0.30850740068E+03 -0.77093372420E+03  0.89187228829E+03  0.12699999809E+01 0. -1.
</event>
<event>
 5   0  0.1630202E-03  0.9018471E+03  0.7818609E-02  0.9423275E-01
        2   -1    0    0  501    0  0.00000000000E+00  0.00000000000E+00  0.51019376253E+03  0.51019376254E+03  0.25500000920E-02 0.  1.
       -2   -1    0    0    0  501  0.00000000000E+00  0.00000000000E+00 -0.39853884244E+03  0.39853884244E+03  0.25500000920E-02 0. -1.
    10030    2    1    2    0    0  0.00000000000E+00  0.00000000000E+00  0.11165492010E+03  0.90873260498E+03  0.90184706363E+03 0.  0.
        4    1    3    3  502    0 -0.41002957214E+02 -0.30031217301E+03  0.39223536493E+03  0.49570035118E+03  0.12699999809E+01 0.  1.
       -4    1    3    3    0  502  0.41002957214E+02  0.30031217301E+03 -0.28058044483E+03  0.41303225380E+03  0.12699999809E+01 0. -1.
</event>
<event>
 5   0  0.1007561E-03  0.9003408E+03  0.7818609E-02  0.9425156E-01
       -1   -1    0    0    0  501  0.00000000000E+00  0.00000000000E+00  0.72391069031E+03  0.72391069033E+03  0.50400001928E-02 0.  1.
        1   -1    0    0  501    0  0.00000000000E+00  0.00000000000E+00 -0.27994252331E+03  0.27994252335E+03  0.50400001928E-02 0. -1.
    10030    2    1    2    0    0  0.00000000000E+00  0.00000000000E+00  0.44396816701E+03  0.10038532137E+04  0.90034079176E+03 0.  0.
        2    1    3    3  502    0  0.15392532414E+03  0.36097854819E+02 -0.24796937013E+03  0.29408309891E+03  0.25500000920E-02 0. -1.
       -2    1    3    3    0  502 -0.15392532414E+03 -0.36097854819E+02  0.69193753713E+03  0.70977011478E+03  0.25500000920E-02 0.  1.
</event>
<event>
 5   0  0.9223454E-04  0.8999116E+03  0.7818609E-02  0.9425692E-01
       -1   -1    0    0    0  501  0.00000000000E+00  0.00000000000E+00  0.23126832841E+03  0.23126832846E+03  0.50400001928E-02 0. -1.
        1   -1    0    0  501    0  0.00000000000E+00  0.00000000000E+00 -0.87543420996E+03  0.87543420998E+03  0.50400001928E-02 0.  1.
    10030    2    1    2    0    0  0.00000000000E+00  0.00000000000E+00 -0.64416588155E+03  0.11067025384E+04  0.89991156545E+03 0.  0.
        1    1    3    3  502    0 -0.31578847664E+03 -0.43950370338E+02  0.68375409360E+02  0.32608157516E+03  0.50400001928E-02 0. -1.
       -1    1    3    3    0  502  0.31578847664E+03  0.43950370338E+02 -0.71254129091E+03  0.78062096328E+03  0.50400001928E-02 0.  1.
</event>
<event>
 5   0  0.9697941E-04  0.9016102E+03  0.7818609E-02  0.9423571E-01
       -1   -1    0    0    0  501  0.00000000000E+00  0.00000000000E+00  0.20139729518E+03  0.20139729525E+03  0.50400001928E-02 0. -1.
        1   -1    0    0  501    0  0.00000000000E+00  0.00000000000E+00 -0.10090763861E+04  0.10090763861E+04  0.50400001928E-02 0.  1.
    10030    2    1    2    0    0  0.00000000000E+00  0.00000000000E+00 -0.80767909094E+03  0.12104736814E+04  0.90161023695E+03 0.  0.
        5    1    3    3  502    0  0.15321371754E+03 -0.57206803657E+02  0.16012896986E+03  0.22893326236E+03  0.46999998093E+01 0. -1.
       -5    1    3    3    0  502 -0.15321371754E+03  0.57206803657E+02 -0.96780806080E+03  0.98154041902E+03  0.46999998093E+01 0.  1.
</event>
<event>
 5   0  0.1630202E-03  0.9033698E+03  0.7818609E-02  0.9421379E-01
       -2   -1    0    0    0  501  0.00000000000E+00  0.00000000000E+00  0.59174457203E+03  0.59174457204E+03  0.25500000920E-02 0.  1.
        2   -1    0    0  501    0  0.00000000000E+00  0.00000000000E+00 -0.34477586549E+03  0.34477586550E+03  0.25500000920E-02 0. -1.
    10030    2    1    2    0    0  0.00000000000E+00  0.00000000000E+00  0.24696870654E+03  0.93652043754E+03  0.90336979578E+03 0.  0.
        4    1    3    3  502    0 -0.30825922397E+03 -0.24628022153E+03 -0.10444734974E+03  0.40815261661E+03  0.12699999809E+01 0. -1.
       -4    1    3    3    0  502  0.30825922397E+03  0.24628022153E+03  0.35141605628E+03  0.52836782093E+03  0.12699999809E+01 0.  1.
</event>
<event>
 5   0  0.1635686E-03  0.8999924E+03  0.7818609E-02  0.9425591E-01
       -2   -1    0    0    0  501  0.00000000000E+00  0.00000000000E+00  0.21565296599E+03  0.21565296601E+03  0.25500000920E-02 0.  1.
        2   -1    0    0  501    0  0.00000000000E+00  0.00000000000E+00 -0.93899282494E+03  0.93899282494E+03  0.25500000920E-02 0. -1.
    10030    2    1    2    0    0  0.00000000000E+00  0.00000000000E+00 -0.72333985895E+03  0.11546457909E+04  0.89999241720E+03 0.  0.
        5    1    3    3  502    0  0.39659062124E+03  0.18717628239E+03 -0.23238175894E+03  0.49632897702E+03  0.46999998093E+01 0.  1.
       -5    1    3    3    0  502 -0.39659062124E+03 -0.18717628239E+03 -0.49095810001E+03  0.65831681393E+03  0.46999998093E+01 0. -1.
</event>
<event>
 5   0  0.1641516E-03  0.9008758E+03  0.7818609E-02  0.9424487E-01
        2   -1    0    0  501    0  0.00000000000E+00  0.00000000000E+00  0.18374359764E+04  0.18374359764E+04  0.25500000920E-02 0. -1.
       -2   -1    0    0    0  501  0.00000000000E+00  0.00000000000E+00 -0.11042251600E+03  0.11042251602E+03  0.25500000920E-02 0.  1.
    10030    2    1    2    0    0  0.00000000000E+00  0.00000000000E+00  0.17270134604E+04  0.19478584925E+04  0.90087580394E+03 0.  0.
        1    1    3    3  502    0 -0.14251702186E+03 -0.21878135948E+01  0.17873902013E+04  0.17930643100E+04  0.50400001928E-02 0. -1.
       -1    1    3    3    0  502  0.14251702186E+03  0.21878135948E+01 -0.60376740897E+02  0.15479418243E+03  0.50400001928E-02 0.  1.
</event>
<event>
 5   0  0.1641516E-03  0.8979116E+03  0.7818609E-02  0.9428196E-01
        2   -1    0    0  501    0  0.00000000000E+00  0.00000000000E+00  0.65311497136E+03  0.65311497136E+03  0.25500000920E-02 0.  1.
       -2   -1    0    0    0  501  0.00000000000E+00  0.00000000000E+00 -0.30861537508E+03  0.30861537509E+03  0.25500000920E-02 0. -1.
    10030    2    1    2    0    0  0.00000000000E+00  0.00000000000E+00  0.34449959628E+03  0.96173034645E+03  0.89791162563E+03 0.  0.
        1    1    3    3  502    0  0.23601629819E+03 -0.54033889257E+02  0.57719245391E+03  0.62591891094E+03  0.50400001928E-02 0.  1.
       -1    1    3    3    0  502 -0.23601629819E+03  0.54033889257E+02 -0.23269285763E+03  0.33581143551E+03  0.50400001928E-02 0. -1.
</event>
<event>
 5   0  0.9697941E-04  0.9002775E+03  0.7818609E-02  0.9425235E-01
       -1   -1    0    0    0  501  0.00000000000E+00  0.00000000000E+00  0.35049437673E+03  0.35049437677E+03  0.50400001928E-02 0.  1.
        1   -1    0    0  501    0  0.00000000000E+00  0.00000000000E+00 -0.57811166956E+03  0.57811166958E+03  0.50400001928E-02 0. -1.
    10030    2    1    2    0    0  0.00000000000E+00  0.00000000000E+00 -0.22761729283E+03  0.92860604635E+03  0.90027748907E+03 0.  0.
        5    1    3    3  502    0 -0.12575938635E+03  0.48328642664E+02  0.32918395084E+03  0.35571792821E+03  0.46999998093E+01 0.  1.
       -5    1    3    3    0  502  0.12575938635E+03 -0.48328642664E+02 -0.55680124367E+03  0.57288811814E+03  0.46999998093E+01 0. -1.
</event>
<event>
 5   0  0.9697941E-04  0.8976477E+03  0.7818609E-02  0.9428527E-01
       -1   -1    0    0    0  501  0.00000000000E+00  0.00000000000E+00  0.29579516911E+03  0.29579516915E+03  0.50400001928E-02 0.  1.
        1   -1    0    0  501    0  0.00000000000E+00  0.00000000000E+00 -0.68102135378E+03  0.68102135380E+03  0.50400001928E-02 0. -1.
    10030    2    1    2    0    0  0.00000000000E+00  0.00000000000E+00 -0.38522618467E+03  0.97681652295E+03  0.89764765145E+03 0.  0.
        5    1    3    3  502    0  0.84401296963E+02 -0.35327640920E+03  0.94251818896E+02  0.37527762469E+03  0.46999998093E+01 0.  1.
       -5    1    3    3    0  502 -0.84401296963E+02  0.35327640920E+03 -0.47947800356E+03  0.60153889826E+03  0.46999998093E+01 0. -1.
</event>
<event>
 5   0  0.1630202E-03  0.8985668E+03  0.7818609E-02  0.9427375E-01
       -2   -1    0    0    0  501  0.00000000000E+00  0.00000000000E+00  0.15652767969E+03  0.15652767971E+03  0.25500000920E-02 0. -1.
        2   -1    0    0  501    0  0.00000000000E+00  0.00000000000E+00 -0.12895840207E+04  0.12895840207E+04  0.25500000920E-02 0.  1.
    10030    2    1    2    0    0  0.00000000000E+00  0.00000000000E+00 -0.11330563410E+04  0.14461117004E+04  0.89856684680E+03 0.  0.
        4    1    3    3  502    0  0.18108094698E+03  0.72965929241E+01 -0.12281475306E+04  0.12414473487E+04  0.12699999809E+01 0.  1.
       -4    1    3    3    0  502 -0.18108094698E+03 -0.72965929241E+01  0.95091189630E+02  0.20466435174E+03  0.12699999809E+01 0. -1.
</event>
<event>
 5   0  0.9981885E-04  0.8997381E+03  0.7818609E-02  0.9425909E-01
        1   -1    0    0  501    0  0.00000000000E+00  0.00000000000E+00  0.91962791683E+03  0.91962791684E+03  0.50400001928E-02 0.  1.
       -1   -1    0    0    0  501  0.00000000000E+00  0.00000000000E+00 -0.22006959616E+03  0.22006959622E+03  0.50400001928E-02 0. -1.
    10030    2    1    2    0    0  0.00000000000E+00  0.00000000000E+00  0.69955832067E+03  0.11396975131E+04  0.89973806036E+03 0.  0.
        4    1    3    3  502    0  0.39228308507E+03 -0.19678087439E+03  0.47499543948E+03  0.64670782568E+03  0.12699999809E+01 0.  1.
       -4    1    3    3    0  502 -0.39228308507E+03  0.19678087439E+03  0.22456288119E+03  0.49298968738E+03  0.12699999809E+01 0. -1.
</event>
<event>
 5   0  0.1630202E-03  0.9052189E+03  0.7818609E-02  0.9419081E-01
       -2   -1    0    0    0  501  0.00000000000E+00  0.00000000000E+00  0.13643340254E+03  0.13643340256E+03  0.25500000920E-02 0.  1.
        2   -1    0    0  501    0  0.00000000000E+00  0.00000000000E+00 -0.15015042716E+04  0.15015042716E+04  0.25500000920E-02 0. -1.
    10030    2    1    2    0    0  0.00000000000E+00  0.00000000000E+00 -0.13650708690E+04  0.16379376741E+04  0.90521894968E+03 0.  0.
        4    1    3    3  502    0 -0.42633439565E+03  0.60511596755E+02 -0.93476262931E+03  0.10291770772E+04  0.12699999809E+01 0. -1.
       -4    1    3    3    0  502  0.42633439565E+03 -0.60511596755E+02 -0.43030823974E+03  0.60876059691E+03  0.12699999809E+01 0.  1.
</event>
<event>
 5   0  0.9321543E-04  0.9075421E+03  0.7818609E-02  0.9416202E-01
       -1   -1    0    0    0  501  0.00000000000E+00  0.00000000000E+00  0.31954027672E+03  0.31954027676E+03  0.50400001928E-02 0.  1.
        1   -1    0    0  501    0  0.00000000000E+00  0.00000000000E+00 -0.64438870572E+03  0.64438870574E+03  0.50400001928E-02 0. -1.
    10030    2    1    2    0    0  0.00000000000E+00  0.00000000000E+00 -0.32484842900E+03  0.96392898250E+03  0.90754205494E+03 0.  0.
        3    1    3    3  502    0  0.97965808768E+02  0.44102869869E+03 -0.20754320970E+03  0.49716979680E+03  0.10100000352E+00 0. -1.
       -3    1    3    3    0  502 -0.97965808768E+02 -0.44102869869E+03 -0.11730521930E+03  0.46675918570E+03  0.10100000352E+00 0.  1.
</event>
<event>
 5   0  0.9981885E-04  0.9001886E+03  0.7818609E-02  0.9425346E-01
       -1   -1    0    0    0  501  0.00000000000E+00  0.00000000000E+00  0.41638919139E+03  0.41638919142E+03  0.50400001928E-02 0. -1.
        1   -1    0    0  501    0  0.00000000000E+00  0.00000000000E+00 -0.48652774502E+03  0.48652774505E+03  0.50400001928E-02 0.  1.
    10030    2    1    2    0    0  0.00000000000E+00  0.00000000000E+00 -0.70138553637E+02  0.90291693647E+03  0.90018863437E+03 0.  0.
        4    1    3    3  502    0  0.37107586170E+02  0.12798905606E+02  0.41466729841E+03  0.41652294800E+03  0.12699999809E+01 0. -1.
       -4    1    3    3    0  502 -0.37107586170E+02 -0.12798905606E+02 -0.48480585205E+03  0.48639398847E+03  0.12699999809E+01 0.  1.
</event>
<event>
 5   0  0.1007561E-03  0.9002087E+03  0.7818609E-02  0.9425321E-01
       -1   -1    0    0    0  501  0.00000000000E+00  0.00000000000E+00  0.28369706442E+03  0.28369706446E+03  0.50400001928E-02 0. -1.
        1   -1    0    0  501    0  0.00000000000E+00  0.00000000000E+00 -0.71412059882E+03  0.71412059884E+03  0.50400001928E-02 0.  1.
    10030    2    1    2    0    0  0.00000000000E+00  0.00000000000E+00 -0.43042353440E+03  0.99781766330E+03  0.90020868148E+03 0.  0.
        2    1    3    3  502    0 -0.42533335357E+03  0.12727583380E+03 -0.13311076098E+03  0.46349333784E+03  0.25500000920E-02 0.  1.
       -2    1    3    3    0  502  0.42533335357E+03 -0.12727583380E+03 -0.29731277342E+03  0.53432432546E+03  0.25500000920E-02 0. -1.
</event>
<event>
 5   0  0.1641516E-03  0.9008644E+03  0.7818609E-02  0.9424502E-01
       -2   -1    0    0    0  501  0.00000000000E+00  0.00000000000E+00  0.13856142550E+04  0.13856142550E+04  0.25500000920E-02 0. -1.
        2   -1    0    0  501    0  0.00000000000E+00  0.00000000000E+00 -0.14642543311E+03  0.14642543313E+03  0.25500000920E-02 0.  1.
    10030    2    1    2    0    0  0.00000000000E+00  0.00000000000E+00  0.12391888219E+04  0.15320396881E+04  0.90086440140E+03 0.  0.
        1    1    3    3  502    0  0.22224858347E+03 -0.35201528349E+03  0.91208337865E+03  0.10025992631E+04  0.50400001928E-02 0. -1.
       -1    1    3    3    0  502 -0.22224858347E+03  0.35201528349E+03  0.32710544321E+03  0.52944042504E+03  0.50400001928E-02 0.  1.
</event>
<event>
 5   0  0.9223454E-04  0.8992641E+03  0.7818609E-02  0.9426502E-01
        1   -1    0    0  501    0  0.00000000000E+00  0.00000000000E+00  0.13738274337E+04  0.13738274337E+04  0.50400001928E-02 0. -1.
       -1   -1    0    0    0  501  0.00000000000E+00  0.00000000000E+00 -0.14715746171E+03  0.14715746180E+03  0.50400001928E-02 0.  1.
    10030    2    1    2    0    0  0.00000000000E+00  0.00000000000E+00  0.12266699720E+04  0.15209848955E+04  0.89926405031E+03 0.  0.
        1    1    3    3  502    0  0.43216775824E+02 -0.15762375470E+03  0.13218055430E+04  0.13318719276E+04  0.50400001928E-02 0. -1.
       -1    1    3    3    0  502 -0.43216775824E+02  0.15762375470E+03 -0.95135571025E+02  0.18911296798E+03  0.50400001928E-02 0.  1.
</event>
<event>
 5   0  0.1641516E-03  0.8985431E+03  0.7818609E-02  0.9427405E-01
       -2   -1    0    0    0  501  0.00000000000E+00  0.00000000000E+00  0.27426246080E+03  0.27426246081E+03  0.25500000920E-02 0. -1.
        2   -1    0    0  501    0  0.00000000000E+00  0.00000000000E+00 -0.73595528256E+03  0.73595528257E+03  0.25500000920E-02 0.  1.
    10030    2    1    2    0    0  0.00000000000E+00  0.00000000000E+00 -0.46169282177E+03  0.10102177434E+04  0.89854305815E+03 0.  0.
        1    1    3    3  502    0  0.40336065959E+03  0.19622621813E+03 -0.20239610210E+03  0.49210642402E+03  0.50400001928E-02 0. -1.
       -1    1    3    3    0  502 -0.40336065959E+03 -0.19622621813E+03 -0.25929671966E+03  0.51811131935E+03  0.50400001928E-02 0.  1.
</event>
<event>
 5   0  0.1536020E-03  0.8984930E+03  0.7818609E-02  0.9427467E-01
       -2   -1    0    0    0  501  0.00000000000E+00  0.00000000000E+00  0.37378769849E+03  0.37378769850E+03  0.25500000920E-02 0.  1.
        2   -1    0    0  501    0  0.00000000000E+00  0.00000000000E+00 -0.53993860444E+03  0.53993860445E+03  0.25500000920E-02 0. -1.
    10030    2    1    2    0    0  0.00000000000E+00  0.00000000000E+00 -0.16615090595E+03  0.91372630295E+03  0.89849297891E+03 0.  0.
        2    1    3    3  502    0  0.40680432566E+02 -0.25774012507E+03  0.28882619439E+03  0.38923699752E+03  0.25500000920E-02 0.  1.
       -2    1    3    3    0  502 -0.40680432566E+02  0.25774012507E+03 -0.45497710034E+03  0.52448930543E+03  0.25500000920E-02 0. -1.
</event>
<event>
 5   0  0.1630202E-03  0.8985699E+03  0.7818609E-02  0.9427371E-01
       -2   -1    0    0    0  501  0.00000000000E+00  0.00000000000E+00  0.70183388221E+03  0.70183388221E+03  0.25500000920E-02 0. -1.
        2   -1    0    0  501    0  0.00000000000E+00  0.00000000000E+00 -0.28761359919E+03  0.28761359920E+03  0.25500000920E-02 0.  1.
    10030    2    1    2    0    0  0.00000000000E+00  0.00000000000E+00  0.41422028302E+03  0.98944748141E+03  0.89856990580E+03 0.  0.
        4    1    3    3  502    0  0.57640113555E+02 -0.33393519184E+03 -0.11771607126E+03  0.35873915505E+03  0.12699999809E+01 0.  1.
       -4    1    3    3    0  502 -0.57640113555E+02  0.33393519184E+03  0.53193635428E+03  0.63070832636E+03  0.12699999809E+01 0. -1.
</event>
<event>
 5   0  0.1007561E-03  0.9008141E+03  0.7818609E-02  0.9424564E-01
        1   -1    0    0  501    0  0.00000000000E+00  0.00000000000E+00  0.72800694507E+03  0.72800694509E+03  0.50400001928E-02 0.  1.
       -1   -1    0    0    0  501  0.00000000000E+00  0.00000000000E+00 -0.27866011209E+03  0.27866011214E+03  0.50400001928E-02 0. -1.
    10030    2    1    2    0    0  0.00000000000E+00  0.00000000000E+00  0.44934683298E+03  0.10066670572E+04  0.90081406949E+03 0.  0.
        2    1    3    3  502    0 -0.43464806955E+03 -0.95964020978E+02  0.14774810358E+03  0.46899631107E+03  0.25500000920E-02 0. -1.
       -2    1    3    3    0  502  0.43464806955E+03  0.95964020978E+02  0.30159872941E+03  0.53767074616E+03  0.25500000920E-02 0.  1.
</event>
<event>
 5   0  0.9223454E-04  0.8971906E+03  0.7818609E-02  0.9429100E-01
        1   -1    0    0  501    0  0.00000000000E+00  0.00000000000E+00  0.12260100449E+04  0.12260100449E+04  0.50400001928E-02 0.  1.
       -1   -1    0    0    0  501  0.00000000000E+00  0.00000000000E+00 -0.16414035582E+03  0.16414035589E+03  0.50400001928E-02 0. -1.
    10030    2    1    2    0    0  0.00000000000E+00  0.00000000000E+00  0.10618696891E+04  0.13901504008E+04  0.89719055961E+03 0.  0.
        1    1    3    3  502    0 -0.96234045071E+02  0.42068610910E+03  0.34116739188E+03  0.55012088047E+03  0.50400001928E-02 0. -1.
       -1    1    3    3    0  502  0.96234045071E+02 -0.42068610910E+03  0.72070229720E+03  0.84002952033E+03  0.50400001928E-02 0.  1.
</event>
<event>
 5   0  0.1630202E-03  0.9008917E+03  0.7818609E-02  0.9424467E-01
       -2   -1    0    0    0  501  0.00000000000E+00  0.00000000000E+00  0.11339399459E+03  0.11339399462E+03  0.25500000920E-02 0.  1.
        2   -1    0    0  501    0  0.00000000000E+00  0.00000000000E+00 -0.17893494076E+04  0.17893494076E+04  0.25500000920E-02 0. -1.
    10030    2    1    2    0    0  0.00000000000E+00  0.00000000000E+00 -0.16759554130E+04  0.19027434022E+04  0.90089172951E+03 0.  0.
        4    1    3    3  502    0  0.28421246542E+03 -0.30082774040E+03 -0.46237522874E+03  0.62053728328E+03  0.12699999809E+01 0.  1.
       -4    1    3    3    0  502 -0.28421246542E+03  0.30082774040E+03 -0.12135801842E+04  0.12822061189E+04  0.12699999809E+01 0. -1.
</event>
<event>
 5   0  0.1635686E-03  0.8991371E+03  0.7818609E-02  0.9426661E-01
        2   -1    0    0  501    0  0.00000000000E+00  0.00000000000E+00  0.20042328205E+04  0.20042328205E+04  0.25500000920E-02 0.  1.
       -2   -1    0    0    0  501  0.00000000000E+00  0.00000000000E+00 -0.10084250705E+03  0.10084250708E+03  0.25500000920E-02 0. -1.
    10030    2    1    2    0    0  0.00000000000E+00  0.00000000000E+00  0.19033903134E+04  0.21050753276E+04  0.89913705822E+03 0.  0.
        5    1    3    3  502    0 -0.33369552495E+03 -0.15052995547E+03  0.15625591187E+04  0.16048754034E+04  0.46999998093E+01 0.  1.
       -5    1    3    3    0  502  0.33369552495E+03  0.15052995547E+03  0.34083119468E+03  0.50019992416E+03  0.46999998093E+01 0. -1.
</event>
<event>
 5   0  0.1007561E-03  0.9004177E+03  0.7818609E-02  0.9425059E-01
       -1   -1    0    0    0  501  0.00000000000E+00  0.00000000000E+00  0.24855309146E+03  0.24855309151E+03  0.50400001928E-02 0. -1.
        1   -1    0    0  501    0  0.00000000000E+00  0.00000000000E+00 -0.81547171406E+03  0.81547171407E+03  0.50400001928E-02 0.  1.
    10030    2    1    2    0    0  0.00000000000E+00  0.00000000000E+00 -0.56691862259E+03  0.10640248056E+04  0.90041771543E+03 0.  0.
        2    1    3    3  502    0  0.40136468639E+03  0.16465606238E+03 -0.14124812260E+03  0.45624145198E+03  0.25500000920E-02 0. -1.
       -2    1    3    3    0  502 -0.40136468639E+03 -0.16465606238E+03 -0.42567049999E+03  0.60778335361E+03  0.25500000920E-02 0.  1.
</event>
<event>
 5   0  0.6375625E-04  0.9004025E+03  0.7818609E-02  0.9425078E-01
        3   -1    0    0  501    0  0.00000000000E+00  0.00000000000E+00  0.21053410361E+03  0.21053412784E+03  0.10100000352E+00 0. -1.
       -3   -1    0    0    0  501  0.00000000000E+00  0.00000000000E+00 -0.96269985960E+03  0.96269986489E+03  0.10100000352E+00 0.  1.
    10030    2    1    2    0    0  0.00000000000E+00  0.00000000000E+00 -0.75216575598E+03  0.11732339927E+04  0.90040250845E+03 0.  0.
        4    1    3    3  502    0 -0.14126800556E+03 -0.12922956801E+03  0.15484017176E+03  0.24623976594E+03  0.12699999809E+01 0. -1.
       -4    1    3    3    0  502  0.14126800556E+03  0.12922956801E+03 -0.90700592774E+03  0.92699422679E+03  0.12699999809E+01 0.  1.
</event>
<event>
 5   0  0.9321543E-04  0.8996268E+03  0.7818609E-02  0.9426048E-01
        1   -1    0    0  501    0  0.00000000000E+00  0.00000000000E+00  0.11370313095E+04  0.11370313095E+04  0.50400001928E-02 0.  1.
       -1   -1    0    0    0  501  0.00000000000E+00  0.00000000000E+00 -0.17794767272E+03  0.17794767279E+03  0.50400001928E-02 0. -1.
    10030    2    1    2    0    0  0.00000000000E+00  0.00000000000E+00  0.95908363679E+03  0.13149789823E+04  0.89962675681E+03 0.  0.
        3    1    3    3  502    0  0.32017207390E+03  0.18109998021E+03  0.10112197235E+03  0.38148790705E+03  0.10100000352E+00 0. -1.
       -3    1    3    3    0  502 -0.32017207390E+03 -0.18109998021E+03  0.85796166444E+03  0.93349107526E+03  0.10100000352E+00 0.  1.
</event>
<event>
 5   0  0.1536020E-03  0.9004844E+03  0.7818609E-02  0.9424976E-01
       -2   -1    0    0    0  501  0.00000000000E+00  0.00000000000E+00  0.22432833198E+03  0.22432833199E+03  0.25500000920E-02 0. -1.
        2   -1    0    0  501    0  0.00000000000E+00  0.00000000000E+00 -0.90366658810E+03  0.90366658811E+03  0.25500000920E-02 0.  1.
    10030    2    1    2    0    0  0.00000000000E+00  0.00000000000E+00 -0.67933825613E+03  0.11279949201E+04  0.90048435496E+03 0.  0.
        2    1    3    3  502    0 -0.17706622908E+03  0.39341205966E+03 -0.50102588244E+03  0.66117503965E+03  0.25500000920E-02 0.  1.
       -2    1    3    3    0  502  0.17706622908E+03 -0.39341205966E+03 -0.17831237369E+03  0.46681988045E+03  0.25500000920E-02 0. -1.
</event>
<event>
 5   0  0.1630202E-03  0.8982766E+03  0.7818609E-02  0.9427738E-01
        2   -1    0    0  501    0  0.00000000000E+00  0.00000000000E+00  0.39830129570E+03  0.39830129571E+03  0.25500000920E-02 0. -1.
       -2   -1    0    0    0  501  0.00000000000E+00  0.00000000000E+00 -0.50646387899E+03  0.50646387899E+03  0.25500000920E-02 0.  1.
    10030    2    1    2    0    0  0.00000000000E+00  0.00000000000E+00 -0.10816258329E+03  0.90476517470E+03  0.89827661493E+03 0.  0.
        4    1    3    3  502    0 -0.55711610821E+02 -0.23461818589E+03 -0.43573007139E+03  0.49800781595E+03  0.12699999809E+01 0.  1.
       -4    1    3    3    0  502  0.55711610821E+02  0.23461818589E+03  0.32756748811E+03  0.40675735875E+03  0.12699999809E+01 0. -1.
</event>
<event>
 5   0  0.9223454E-04  0.8998324E+03  0.7818609E-02  0.9425791E-01
       -1   -1    0    0    0  501  0.00000000000E+00  0.00000000000E+00  0.22768447928E+03  0.22768447934E+03  0.50400001928E-02 0. -1.
        1   -1    0    0  501    0  0.00000000000E+00  0.00000000000E+00 -0.88905751901E+03  0.88905751903E+03  0.50400001928E-02 0.  1.
    10030    2    1    2    0    0  0.00000000000E+00  0.00000000000E+00 -0.66137303973E+03  0.11167419984E+04  0.89983242508E+03 0.  0.
        1    1    3    3  502    0 -0.11313615541E+03 -0.37431490848E+03 -0.54532401916E+02  0.39482302777E+03  0.50400001928E-02 0. -1.
       -1    1    3    3    0  502  0.11313615541E+03  0.37431490848E+03 -0.60684063782E+03  0.72191897059E+03  0.50400001928E-02 0.  1.
</event>
<event>
 5   0  0.9223454E-04  0.9086000E+03  0.7818609E-02  0.9414894E-01
        1   -1    0    0  501    0  0.00000000000E+00  0.00000000000E+00  0.46965358813E+03  0.46965358816E+03  0.50400001928E-02 0. -1.
       -1   -1    0    0    0  501  0.00000000000E+00  0.00000000000E+00 -0.43944831477E+03  0.43944831479E+03  0.50400001928E-02 0.  1.
    10030    2    1    2    0    0  0.00000000000E+00  0.00000000000E+00  0.30205273367E+02  0.90910190295E+03  0.90859997326E+03 0.  0.
        1    1    3    3  502    0 -0.20292110054E+03  0.39265604966E+03  0.12019747121E+03  0.45804276928E+03  0.50400001928E-02 0. -1.
       -1    1    3    3    0  502  0.20292110054E+03 -0.39265604966E+03 -0.89992197844E+02  0.45105913368E+03  0.50400001928E-02 0.  1.
</event>
<event>
 5   0  0.1704416E-03  0.8998077E+03  0.7818609E-02  0.9425822E-01
        2   -1    0    0  501    0  0.00000000000E+00  0.00000000000E+00  0.19518852340E+04  0.19518852340E+04  0.25500000920E-02 0.  1.
       -2   -1    0    0    0  501  0.00000000000E+00  0.00000000000E+00 -0.10370152237E+03  0.10370152241E+03  0.25500000920E-02 0. -1.
    10030    2    1    2    0    0  0.00000000000E+00  0.00000000000E+00  0.18481837116E+04  0.20555867564E+04  0.89980769123E+03 0.  0.
        3    1    3    3  502    0 -0.25358228373E+03 -0.11728654445E+03  0.11850038762E+03  0.30348387140E+03  0.10100000352E+00 0. -1.
       -3    1    3    3    0  502  0.25358228373E+03  0.11728654445E+03  0.17296833240E+04  0.17521028850E+04  0.10100000352E+00 0.  1.
</event>
<event>
 5   0  0.9981885E-04  0.8935876E+03  0.7818609E-02  0.9433633E-01
       -1   -1    0    0    0  501  0.00000000000E+00  0.00000000000E+00  0.44998628282E+03  0.44998628285E+03  0.50400001928E-02 0. -1.
        1   -1    0    0  501    0  0.00000000000E+00  0.00000000000E+00 -0.44362396703E+03  0.44362396706E+03  0.50400001928E-02 0.  1.
    10030    2    1    2    0    0  0.00000000000E+00  0.00000000000E+00  0.63623157839E+01  0.89361024991E+03  0.89358760045E+03 0.  0.
        4    1    3    3  502    0 -0.26628905903E+03 -0.30956188860E+03 -0.17816472224E+03  0.44551398068E+03  0.12699999809E+01 0.  1.
       -4    1    3    3    0  502  0.26628905903E+03  0.30956188860E+03  0.18452703802E+03  0.44809626923E+03  0.12699999809E+01 0. -1.
</event>
<event>
 5   0  0.9223454E-04  0.8999739E+03  0.7818609E-02  0.9425614E-01
        1   -1    0    0  501    0  0.00000000000E+00  0.00000000000E+00  0.67735766059E+03  0.67735766061E+03  0.50400001928E-02 0.  1.
       -1   -1    0    0    0  501  0.00000000000E+00  0.00000000000E+00 -0.29893844471E+03  0.29893844475E+03  0.50400001928E-02 0. -1.
    10030    2    1    2    0    0  0.00000000000E+00  0.00000000000E+00  0.37841921588E+03  0.97629610536E+03  0.89997387873E+03 0.  0.
        1    1    3    3  502    0  0.46787605936E+02 -0.31647763348E+02  0.67349645050E+03  0.67586102850E+03  0.50400001928E-02 0.  1.
       -1    1    3    3    0  502 -0.46787605936E+02  0.31647763348E+02 -0.29507723461E+03  0.30043507686E+03  0.50400001928E-02 0. -1.
</event>
<event>
 5   0  0.6375625E-04  0.9021403E+03  0.7818609E-02  0.9422910E-01
        3   -1    0    0  501    0  0.00000000000E+00  0.00000000000E+00  0.38260965136E+03  0.38260966469E+03  0.10100000352E+00 0. -1.
       -3   -1    0    0    0  501  0.00000000000E+00  0.00000000000E+00 -0.53178024851E+03  0.53178025810E+03  0.10100000352E+00 0.  1.
    10030    2    1    2    0    0  0.00000000000E+00  0.00000000000E+00 -0.14917059715E+03  0.91438992279E+03  0.90214026838E+03 0.  0.
        1    1    3    3  502    0 -0.13754435190E+03 -0.26213172274E+03 -0.41954875998E+03  0.51347117819E+03  0.50400001928E-02 0.  1.
       -1    1    3    3    0  502  0.13754435190E+03  0.26213172274E+03  0.27037816283E+03  0.40091874460E+03  0.50400001928E-02 0. -1.
</event>
<event>
 5   0  0.9223454E-04  0.9005508E+03  0.7818609E-02  0.9424893E-01
       -1   -1    0    0    0  501  0.00000000000E+00  0.00000000000E+00  0.13408189909E+03  0.13408189919E+03  0.50400001928E-02 0. -1.
        1   -1    0    0  501    0  0.00000000000E+00  0.00000000000E+00 -0.15121202213E+04  0.15121202213E+04  0.50400001928E-02 0.  1.
    10030    2    1    2    0    0  0.00000000000E+00  0.00000000000E+00 -0.13780383222E+04  0.16462021205E+04  0.90055083369E+03 0.  0.
        1    1    3    3  502    0  0.36510833742E+03 -0.68460889202E+02 -0.11541960707E+04  0.12125013654E+04  0.50400001928E-02 0.  1.
       -1    1    3    3    0  502 -0.36510833742E+03  0.68460889202E+02 -0.22384225152E+03  0.43370075513E+03  0.50400001928E-02 0. -1.
</event>
<event>
 5   0  0.9321543E-04  0.9003629E+03  0.7818609E-02  0.9425128E-01
       -1   -1    0    0    0  501  0.00000000000E+00  0.00000000000E+00  0.71698742355E+03  0.71698742357E+03  0.50400001928E-02 0.  1.
        1   -1    0    0  501    0  0.00000000000E+00  0.00000000000E+00 -0.28265955120E+03  0.28265955125E+03  0.50400001928E-02 0. -1.
    10030    2    1    2    0    0  0.00000000000E+00  0.00000000000E+00  0.43432787235E+03  0.99964697482E+03  0.90036291214E+03 0.  0.
        3    1    3    3  502    0 -0.42359978052E+03 -0.75596622376E+02  0.70239736087E+02  0.43598767654E+03  0.10100000352E+00 0. -1.
       -3    1    3    3    0  502  0.42359978052E+03  0.75596622376E+02  0.36408813627E+03  0.56365929828E+03  0.10100000352E+00 0.  1.
</event>
<event>
 5   0  0.1635686E-03  0.9016091E+03  0.7818609E-02  0.9423572E-01
        2   -1    0    0  501    0  0.00000000000E+00  0.00000000000E+00  0.12852145681E+04  0.12852145681E+04  0.25500000920E-02 0.  1.
       -2   -1    0    0    0  501  0.00000000000E+00  0.00000000000E+00 -0.15812514483E+03  0.15812514485E+03  0.25500000920E-02 0. -1.
    10030    2    1    2    0    0  0.00000000000E+00  0.00000000000E+00  0.11270894232E+04  0.14433397129E+04  0.90160909429E+03 0.  0.
        5    1    3    3  502    0 -0.38572070463E+03  0.17262100799E+03  0.81475135765E+03  0.91783459249E+03  0.46999998093E+01 0. -1.
       -5    1    3    3    0  502  0.38572070463E+03 -0.17262100799E+03  0.31233806558E+03  0.52550512042E+03  0.46999998093E+01 0.  1.
</event>
<event>
 5   0  0.9981885E-04  0.8998008E+03  0.7818609E-02  0.9425830E-01
       -1   -1    0    0    0  501  0.00000000000E+00  0.00000000000E+00  0.67799156528E+03  0.67799156530E+03  0.50400001928E-02 0.  1.
        1   -1    0    0  501    0  0.00000000000E+00  0.00000000000E+00 -0.29854406902E+03  0.29854406906E+03  0.50400001928E-02 0. -1.
    10030    2    1    2    0    0  0.00000000000E+00  0.00000000000E+00  0.37944749626E+03  0.97653563436E+03  0.89980077949E+03 0.  0.
        4    1    3    3  502    0 -0.59779104479E+02  0.35313180316E+03  0.48521723769E+03  0.60308622301E+03  0.12699999809E+01 0.  1.
       -4    1    3    3    0  502  0.59779104479E+02 -0.35313180316E+03 -0.10576974144E+03  0.37344941135E+03  0.12699999809E+01 0. -1.
</event>
<event>
 5   0  0.9223454E-04  0.8994354E+03  0.7818609E-02  0.9426287E-01
       -1   -1    0    0    0  501  0.00000000000E+00  0.00000000000E+00  0.70812806455E+03  0.70812806457E+03  0.50400001928E-02 0. -1.
        1   -1    0    0  501    0  0.00000000000E+00  0.00000000000E+00 -0.28560657542E+03  0.28560657546E+03  0.50400001928E-02 0.  1.
    10030    2    1    2    0    0  0.00000000000E+00  0.00000000000E+00  0.42252148913E+03  0.99373464003E+03  0.89943544850E+03 0.  0.
        1    1    3    3  502    0 -0.39537186080E+03  0.21180572360E+03  0.24732431502E+03  0.51220102469E+03  0.50400001928E-02 0. -1.
       -1    1    3    3    0  502  0.39537186080E+03 -0.21180572360E+03  0.17519717411E+03  0.48153361534E+03  0.50400001928E-02 0.  1.
</event>
<event>
 5   0  0.9223454E-04  0.8969277E+03  0.7818609E-02  0.9429430E-01
       -1   -1    0    0    0  501  0.00000000000E+00  0.00000000000E+00  0.18621343314E+03  0.18621343321E+03  0.50400001928E-02 0.  1.
        1   -1    0    0  501    0  0.00000000000E+00  0.00000000000E+00 -0.10800500928E+04  0.10800500928E+04  0.50400001928E-02 0. -1.
    10030    2    1    2    0    0  0.00000000000E+00  0.00000000000E+00 -0.89383665967E+03  0.12662635260E+04  0.89692772461E+03 0.  0.
        1    1    3    3  502    0  0.13242039333E+03  0.97132187114E+02 -0.10360717525E+04  0.10490064341E+04  0.50400001928E-02 0. -1.
       -1    1    3    3    0  502 -0.13242039333E+03 -0.97132187114E+02  0.14223509284E+03  0.21725709196E+03  0.50400001928E-02 0.  1.
</event>
<event>
 5   0  0.1635686E-03  0.8984878E+03  0.7818609E-02  0.9427474E-01
        2   -1    0    0  501    0  0.00000000000E+00  0.00000000000E+00  0.27592671377E+03  0.27592671378E+03  0.25500000920E-02 0. -1.
       -2   -1    0    0    0  501  0.00000000000E+00  0.00000000000E+00 -0.73142637124E+03  0.73142637125E+03  0.25500000920E-02 0.  1.
    10030    2    1    2    0    0  0.00000000000E+00  0.00000000000E+00 -0.45549965747E+03  0.10073530850E+04  0.89848778510E+03 0.  0.
        5    1    3    3  502    0  0.24968968165E+03  0.22566487754E+03  0.10583852330E+03  0.35283630353E+03  0.46999998093E+01 0. -1.
       -5    1    3    3    0  502 -0.24968968165E+03 -0.22566487754E+03 -0.56133818077E+03  0.65451678150E+03  0.46999998093E+01 0.  1.
</event>
<event>
 5   0  0.1630202E-03  0.9007568E+03  0.7818609E-02  0.9424636E-01
        2   -1    0    0  501    0  0.00000000000E+00  0.00000000000E+00  0.66672905032E+03  0.66672905032E+03  0.25500000920E-02 0.  1.
       -2   -1    0    0    0  501  0.00000000000E+00  0.00000000000E+00 -0.30423260038E+03  0.30423260040E+03  0.25500000920E-02 0. -1.
    10030    2    1    2    0    0  0.00000000000E+00  0.00000000000E+00  0.36249644993E+03  0.97096165072E+03  0.90075682121E+03 0.  0.
        4    1    3    3  502    0  0.44558301130E+03  0.61809342815E+02  0.20472864005E+03  0.49424694615E+03  0.12699999809E+01 0.  1.
       -4    1    3    3    0  502 -0.44558301130E+03 -0.61809342815E+02  0.15776780988E+03  0.47671470457E+03  0.12699999809E+01 0. -1.
</event>
<event>
 5   0  0.9697941E-04  0.8999575E+03  0.7818609E-02  0.9425634E-01
        1   -1    0    0  501    0  0.00000000000E+00  0.00000000000E+00  0.13561962634E+04  0.13561962635E+04  0.50400001928E-02 0.  1.
       -1   -1    0    0    0  501  0.00000000000E+00  0.00000000000E+00 -0.14930058544E+03  0.14930058552E+03  0.50400001928E-02 0. -1.
    10030    2    1    2    0    0  0.00000000000E+00  0.00000000000E+00  0.12068956780E+04  0.15054968490E+04  0.89995754605E+03 0.  0.
        5    1    3    3  502    0 -0.29057392640E+03 -0.85524751353E+02  0.46834713687E+02  0.30653428879E+03  0.46999998093E+01 0. -1.
       -5    1    3    3    0  502  0.29057392640E+03  0.85524751353E+02  0.11600609643E+04  0.11989625602E+04  0.46999998093E+01 0.  1.
</event>
<event>
 5   0  0.1630202E-03  0.9003953E+03  0.7818609E-02  0.9425087E-01
       -2   -1    0    0    0  501  0.00000000000E+00  0.00000000000E+00  0.32727567121E+03  0.32727567122E+03  0.25500000920E-02 0.  1.
        2   -1    0    0  501    0  0.00000000000E+00  0.00000000000E+00 -0.61928812148E+03  0.61928812149E+03  0.25500000920E-02 0. -1.
    10030    2    1    2    0    0  0.00000000000E+00  0.00000000000E+00 -0.29201245027E+03  0.94656379271E+03  0.90039532570E+03 0.  0.
        4    1    3    3  502    0  0.43606484547E+03  0.44980301353E+01 -0.26355907648E+03  0.50954664303E+03  0.12699999809E+01 0. -1.
       -4    1    3    3    0  502 -0.43606484547E+03 -0.44980301353E+01 -0.28453373798E+02  0.43701714968E+03  0.12699999809E+01 0.  1.
</event>
<event>
 5   0  0.9321543E-04  0.9000661E+03  0.7818609E-02  0.9425499E-01
        1   -1    0    0  501    0  0.00000000000E+00  0.00000000000E+00  0.74882166562E+03  0.74882166563E+03  0.50400001928E-02 0. -1.
       -1   -1    0    0    0  501  0.00000000000E+00  0.00000000000E+00 -0.27046461031E+03  0.27046461036E+03  0.50400001928E-02 0.  1.
    10030    2    1    2    0    0  0.00000000000E+00  0.00000000000E+00  0.47835705531E+03  0.10192862760E+04  0.90006613094E+03 0.  0.
        3    1    3    3  502    0 -0.17943182202E+03  0.14722997905E+03 -0.19745279117E+03  0.30472948729E+03  0.10100000352E+00 0.  1.
       -3    1    3    3    0  502  0.17943182202E+03 -0.14722997905E+03  0.67580984647E+03  0.71455678870E+03  0.10100000352E+00 0. -1.
</event>
<event>
 5   0  0.1536020E-03  0.8886177E+03  0.7818609E-02  0.9439923E-01
        2   -1    0    0  501    0  0.00000000000E+00  0.00000000000E+00  0.58224764678E+03  0.58224764679E+03  0.25500000920E-02 0. -1.
       -2   -1    0    0    0  501  0.00000000000E+00  0.00000000000E+00 -0.33904875420E+03  0.33904875421E+03  0.25500000920E-02 0.  1.
    10030    2    1    2    0    0  0.00000000000E+00  0.00000000000E+00  0.24319889258E+03  0.92129640099E+03  0.88861766645E+03 0.  0.
        2    1    3    3  502    0 -0.38407127165E+03 -0.22310784529E+03  0.11012506383E+03  0.45761925443E+03  0.25500000920E-02 0. -1.
       -2    1    3    3    0  502  0.38407127165E+03  0.22310784529E+03  0.13307382875E+03  0.46367714656E+03  0.25500000920E-02 0.  1.
</event>
<event>
 5   0  0.1641516E-03  0.8987969E+03  0.7818609E-02  0.9427087E-01
       -2   -1    0    0    0  501  0.00000000000E+00  0.00000000000E+00  0.34313097686E+03  0.34313097687E+03  0.25500000920E-02 0.  1.
        2   -1    0    0  501    0  0.00000000000E+00  0.00000000000E+00 -0.58857689504E+03  0.58857689505E+03  0.25500000920E-02 0. -1.
    10030    2    1    2    0    0  0.00000000000E+00  0.00000000000E+00 -0.24544591818E+03  0.93170787191E+03  0.89879689576E+03 0.  0.
        1    1    3    3  502    0 -0.22758694826E+03 -0.14947909178E+03  0.24788620893E+03  0.36822193104E+03  0.50400001928E-02 0.  1.
       -1    1    3    3    0  502  0.22758694826E+03  0.14947909178E+03 -0.49333212711E+03  0.56348594087E+03  0.50400001928E-02 0. -1.
</event>
<event>
 5   0  0.9981885E-04  0.9003110E+03  0.7818609E-02  0.9425193E-01
        1   -1    0    0  501    0  0.00000000000E+00  0.00000000000E+00  0.88751711510E+03  0.88751711512E+03  0.50400001928E-02 0. -1.
       -1   -1    0    0    0  501  0.00000000000E+00  0.00000000000E+00 -0.22832234533E+03  0.22832234539E+03  0.50400001928E-02 0.  1.
    10030    2    1    2    0    0  0.00000000000E+00  0.00000000000E+00  0.65919476977E+03  0.11158394605E+04  0.90031103354E+03 0.  0.
        4    1    3    3  502    0  0.93874603784E+02  0.81912434540E+02 -0.20652623354E+03  0.24119864471E+03  0.12699999809E+01 0.  1.
       -4    1    3    3    0  502 -0.93874603784E+02 -0.81912434540E+02  0.86572100332E+03  0.87464081579E+03  0.12699999809E+01 0. -1.
</event>
<event>
 5   0  0.1641516E-03  0.9014437E+03  0.7818609E-02  0.9423779E-01
       -2   -1    0    0    0  501  0.00000000000E+00  0.00000000000E+00  0.34378078582E+03  0.34378078583E+03  0.25500000920E-02 0.  1.
        2   -1    0    0  501    0  0.00000000000E+00  0.00000000000E+00 -0.59092942920E+03  0.59092942921E+03  0.25500000920E-02 0. -1.
    10030    2    1    2    0    0  0.00000000000E+00  0.00000000000E+00 -0.24714864339E+03  0.93471021503E+03  0.90144369439E+03 0.  0.
        1    1    3    3  502    0  0.17151166803E+03  0.81051857068E+02  0.30037158517E+03  0.35525870152E+03  0.50400001928E-02 0.  1.
       -1    1    3    3    0  502 -0.17151166803E+03 -0.81051857068E+02 -0.54752022856E+03  0.57945151351E+03  0.50400001928E-02 0. -1.
</event>
<event>
 5   0  0.6375625E-04  0.8874148E+03  0.7818609E-02  0.9441452E-01
        4   -1    0    0  501    0  0.00000000000E+00  0.00000000000E+00  0.66647829113E+03  0.66647950115E+03  0.12699999809E+01 0. -1.
       -4   -1    0    0    0  501  0.00000000000E+00  0.00000000000E+00 -0.29539499135E+03  0.29539772141E+03  0.12699999809E+01 0.  1.
    10030    2    1    2    0    0  0.00000000000E+00  0.00000000000E+00  0.37108329978E+03  0.96187722256E+03  0.88741477106E+03 0.  0.
        3    1    3    3  502    0  0.32988995847E+03  0.35859935450E+02  0.50481307626E+03  0.60411056259E+03  0.10100000352E+00 0. -1.
       -3    1    3    3    0  502 -0.32988995847E+03 -0.35859935450E+02 -0.13372977647E+03  0.35776665997E+03  0.10100000352E+00 0.  1.
</event>
<event>
 5   0  0.1630202E-03  0.8996997E+03  0.7818609E-02  0.9425957E-01
       -2   -1    0    0    0  501  0.00000000000E+00  0.00000000000E+00  0.23601411797E+03  0.23601411799E+03  0.25500000920E-02 0. -1.
        2   -1    0    0  501    0  0.00000000000E+00  0.00000000000E+00 -0.85742708711E+03  0.85742708711E+03  0.25500000920E-02 0.  1.
    10030    2    1    2    0    0  0.00000000000E+00  0.00000000000E+00 -0.62141296913E+03  0.10934412051E+04  0.89969972257E+03 0.  0.
        4    1    3    3  502    0 -0.19121867791E+03  0.36393841578E+03 -0.53264347636E+03  0.67284949214E+03  0.12699999809E+01 0.  1.
       -4    1    3    3    0  502  0.19121867791E+03 -0.36393841578E+03 -0.88769492775E+02  0.42059171296E+03  0.12699999809E+01 0. -1.
</event>
<event>
 5   0  0.1704416E-03  0.8998663E+03  0.7818609E-02  0.9425749E-01
        2   -1    0    0  501    0  0.00000000000E+00  0.00000000000E+00  0.18097394471E+04  0.18097394471E+04  0.25500000920E-02 0. -1.
       -2   -1    0    0    0  501  0.00000000000E+00  0.00000000000E+00 -0.11186130834E+03  0.11186130837E+03  0.25500000920E-02 0.  1.
    10030    2    1    2    0    0  0.00000000000E+00  0.00000000000E+00  0.16978781388E+04  0.19216007555E+04  0.89986626192E+03 0.  0.
        3    1    3    3  502    0  0.13464165779E+03  0.29670824011E+03  0.18635126883E+03  0.37535444763E+03  0.10100000352E+00 0.  1.
       -3    1    3    3    0  502 -0.13464165779E+03 -0.29670824011E+03  0.15115268700E+04  0.15462463079E+04  0.10100000352E+00 0. -1.
</event>
<event>
 5   0  0.1007561E-03  0.9030945E+03  0.7818609E-02  0.9421721E-01
        1   -1    0    0  501    0  0.00000000000E+00  0.00000000000E+00  0.11736516095E+04  0.11736516095E+04  0.50400001928E-02 0.  1.
       -1   -1    0    0    0  501  0.00000000000E+00  0.00000000000E+00 -0.17372694807E+03  0.17372694814E+03  0.50400001928E-02 0. -1.
    10030    2    1    2    0    0  0.00000000000E+00  0.00000000000E+00  0.99992466139E+03  0.13473785576E+04  0.90309448513E+03 0.  0.
        2    1    3    3  502    0 -0.40743737479E+02  0.38661132716E+03  0.84267941767E+03  0.92802854019E+03  0.25500000920E-02 0.  1.
       -2    1    3    3    0  502  0.40743737479E+02 -0.38661132716E+03  0.15724524371E+03  0.41935001742E+03  0.25500000920E-02 0. -1.
</event>
<event>
 5   0  0.9981885E-04  0.9012113E+03  0.7818609E-02  0.9424069E-01
       -1   -1    0    0    0  501  0.00000000000E+00  0.00000000000E+00  0.10888261094E+03  0.10888261105E+03  0.50400001928E-02 0.  1.
        1   -1    0    0  501    0  0.00000000000E+00  0.00000000000E+00 -0.18648105960E+04  0.18648105960E+04  0.50400001928E-02 0. -1.
    10030    2    1    2    0    0  0.00000000000E+00  0.00000000000E+00 -0.17559279851E+04  0.19736932070E+04  0.90121128869E+03 0.  0.
        4    1    3    3  502    0 -0.16479094131E+03  0.34613881698E+03 -0.13965733763E+04  0.14482358037E+04  0.12699999809E+01 0. -1.
       -4    1    3    3    0  502  0.16479094131E+03 -0.34613881698E+03 -0.35935460877E+03  0.52545740332E+03  0.12699999809E+01 0.  1.
</event>
<event>
 5   0  0.9321543E-04  0.9001555E+03  0.7818609E-02  0.9425387E-01
       -1   -1    0    0    0  501  0.00000000000E+00  0.00000000000E+00  0.39092137498E+03  0.39092137501E+03  0.50400001928E-02 0.  1.
        1   -1    0    0  501    0  0.00000000000E+00  0.00000000000E+00 -0.51818600558E+03  0.51818600560E+03  0.50400001928E-02 0. -1.
    10030    2    1    2    0    0  0.00000000000E+00  0.00000000000E+00 -0.12726463060E+03  0.90910738062E+03  0.90015551061E+03 0.  0.
        3    1    3    3  502    0 -0.78775922232E+02  0.26710849441E+03  0.29346191975E+03  0.40456458354E+03  0.10100000352E+00 0.  1.
       -3    1    3    3    0  502  0.78775922232E+02 -0.26710849441E+03 -0.42072655035E+03  0.50454279708E+03  0.10100000352E+00 0. -1.
</event>
<event>
 5   0  0.9321543E-04  0.8980318E+03  0.7818609E-02  0.9428045E-01
       -1   -1    0    0    0  501  0.00000000000E+00  0.00000000000E+00  0.32914231742E+03  0.32914231746E+03  0.50400001928E-02 0. -1.
        1   -1    0    0  501    0  0.00000000000E+00  0.00000000000E+00 -0.61254746593E+03  0.61254746595E+03  0.50400001928E-02 0.  1.
    10030    2    1    2    0    0  0.00000000000E+00  0.00000000000E+00 -0.28340514851E+03  0.94168978340E+03  0.89803183127E+03 0.  0.
        3    1    3    3  502    0  0.28916764826E+03 -0.34260171328E+03 -0.11556239364E+03  0.46297790419E+03  0.10100000352E+00 0.  1.
       -3    1    3    3    0  502 -0.28916764826E+03  0.34260171328E+03 -0.16784275487E+03  0.47871187922E+03  0.10100000352E+00 0. -1.
</event>
<event>
 5   0  0.1641516E-03  0.9004456E+03  0.7818609E-02  0.9425025E-01
       -2   -1    0    0    0  501  0.00000000000E+00  0.00000000000E+00  0.69090521211E+03  0.69090521211E+03  0.25500000920E-02 0.  1.
        2   -1    0    0  501    0  0.00000000000E+00  0.00000000000E+00 -0.29338407281E+03  0.29338407282E+03  0.25500000920E-02 0. -1.
    10030    2    1    2    0    0  0.00000000000E+00  0.00000000000E+00  0.39752113930E+03  0.98428928493E+03  0.90044563425E+03 0.  0.
        1    1    3    3  502    0 -0.12195271781E+03  0.35883055258E+03 -0.66910440004E+02  0.38484911050E+03  0.50400001928E-02 0. -1.
       -1    1    3    3    0  502  0.12195271781E+03 -0.35883055258E+03  0.46443157930E+03  0.59944017443E+03  0.50400001928E-02 0.  1.
</event>
<event>
 5   0  0.1635686E-03  0.8993176E+03  0.7818609E-02  0.9426435E-01
       -2   -1    0    0    0  501  0.00000000000E+00  0.00000000000E+00  0.54513868555E+03  0.54513868556E+03  0.25500000920E-02 0.  1.
        2   -1    0    0  501    0  0.00000000000E+00  0.00000000000E+00 -0.37090200951E+03  0.37090200952E+03  0.25500000920E-02 0. -1.
    10030    2    1    2    0    0  0.00000000000E+00  0.00000000000E+00  0.17423667604E+03  0.91604069507E+03  0.89931759449E+03 0.  0.
        5    1    3    3  502    0  0.29222197200E+03 -0.79864676078E+02 -0.25132349904E+03  0.39364659096E+03  0.46999998093E+01 0. -1.
       -5    1    3    3    0  502 -0.29222197200E+03  0.79864676078E+02  0.42556017508E+03  0.52239410412E+03  0.46999998093E+01 0.  1.
</event>
<event>
 5   0  0.1536020E-03  0.9010755E+03  0.7818609E-02  0.9424238E-01
        2   -1    0    0  501    0  0.00000000000E+00  0.00000000000E+00  0.75486206148E+03  0.75486206148E+03  0.25500000920E-02 0. -1.
       -2   -1    0    0    0  501  0.00000000000E+00  0.00000000000E+00 -0.26890245962E+03  0.26890245963E+03  0.25500000920E-02 0.  1.
    10030    2    1    2    0    0  0.00000000000E+00  0.00000000000E+00  0.48595960186E+03  0.10237645211E+04  0.90107550186E+03 0.  0.
        2    1    3    3  502    0 -0.26820132343E+02 -0.15681719450E+03 -0.23592588434E+03  0.28455575007E+03  0.25500000920E-02 0.  1.
       -2    1    3    3    0  502  0.26820132343E+02  0.15681719450E+03  0.72188548620E+03  0.73920877104E+03  0.25500000920E-02 0. -1.
</event>
<event>
 5   0  0.9223454E-04  0.9124349E+03  0.7818609E-02  0.9410169E-01
       -1   -1    0    0    0  501  0.00000000000E+00  0.00000000000E+00  0.33889428487E+03  0.33889428490E+03  0.50400001928E-02 0.  1.
        1   -1    0    0  501    0  0.00000000000E+00  0.00000000000E+00 -0.61415725061E+03  0.61415725063E+03  0.50400001928E-02 0. -1.
    10030    2    1    2    0    0  0.00000000000E+00  0.00000000000E+00 -0.27526296574E+03  0.95305153553E+03  0.91243494512E+03 0.  0.
        1    1    3    3  502    0 -0.37847160846E+03  0.85660591801E+02  0.11295598668E+03  0.40415040560E+03  0.50400001928E-02 0.  1.
       -1    1    3    3    0  502  0.37847160846E+03 -0.85660591801E+02 -0.38821895242E+03  0.54890112993E+03  0.50400001928E-02 0. -1.
</event>
<event>
 5   0  0.1536020E-03  0.9003608E+03  0.7818609E-02  0.9425131E-01
        2   -1    0    0  501    0  0.00000000000E+00  0.00000000000E+00  0.68565993174E+03  0.68565993175E+03  0.25500000920E-02 0.  1.
       -2   -1    0    0    0  501  0.00000000000E+00  0.00000000000E+00 -0.29557275993E+03  0.29557275994E+03  0.25500000920E-02 0. -1.
    10030    2    1    2    0    0  0.00000000000E+00  0.00000000000E+00  0.39008717181E+03  0.98123269169E+03  0.90036081302E+03 0.  0.
        2    1    3    3  502    0  0.13412366578E+03 -0.37284816950E+03 -0.37825269402E+02  0.39803977972E+03  0.25500000920E-02 0. -1.
       -2    1    3    3    0  502 -0.13412366578E+03  0.37284816950E+03  0.42791244121E+03  0.58319291197E+03  0.25500000920E-02 0.  1.
</event>
<event>
 5   0  0.9223454E-04  0.8894305E+03  0.7818609E-02  0.9438891E-01
        1   -1    0    0  501    0  0.00000000000E+00  0.00000000000E+00  0.65745688069E+03  0.65745688070E+03  0.50400001928E-02 0. -1.
       -1   -1    0    0    0  501  0.00000000000E+00  0.00000000000E+00 -0.30081308450E+03  0.30081308454E+03  0.50400001928E-02 0.  1.
    10030    2    1    2    0    0  0.00000000000E+00  0.00000000000E+00  0.35664379619E+03  0.95826996524E+03  0.88943045199E+03 0.  0.
        1    1    3    3  502    0  0.36169262974E+03 -0.19560946138E+03 -0.41594759983E+01  0.41122003970E+03  0.50400001928E-02 0.  1.
       -1    1    3    3    0  502 -0.36169262974E+03  0.19560946138E+03  0.36080327219E+03  0.54704992554E+03  0.50400001928E-02 0. -1.
</event>
<event>
 5   0  0.9697941E-04  0.9003842E+03  0.7818609E-02  0.9425101E-01
        1   -1    0    0  501    0  0.00000000000E+00  0.00000000000E+00  0.12311384460E+04  0.12311384460E+04  0.50400001928E-02 0. -1.
       -1   -1    0    0    0  501  0.00000000000E+00  0.00000000000E+00 -0.16462238063E+03  0.16462238071E+03  0.50400001928E-02 0.  1.
    10030    2    1    2    0    0  0.00000000000E+00  0.00000000000E+00  0.10665160654E+04  0.13957608267E+04  0.90038423338E+03 0.  0.
        5    1    3    3  502    0  0.12888884932E+03  0.39430754653E+03  0.26226362225E+03  0.49081062976E+03  0.46999998093E+01 0.  1.
       -5    1    3    3    0  502 -0.12888884932E+03 -0.39430754653E+03  0.80425244314E+03  0.90495019699E+03  0.46999998093E+01 0. -1.
</event>
<event>
 5   0  0.1630202E-03  0.8993553E+03  0.7818609E-02  0.9426388E-01
        2   -1    0    0  501    0  0.00000000000E+00  0.00000000000E+00  0.72462663650E+03  0.72462663650E+03  0.25500000920E-02 0.  1.
       -2   -1    0    0    0  501  0.00000000000E+00  0.00000000000E+00 -0.27905405896E+03  0.27905405898E+03  0.25500000920E-02 0. -1.
    10030    2    1    2    0    0  0.00000000000E+00  0.00000000000E+00  0.44557257753E+03  0.10036806955E+04  0.89935533391E+03 0.  0.
        4    1    3    3  502    0  0.14302299820E+03 -0.20950605572E+03  0.63715164113E+03  0.68579311172E+03  0.12699999809E+01 0.  1.
       -4    1    3    3    0  502 -0.14302299820E+03  0.20950605572E+03 -0.19157906359E+03  0.31788758375E+03  0.12699999809E+01 0. -1.
</event>
<event>
 5   0  0.9223454E-04  0.9008459E+03  0.7818609E-02  0.9424525E-01
       -1   -1    0    0    0  501  0.00000000000E+00  0.00000000000E+00  0.22041418119E+03  0.22041418125E+03  0.50400001928E-02 0. -1.
        1   -1    0    0  501    0  0.00000000000E+00  0.00000000000E+00 -0.92045279003E+03  0.92045279004E+03  0.50400001928E-02 0.  1.
    10030    2    1    2    0    0  0.00000000000E+00  0.00000000000E+00 -0.70003860884E+03  0.11408669713E+04  0.90084593150E+03 0.  0.
        1    1    3    3  502    0 -0.52148346576E+02 -0.26703476429E+03 -0.80462320339E+03  0.84937948813E+03  0.50400001928E-02 0.  1.
       -1    1    3    3    0  502  0.52148346576E+02  0.26703476429E+03  0.10458459456E+03  0.29148748315E+03  0.50400001928E-02 0. -1.
</event>
<event>
 5   0  0.9697941E-04  0.8991370E+03  0.7818609E-02  0.9426661E-01
        1   -1    0    0  501    0  0.00000000000E+00  0.00000000000E+00  0.16908781619E+04  0.16908781619E+04  0.50400001928E-02 0. -1.
       -1   -1    0    0    0  501  0.00000000000E+00  0.00000000000E+00 -0.11953069176E+03  0.11953069187E+03  0.50400001928E-02 0.  1.
    10030    2    1    2    0    0  0.00000000000E+00  0.00000000000E+00  0.15713474701E+04  0.18104088538E+04  0.89913700065E+03 0.  0.
        5    1    3    3  502    0  0.10773901167E+03 -0.35954905319E+03  0.12838117377E+04  0.13375641608E+04  0.46999998093E+01 0. -1.
       -5    1    3    3    0  502 -0.10773901167E+03  0.35954905319E+03  0.28753573240E+03  0.47284469299E+03  0.46999998093E+01 0.  1.
</event>
<event>
 5   0  0.9223454E-04  0.8997416E+03  0.7818609E-02  0.9425904E-01
        1   -1    0    0  501    0  0.00000000000E+00  0.00000000000E+00  0.34023113997E+03  0.34023114000E+03  0.50400001928E-02 0. -1.
       -1   -1    0    0    0  501  0.00000000000E+00  0.00000000000E+00 -0.59484189785E+03  0.59484189787E+03  0.50400001928E-02 0.  1.
    10030    2    1    2    0    0  0.00000000000E+00  0.00000000000E+00 -0.25461075788E+03  0.93507303787E+03  0.89974160075E+03 0.  0.
        1    1    3    3  502    0 -0.65577577187E+02 -0.35875661918E+03  0.14643288722E+03  0.39300040829E+03  0.50400001928E-02 0. -1.
       -1    1    3    3    0  502  0.65577577187E+02  0.35875661918E+03 -0.40104364510E+03  0.54207262958E+03  0.50400001928E-02 0.  1.
</event>
<event>
 5   0  0.1007561E-03  0.9001959E+03  0.7818609E-02  0.9425337E-01
       -1   -1    0    0    0  501  0.00000000000E+00  0.00000000000E+00  0.71169321400E+03  0.71169321402E+03  0.50400001928E-02 0.  1.
        1   -1    0    0  501    0  0.00000000000E+00  0.00000000000E+00 -0.28465656337E+03  0.28465656341E+03  0.50400001928E-02 0. -1.
    10030    2    1    2    0    0  0.00000000000E+00  0.00000000000E+00  0.42703665064E+03  0.99634977743E+03  0.90019585535E+03 0.  0.
        2    1    3    3  502    0 -0.11160121468E+03  0.40489505335E+03  0.39264901724E+03  0.57495050752E+03  0.25500000920E-02 0.  1.
       -2    1    3    3    0  502  0.11160121468E+03 -0.40489505335E+03  0.34387633397E+02  0.42139926991E+03  0.25500000920E-02 0. -1.
</event>
<event>
 5   0  0.9981885E-04  0.8992383E+03  0.7818609E-02  0.9426534E-01
        1   -1    0    0  501    0  0.00000000000E+00  0.00000000000E+00  0.84315508804E+03  0.84315508805E+03  0.50400001928E-02 0. -1.
       -1   -1    0    0    0  501  0.00000000000E+00  0.00000000000E+00 -0.23976299053E+03  0.23976299058E+03  0.50400001928E-02 0.  1.
    10030    2    1    2    0    0  0.00000000000E+00  0.00000000000E+00  0.60339209751E+03  0.10829180786E+04  0.89923831196E+03 0.  0.
        4    1    3    3  502    0  0.36887079355E+03 -0.18887600035E+03  0.51172134901E+03  0.65848322512E+03  0.12699999809E+01 0. -1.
       -4    1    3    3    0  502 -0.36887079355E+03  0.18887600035E+03  0.91670748503E+02  0.42443485351E+03  0.12699999809E+01 0.  1.
</event>
<event>
 5   0  0.9697941E-04  0.8958136E+03  0.7818609E-02  0.9430830E-01
       -1   -1    0    0    0  501  0.00000000000E+00  0.00000000000E+00  0.17621005178E+03  0.17621005185E+03  0.50400001928E-02 0.  1.
        1   -1    0    0  501    0  0.00000000000E+00  0.00000000000E+00 -0.11385303987E+04  0.11385303987E+04  0.50400001928E-02 0. -1.
    10030    2    1    2    0    0  0.00000000000E+00  0.00000000000E+00 -0.96232034691E+03  0.13147404505E+04  0.89581359792E+03 0.  0.
        5    1    3    3  502    0  0.23604216227E+03  0.38063308024E+03 -0.47971738125E+03  0.65631417783E+03  0.46999998093E+01 0.  1.
       -5    1    3    3    0  502 -0.23604216227E+03 -0.38063308024E+03 -0.48260296566E+03  0.65842627271E+03  0.46999998093E+01 0. -1.
</event>
<event>
 5   0  0.1641516E-03  0.8997587E+03  0.7818609E-02  0.9425883E-01
       -2   -1    0    0    0  501  0.00000000000E+00  0.00000000000E+00  0.38855147015E+03  0.38855147016E+03  0.25500000920E-02 0.  1.
        2   -1    0    0  501    0  0.00000000000E+00  0.00000000000E+00 -0.52088709743E+03  0.52088709744E+03  0.25500000920E-02 0. -1.
    10030    2    1    2    0    0  0.00000000000E+00  0.00000000000E+00 -0.13233562728E+03  0.90943856760E+03  0.89975873988E+03 0.  0.
        1    1    3    3  502    0  0.37251125615E+03  0.22804751716E+03  0.42793338630E+02  0.43886396058E+03  0.50400001928E-02 0.  1.
       -1    1    3    3    0  502 -0.37251125615E+03 -0.22804751716E+03 -0.17512896591E+03  0.47057460701E+03  0.50400001928E-02 0. -1.
</event>
<event>
 5   0  0.1007561E-03  0.9002811E+03  0.7818609E-02  0.9425230E-01
       -1   -1    0    0    0  501  0.00000000000E+00  0.00000000000E+00  0.16316775763E+03  0.16316775770E+03  0.50400001928E-02 0.  1.
        1   -1    0    0  501    0  0.00000000000E+00  0.00000000000E+00 -0.12418294506E+04  0.12418294507E+04  0.50400001928E-02 0. -1.
    10030    2    1    2    0    0  0.00000000000E+00  0.00000000000E+00 -0.10786616930E+04  0.14049972084E+04  0.90028112693E+03 0.  0.
        2    1    3    3  502    0  0.38739920102E+03 -0.20316259212E+03 -0.70503132195E+03  0.82971220596E+03  0.25500000920E-02 0. -1.
       -2    1    3    3    0  502 -0.38739920102E+03  0.20316259212E+03 -0.37363037107E+03  0.57528500239E+03  0.25500000920E-02 0.  1.
</event>
<event>
 5   0  0.1704416E-03  0.8997952E+03  0.7818609E-02  0.9425837E-01
       -2   -1    0    0    0  501  0.00000000000E+00  0.00000000000E+00  0.15625950794E+03  0.15625950796E+03  0.25500000920E-02 0. -1.
        2   -1    0    0  501    0  0.00000000000E+00  0.00000000000E+00 -0.12953314643E+04  0.12953314643E+04  0.25500000920E-02 0.  1.
    10030    2    1    2    0    0  0.00000000000E+00  0.00000000000E+00 -0.11390719564E+04  0.14515909723E+04  0.89979521503E+03 0.  0.
        3    1    3    3  502    0 -0.35052991908E+03  0.27691147427E+03 -0.65576028792E+03  0.79345620810E+03  0.10100000352E+00 0. -1.
       -3    1    3    3    0  502  0.35052991908E+03 -0.27691147427E+03 -0.48331166845E+03  0.65813476417E+03  0.10100000352E+00 0.  1.
</event>
<event>
 5   0  0.9981885E-04  0.9001719E+03  0.7818609E-02  0.9425367E-01
        1   -1    0    0  501    0  0.00000000000E+00  0.00000000000E+00  0.10216089586E+04  0.10216089586E+04  0.50400001928E-02 0. -1.
       -1   -1    0    0    0  501  0.00000000000E+00  0.00000000000E+00 -0.19829245313E+03  0.19829245320E+03  0.50400001928E-02 0.  1.
    10030    2    1    2    0    0  0.00000000000E+00  0.00000000000E+00  0.82331650544E+03  0.12199014118E+04  0.90017186489E+03 0.  0.
        4    1    3    3  502    0 -0.37551645556E+03 -0.24412996286E+03  0.35160515994E+03  0.56942062534E+03  0.12699999809E+01 0.  1.
       -4    1    3    3    0  502  0.37551645556E+03  0.24412996286E+03  0.47171134550E+03  0.65048078645E+03  0.12699999809E+01 0. -1.
</event>
<event>
 5   0  0.1641516E-03  0.9001699E+03  0.7818609E-02  0.9425369E-01
       -2   -1    0    0    0  501  0.00000000000E+00  0.00000000000E+00  0.16394358845E+03  0.16394358847E+03  0.25500000920E-02 0.  1.
        2   -1    0    0  501    0  0.00000000000E+00  0.00000000000E+00 -0.12356474817E+04  0.12356474817E+04  0.25500000920E-02 0. -1.
    10030    2    1    2    0    0  0.00000000000E+00  0.00000000000E+00 -0.10717038933E+04  0.13995910702E+04  0.90016994445E+03 0.  0.
        1    1    3    3  502    0  0.29949393004E+03  0.31555471695E+03 -0.35650848778E+03  0.56246750608E+03  0.50400001928E-02 0.  1.
       -1    1    3    3    0  502 -0.29949393004E+03 -0.31555471695E+03 -0.71519540550E+03  0.83712356411E+03  0.50400001928E-02 0. -1.
</event>
<event>
 5   0  0.9321543E-04  0.9087318E+03  0.7818609E-02  0.9414732E-01
       -1   -1    0    0    0  501  0.00000000000E+00  0.00000000000E+00  0.80300167048E+03  0.80300167050E+03  0.50400001928E-02 0. -1.
        1   -1    0    0  501    0  0.00000000000E+00  0.00000000000E+00 -0.25709581088E+03  0.25709581093E+03  0.50400001928E-02 0.  1.
    10030    2    1    2    0    0  0.00000000000E+00  0.00000000000E+00  0.54590585961E+03  0.10600974814E+04  0.90873178803E+03 0.  0.
        3    1    3    3  502    0 -0.38798680931E+03 -0.44899379988E+02  0.21215554580E+01  0.39058191166E+03  0.10100000352E+00 0.  1.
       -3    1    3    3    0  502  0.38798680931E+03  0.44899379988E+02  0.54378430415E+03  0.66951556976E+03  0.10100000352E+00 0. -1.
</event>
<event>
 5   0  0.1630202E-03  0.9009984E+03  0.7818609E-02  0.9424334E-01
       -2   -1    0    0    0  501  0.00000000000E+00  0.00000000000E+00  0.22325520154E+03  0.22325520155E+03  0.25500000920E-02 0.  1.
        2   -1    0    0  501    0  0.00000000000E+00  0.00000000000E+00 -0.90904735273E+03  0.90904735273E+03  0.25500000920E-02 0. -1.
    10030    2    1    2    0    0  0.00000000000E+00  0.00000000000E+00 -0.68579215119E+03  0.11323025543E+04  0.90099844606E+03 0.  0.
        4    1    3    3  502    0 -0.42547110957E+03  0.10858966890E+03 -0.21640639930E+03  0.48954134026E+03  0.12699999809E+01 0.  1.
       -4    1    3    3    0  502  0.42547110957E+03 -0.10858966890E+03 -0.46938575189E+03  0.64276121402E+03  0.12699999809E+01 0. -1.
</event>
<event>
 5   0  0.6375625E-04  0.8978310E+03  0.7818609E-02  0.9428297E-01
       -3   -1    0    0    0  501  0.00000000000E+00  0.00000000000E+00  0.39551725281E+03  0.39551726571E+03  0.10100000352E+00 0. -1.
        3   -1    0    0  501    0  0.00000000000E+00  0.00000000000E+00 -0.50952288983E+03  0.50952289984E+03  0.10100000352E+00 0.  1.
    10030    2    1    2    0    0  0.00000000000E+00  0.00000000000E+00 -0.11400563701E+03  0.90504016555E+03  0.89783095067E+03 0.  0.
        4    1    3    3  502    0 -0.40241748681E+03 -0.13555849884E+03  0.89794640727E+02  0.43402837546E+03  0.12699999809E+01 0. -1.
       -4    1    3    3    0  502  0.40241748681E+03  0.13555849884E+03 -0.20380027774E+03  0.47101179009E+03  0.12699999809E+01 0.  1.
</event>
<event>
 5   0  0.1536020E-03  0.8980464E+03  0.7818609E-02  0.9428027E-01
       -2   -1    0    0    0  501  0.00000000000E+00  0.00000000000E+00  0.40532547567E+03  0.40532547568E+03  0.25500000920E-02 0. -1.
        2   -1    0    0  501    0  0.00000000000E+00  0.00000000000E+00 -0.49743188547E+03  0.49743188548E+03  0.25500000920E-02 0.  1.
    10030    2    1    2    0    0  0.00000000000E+00  0.00000000000E+00 -0.92106409802E+02  0.90275736115E+03  0.89804635871E+03 0.  0.
        2    1    3    3  502    0  0.41082628089E+03 -0.35766785535E+02 -0.22464869915E+03  0.46960039827E+03  0.25500000920E-02 0. -1.
       -2    1    3    3    0  502 -0.41082628089E+03  0.35766785535E+02  0.13254228935E+03  0.43315696288E+03  0.25500000920E-02 0.  1.
</event>
<event>
 5   0  0.1635686E-03  0.9019210E+03  0.7818609E-02  0.9423183E-01
       -2   -1    0    0    0  501  0.00000000000E+00  0.00000000000E+00  0.71524231564E+03  0.71524231565E+03  0.25500000920E-02 0.  1.
        2   -1    0    0  501    0  0.00000000000E+00  0.00000000000E+00 -0.28433073628E+03  0.28433073629E+03  0.25500000920E-02 0. -1.
    10030    2    1    2    0    0  0.00000000000E+00  0.00000000000E+00  0.43091157937E+03  0.99957305193E+03  0.90192100370E+03 0.  0.
        5    1    3    3  502    0 -0.17677002053E+03  0.15091680685E+03 -0.21280141919E+03  0.31516671264E+03  0.46999998093E+01 0. -1.
       -5    1    3    3    0  502  0.17677002053E+03 -0.15091680685E+03  0.64371299856E+03  0.68440633929E+03  0.46999998093E+01 0.  1.
</event>
<event>
 5   0  0.1536020E-03  0.9006605E+03  0.7818609E-02  0.9424756E-01
        2   -1    0    0  501    0  0.00000000000E+00  0.00000000000E+00  0.13253460070E+04  0.13253460070E+04  0.25500000920E-02 0.  1.
       -2   -1    0    0    0  501  0.00000000000E+00  0.00000000000E+00 -0.15301464236E+03  0.15301464238E+03  0.25500000920E-02 0. -1.
    10030    2    1    2    0    0  0.00000000000E+00  0.00000000000E+00  0.11723313646E+04  0.14783606493E+04  0.90066052489E+03 0.  0.
        2    1    3    3  502    0  0.63260615186E+02  0.18036904574E+03  0.12554587856E+04  0.12699258484E+04  0.25500000920E-02 0.  1.
       -2    1    3    3    0  502 -0.63260615186E+02 -0.18036904574E+03 -0.83127421028E+02  0.20843480091E+03  0.25500000920E-02 0. -1.
</event>
<event>
 5   0  0.1704416E-03  0.8897834E+03  0.7818609E-02  0.9438443E-01
        2   -1    0    0  501    0  0.00000000000E+00  0.00000000000E+00  0.13582466800E+04  0.13582466800E+04  0.25500000920E-02 0. -1.
       -2   -1    0    0    0  501  0.00000000000E+00  0.00000000000E+00 -0.14572363430E+03  0.14572363432E+03  0.25500000920E-02 0.  1.
    10030    2    1    2    0    0  0.00000000000E+00  0.00000000000E+00  0.12125230457E+04  0.15039703144E+04  0.88978343997E+03 0.  0.
        3    1    3    3  502    0 -0.22969904940E+03 -0.35961749666E+03  0.39351465618E+03  0.58046549599E+03  0.10100000352E+00 0.  1.
       -3    1    3    3    0  502  0.22969904940E+03  0.35961749666E+03  0.81900838954E+03  0.92350481836E+03  0.10100000352E+00 0. -1.
</event>
<event>
 5   0  0.1704416E-03  0.9004370E+03  0.7818609E-02  0.9425035E-01
        2   -1    0    0  501    0  0.00000000000E+00  0.00000000000E+00  0.15999170043E+04  0.15999170043E+04  0.25500000920E-02 0.  1.
       -2   -1    0    0    0  501  0.00000000000E+00  0.00000000000E+00 -0.12669201745E+03  0.12669201748E+03  0.25500000920E-02 0. -1.
    10030    2    1    2    0    0  0.00000000000E+00  0.00000000000E+00  0.14732249869E+04  0.17266090218E+04  0.90043703402E+03 0.  0.
        3    1    3    3  502    0 -0.18579974482E+03 -0.40416562642E+03  0.86981211823E+03  0.97695676976E+03  0.10100000352E+00 0.  1.
       -3    1    3    3    0  502  0.18579974482E+03  0.40416562642E+03  0.60341286865E+03  0.74965225205E+03  0.10100000352E+00 0. -1.
</event>
<event>
 5   0  0.1536020E-03  0.8995500E+03  0.7818609E-02  0.9426144E-01
       -2   -1    0    0    0  501  0.00000000000E+00  0.00000000000E+00  0.19775096767E+03  0.19775096768E+03  0.25500000920E-02 0. -1.
        2   -1    0    0  501    0  0.00000000000E+00  0.00000000000E+00 -0.10229914003E+04  0.10229914003E+04  0.25500000920E-02 0.  1.
    10030    2    1    2    0    0  0.00000000000E+00  0.00000000000E+00 -0.82524043267E+03  0.12207423680E+04  0.89954997491E+03 0.  0.
        2    1    3    3  502    0 -0.15148865060E+03  0.17472853719E+03 -0.93613316270E+03  0.96427390885E+03  0.25500000920E-02 0.  1.
       -2    1    3    3    0  502  0.15148865060E+03 -0.17472853719E+03  0.11089273003E+03  0.25646845917E+03  0.25500000920E-02 0. -1.
</event>
<event>
 5   0  0.6375625E-04  0.8992531E+03  0.7818609E-02  0.9426516E-01
        3   -1    0    0  501    0  0.00000000000E+00  0.00000000000E+00  0.22628473911E+03  0.22628476165E+03  0.10100000352E+00 0.  1.
       -3   -1    0    0    0  501  0.00000000000E+00  0.00000000000E+00 -0.89340538990E+03  0.89340539561E+03  0.10100000352E+00 0. -1.
    10030    2    1    2    0    0  0.00000000000E+00  0.00000000000E+00 -0.66712065078E+03  0.11196901573E+04  0.89925307092E+03 0.  0.
        2    1    3    3  502    0 -0.31418832922E+03  0.16830398408E+03 -0.67483478821E+03  0.76317922447E+03  0.25500000920E-02 0. -1.
       -2    1    3    3    0  502  0.31418832922E+03 -0.16830398408E+03  0.77141374264E+01  0.35651093279E+03  0.25500000920E-02 0.  1.
</event>
<event>
 5   0  0.6375625E-04  0.8994241E+03  0.7818609E-02  0.9426302E-01
       -4   -1    0    0    0  501  0.00000000000E+00  0.00000000000E+00  0.10090559409E+04  0.10090567401E+04  0.12699999809E+01 0. -1.
        4   -1    0    0  501    0  0.00000000000E+00  0.00000000000E+00 -0.20042300798E+03  0.20042703168E+03  0.12699999809E+01 0.  1.
    10030    2    1    2    0    0  0.00000000000E+00  0.00000000000E+00  0.80863293295E+03  0.12094837718E+04  0.89942413468E+03 0.  0.
        2    1    3    3  502    0  0.30835793236E+03  0.20325382244E+03  0.74937622435E+03  0.83544087548E+03  0.25500000920E-02 0. -1.
       -2    1    3    3    0  502 -0.30835793236E+03 -0.20325382244E+03  0.59256708597E+02  0.37404289634E+03  0.25500000920E-02 0.  1.
</event>
<event>
 5   0  0.1704416E-03  0.9006959E+03  0.7818609E-02  0.9424712E-01
       -2   -1    0    0    0  501  0.00000000000E+00  0.00000000000E+00  0.68378185341E+03  0.68378185342E+03  0.25500000920E-02 0.  1.
        2   -1    0    0  501    0  0.00000000000E+00  0.00000000000E+00 -0.29660522631E+03  0.29660522632E+03  0.25500000920E-02 0. -1.
    10030    2    1    2    0    0  0.00000000000E+00  0.00000000000E+00  0.38717662711E+03  0.98038707973E+03  0.90069588959E+03 0.  0.
        3    1    3    3  502    0 -0.21747817842E+03  0.22301342441E+03 -0.16042882788E+03  0.35038430983E+03  0.10100000352E+00 0. -1.
       -3    1    3    3    0  502  0.21747817842E+03 -0.22301342441E+03  0.54760545499E+03  0.63000276991E+03  0.10100000352E+00 0.  1.
</event>
<event>
 5   0  0.9981885E-04  0.8999556E+03  0.7818609E-02  0.9425637E-01
        1   -1    0    0  501    0  0.00000000000E+00  0.00000000000E+00  0.10035751859E+04  0.10035751859E+04  0.50400001928E-02 0.  1.
       -1   -1    0    0    0  501  0.00000000000E+00  0.00000000000E+00 -0.20175868368E+03  0.20175868374E+03  0.50400001928E-02 0. -1.
    10030    2    1    2    0    0  0.00000000000E+00  0.00000000000E+00  0.80181650218E+03  0.12053338696E+04  0.89995557339E+03 0.  0.
        4    1    3    3  502    0  0.36150921928E+03  0.10043950463E+03  0.68222845864E+02  0.38135676120E+03  0.12699999809E+01 0.  1.
       -4    1    3    3    0  502 -0.36150921928E+03 -0.10043950463E+03  0.73359365632E+03  0.82397710842E+03  0.12699999809E+01 0. -1.
</event>
<event>
 5   0  0.1641516E-03  0.8961179E+03  0.7818609E-02  0.9430447E-01
        2   -1    0    0  501    0  0.00000000000E+00  0.00000000000E+00  0.71049137576E+03  0.71049137576E+03  0.25500000920E-02 0.  1.
       -2   -1    0    0    0  501  0.00000000000E+00  0.00000000000E+00 -0.28256053765E+03  0.28256053766E+03  0.25500000920E-02 0. -1.
    10030    2    1    2    0    0  0.00000000000E+00  0.00000000000E+00  0.42793083811E+03  0.99305191342E+03  0.89611790549E+03 0.  0.
        1    1    3    3  502    0 -0.40708439758E+03  0.18667119056E+03  0.22936002391E+03  0.50315987591E+03  0.50400001928E-02 0.  1.
       -1    1    3    3    0  502  0.40708439758E+03 -0.18667119056E+03  0.19857081420E+03  0.48989203751E+03  0.50400001928E-02 0. -1.
</event>
<event>
 5   0  0.1536020E-03  0.9023218E+03  0.7818609E-02  0.9422684E-01
       -2   -1    0    0    0  501  0.00000000000E+00  0.00000000000E+00  0.37691578133E+03  0.37691578134E+03  0.25500000920E-02 0. -1.
        2   -1    0    0  501    0  0.00000000000E+00  0.00000000000E+00 -0.54003083433E+03  0.54003083433E+03  0.25500000920E-02 0.  1.
    10030    2    1    2    0    0  0.00000000000E+00  0.00000000000E+00 -0.16311505300E+03  0.91694661567E+03  0.90232176936E+03 0.  0.
        2    1    3    3  502    0 -0.15764564069E+03  0.36284545301E+03  0.13883822730E+03  0.41926724671E+03  0.25500000920E-02 0. -1.
       -2    1    3    3    0  502  0.15764564069E+03 -0.36284545301E+03 -0.30195328030E+03  0.49767936896E+03  0.25500000920E-02 0.  1.
</event>
<event>
 5   0  0.1007561E-03  0.8992760E+03  0.7818609E-02  0.9426487E-01
        1   -1    0    0  501    0  0.00000000000E+00  0.00000000000E+00  0.87561773469E+03  0.87561773470E+03  0.50400001928E-02 0.  1.
       -1   -1    0    0    0  501  0.00000000000E+00  0.00000000000E+00 -0.23089339630E+03  0.23089339636E+03  0.50400001928E-02 0. -1.
    10030    2    1    2    0    0  0.00000000000E+00  0.00000000000E+00  0.64472433839E+03  0.11065111311E+04  0.89927604808E+03 0.  0.
        2    1    3    3  502    0 -0.27394344135E+02  0.62188862979E+02 -0.22453838726E+03  0.23459623213E+03  0.25500000920E-02 0. -1.
       -2    1    3    3    0  502  0.27394344135E+02 -0.62188862979E+02  0.86926272565E+03  0.87191489893E+03  0.25500000920E-02 0.  1.
</event>
<event>
 5   0  0.1635686E-03  0.8984053E+03  0.7818609E-02  0.9427577E-01
       -2   -1    0    0    0  501  0.00000000000E+00  0.00000000000E+00  0.64638782522E+03  0.64638782522E+03  0.25500000920E-02 0. -1.
        2   -1    0    0  501    0  0.00000000000E+00  0.00000000000E+00 -0.31217017817E+03  0.31217017818E+03  0.25500000920E-02 0.  1.
    10030    2    1    2    0    0  0.00000000000E+00  0.00000000000E+00  0.33421764705E+03  0.95855800340E+03  0.89840525950E+03 0.  0.
        5    1    3    3  502    0 -0.65689657176E+02 -0.90248980355E+02 -0.29710968809E+03  0.31742127570E+03  0.46999998093E+01 0.  1.
       -5    1    3    3    0  502  0.65689657176E+02  0.90248980355E+02  0.63132733514E+03  0.64113672770E+03  0.46999998093E+01 0. -1.
</event>
<event>
 5   0  0.9321543E-04  0.8995071E+03  0.7818609E-02  0.9426198E-01
        1   -1    0    0  501    0  0.00000000000E+00  0.00000000000E+00  0.29194883879E+03  0.29194883884E+03  0.50400001928E-02 0.  1.
       -1   -1    0    0    0  501  0.00000000000E+00  0.00000000000E+00 -0.69285518345E+03  0.69285518347E+03  0.50400001928E-02 0. -1.
    10030    2    1    2    0    0  0.00000000000E+00  0.00000000000E+00 -0.40090634466E+03  0.98480402231E+03  0.89950712346E+03 0.  0.
        3    1    3    3  502    0  0.23010634854E+03 -0.46283618644E+02  0.21957667881E+03  0.32141100335E+03  0.10100000352E+00 0.  1.
       -3    1    3    3    0  502 -0.23010634854E+03  0.46283618644E+02 -0.62048302347E+03  0.66339301896E+03  0.10100000352E+00 0. -1.
</event>
<event>
 5   0  0.9321543E-04  0.9216532E+03  0.7818609E-02  0.9398911E-01
        1   -1    0    0  501    0  0.00000000000E+00  0.00000000000E+00  0.38366730581E+03  0.38366730584E+03  0.50400001928E-02 0. -1.
       -1   -1    0    0    0  501  0.00000000000E+00  0.00000000000E+00 -0.55350342619E+03  0.55350342622E+03  0.50400001928E-02 0.  1.
    10030    2    1    2    0    0  0.00000000000E+00  0.00000000000E+00 -0.16983612038E+03  0.93717073206E+03  0.92165322830E+03 0.  0.
        3    1    3    3  502    0 -0.13953889671E+03 -0.43836699048E+03 -0.57549547190E+02  0.46362558452E+03  0.10100000352E+00 0.  1.
       -3    1    3    3    0  502  0.13953889671E+03  0.43836699048E+03 -0.11228657319E+03  0.47354514754E+03  0.10100000352E+00 0. -1.
</event>
<event>
 5   0  0.9981885E-04  0.8997732E+03  0.7818609E-02  0.9425865E-01
       -1   -1    0    0    0  501  0.00000000000E+00  0.00000000000E+00  0.96092473390E+03  0.96092473391E+03  0.50400001928E-02 0.  1.
        1   -1    0    0  501    0  0.00000000000E+00  0.00000000000E+00 -0.21062832806E+03  0.21062832812E+03  0.50400001928E-02 0. -1.
    10030    2    1    2    0    0  0.00000000000E+00  0.00000000000E+00  0.75029640583E+03  0.11715530620E+04  0.89977323841E+03 0.  0.
        4    1    3    3  502    0  0.34111552380E+03  0.16573866280E+03  0.69025394426E+03  0.78757934546E+03  0.12699999809E+01 0.  1.
       -4    1    3    3    0  502 -0.34111552380E+03 -0.16573866280E+03  0.60042461569E+02  0.38397371657E+03  0.12699999809E+01 0. -1.
</event>
<event>
 5   0  0.1630202E-03  0.8995045E+03  0.7818609E-02  0.9426201E-01
        2   -1    0    0  501    0  0.00000000000E+00  0.00000000000E+00  0.50346004561E+03  0.50346004562E+03  0.25500000920E-02 0.  1.
       -2   -1    0    0    0  501  0.00000000000E+00  0.00000000000E+00 -0.40177390550E+03  0.40177390551E+03  0.25500000920E-02 0. -1.
    10030    2    1    2    0    0  0.00000000000E+00  0.00000000000E+00  0.10168614011E+03  0.90523395113E+03  0.89950454985E+03 0.  0.
        4    1    3    3  502    0  0.20019299687E+03 -0.11865188217E+02  0.45597083352E+03  0.49812551893E+03  0.12699999809E+01 0.  1.
       -4    1    3    3    0  502 -0.20019299687E+03  0.11865188217E+02 -0.35428469341E+03  0.40710843220E+03  0.12699999809E+01 0. -1.
</event>
<event>
 5   0  0.1536020E-03  0.9073551E+03  0.7818609E-02  0.9416434E-01
       -2   -1    0    0    0  501  0.00000000000E+00  0.00000000000E+00  0.26857474661E+03  0.26857474662E+03  0.25500000920E-02 0.  1.
        2   -1    0    0  501    0  0.00000000000E+00  0.00000000000E+00 -0.76635391371E+03  0.76635391372E+03  0.25500000920E-02 0. -1.
    10030    2    1    2    0    0  0.00000000000E+00  0.00000000000E+00 -0.49777916710E+03  0.10349286603E+04  0.90735507536E+03 0.  0.
        2    1    3    3  502    0  0.32261332433E+03 -0.30969509299E+03 -0.33600107040E+03  0.55936314410E+03  0.25500000920E-02 0.  1.
       -2    1    3    3    0  502 -0.32261332433E+03  0.30969509299E+03 -0.16177809671E+03  0.47556551624E+03  0.25500000920E-02 0. -1.
</event>
<event>
 5   0  0.1630202E-03  0.8853774E+03  0.7818609E-02  0.9444047E-01
        2   -1    0    0  501    0  0.00000000000E+00  0.00000000000E+00  0.10999916317E+04  0.10999916317E+04  0.25500000920E-02 0.  1.
       -2   -1    0    0    0  501  0.00000000000E+00  0.00000000000E+00 -0.17815890098E+03  0.17815890099E+03  0.25500000920E-02 0. -1.
    10030    2    1    2    0    0  0.00000000000E+00  0.00000000000E+00  0.92183273070E+03  0.12781505327E+04  0.88537743408E+03 0.  0.
        4    1    3    3  502    0 -0.43693581693E+03  0.57400646034E+02  0.52154755346E+03  0.68280392917E+03  0.12699999809E+01 0.  1.
       -4    1    3    3    0  502  0.43693581693E+03 -0.57400646034E+02  0.40028517724E+03  0.59534660350E+03  0.12699999809E+01 0. -1.
</event>
<event>
 5   0  0.1641516E-03  0.9000135E+03  0.7818609E-02  0.9425565E-01
       -2   -1    0    0    0  501  0.00000000000E+00  0.00000000000E+00  0.16786319818E+03  0.16786319820E+03  0.25500000920E-02 0. -1.
        2   -1    0    0  501    0  0.00000000000E+00  0.00000000000E+00 -0.12063755674E+04  0.12063755674E+04  0.25500000920E-02 0.  1.
    10030    2    1    2    0    0  0.00000000000E+00  0.00000000000E+00 -0.10385123692E+04  0.13742387656E+04  0.90001346870E+03 0.  0.
        1    1    3    3  502    0  0.38341065682E+03  0.88984494198E+02 -0.18617962818E+03  0.43541339661E+03  0.50400001928E-02 0. -1.
       -1    1    3    3    0  502 -0.38341065682E+03 -0.88984494198E+02 -0.85233274104E+03  0.93882536898E+03  0.50400001928E-02 0.  1.
</event>
<event>
 5   0  0.1704416E-03  0.9019265E+03  0.7818609E-02  0.9423176E-01
       -2   -1    0    0    0  501  0.00000000000E+00  0.00000000000E+00  0.11207102102E+03  0.11207102104E+03  0.25500000920E-02 0.  1.
        2   -1    0    0  501    0  0.00000000000E+00  0.00000000000E+00 -0.18146337971E+04  0.18146337971E+04  0.25500000920E-02 0. -1.
    10030    2    1    2    0    0  0.00000000000E+00  0.00000000000E+00 -0.17025627760E+04  0.19267048181E+04  0.90192652125E+03 0.  0.
        3    1    3    3  502    0  0.22551845781E+03  0.54504682992E+02 -0.16773584449E+04  0.16933282902E+04  0.10100000352E+00 0.  1.
       -3    1    3    3    0  502 -0.22551845781E+03 -0.54504682992E+02 -0.25204331103E+02  0.23337652793E+03  0.10100000352E+00 0. -1.
</event>
<event>
 5   0  0.9223454E-04  0.8980653E+03  0.7818609E-02  0.9428003E-01
       -1   -1    0    0    0  501  0.00000000000E+00  0.00000000000E+00  0.64296399149E+03  0.64296399151E+03  0.50400001928E-02 0. -1.
        1   -1    0    0  501    0  0.00000000000E+00  0.00000000000E+00 -0.31359502483E+03  0.31359502487E+03  0.50400001928E-02 0.  1.
    10030    2    1    2    0    0  0.00000000000E+00  0.00000000000E+00  0.32936896666E+03  0.95655901638E+03  0.89806527358E+03 0.  0.
        1    1    3    3  502    0 -0.17938857510E+03 -0.39398005313E+03  0.37626270752E+02  0.43452995226E+03  0.50400001928E-02 0.  1.
       -1    1    3    3    0  502  0.17938857510E+03  0.39398005313E+03  0.29174269591E+03  0.52202906412E+03  0.50400001928E-02 0. -1.
</event>
<event>
 5   0  0.1536020E-03  0.8970705E+03  0.7818609E-02  0.9429251E-01
       -2   -1    0    0    0  501  0.00000000000E+00  0.00000000000E+00  0.24113854903E+03  0.24113854905E+03  0.25500000920E-02 0. -1.
        2   -1    0    0  501    0  0.00000000000E+00  0.00000000000E+00 -0.83430820030E+03  0.83430820031E+03  0.25500000920E-02 0.  1.
    10030    2    1    2    0    0  0.00000000000E+00  0.00000000000E+00 -0.59316965127E+03  0.10754467494E+04  0.89707049640E+03 0.  0.
        2    1    3    3  502    0 -0.10521028414E+02 -0.17072894768E+03  0.20050125902E+03  0.26355231073E+03  0.25500000920E-02 0. -1.
       -2    1    3    3    0  502  0.10521028414E+02  0.17072894768E+03 -0.79367091030E+03  0.81189443862E+03  0.25500000920E-02 0.  1.
</event>
<event>
 5   0  0.1007561E-03  0.8960683E+03  0.7818609E-02  0.9430510E-01
        1   -1    0    0  501    0  0.00000000000E+00  0.00000000000E+00  0.20831119290E+04  0.20831119290E+04  0.50400001928E-02 0.  1.
       -1   -1    0    0    0  501  0.00000000000E+00  0.00000000000E+00 -0.96362849838E+02  0.96362849970E+02  0.50400001928E-02 0. -1.
    10030    2    1    2    0    0  0.00000000000E+00  0.00000000000E+00  0.19867490792E+04  0.21794747790E+04  0.89606830579E+03 0.  0.
        2    1    3    3  502    0 -0.13004519003E+02  0.29689341858E+03  0.18088898181E+04  0.18331386182E+04  0.25500000920E-02 0.  1.
       -2    1    3    3    0  502  0.13004519003E+02 -0.29689341858E+03  0.17785926107E+03  0.34633616078E+03  0.25500000920E-02 0. -1.
</event>
<event>
 5   0  0.1536020E-03  0.9056637E+03  0.7818609E-02  0.9418529E-01
        2   -1    0    0  501    0  0.00000000000E+00  0.00000000000E+00  0.13903927400E+04  0.13903927400E+04  0.25500000920E-02 0.  1.
       -2   -1    0    0    0  501  0.00000000000E+00  0.00000000000E+00 -0.14748111467E+03  0.14748111469E+03  0.25500000920E-02 0. -1.
    10030    2    1    2    0    0  0.00000000000E+00  0.00000000000E+00  0.12429116253E+04  0.15378738547E+04  0.90566367078E+03 0.  0.
        2    1    3    3  502    0  0.28166024369E+03 -0.35150217147E+03  0.54234718906E+03  0.70500123611E+03  0.25500000920E-02 0. -1.
       -2    1    3    3    0  502 -0.28166024369E+03  0.35150217147E+03  0.70056443624E+03  0.83287261857E+03  0.25500000920E-02 0.  1.
</event>
<event>
 5   0  0.1630202E-03  0.9047269E+03  0.7818609E-02  0.9419692E-01
       -2   -1    0    0    0  501  0.00000000000E+00  0.00000000000E+00  0.21491791753E+03  0.21491791754E+03  0.25500000920E-02 0. -1.
        2   -1    0    0  501    0  0.00000000000E+00  0.00000000000E+00 -0.95214345127E+03  0.95214345127E+03  0.25500000920E-02 0.  1.
    10030    2    1    2    0    0  0.00000000000E+00  0.00000000000E+00 -0.73722553374E+03  0.11670613688E+04  0.90472689304E+03 0.  0.
        4    1    3    3  502    0  0.28713746934E+03  0.78128472309E+02 -0.80810701108E+03  0.86115651234E+03  0.12699999809E+01 0.  1.
       -4    1    3    3    0  502 -0.28713746934E+03 -0.78128472309E+02  0.70881477343E+02  0.30590485648E+03  0.12699999809E+01 0. -1.
</event>
<event>
 5   0  0.9223454E-04  0.9027385E+03  0.7818609E-02  0.9422165E-01
       -1   -1    0    0    0  501  0.00000000000E+00  0.00000000000E+00  0.10017678842E+04  0.10017678842E+04  0.50400001928E-02 0.  1.
        1   -1    0    0  501    0  0.00000000000E+00  0.00000000000E+00 -0.20337464765E+03  0.20337464771E+03  0.50400001928E-02 0. -1.
    10030    2    1    2    0    0  0.00000000000E+00  0.00000000000E+00  0.79839323651E+03  0.12051425319E+04  0.90273847932E+03 0.  0.
        1    1    3    3  502    0  0.34410950870E+03  0.70606451198E+02  0.20809979322E+02  0.35189441626E+03  0.50400001928E-02 0. -1.
       -1    1    3    3    0  502 -0.34410950870E+03 -0.70606451198E+02  0.77758325719E+03  0.85324811562E+03  0.50400001928E-02 0.  1.
</event>
<event>
 5   0  0.9321543E-04  0.9072642E+03  0.7818609E-02  0.9416546E-01
        1   -1    0    0  501    0  0.00000000000E+00  0.00000000000E+00  0.19008864448E+04  0.19008864448E+04  0.50400001928E-02 0. -1.
       -1   -1    0    0    0  501  0.00000000000E+00  0.00000000000E+00 -0.10825584183E+03  0.10825584195E+03  0.50400001928E-02 0.  1.
    10030    2    1    2    0    0  0.00000000000E+00  0.00000000000E+00  0.17926306030E+04  0.20091422868E+04  0.90726415652E+03 0.  0.
        3    1    3    3  502    0 -0.42444492060E+03  0.47281707589E+02  0.55761161975E+03  0.70236726801E+03  0.10100000352E+00 0. -1.
       -3    1    3    3    0  502  0.42444492060E+03 -0.47281707589E+02  0.12350189832E+04  0.13067750187E+04  0.10100000352E+00 0.  1.
</event>
<event>
 5   0  0.1704416E-03  0.8984301E+03  0.7818609E-02  0.9427546E-01
        2   -1    0    0  501    0  0.00000000000E+00  0.00000000000E+00  0.37544308265E+03  0.37544308266E+03  0.25500000920E-02 0. -1.
       -2   -1    0    0    0  501  0.00000000000E+00  0.00000000000E+00 -0.53748273949E+03  0.53748273950E+03  0.25500000920E-02 0.  1.
    10030    2    1    2    0    0  0.00000000000E+00  0.00000000000E+00 -0.16203965684E+03  0.91292582216E+03  0.89843013439E+03 0.  0.
        3    1    3    3  502    0  0.95246955351E+02 -0.23562253254E+03  0.29536741306E+03  0.38965610382E+03  0.10100000352E+00 0. -1.
       -3    1    3    3    0  502 -0.95246955351E+02  0.23562253254E+03 -0.45740706989E+03  0.52326971834E+03  0.10100000352E+00 0.  1.
</event>
<event>
 5   0  0.9697941E-04  0.9019059E+03  0.7818609E-02  0.9423202E-01
        1   -1    0    0  501    0  0.00000000000E+00  0.00000000000E+00  0.10427386793E+04  0.10427386793E+04  0.50400001928E-02 0.  1.
       -1   -1    0    0    0  501  0.00000000000E+00  0.00000000000E+00 -0.19502351279E+03  0.19502351286E+03  0.50400001928E-02 0. -1.
    10030    2    1    2    0    0  0.00000000000E+00  0.00000000000E+00  0.84771516654E+03  0.12377621922E+04  0.90190589358E+03 0.  0.
        5    1    3    3  502    0 -0.85359191743E+01  0.75779678759E+02 -0.18607618649E+03  0.20115133309E+03  0.46999998093E+01 0. -1.
       -5    1    3    3    0  502  0.85359191743E+01 -0.75779678759E+02  0.10337913530E+04  0.10366108591E+04  0.46999998093E+01 0.  1.
</event>
<event>
 5   0  0.9981885E-04  0.9008919E+03  0.7818609E-02  0.9424467E-01
       -1   -1    0    0    0  501  0.00000000000E+00  0.00000000000E+00  0.90271867206E+02  0.90271867347E+02  0.50400001928E-02 0. -1.
        1   -1    0    0  501    0  0.00000000000E+00  0.00000000000E+00 -0.22476720322E+04  0.22476720322E+04  0.50400001928E-02 0.  1.
    10030    2    1    2    0    0  0.00000000000E+00  0.00000000000E+00 -0.21574001650E+04  0.23379438995E+04  0.90089189448E+03 0.  0.
        4    1    3    3  502    0 -0.37568419869E+03  0.85081361471E+01 -0.43413758203E+03  0.57418469029E+03  0.12699999809E+01 0. -1.
       -4    1    3    3    0  502  0.37568419869E+03 -0.85081361471E+01 -0.17232625829E+04  0.17637592092E+04  0.12699999809E+01 0.  1.
</event>
<event>
 5   0  0.1630202E-03  0.9032546E+03  0.7818609E-02  0.9421522E-01
       -2   -1    0    0    0  501  0.00000000000E+00  0.00000000000E+00  0.69461684785E+03  0.69461684786E+03  0.25500000920E-02 0.  1.
        2   -1    0    0  501    0  0.00000000000E+00  0.00000000000E+00 -0.29363988831E+03  0.29363988832E+03  0.25500000920E-02 0. -1.
    10030    2    1    2    0    0  0.00000000000E+00  0.00000000000E+00  0.40097695954E+03  0.98825673618E+03  0.90325459009E+03 0.  0.
        4    1    3    3  502    0  0.44420388279E+03  0.38106386641E+02  0.12161854149E+03  0.46212754594E+03  0.12699999809E+01 0. -1.
       -4    1    3    3    0  502 -0.44420388279E+03 -0.38106386641E+02  0.27935841806E+03  0.52612919024E+03  0.12699999809E+01 0.  1.
</event>
<event>
 5   0  0.1641516E-03  0.9010433E+03  0.7818609E-02  0.9424278E-01
        2   -1    0    0  501    0  0.00000000000E+00  0.00000000000E+00  0.21787219612E+04  0.21787219612E+04  0.25500000920E-02 0. -1.
       -2   -1    0    0    0  501  0.00000000000E+00  0.00000000000E+00 -0.93160018656E+02  0.93160018691E+02  0.25500000920E-02 0.  1.
    10030    2    1    2    0    0  0.00000000000E+00  0.00000000000E+00  0.20855619426E+04  0.22718819799E+04  0.90104334767E+03 0.  0.
        1    1    3    3  502    0  0.11909252860E+03 -0.30191735758E+03  0.25494167811E+03  0.41271343622E+03  0.50400001928E-02 0.  1.
       -1    1    3    3    0  502 -0.11909252860E+03  0.30191735758E+03  0.18306202645E+04  0.18591685437E+04  0.50400001928E-02 0. -1.
</event>
<event>
 5   0  0.1007561E-03  0.8997417E+03  0.7818609E-02  0.9425904E-01
       -1   -1    0    0    0  501  0.00000000000E+00  0.00000000000E+00  0.71738686301E+03  0.71738686303E+03  0.50400001928E-02 0. -1.
        1   -1    0    0  501    0  0.00000000000E+00  0.00000000000E+00 -0.28211244644E+03  0.28211244649E+03  0.50400001928E-02 0.  1.
    10030    2    1    2    0    0  0.00000000000E+00  0.00000000000E+00  0.43527441657E+03  0.99949930952E+03  0.89974165848E+03 0.  0.
        2    1    3    3  502    0  0.18343953193E+03  0.32877871003E+03 -0.55913622602E+02  0.38062032952E+03  0.25500000920E-02 0.  1.
       -2    1    3    3    0  502 -0.18343953193E+03 -0.32877871003E+03  0.49118803917E+03  0.61887897999E+03  0.25500000920E-02 0. -1.
</event>
<event>
 5   0  0.1536020E-03  0.9004287E+03  0.7818609E-02  0.9425046E-01
       -2   -1    0    0    0  501  0.00000000000E+00  0.00000000000E+00  0.25080584079E+03  0.25080584080E+03  0.25500000920E-02 0. -1.
        2   -1    0    0  501    0  0.00000000000E+00  0.00000000000E+00 -0.80816677566E+03  0.80816677566E+03  0.25500000920E-02 0.  1.
    10030    2    1    2    0    0  0.00000000000E+00  0.00000000000E+00 -0.55736093487E+03  0.10589726165E+04  0.90042867053E+03 0.  0.
        2    1    3    3  502    0 -0.47224425028E+02  0.20644242611E+02  0.24732488726E+03  0.25263794437E+03  0.25500000920E-02 0. -1.
       -2    1    3    3    0  502  0.47224425028E+02 -0.20644242611E+02 -0.80468582213E+03  0.80633467209E+03  0.25500000920E-02 0.  1.
</event>
<event>
 5   0  0.6375625E-04  0.8999924E+03  0.7818609E-02  0.9425591E-01
       -3   -1    0    0    0  501  0.00000000000E+00  0.00000000000E+00  0.21236994720E+03  0.21236997122E+03  0.10100000352E+00 0.  1.
        3   -1    0    0  501    0  0.00000000000E+00  0.00000000000E+00 -0.95350845825E+03  0.95350846360E+03  0.10100000352E+00 0. -1.
    10030    2    1    2    0    0  0.00000000000E+00  0.00000000000E+00 -0.74113851105E+03  0.11658784348E+04  0.89999235120E+03 0.  0.
        3    1    3    3  502    0  0.33298980743E+03 -0.11873989420E+03 -0.99010886194E+01  0.35366568406E+03  0.10100000352E+00 0.  1.
       -3    1    3    3    0  502 -0.33298980743E+03  0.11873989420E+03 -0.73123742243E+03  0.81221275075E+03  0.10100000352E+00 0. -1.
</event>
<event>
 5   0  0.1641516E-03  0.8995761E+03  0.7818609E-02  0.9426112E-01
       -2   -1    0    0    0  501  0.00000000000E+00  0.00000000000E+00  0.12370962406E+04  0.12370962406E+04  0.25500000920E-02 0.  1.
        2   -1    0    0  501    0  0.00000000000E+00  0.00000000000E+00 -0.16353559620E+03  0.16353559622E+03  0.25500000920E-02 0. -1.
    10030    2    1    2    0    0  0.00000000000E+00  0.00000000000E+00  0.10735606444E+04  0.14006318368E+04  0.89957605856E+03 0.  0.
        1    1    3    3  502    0  0.35980433658E+03 -0.29682275958E+02  0.11908553050E+03  0.38015991599E+03  0.50400001928E-02 0. -1.
       -1    1    3    3    0  502 -0.35980433658E+03  0.29682275958E+02  0.95447511391E+03  0.10204719208E+04  0.50400001928E-02 0.  1.
</event>
<event>
 5   0  0.1704416E-03  0.9006486E+03  0.7818609E-02  0.9424771E-01
       -2   -1    0    0    0  501  0.00000000000E+00  0.00000000000E+00  0.19351794328E+03  0.19351794329E+03  0.25500000920E-02 0.  1.
        2   -1    0    0  501    0  0.00000000000E+00  0.00000000000E+00 -0.10479233277E+04  0.10479233277E+04  0.25500000920E-02 0. -1.
    10030    2    1    2    0    0  0.00000000000E+00  0.00000000000E+00 -0.85440538445E+03  0.12414412710E+04  0.90064858209E+03 0.  0.
        3    1    3    3  502    0  0.39410665372E+03 -0.86023188526E+02 -0.70312756423E+03  0.81062224572E+03  0.10100000352E+00 0. -1.
       -3    1    3    3    0  502 -0.39410665372E+03  0.86023188526E+02 -0.15127782022E+03  0.43081902530E+03  0.10100000352E+00 0.  1.
</event>
<event>
 5   0  0.1536020E-03  0.8988262E+03  0.7818609E-02  0.9427050E-01
        2   -1    0    0  501    0  0.00000000000E+00  0.00000000000E+00  0.60466196701E+03  0.60466196702E+03  0.25500000920E-02 0.  1.
       -2   -1    0    0    0  501  0.00000000000E+00  0.00000000000E+00 -0.33402489168E+03  0.33402489169E+03  0.25500000920E-02 0. -1.
    10030    2    1    2    0    0  0.00000000000E+00  0.00000000000E+00  0.27063707533E+03  0.93868685871E+03  0.89882623024E+03 0.  0.
        2    1    3    3  502    0 -0.36226069565E+03 -0.85062469699E+02 -0.12785641796E+03  0.39346626156E+03  0.25500000920E-02 0. -1.
       -2    1    3    3    0  502  0.36226069565E+03  0.85062469699E+02  0.39849349329E+03  0.54522059716E+03  0.25500000920E-02 0.  1.
</event>
<event>
 5   0  0.9697941E-04  0.9002163E+03  0.7818609E-02  0.9425311E-01
       -1   -1    0    0    0  501  0.00000000000E+00  0.00000000000E+00  0.17092956515E+03  0.17092956522E+03  0.50400001928E-02 0. -1.
        1   -1    0    0  501    0  0.00000000000E+00  0.00000000000E+00 -0.11852680033E+04  0.11852680033E+04  0.50400001928E-02 0.  1.
    10030    2    1    2    0    0  0.00000000000E+00  0.00000000000E+00 -0.10143384382E+04  0.13561975685E+04  0.90021629500E+03 0.  0.
        5    1    3    3  502    0  0.18673805943E+03 -0.34364678942E+03 -0.84272539655E+03  0.92907071997E+03  0.46999998093E+01 0.  1.
       -5    1    3    3    0  502 -0.18673805943E+03  0.34364678942E+03 -0.17161304160E+03  0.42712684856E+03  0.46999998093E+01 0. -1.
</event>
<event>
 5   0  0.1630202E-03  0.9006344E+03  0.7818609E-02  0.9424789E-01
       -2   -1    0    0    0  501  0.00000000000E+00  0.00000000000E+00  0.35091005825E+03  0.35091005826E+03  0.25500000920E-02 0. -1.
        2   -1    0    0  501    0  0.00000000000E+00  0.00000000000E+00 -0.57788481928E+03  0.57788481928E+03  0.25500000920E-02 0.  1.
    10030    2    1    2    0    0  0.00000000000E+00  0.00000000000E+00 -0.22697476102E+03  0.92879487754E+03  0.90063443328E+03 0.  0.
        4    1    3    3  502    0 -0.19790652787E+02 -0.33793281201E+03 -0.41974726426E+03  0.53923986696E+03  0.12699999809E+01 0.  1.
       -4    1    3    3    0  502  0.19790652787E+02  0.33793281201E+03  0.19277250324E+03  0.38955501058E+03  0.12699999809E+01 0. -1.
</event>
<event>
 5   0  0.9321543E-04  0.9023779E+03  0.7818609E-02  0.9422614E-01
       -1   -1    0    0    0  501  0.00000000000E+00  0.00000000000E+00  0.21474610402E+03  0.21474610408E+03  0.50400001928E-02 0. -1.
        1   -1    0    0  501    0  0.00000000000E+00  0.00000000000E+00 -0.94796351099E+03  0.94796351100E+03  0.50400001928E-02 0.  1.
    10030    2    1    2    0    0  0.00000000000E+00  0.00000000000E+00 -0.73321740697E+03  0.11627096151E+04  0.90237790483E+03 0.  0.
        3    1    3    3  502    0 -0.41241242245E+03  0.16572455518E+03 -0.46660478374E+03  0.64441343002E+03  0.10100000352E+00 0.  1.
       -3    1    3    3    0  502  0.41241242245E+03 -0.16572455518E+03 -0.26661262322E+03  0.51829618506E+03  0.10100000352E+00 0. -1.
</event>
<event>
 5   0  0.9223454E-04  0.8985786E+03  0.7818609E-02  0.9427360E-01
       -1   -1    0    0    0  501  0.00000000000E+00  0.00000000000E+00  0.44484599827E+03  0.44484599830E+03  0.50400001928E-02 0. -1.
        1   -1    0    0  501    0  0.00000000000E+00  0.00000000000E+00 -0.45377701263E+03  0.45377701266E+03  0.50400001928E-02 0.  1.
    10030    2    1    2    0    0  0.00000000000E+00  0.00000000000E+00 -0.89310143658E+01  0.89862301096E+03  0.89857862917E+03 0.  0.
        1    1    3    3  502    0 -0.19041264138E+03 -0.16148559085E+02  0.40217865124E+03  0.44527005008E+03  0.50400001928E-02 0. -1.
       -1    1    3    3    0  502  0.19041264138E+03  0.16148559085E+02 -0.41110966560E+03  0.45335296088E+03  0.50400001928E-02 0.  1.
</event>
<event>
 5   0  0.1704416E-03  0.8999775E+03  0.7818609E-02  0.9425610E-01
       -2   -1    0    0    0  501  0.00000000000E+00  0.00000000000E+00  0.24311016307E+03  0.24311016309E+03  0.25500000920E-02 0. -1.
        2   -1    0    0  501    0  0.00000000000E+00  0.00000000000E+00 -0.83291398586E+03  0.83291398587E+03  0.25500000920E-02 0.  1.
    10030    2    1    2    0    0  0.00000000000E+00  0.00000000000E+00 -0.58980382279E+03  0.10760241490E+04  0.89997745514E+03 0.  0.
        3    1    3    3  502    0 -0.16628929366E+03 -0.22564096919E+03  0.12598737316E+03  0.30730897247E+03  0.10100000352E+00 0. -1.
       -3    1    3    3    0  502  0.16628929366E+03  0.22564096919E+03 -0.71579119595E+03  0.76871517649E+03  0.10100000352E+00 0.  1.
</event>
<event>
 5   0  0.9697941E-04  0.9045515E+03  0.7818609E-02  0.9419910E-01
        1   -1    0    0  501    0  0.00000000000E+00  0.00000000000E+00  0.11437655255E+04  0.11437655255E+04  0.50400001928E-02 0. -1.
       -1   -1    0    0    0  501  0.00000000000E+00  0.00000000000E+00 -0.17884205300E+03  0.17884205307E+03  0.50400001928E-02 0.  1.
    10030    2    1    2    0    0  0.00000000000E+00  0.00000000000E+00  0.96492347252E+03  0.13226075786E+04  0.90455154587E+03 0.  0.
        5    1    3    3  502    0 -0.14818196760E+03 -0.79333542562E+02  0.10963632273E+04  0.11091826372E+04  0.46999998093E+01 0. -1.
       -5    1    3    3    0  502  0.14818196760E+03  0.79333542562E+02 -0.13143975475E+03  0.21342494143E+03  0.46999998093E+01 0.  1.
</event>
<event>
 5   0  0.9321543E-04  0.8994425E+03  0.7818609E-02  0.9426279E-01
       -1   -1    0    0    0  501  0.00000000000E+00  0.00000000000E+00  0.27303283328E+03  0.27303283333E+03  0.50400001928E-02 0. -1.
        1   -1    0    0  501    0  0.00000000000E+00  0.00000000000E+00 -0.74075043654E+03  0.74075043655E+03  0.50400001928E-02 0.  1.
    10030    2    1    2    0    0  0.00000000000E+00  0.00000000000E+00 -0.46771760326E+03  0.10137832699E+04  0.89944247281E+03 0.  0.
        3    1    3    3  502    0 -0.91105204705E+02 -0.31269507484E+03  0.11567837186E+03  0.34562966318E+03  0.10100000352E+00 0. -1.
       -3    1    3    3    0  502  0.91105204705E+02  0.31269507484E+03 -0.58339597512E+03  0.66815360669E+03  0.10100000352E+00 0.  1.
</event>
<event>
 5   0  0.9981885E-04  0.8984193E+03  0.7818609E-02  0.9427560E-01
        1   -1    0    0  501    0  0.00000000000E+00  0.00000000000E+00  0.44142421903E+03  0.44142421906E+03  0.50400001928E-02 0. -1.
       -1   -1    0    0    0  501  0.00000000000E+00  0.00000000000E+00 -0.45713237792E+03  0.45713237795E+03  0.50400001928E-02 0.  1.
    10030    2    1    2    0    0  0.00000000000E+00  0.00000000000E+00 -0.15708158889E+02  0.89855659700E+03  0.89841928506E+03 0.  0.
        4    1    3    3  502    0  0.14528638268E+03  0.42502855068E+03 -0.13358388203E+02  0.44937452233E+03  0.12699999809E+01 0. -1.
       -4    1    3    3    0  502 -0.14528638268E+03 -0.42502855068E+03 -0.23497706853E+01  0.44918207467E+03  0.12699999809E+01 0.  1.
</event>
<event>
 5   0  0.9697941E-04  0.9005830E+03  0.7818609E-02  0.9424853E-01
       -1   -1    0    0    0  501  0.00000000000E+00  0.00000000000E+00  0.23899670400E+03  0.23899670405E+03  0.50400001928E-02 0. -1.
        1   -1    0    0  501    0  0.00000000000E+00  0.00000000000E+00 -0.84839002079E+03  0.84839002081E+03  0.50400001928E-02 0.  1.
    10030    2    1    2    0    0  0.00000000000E+00  0.00000000000E+00 -0.60939331680E+03  0.10873867249E+04  0.90058296388E+03 0.  0.
        5    1    3    3  502    0 -0.12403024254E+03  0.38632282182E+03 -0.54041227101E+03  0.67579311655E+03  0.46999998093E+01 0.  1.
       -5    1    3    3    0  502  0.12403024254E+03 -0.38632282182E+03 -0.68981045789E+02  0.41159360831E+03  0.46999998093E+01 0. -1.
</event>
<event>
 5   0  0.9981885E-04  0.9000702E+03  0.7818609E-02  0.9425494E-01
        1   -1    0    0  501    0  0.00000000000E+00  0.00000000000E+00  0.57941291865E+03  0.57941291867E+03  0.50400001928E-02 0.  1.
       -1   -1    0    0    0  501  0.00000000000E+00  0.00000000000E+00 -0.34954619524E+03  0.34954619527E+03  0.50400001928E-02 0. -1.
    10030    2    1    2    0    0  0.00000000000E+00  0.00000000000E+00  0.22986672341E+03  0.92895911395E+03  0.90007017774E+03 0.  0.
        4    1    3    3  502    0 -0.14789550608E+03  0.39838807355E+03 -0.37955711156E+02  0.42664784867E+03  0.12699999809E+01 0.  1.
       -4    1    3    3    0  502  0.14789550608E+03 -0.39838807355E+03  0.26782243457E+03  0.50231126528E+03  0.12699999809E+01 0. -1.
</event>
<event>
 5   0  0.1641516E-03  0.8983630E+03  0.7818609E-02  0.9427630E-01
       -2   -1    0    0    0  501  0.00000000000E+00  0.00000000000E+00  0.89845861830E+02  0.89845861866E+02  0.25500000920E-02 0. -1.
        2   -1    0    0  501    0  0.00000000000E+00  0.00000000000E+00 -0.22456682840E+04  0.22456682840E+04  0.25500000920E-02 0.  1.
    10030    2    1    2    0    0  0.00000000000E+00  0.00000000000E+00 -0.21558224222E+04  0.23355141459E+04  0.89836296096E+03 0.  0.
        1    1    3    3  502    0  0.24366083218E+03  0.24804267043E+03 -0.18172094066E+04  0.18501745309E+04  0.50400001928E-02 0.  1.
       -1    1    3    3    0  502 -0.24366083218E+03 -0.24804267043E+03 -0.33861301563E+03  0.48533961498E+03  0.50400001928E-02 0. -1.
</event>
<event>
 5   0  0.9981885E-04  0.9029914E+03  0.7818609E-02  0.9421850E-01
       -1   -1    0    0    0  501  0.00000000000E+00  0.00000000000E+00  0.29519560429E+03  0.29519560434E+03  0.50400001928E-02 0. -1.
        1   -1    0    0  501    0  0.00000000000E+00  0.00000000000E+00 -0.69055350160E+03  0.69055350162E+03  0.50400001928E-02 0.  1.
    10030    2    1    2    0    0  0.00000000000E+00  0.00000000000E+00 -0.39535789731E+03  0.98574910595E+03  0.90299138032E+03 0.  0.
        4    1    3    3  502    0  0.28581177100E+03  0.14136791295E+02  0.18355263587E+03  0.33997264646E+03  0.12699999809E+01 0. -1.
       -4    1    3    3    0  502 -0.28581177100E+03 -0.14136791295E+02 -0.57891053318E+03  0.64577645949E+03  0.12699999809E+01 0.  1.
</event>
<event>
 5   0  0.1704416E-03  0.9006750E+03  0.7818609E-02  0.9424738E-01
       -2   -1    0    0    0  501  0.00000000000E+00  0.00000000000E+00  0.37019755836E+03  0.37019755837E+03  0.25500000920E-02 0.  1.
        2   -1    0    0  501    0  0.00000000000E+00  0.00000000000E+00 -0.54782604078E+03  0.54782604079E+03  0.25500000920E-02 0. -1.
    10030    2    1    2    0    0  0.00000000000E+00  0.00000000000E+00 -0.17762848242E+03  0.91802359916E+03  0.90067499734E+03 0.  0.
        3    1    3    3  502    0 -0.41822163495E+03  0.43100959539E+02  0.75653126298E+02  0.42718899140E+03  0.10100000352E+00 0.  1.
       -3    1    3    3    0  502  0.41822163495E+03 -0.43100959539E+02 -0.25328160872E+03  0.49083460776E+03  0.10100000352E+00 0. -1.
</event>
<event>
 5   0  0.1630202E-03  0.9001770E+03  0.7818609E-02  0.9425360E-01
        2   -1    0    0  501    0  0.00000000000E+00  0.00000000000E+00  0.88903717439E+03  0.88903717439E+03  0.25500000920E-02 0. -1.
       -2   -1    0    0    0  501  0.00000000000E+00  0.00000000000E+00 -0.22786412145E+03  0.22786412146E+03  0.25500000920E-02 0.  1.
    10030    2    1    2    0    0  0.00000000000E+00  0.00000000000E+00  0.66117305294E+03  0.11169012959E+04  0.90017703745E+03 0.  0.
        4    1    3    3  502    0  0.20632225943E+03  0.51384878312E+02 -0.16161862559E+03  0.26707952653E+03  0.12699999809E+01 0.  1.
       -4    1    3    3    0  502 -0.20632225943E+03 -0.51384878312E+02  0.82279167853E+03  0.84982176932E+03  0.12699999809E+01 0. -1.
</event>
<event>
 5   0  0.9981885E-04  0.8999283E+03  0.7818609E-02  0.9425671E-01
        1   -1    0    0  501    0  0.00000000000E+00  0.00000000000E+00  0.26876502350E+03  0.26876502355E+03  0.50400001928E-02 0.  1.
       -1   -1    0    0    0  501  0.00000000000E+00  0.00000000000E+00 -0.75332625097E+03  0.75332625099E+03  0.50400001928E-02 0. -1.
    10030    2    1    2    0    0  0.00000000000E+00  0.00000000000E+00 -0.48456122747E+03  0.10220912745E+04  0.89992832510E+03 0.  0.
        4    1    3    3  502    0  0.80980888117E+01  0.26608549928E+03 -0.65429099361E+03  0.70637482203E+03  0.12699999809E+01 0. -1.
       -4    1    3    3    0  502 -0.80980888117E+01 -0.26608549928E+03  0.16972976614E+03  0.31571645251E+03  0.12699999809E+01 0.  1.
</event>
<event>
 5   0  0.9223454E-04  0.9038735E+03  0.7818609E-02  0.9420752E-01
       -1   -1    0    0    0  501  0.00000000000E+00  0.00000000000E+00  0.53245952769E+03  0.53245952771E+03  0.50400001928E-02 0. -1.
        1   -1    0    0  501    0  0.00000000000E+00  0.00000000000E+00 -0.38359128238E+03  0.38359128241E+03  0.50400001928E-02 0.  1.
    10030    2    1    2    0    0  0.00000000000E+00  0.00000000000E+00  0.14886824531E+03  0.91605081013E+03  0.90387351564E+03 0.  0.
        1    1    3    3  502    0 -0.40425850761E+03 -0.19109014727E+03  0.79264899214E+01  0.44721718954E+03  0.50400001928E-02 0. -1.
       -1    1    3    3    0  502  0.40425850761E+03  0.19109014727E+03  0.14094175539E+03  0.46883362059E+03  0.50400001928E-02 0.  1.
</event>
<event>
 5   0  0.1536020E-03  0.8978979E+03  0.7818609E-02  0.9428213E-01
        2   -1    0    0  501    0  0.00000000000E+00  0.00000000000E+00  0.46030931953E+03  0.46030931954E+03  0.25500000920E-02 0. -1.
       -2   -1    0    0    0  501  0.00000000000E+00  0.00000000000E+00 -0.43786897105E+03  0.43786897105E+03  0.25500000920E-02 0.  1.
    10030    2    1    2    0    0  0.00000000000E+00  0.00000000000E+00  0.22440348482E+02  0.89817829059E+03  0.89789791872E+03 0.  0.
        2    1    3    3  502    0  0.20528181035E+03  0.19695333241E+03  0.35863818410E+03  0.45776913822E+03  0.25500000920E-02 0. -1.
       -2    1    3    3    0  502 -0.20528181035E+03 -0.19695333241E+03 -0.33619783562E+03  0.44040915237E+03  0.25500000920E-02 0.  1.
</event>
<event>
 5   0  0.1704416E-03  0.9001075E+03  0.7818609E-02  0.9425447E-01
        2   -1    0    0  501    0  0.00000000000E+00  0.00000000000E+00  0.94709460887E+03  0.94709460887E+03  0.25500000920E-02 0. -1.
       -2   -1    0    0    0  501  0.00000000000E+00  0.00000000000E+00 -0.21386288581E+03  0.21386288583E+03  0.25500000920E-02 0.  1.
    10030    2    1    2    0    0  0.00000000000E+00  0.00000000000E+00  0.73323172305E+03  0.11609574947E+04  0.90010751847E+03 0.  0.
        3    1    3    3  502    0  0.33783727235E+03 -0.97685402909E+02  0.43869387959E+01  0.35170401755E+03  0.10100000352E+00 0.  1.
       -3    1    3    3    0  502 -0.33783727235E+03  0.97685402909E+02  0.72884478426E+03  0.80925347714E+03  0.10100000352E+00 0. -1.
</event>
<event>
 5   0  0.9981885E-04  0.9006802E+03  0.7818609E-02  0.9424732E-01
       -1   -1    0    0    0  501  0.00000000000E+00  0.00000000000E+00  0.53108142118E+03  0.53108142121E+03  0.50400001928E-02 0.  1.
        1   -1    0    0  501    0  0.00000000000E+00  0.00000000000E+00 -0.38187404262E+03  0.38187404266E+03  0.50400001928E-02 0. -1.
    10030    2    1    2    0    0  0.00000000000E+00  0.00000000000E+00  0.14920737856E+03  0.91295546387E+03  0.90068020806E+03 0.  0.
        4    1    3    3  502    0  0.22329803523E+03  0.22894806842E+03 -0.24677479917E+03  0.40395376589E+03  0.12699999809E+01 0. -1.
       -4    1    3    3    0  502 -0.22329803523E+03 -0.22894806842E+03  0.39598217773E+03  0.50900169798E+03  0.12699999809E+01 0.  1.
</event>
<event>
 5   0  0.1007561E-03  0.9013898E+03  0.7818609E-02  0.9423846E-01
       -1   -1    0    0    0  501  0.00000000000E+00  0.00000000000E+00  0.14087676561E+03  0.14087676570E+03  0.50400001928E-02 0.  1.
        1   -1    0    0  501    0  0.00000000000E+00  0.00000000000E+00 -0.14418692268E+04  0.14418692268E+04  0.50400001928E-02 0. -1.
    10030    2    1    2    0    0  0.00000000000E+00  0.00000000000E+00 -0.13009924612E+04  0.15827459925E+04  0.90138975629E+03 0.  0.
        2    1    3    3  502    0 -0.44442118109E+03 -0.67898696030E+02 -0.70617372963E+03  0.83713903000E+03  0.25500000920E-02 0. -1.
       -2    1    3    3    0  502  0.44442118109E+03  0.67898696030E+02 -0.59481873160E+03  0.74560696255E+03  0.25500000920E-02 0.  1.
</event>
<event>
 5   0  0.9223454E-04  0.8887336E+03  0.7818609E-02  0.9439776E-01
        1   -1    0    0  501    0  0.00000000000E+00  0.00000000000E+00  0.85941015141E+03  0.85941015142E+03  0.50400001928E-02 0.  1.
       -1   -1    0    0    0  501  0.00000000000E+00  0.00000000000E+00 -0.22976438279E+03  0.22976438285E+03  0.50400001928E-02 0. -1.
    10030    2    1    2    0    0  0.00000000000E+00  0.00000000000E+00  0.62964576861E+03  0.10891745343E+04  0.88873357772E+03 0.  0.
        1    1    3    3  502    0 -0.26692365596E+03  0.19133619150E+03  0.68167392062E+03  0.75666182035E+03  0.50400001928E-02 0.  1.
       -1    1    3    3    0  502  0.26692365596E+03 -0.19133619150E+03 -0.52028152008E+02  0.33251271392E+03  0.50400001928E-02 0. -1.
</event>
<event>
 5   0  0.1536020E-03  0.8997533E+03  0.7818609E-02  0.9425890E-01
        2   -1    0    0  501    0  0.00000000000E+00  0.00000000000E+00  0.11785902117E+04  0.11785902117E+04  0.25500000920E-02 0. -1.
       -2   -1    0    0    0  501  0.00000000000E+00  0.00000000000E+00 -0.17172125766E+03  0.17172125768E+03  0.25500000920E-02 0.  1.
    10030    2    1    2    0    0  0.00000000000E+00  0.00000000000E+00  0.10068689541E+04  0.13503114694E+04  0.89975328493E+03 0.  0.
        2    1    3    3  502    0  0.40197516634E+03  0.19626861716E+03  0.43171791109E+03  0.62167978831E+03  0.25500000920E-02 0. -1.
       -2    1    3    3    0  502 -0.40197516634E+03 -0.19626861716E+03  0.57515104297E+03  0.72863168108E+03  0.25500000920E-02 0.  1.
</event>
<event>
 5   0  0.6375625E-04  0.8989447E+03  0.7818609E-02  0.9426902E-01
        3   -1    0    0  501    0  0.00000000000E+00  0.00000000000E+00  0.48679594353E+03  0.48679595400E+03  0.10100000352E+00 0. -1.
       -3   -1    0    0    0  501  0.00000000000E+00  0.00000000000E+00 -0.41501045008E+03  0.41501046237E+03  0.10100000352E+00 0.  1.
    10030    2    1    2    0    0  0.00000000000E+00  0.00000000000E+00  0.71785493443E+02  0.90180641638E+03  0.89894474555E+03 0.  0.
        5    1    3    3  502    0 -0.12173320930E+03 -0.13607776729E+03 -0.37610574744E+03  0.41810735016E+03  0.46999998093E+01 0.  1.
       -5    1    3    3    0  502  0.12173320930E+03  0.13607776729E+03  0.44789124089E+03  0.48369906622E+03  0.46999998093E+01 0. -1.
</event>
<event>
 5   0  0.9697941E-04  0.8993872E+03  0.7818609E-02  0.9426348E-01
        1   -1    0    0  501    0  0.00000000000E+00  0.00000000000E+00  0.11376818480E+04  0.11376818480E+04  0.50400001928E-02 0.  1.
       -1   -1    0    0    0  501  0.00000000000E+00  0.00000000000E+00 -0.17775123712E+03  0.17775123719E+03  0.50400001928E-02 0. -1.
    10030    2    1    2    0    0  0.00000000000E+00  0.00000000000E+00  0.95993061088E+03  0.13154330852E+04  0.89938724915E+03 0.  0.
        5    1    3    3  502    0  0.44934357916E+03  0.16658569170E+02  0.47428076032E+03  0.65356827467E+03  0.46999998093E+01 0. -1.
       -5    1    3    3    0  502 -0.44934357916E+03 -0.16658569170E+02  0.48564985057E+03  0.66186481052E+03  0.46999998093E+01 0.  1.
</event>
<event>
 5   0  0.9321543E-04  0.8985836E+03  0.7818609E-02  0.9427354E-01
       -1   -1    0    0    0  501  0.00000000000E+00  0.00000000000E+00  0.36369142129E+03  0.36369142132E+03  0.50400001928E-02 0. -1.
        1   -1    0    0  501    0  0.00000000000E+00  0.00000000000E+00 -0.55503954509E+03  0.55503954511E+03  0.50400001928E-02 0.  1.
    10030    2    1    2    0    0  0.00000000000E+00  0.00000000000E+00 -0.19134812380E+03  0.91873096643E+03  0.89858359889E+03 0.  0.
        3    1    3    3  502    0 -0.25237712955E+02  0.68900250863E+02  0.35752380073E+03  0.36497597868E+03  0.10100000352E+00 0. -1.
       -3    1    3    3    0  502  0.25237712955E+02 -0.68900250863E+02 -0.54887192453E+03  0.55375498775E+03  0.10100000352E+00 0.  1.
</event>
<event>
 5   0  0.1704416E-03  0.9004389E+03  0.7818609E-02  0.9425033E-01
       -2   -1    0    0    0  501  0.00000000000E+00  0.00000000000E+00  0.32118141467E+03  0.32118141468E+03  0.25500000920E-02 0.  1.
        2   -1    0    0  501    0  0.00000000000E+00  0.00000000000E+00 -0.63109991067E+03  0.63109991068E+03  0.25500000920E-02 0. -1.
    10030    2    1    2    0    0  0.00000000000E+00  0.00000000000E+00 -0.30991849600E+03  0.95228132536E+03  0.90043891989E+03 0.  0.
        3    1    3    3  502    0 -0.15596919605E+03  0.42082759022E+03 -0.19272667321E+03  0.48843201326E+03  0.10100000352E+00 0.  1.
       -3    1    3    3    0  502  0.15596919605E+03 -0.42082759022E+03 -0.11719182280E+03  0.46384931210E+03  0.10100000352E+00 0. -1.
</event>
<event>
 5   0  0.1704416E-03  0.8998247E+03  0.7818609E-02  0.9425801E-01
        2   -1    0    0  501    0  0.00000000000E+00  0.00000000000E+00  0.77632804718E+03  0.77632804718E+03  0.25500000920E-02 0. -1.
       -2   -1    0    0    0  501  0.00000000000E+00  0.00000000000E+00 -0.26074170791E+03  0.26074170792E+03  0.25500000920E-02 0.  1.
    10030    2    1    2    0    0  0.00000000000E+00  0.00000000000E+00  0.51558633926E+03  0.10370697551E+04  0.89982465165E+03 0.  0.
        3    1    3    3  502    0 -0.22665127023E+03  0.26087753985E+03  0.58981859456E+03  0.68360359404E+03  0.10100000352E+00 0. -1.
       -3    1    3    3    0  502  0.22665127023E+03 -0.26087753985E+03 -0.74232255295E+02  0.35346616107E+03  0.10100000352E+00 0.  1.
</event>
<event>
 5   0  0.9223454E-04  0.9001154E+03  0.7818609E-02  0.9425437E-01
       -1   -1    0    0    0  501  0.00000000000E+00  0.00000000000E+00  0.54396950279E+03  0.54396950281E+03  0.50400001928E-02 0.  1.
        1   -1    0    0  501    0  0.00000000000E+00  0.00000000000E+00 -0.37235900593E+03  0.37235900596E+03  0.50400001928E-02 0. -1.
    10030    2    1    2    0    0  0.00000000000E+00  0.00000000000E+00  0.17161049686E+03  0.91632850878E+03  0.90011542225E+03 0.  0.
        1    1    3    3  502    0 -0.10303203431E+03 -0.39859654881E+03  0.27089637470E+03  0.49282822025E+03  0.50400001928E-02 0.  1.
       -1    1    3    3    0  502  0.10303203431E+03  0.39859654881E+03 -0.99285877844E+02  0.42350028853E+03  0.50400001928E-02 0. -1.
</event>
<event>
 5   0  0.1641516E-03  0.8996309E+03  0.7818609E-02  0.9426043E-01
       -2   -1    0    0    0  501  0.00000000000E+00  0.00000000000E+00  0.23935795029E+03  0.23935795031E+03  0.25500000920E-02 0. -1.
        2   -1    0    0  501    0  0.00000000000E+00  0.00000000000E+00 -0.84531948065E+03  0.84531948065E+03  0.25500000920E-02 0.  1.
    10030    2    1    2    0    0  0.00000000000E+00  0.00000000000E+00 -0.60596153035E+03  0.10846774310E+04  0.89963089818E+03 0.  0.
        1    1    3    3  502    0 -0.13140316703E+03 -0.18757160882E+03 -0.76976258457E+03  0.80310916902E+03  0.50400001928E-02 0.  1.
       -1    1    3    3    0  502  0.13140316703E+03  0.18757160882E+03  0.16380105422E+03  0.28156826193E+03  0.50400001928E-02 0. -1.
</event>
<event>
 5   0  0.1007561E-03  0.9048889E+03  0.7818609E-02  0.9419491E-01
        1   -1    0    0  501    0  0.00000000000E+00  0.00000000000E+00  0.22500189837E+03  0.22500189843E+03  0.50400001928E-02 0. -1.
       -1   -1    0    0    0  501  0.00000000000E+00  0.00000000000E+00 -0.90979675335E+03  0.90979675336E+03  0.50400001928E-02 0.  1.
    10030    2    1    2    0    0  0.00000000000E+00  0.00000000000E+00 -0.68479485498E+03  0.11347986518E+04  0.90488893611E+03 0.  0.
        2    1    3    3  502    0 -0.26990049901E+03 -0.23833519175E+03 -0.68596834606E+03  0.77472738095E+03  0.25500000920E-02 0.  1.
       -2    1    3    3    0  502  0.26990049901E+03  0.23833519175E+03  0.11734910796E+01  0.36007127084E+03  0.25500000920E-02 0. -1.
</event>
<event>
 5   0  0.9223454E-04  0.9002569E+03  0.7818609E-02  0.9425260E-01
        1   -1    0    0  501    0  0.00000000000E+00  0.00000000000E+00  0.30800842896E+03  0.30800842900E+03  0.50400001928E-02 0. -1.
       -1   -1    0    0    0  501  0.00000000000E+00  0.00000000000E+00 -0.65782493236E+03  0.65782493238E+03  0.50400001928E-02 0.  1.
    10030    2    1    2    0    0  0.00000000000E+00  0.00000000000E+00 -0.34981650341E+03  0.96583336138E+03  0.90025690550E+03 0.  0.
        1    1    3    3  502    0 -0.30173944356E+03  0.25736045220E+03  0.53520254115E+02  0.40018184839E+03  0.50400001928E-02 0. -1.
       -1    1    3    3    0  502  0.30173944356E+03 -0.25736045220E+03 -0.40333675752E+03  0.56565151299E+03  0.50400001928E-02 0.  1.
</event>
<event>
 5   0  0.6375625E-04  0.9267544E+03  0.7818609E-02  0.9392741E-01
        4   -1    0    0  501    0  0.00000000000E+00  0.00000000000E+00  0.24360571859E+03  0.24360902904E+03  0.12699999809E+01 0. -1.
       -4   -1    0    0    0  501  0.00000000000E+00  0.00000000000E+00 -0.88140816138E+03  0.88140907633E+03  0.12699999809E+01 0.  1.
    10030    2    1    2    0    0  0.00000000000E+00  0.00000000000E+00 -0.63780244279E+03  0.11250181054E+04  0.92675443425E+03 0.  0.
        4    1    3    3  502    0 -0.20499456286E+03 -0.18076982964E+03  0.13533753342E+03  0.30498911942E+03  0.12699999809E+01 0. -1.
       -4    1    3    3    0  502  0.20499456286E+03  0.18076982964E+03 -0.77313997620E+03  0.82002898596E+03  0.12699999809E+01 0.  1.
</event>
<event>
 5   0  0.1641516E-03  0.9006359E+03  0.7818609E-02  0.9424787E-01
       -2   -1    0    0    0  501  0.00000000000E+00  0.00000000000E+00  0.28000234906E+03  0.28000234907E+03  0.25500000920E-02 0. -1.
        2   -1    0    0  501    0  0.00000000000E+00  0.00000000000E+00 -0.72423049342E+03  0.72423049343E+03  0.25500000920E-02 0.  1.
    10030    2    1    2    0    0  0.00000000000E+00  0.00000000000E+00 -0.44422814436E+03  0.10042328425E+04  0.90063586299E+03 0.  0.
        1    1    3    3  502    0  0.15589236212E+01  0.44763710979E+03 -0.16743424760E+03  0.47792848795E+03  0.50400001928E-02 0. -1.
       -1    1    3    3    0  502 -0.15589236212E+01 -0.44763710979E+03 -0.27679389676E+03  0.52630435454E+03  0.50400001928E-02 0.  1.
</event>
<event>
 5   0  0.1007561E-03  0.8999963E+03  0.7818609E-02  0.9425586E-01
       -1   -1    0    0    0  501  0.00000000000E+00  0.00000000000E+00  0.13678823107E+03  0.13678823116E+03  0.50400001928E-02 0.  1.
        1   -1    0    0  501    0  0.00000000000E+00  0.00000000000E+00 -0.14803783412E+04  0.14803783412E+04  0.50400001928E-02 0. -1.
    10030    2    1    2    0    0  0.00000000000E+00  0.00000000000E+00 -0.13435901102E+04  0.16171665724E+04  0.89999629929E+03 0.  0.
        2    1    3    3  502    0 -0.31872114287E+03 -0.28296717022E+03 -0.93122037453E+03  0.10241215613E+04  0.25500000920E-02 0. -1.
       -2    1    3    3    0  502  0.31872114287E+03  0.28296717022E+03 -0.41236973563E+03  0.59304501111E+03  0.25500000920E-02 0.  1.
</event>
<event>
 5   0  0.1007561E-03  0.9005630E+03  0.7818609E-02  0.9424878E-01
       -1   -1    0    0    0  501  0.00000000000E+00  0.00000000000E+00  0.21954527333E+03  0.21954527338E+03  0.50400001928E-02 0.  1.
        1   -1    0    0  501    0  0.00000000000E+00  0.00000000000E+00 -0.92351537987E+03  0.92351537989E+03  0.50400001928E-02 0. -1.
    10030    2    1    2    0    0  0.00000000000E+00  0.00000000000E+00 -0.70397010655E+03  0.11430606533E+04  0.90056301620E+03 0.  0.
        2    1    3    3  502    0 -0.16060967179E+03  0.26027667125E+01 -0.88591209675E+03  0.90035686494E+03  0.25500000920E-02 0. -1.
       -2    1    3    3    0  502  0.16060967179E+03 -0.26027667125E+01  0.18194199020E+03  0.24270378833E+03  0.25500000920E-02 0.  1.
</event>
<event>
 5   0  0.1536020E-03  0.9004624E+03  0.7818609E-02  0.9425004E-01
        2   -1    0    0  501    0  0.00000000000E+00  0.00000000000E+00  0.66250792105E+03  0.66250792106E+03  0.25500000920E-02 0.  1.
       -2   -1    0    0    0  501  0.00000000000E+00  0.00000000000E+00 -0.30597087122E+03  0.30597087123E+03  0.25500000920E-02 0. -1.
    10030    2    1    2    0    0  0.00000000000E+00  0.00000000000E+00  0.35653704983E+03  0.96847879229E+03  0.90046238300E+03 0.  0.
        2    1    3    3  502    0  0.11647484873E+03 -0.31630492684E+03  0.49929892339E+03  0.60242394710E+03  0.25500000920E-02 0.  1.
       -2    1    3    3    0  502 -0.11647484873E+03  0.31630492684E+03 -0.14276187356E+03  0.36605484518E+03  0.25500000920E-02 0. -1.
</event>
<event>
 5   0  0.6375625E-04  0.8997842E+03  0.7818609E-02  0.9425851E-01
       -3   -1    0    0    0  501  0.00000000000E+00  0.00000000000E+00  0.58065903720E+03  0.58065904598E+03  0.10100000352E+00 0. -1.
        3   -1    0    0  501    0  0.00000000000E+00  0.00000000000E+00 -0.34857443441E+03  0.34857444904E+03  0.10100000352E+00 0.  1.
    10030    2    1    2    0    0  0.00000000000E+00  0.00000000000E+00  0.23208460279E+03  0.92923349502E+03  0.89978421048E+03 0.  0.
        1    1    3    3  502    0 -0.29779248258E+03 -0.31914352308E+03  0.35271444419E+01  0.43651505332E+03  0.50400001928E-02 0.  1.
       -1    1    3    3    0  502  0.29779248258E+03  0.31914352308E+03  0.22855745835E+03  0.49271844170E+03  0.50400001928E-02 0. -1.
</event>
<event>
 5   0  0.9321543E-04  0.8984392E+03  0.7818609E-02  0.9427535E-01
       -1   -1    0    0    0  501  0.00000000000E+00  0.00000000000E+00  0.14544325836E+03  0.14544325845E+03  0.50400001928E-02 0. -1.
        1   -1    0    0  501    0  0.00000000000E+00  0.00000000000E+00 -0.13874705862E+04  0.13874705862E+04  0.50400001928E-02 0.  1.
    10030    2    1    2    0    0  0.00000000000E+00  0.00000000000E+00 -0.12420273278E+04  0.15329138447E+04  0.89843918662E+03 0.  0.
        3    1    3    3  502    0  0.45262951378E+02  0.28138974554E+03 -0.28569471113E+02  0.28643524319E+03  0.10100000352E+00 0. -1.
       -3    1    3    3    0  502 -0.45262951378E+02 -0.28138974554E+03 -0.12134578567E+04  0.12464786015E+04  0.10100000352E+00 0.  1.
</event>
<event>
 5   0  0.1635686E-03  0.8998658E+03  0.7818609E-02  0.9425749E-01
        2   -1    0    0  501    0  0.00000000000E+00  0.00000000000E+00  0.54634918676E+03  0.54634918677E+03  0.25500000920E-02 0.  1.
       -2   -1    0    0    0  501  0.00000000000E+00  0.00000000000E+00 -0.37053153083E+03  0.37053153084E+03  0.25500000920E-02 0. -1.
    10030    2    1    2    0    0  0.00000000000E+00  0.00000000000E+00  0.17581765593E+03  0.91688071760E+03  0.89986576898E+03 0.  0.
        5    1    3    3  502    0  0.39827694618E+03  0.19462327012E+03  0.95471108894E+01  0.44341400570E+03  0.46999998093E+01 0. -1.
       -5    1    3    3    0  502 -0.39827694618E+03 -0.19462327012E+03  0.16627054504E+03  0.47346671190E+03  0.46999998093E+01 0.  1.
</event>
<event>
 5   0  0.9321543E-04  0.9003231E+03  0.7818609E-02  0.9425178E-01
        1   -1    0    0  501    0  0.00000000000E+00  0.00000000000E+00  0.45980931646E+03  0.45980931649E+03  0.50400001928E-02 0.  1.
       -1   -1    0    0    0  501  0.00000000000E+00  0.00000000000E+00 -0.44071619623E+03  0.44071619626E+03  0.50400001928E-02 0. -1.
    10030    2    1    2    0    0  0.00000000000E+00  0.00000000000E+00  0.19093120225E+02  0.90052551275E+03  0.90032308194E+03 0.  0.
        3    1    3    3  502    0 -0.11429479709E+03  0.10746952406E+03  0.43158029217E+03  0.45921079912E+03  0.10100000352E+00 0.  1.
       -3    1    3    3    0  502  0.11429479709E+03 -0.10746952406E+03 -0.41248717194E+03  0.44131471362E+03  0.10100000352E+00 0. -1.
</event>
<event>
 5   0  0.1536020E-03  0.9052334E+03  0.7818609E-02  0.9419063E-01
       -2   -1    0    0    0  501  0.00000000000E+00  0.00000000000E+00  0.11765918260E+03  0.11765918262E+03  0.25500000920E-02 0. -1.
        2   -1    0    0  501    0  0.00000000000E+00  0.00000000000E+00 -0.17411466171E+04  0.17411466171E+04  0.25500000920E-02 0.  1.
    10030    2    1    2    0    0  0.00000000000E+00  0.00000000000E+00 -0.16234874345E+04  0.18588057997E+04  0.90523342354E+03 0.  0.
        2    1    3    3  502    0  0.77299213624E+02  0.27824412824E+02 -0.17257083717E+04  0.17276628000E+04  0.25500000920E-02 0.  1.
       -2    1    3    3    0  502 -0.77299213624E+02 -0.27824412824E+02  0.10222093718E+03  0.13114299974E+03  0.25500000920E-02 0. -1.
</event>
<event>
 5   0  0.1536020E-03  0.9030085E+03  0.7818609E-02  0.9421828E-01
       -2   -1    0    0    0  501  0.00000000000E+00  0.00000000000E+00  0.35014812733E+03  0.35014812734E+03  0.25500000920E-02 0. -1.
        2   -1    0    0  501    0  0.00000000000E+00  0.00000000000E+00 -0.58219953881E+03  0.58219953881E+03  0.25500000920E-02 0.  1.
    10030    2    1    2    0    0  0.00000000000E+00  0.00000000000E+00 -0.23205141147E+03  0.93234766616E+03  0.90300847893E+03 0.  0.
        2    1    3    3  502    0 -0.24384069753E+03 -0.24327615389E+03 -0.41742541130E+03  0.54118901211E+03  0.25500000920E-02 0.  1.
       -2    1    3    3    0  502  0.24384069753E+03  0.24327615389E+03  0.18537399983E+03  0.39115865405E+03  0.25500000920E-02 0. -1.
</event>
<event>
 5   0  0.9223454E-04  0.9057829E+03  0.7818609E-02  0.9418381E-01
        1   -1    0    0  501    0  0.00000000000E+00  0.00000000000E+00  0.91343922641E+03  0.91343922643E+03  0.50400001928E-02 0. -1.
       -1   -1    0    0    0  501  0.00000000000E+00  0.00000000000E+00 -0.22454770855E+03  0.22454770861E+03  0.50400001928E-02 0.  1.
    10030    2    1    2    0    0  0.00000000000E+00  0.00000000000E+00  0.68889151786E+03  0.11379869350E+04  0.90578294361E+03 0.  0.
        1    1    3    3  502    0  0.29958049142E+03  0.33631156663E+03  0.40412926610E+03  0.60512346214E+03  0.50400001928E-02 0. -1.
       -1    1    3    3    0  502 -0.29958049142E+03 -0.33631156663E+03  0.28476225176E+03  0.53286347289E+03  0.50400001928E-02 0.  1.
</event>
<event>
 5   0  0.1704416E-03  0.8994774E+03  0.7818609E-02  0.9426235E-01
        2   -1    0    0  501    0  0.00000000000E+00  0.00000000000E+00  0.13922292103E+04  0.13922292103E+04  0.25500000920E-02 0.  1.
       -2   -1    0    0    0  501  0.00000000000E+00  0.00000000000E+00 -0.14528132283E+03  0.14528132285E+03  0.25500000920E-02 0. -1.
    10030    2    1    2    0    0  0.00000000000E+00  0.00000000000E+00  0.12469478875E+04  0.15375105332E+04  0.89947740688E+03 0.  0.
        3    1    3    3  502    0 -0.33288057521E+03 -0.19440783511E+03  0.10194393558E+04  0.10898901294E+04  0.10100000352E+00 0. -1.
       -3    1    3    3    0  502  0.33288057521E+03  0.19440783511E+03  0.22750853164E+03  0.44762040377E+03  0.10100000352E+00 0.  1.
</event>
<event>
 5   0  0.1536020E-03  0.9024878E+03  0.7818609E-02  0.9422477E-01
       -2   -1    0    0    0  501  0.00000000000E+00  0.00000000000E+00  0.84069568188E+02  0.84069568226E+02  0.25500000920E-02 0.  1.
        2   -1    0    0  501    0  0.00000000000E+00  0.00000000000E+00 -0.24220542804E+04  0.24220542804E+04  0.25500000920E-02 0. -1.
    10030    2    1    2    0    0  0.00000000000E+00  0.00000000000E+00 -0.23379847122E+04  0.25061238486E+04  0.90248780053E+03 0.  0.
        2    1    3    3  502    0  0.44708971347E+03  0.27230134935E+02 -0.10171393766E+04  0.11113969604E+04  0.25500000920E-02 0. -1.
       -2    1    3    3    0  502 -0.44708971347E+03 -0.27230134935E+02 -0.13208453356E+04  0.13947268882E+04  0.25500000920E-02 0.  1.
</event>
<event>
 5   0  0.9321543E-04  0.9000601E+03  0.7818609E-02  0.9425506E-01
        1   -1    0    0  501    0  0.00000000000E+00  0.00000000000E+00  0.11863507912E+04  0.11863507912E+04  0.50400001928E-02 0.  1.
       -1   -1    0    0    0  501  0.00000000000E+00  0.00000000000E+00 -0.17071430758E+03  0.17071430766E+03  0.50400001928E-02 0. -1.
    10030    2    1    2    0    0  0.00000000000E+00  0.00000000000E+00  0.10156364836E+04  0.13570650989E+04  0.90006011783E+03 0.  0.
        3    1    3    3  502    0  0.42529074815E+03 -0.12503834808E+03  0.62480477657E+03  0.76608604476E+03  0.10100000352E+00 0. -1.
       -3    1    3    3    0  502 -0.42529074815E+03  0.12503834808E+03  0.39083170704E+03  0.59097905410E+03  0.10100000352E+00 0.  1.
</event>
<event>
 5   0  0.9321543E-04  0.9010111E+03  0.7818609E-02  0.9424318E-01
       -1   -1    0    0    0  501  0.00000000000E+00  0.00000000000E+00  0.19368956800E+03  0.19368956806E+03  0.50400001928E-02 0.  1.
        1   -1    0    0  501    0  0.00000000000E+00  0.00000000000E+00 -0.10478378189E+04  0.10478378189E+04  0.50400001928E-02 0. -1.
    10030    2    1    2    0    0  0.00000000000E+00  0.00000000000E+00 -0.85414825088E+03  0.12415273869E+04  0.90101110874E+03 0.  0.
        3    1    3    3  502    0  0.11384052932E+03  0.42273970770E+03 -0.28068460412E+03  0.52005036657E+03  0.10100000352E+00 0. -1.
       -3    1    3    3    0  502 -0.11384052932E+03 -0.42273970770E+03 -0.57346364676E+03  0.72147702038E+03  0.10100000352E+00 0.  1.
</event>
<event>
 5   0  0.9981885E-04  0.8955635E+03  0.7818609E-02  0.9431144E-01
       -1   -1    0    0    0  501  0.00000000000E+00  0.00000000000E+00  0.25828328833E+03  0.25828328838E+03  0.50400001928E-02 0.  1.
        1   -1    0    0  501    0  0.00000000000E+00  0.00000000000E+00 -0.77631236465E+03  0.77631236467E+03  0.50400001928E-02 0. -1.
    10030    2    1    2    0    0  0.00000000000E+00  0.00000000000E+00 -0.51802907632E+03  0.10345956531E+04  0.89556353287E+03 0.  0.
        4    1    3    3  502    0 -0.33727504701E+03 -0.28959757688E+03 -0.32107265640E+03  0.54837074818E+03  0.12699999809E+01 0.  1.
       -4    1    3    3    0  502  0.33727504701E+03  0.28959757688E+03 -0.19695641992E+03  0.48622490487E+03  0.12699999809E+01 0. -1.
</event>
<event>
 5   0  0.1704416E-03  0.9046614E+03  0.7818609E-02  0.9419773E-01
        2   -1    0    0  501    0  0.00000000000E+00  0.00000000000E+00  0.64354891783E+03  0.64354891783E+03  0.25500000920E-02 0.  1.
       -2   -1    0    0    0  501  0.00000000000E+00  0.00000000000E+00 -0.31792928283E+03  0.31792928284E+03  0.25500000920E-02 0. -1.
    10030    2    1    2    0    0  0.00000000000E+00  0.00000000000E+00  0.32561963500E+03  0.96147820068E+03  0.90466136409E+03 0.  0.
        3    1    3    3  502    0  0.41278038996E+03 -0.11404392332E+03  0.31759068356E+03  0.53315806218E+03  0.10100000352E+00 0.  1.
       -3    1    3    3    0  502 -0.41278038996E+03  0.11404392332E+03  0.80289514362E+01  0.42832013850E+03  0.10100000352E+00 0. -1.
</event>
<event>
 5   0  0.1536020E-03  0.8973743E+03  0.7818609E-02  0.9428870E-01
       -2   -1    0    0    0  501  0.00000000000E+00  0.00000000000E+00  0.24489848769E+03  0.24489848770E+03  0.25500000920E-02 0. -1.
        2   -1    0    0  501    0  0.00000000000E+00  0.00000000000E+00 -0.82205558214E+03  0.82205558215E+03  0.25500000920E-02 0.  1.
    10030    2    1    2    0    0  0.00000000000E+00  0.00000000000E+00 -0.57715709446E+03  0.10669540698E+04  0.89737432295E+03 0.  0.
        2    1    3    3  502    0  0.40946315759E+03  0.35785970411E+02 -0.50252587087E+03  0.64920949161E+03  0.25500000920E-02 0.  1.
       -2    1    3    3    0  502 -0.40946315759E+03 -0.35785970411E+02 -0.74631223589E+02  0.41774457824E+03  0.25500000920E-02 0. -1.
</event>
<event>
 5   0  0.1630202E-03  0.8971090E+03  0.7818609E-02  0.9429203E-01
       -2   -1    0    0    0  501  0.00000000000E+00  0.00000000000E+00  0.82355416121E+02  0.82355416161E+02  0.25500000920E-02 0. -1.
        2   -1    0    0  501    0  0.00000000000E+00  0.00000000000E+00 -0.24430832720E+04  0.24430832720E+04  0.25500000920E-02 0.  1.
    10030    2    1    2    0    0  0.00000000000E+00  0.00000000000E+00 -0.23607278559E+04  0.25254386882E+04  0.89710900015E+03 0.  0.
        4    1    3    3  502    0 -0.42470833907E+02 -0.14572886230E+03  0.78518647565E+01  0.15199979513E+03  0.12699999809E+01 0. -1.
       -4    1    3    3    0  502  0.42470833907E+02  0.14572886230E+03 -0.23685797206E+04  0.23734388930E+04  0.12699999809E+01 0.  1.
</event>
<event>
 5   0  0.1007561E-03  0.8975754E+03  0.7818609E-02  0.9428617E-01
       -1   -1    0    0    0  501  0.00000000000E+00  0.00000000000E+00  0.71056007774E+03  0.71056007776E+03  0.50400001928E-02 0.  1.
        1   -1    0    0  501    0  0.00000000000E+00  0.00000000000E+00 -0.28345302778E+03  0.28345302783E+03  0.50400001928E-02 0. -1.
    10030    2    1    2    0    0  0.00000000000E+00  0.00000000000E+00  0.42710704996E+03  0.99401310559E+03  0.89757541296E+03 0.  0.
        2    1    3    3  502    0 -0.74848305952E+01 -0.13500948010E+03  0.68746491147E+03  0.70063655836E+03  0.25500000920E-02 0.  1.
       -2    1    3    3    0  502  0.74848305952E+01  0.13500948010E+03 -0.26035786151E+03  0.29337654722E+03  0.25500000920E-02 0. -1.
</event>
<event>
 5   0  0.6375625E-04  0.8978040E+03  0.7818609E-02  0.9428331E-01
        3   -1    0    0  501    0  0.00000000000E+00  0.00000000000E+00  0.10526681714E+04  0.10526681763E+04  0.10100000352E+00 0. -1.
       -3   -1    0    0    0  501  0.00000000000E+00  0.00000000000E+00 -0.19143067576E+03  0.19143070240E+03  0.10100000352E+00 0.  1.
    10030    2    1    2    0    0  0.00000000000E+00  0.00000000000E+00  0.86123749565E+03  0.12440988787E+04  0.89780398527E+03 0.  0.
        2    1    3    3  502    0 -0.25429456020E+03 -0.70763491277E+01 -0.81902618615E+02  0.26725238447E+03  0.25500000920E-02 0.  1.
       -2    1    3    3    0  502  0.25429456020E+03  0.70763491277E+01  0.94314011426E+03  0.97684649418E+03  0.25500000920E-02 0. -1.
</event>
<event>
 5   0  0.1641516E-03  0.9001330E+03  0.7818609E-02  0.9425415E-01
        2   -1    0    0  501    0  0.00000000000E+00  0.00000000000E+00  0.32468417834E+03  0.32468417835E+03  0.25500000920E-02 0. -1.
       -2   -1    0    0    0  501  0.00000000000E+00  0.00000000000E+00 -0.62386732196E+03  0.62386732197E+03  0.25500000920E-02 0.  1.
    10030    2    1    2    0    0  0.00000000000E+00  0.00000000000E+00 -0.29918314362E+03  0.94855150032E+03  0.90013298758E+03 0.  0.
        1    1    3    3  502    0  0.23452303988E+02  0.23830603520E+03  0.25198425401E+03  0.34761450095E+03  0.50400001928E-02 0. -1.
       -1    1    3    3    0  502 -0.23452303988E+02 -0.23830603520E+03 -0.55116739763E+03  0.60093699937E+03  0.50400001928E-02 0.  1.
</event>
<event>
 5   0  0.1536020E-03  0.8903797E+03  0.7818609E-02  0.9437688E-01
       -2   -1    0    0    0  501  0.00000000000E+00  0.00000000000E+00  0.16713595337E+03  0.16713595339E+03  0.25500000920E-02 0.  1.
        2   -1    0    0  501    0  0.00000000000E+00  0.00000000000E+00 -0.11858250611E+04  0.11858250611E+04  0.25500000920E-02 0. -1.
    10030    2    1    2    0    0  0.00000000000E+00  0.00000000000E+00 -0.10186891078E+04  0.13529610145E+04  0.89037969909E+03 0.  0.
        2    1    3    3  502    0  0.30861697614E+02  0.20653507387E+03 -0.11067833992E+04  0.11263119790E+04  0.25500000920E-02 0. -1.
       -2    1    3    3    0  502 -0.30861697614E+02 -0.20653507387E+03  0.88094291485E+02  0.22664903555E+03  0.25500000920E-02 0.  1.
</event>
<event>
 5   0  0.9223454E-04  0.8988478E+03  0.7818609E-02  0.9427023E-01
       -1   -1    0    0    0  501  0.00000000000E+00  0.00000000000E+00  0.43529763077E+03  0.43529763080E+03  0.50400001928E-02 0.  1.
        1   -1    0    0  501    0  0.00000000000E+00  0.00000000000E+00 -0.46400855108E+03  0.46400855111E+03  0.50400001928E-02 0. -1.
    10030    2    1    2    0    0  0.00000000000E+00  0.00000000000E+00 -0.28710920311E+02  0.89930618191E+03  0.89884775790E+03 0.  0.
        1    1    3    3  502    0 -0.31128332522E+03 -0.14900227389E+03 -0.30239608396E+03  0.45884897058E+03  0.50400001928E-02 0. -1.
       -1    1    3    3    0  502  0.31128332522E+03  0.14900227389E+03  0.27368516365E+03  0.44045721133E+03  0.50400001928E-02 0.  1.
</event>
<event>
 5   0  0.9321543E-04  0.9026281E+03  0.7818609E-02  0.9422302E-01
        1   -1    0    0  501    0  0.00000000000E+00  0.00000000000E+00  0.10527056748E+04  0.10527056748E+04  0.50400001928E-02 0. -1.
       -1   -1    0    0    0  501  0.00000000000E+00  0.00000000000E+00 -0.19348652573E+03  0.19348652580E+03  0.50400001928E-02 0.  1.
    10030    2    1    2    0    0  0.00000000000E+00  0.00000000000E+00  0.85921914909E+03  0.12461922006E+04  0.90262808219E+03 0.  0.
        3    1    3    3  502    0  0.14610122586E+03  0.44747572351E+02  0.10159069283E+04  0.10273338360E+04  0.10100000352E+00 0. -1.
       -3    1    3    3    0  502 -0.14610122586E+03 -0.44747572351E+02 -0.15668777919E+03  0.21885836465E+03  0.10100000352E+00 0.  1.
</event>
<event>
 5   0  0.9981885E-04  0.9012235E+03  0.7818609E-02  0.9424053E-01
        1   -1    0    0  501    0  0.00000000000E+00  0.00000000000E+00  0.23594701650E+03  0.23594701656E+03  0.50400001928E-02 0. -1.
       -1   -1    0    0    0  501  0.00000000000E+00  0.00000000000E+00 -0.86057849765E+03  0.86057849767E+03  0.50400001928E-02 0.  1.
    10030    2    1    2    0    0  0.00000000000E+00  0.00000000000E+00 -0.62463148115E+03  0.10965255142E+04  0.90122345515E+03 0.  0.
        4    1    3    3  502    0  0.32757900534E+03  0.82304910818E+02 -0.67522767343E+03  0.75499412378E+03  0.12699999809E+01 0. -1.
       -4    1    3    3    0  502 -0.32757900534E+03 -0.82304910818E+02  0.50596192282E+02  0.34153139044E+03  0.12699999809E+01 0.  1.
</event>
<event>
 5   0  0.6375625E-04  0.8998550E+03  0.7818609E-02  0.9425763E-01
       -3   -1    0    0    0  501  0.00000000000E+00  0.00000000000E+00  0.99216671771E+03  0.99216672285E+03  0.10100000352E+00 0. -1.
        3   -1    0    0  501    0  0.00000000000E+00  0.00000000000E+00 -0.20403300572E+03  0.20403303072E+03  0.10100000352E+00 0.  1.
    10030    2    1    2    0    0  0.00000000000E+00  0.00000000000E+00  0.78813371199E+03  0.11961997536E+04  0.89985504525E+03 0.  0.
        4    1    3    3  502    0 -0.25783631378E+02  0.29301724433E+03 -0.58507791895E+02  0.29991444736E+03  0.12699999809E+01 0.  1.
       -4    1    3    3    0  502  0.25783631378E+02 -0.29301724433E+03  0.84664150389E+03  0.89628530621E+03  0.12699999809E+01 0. -1.
</event>
<event>
 5   0  0.9223454E-04  0.8997834E+03  0.7818609E-02  0.9425852E-01
        1   -1    0    0  501    0  0.00000000000E+00  0.00000000000E+00  0.15709418143E+04  0.15709418143E+04  0.50400001928E-02 0. -1.
       -1   -1    0    0    0  501  0.00000000000E+00  0.00000000000E+00 -0.12884152363E+03  0.12884152373E+03  0.50400001928E-02 0.  1.
    10030    2    1    2    0    0  0.00000000000E+00  0.00000000000E+00  0.14421002906E+04  0.16997833380E+04  0.89978338944E+03 0.  0.
        1    1    3    3  502    0  0.17804884905E+03  0.39015801245E+03  0.46425811236E+03  0.63202868784E+03  0.50400001928E-02 0.  1.
       -1    1    3    3    0  502 -0.17804884905E+03 -0.39015801245E+03  0.97784217826E+03  0.10677546502E+04  0.50400001928E-02 0. -1.
</event>
<event>
 5   0  0.1704416E-03  0.9009483E+03  0.7818609E-02  0.9424397E-01
        2   -1    0    0  501    0  0.00000000000E+00  0.00000000000E+00  0.31837064612E+03  0.31837064613E+03  0.25500000920E-02 0.  1.
       -2   -1    0    0    0  501  0.00000000000E+00  0.00000000000E+00 -0.63739217582E+03  0.63739217583E+03  0.25500000920E-02 0. -1.
    10030    2    1    2    0    0  0.00000000000E+00  0.00000000000E+00 -0.31902152970E+03  0.95576282196E+03  0.90094829786E+03 0.  0.
        3    1    3    3  502    0 -0.75420524480E+02  0.41025012966E+03 -0.33995829079E+03  0.53811251061E+03  0.10100000352E+00 0. -1.
       -3    1    3    3    0  502  0.75420524480E+02 -0.41025012966E+03  0.20936761087E+02  0.41765031134E+03  0.10100000352E+00 0.  1.
</event>
<event>
 5   0  0.1007561E-03  0.8973406E+03  0.7818609E-02  0.9428912E-01
       -1   -1    0    0    0  501  0.00000000000E+00  0.00000000000E+00  0.18130736237E+03  0.18130736244E+03  0.50400001928E-02 0. -1.
        1   -1    0    0  501    0  0.00000000000E+00  0.00000000000E+00 -0.11102970707E+04  0.11102970707E+04  0.50400001928E-02 0.  1.
    10030    2    1    2    0    0  0.00000000000E+00  0.00000000000E+00 -0.92898970831E+03  0.12916044331E+04  0.89734058950E+03 0.  0.
        2    1    3    3  502    0  0.33331039236E+03  0.21792774163E+03 -0.16700569875E+03  0.43183239995E+03  0.25500000920E-02 0. -1.
       -2    1    3    3    0  502 -0.33331039236E+03 -0.21792774163E+03 -0.76198400956E+03  0.85977203319E+03  0.25500000920E-02 0.  1.
</event>
<event>
 5   0  0.1641516E-03  0.8986973E+03  0.7818609E-02  0.9427211E-01
       -2   -1    0    0    0  501  0.00000000000E+00  0.00000000000E+00  0.22860076362E+03  0.22860076364E+03  0.25500000920E-02 0. -1.
        2   -1    0    0  501    0  0.00000000000E+00  0.00000000000E+00 -0.88326140111E+03  0.88326140111E+03  0.25500000920E-02 0.  1.
    10030    2    1    2    0    0  0.00000000000E+00  0.00000000000E+00 -0.65466063748E+03  0.11118621647E+04  0.89869734790E+03 0.  0.
        1    1    3    3  502    0 -0.40301884605E+03 -0.11339243163E+03 -0.12542814779E+03  0.43705177509E+03  0.50400001928E-02 0. -1.
       -1    1    3    3    0  502  0.40301884605E+03  0.11339243163E+03 -0.52923248970E+03  0.67481038966E+03  0.50400001928E-02 0.  1.
</event>
<event>
 5   0  0.1007561E-03  0.8995985E+03  0.7818609E-02  0.9426083E-01
       -1   -1    0    0    0  501  0.00000000000E+00  0.00000000000E+00  0.74033808399E+03  0.74033808401E+03  0.50400001928E-02 0.  1.
        1   -1    0    0  501    0  0.00000000000E+00  0.00000000000E+00 -0.27327967591E+03  0.27327967595E+03  0.50400001928E-02 0. -1.
    10030    2    1    2    0    0  0.00000000000E+00  0.00000000000E+00  0.46705840809E+03  0.10136177600E+04  0.89959846974E+03 0.  0.
        2    1    3    3  502    0 -0.12871381568E+03  0.18203611067E+03  0.67370286992E+03  0.70963367231E+03  0.25500000920E-02 0.  1.
       -2    1    3    3    0  502  0.12871381568E+03 -0.18203611067E+03 -0.20664446184E+03  0.30398408765E+03  0.25500000920E-02 0. -1.
</event>
<event>
 5   0  0.9321543E-04  0.9000798E+03  0.7818609E-02  0.9425482E-01
        1   -1    0    0  501    0  0.00000000000E+00  0.00000000000E+00  0.84521403779E+03  0.84521403781E+03  0.50400001928E-02 0. -1.
       -1   -1    0    0    0  501  0.00000000000E+00  0.00000000000E+00 -0.23962679349E+03  0.23962679355E+03  0.50400001928E-02 0.  1.
    10030    2    1    2    0    0  0.00000000000E+00  0.00000000000E+00  0.60558724430E+03  0.10848408314E+04  0.90007984030E+03 0.  0.
        3    1    3    3  502    0 -0.32557649175E+03 -0.23127849150E+03  0.55285811462E+03  0.68201312137E+03  0.10100000352E+00 0. -1.
       -3    1    3    3    0  502  0.32557649175E+03  0.23127849150E+03  0.52729129676E+02  0.40282770998E+03  0.10100000352E+00 0.  1.
</event>
<event>
 5   0  0.1630202E-03  0.8984301E+03  0.7818609E-02  0.9427546E-01
        2   -1    0    0  501    0  0.00000000000E+00  0.00000000000E+00  0.32575711440E+03  0.32575711441E+03  0.25500000920E-02 0. -1.
       -2   -1    0    0    0  501  0.00000000000E+00  0.00000000000E+00 -0.61946204700E+03  0.61946204701E+03  0.25500000920E-02 0.  1.
    10030    2    1    2    0    0  0.00000000000E+00  0.00000000000E+00 -0.29370493260E+03  0.94521916142E+03  0.89843011730E+03 0.  0.
        4    1    3    3  502    0 -0.33838297130E+03  0.14289638517E+03 -0.41891224710E+03  0.55714584790E+03  0.12699999809E+01 0.  1.
       -4    1    3    3    0  502  0.33838297130E+03 -0.14289638517E+03  0.12520731450E+03  0.38807331352E+03  0.12699999809E+01 0. -1.
</event>
<event>
 5   0  0.9981885E-04  0.9000043E+03  0.7818609E-02  0.9425576E-01
       -1   -1    0    0    0  501  0.00000000000E+00  0.00000000000E+00  0.20155120740E+03  0.20155120746E+03  0.50400001928E-02 0. -1.
        1   -1    0    0  501    0  0.00000000000E+00  0.00000000000E+00 -0.10047169923E+04  0.10047169923E+04  0.50400001928E-02 0.  1.
    10030    2    1    2    0    0  0.00000000000E+00  0.00000000000E+00 -0.80316578492E+03  0.12062681998E+04  0.90000427319E+03 0.  0.
        4    1    3    3  502    0 -0.35192280344E+03 -0.86222041874E+02 -0.75925851845E+03  0.84128414393E+03  0.12699999809E+01 0.  1.
       -4    1    3    3    0  502  0.35192280344E+03  0.86222041874E+02 -0.43907266469E+02  0.36498405586E+03  0.12699999809E+01 0. -1.
</event>
<event>
 5   0  0.1536020E-03  0.9012341E+03  0.7818609E-02  0.9424040E-01
        2   -1    0    0  501    0  0.00000000000E+00  0.00000000000E+00  0.56235960452E+03  0.56235960452E+03  0.25500000920E-02 0. -1.
       -2   -1    0    0    0  501  0.00000000000E+00  0.00000000000E+00 -0.36107806439E+03  0.36107806440E+03  0.25500000920E-02 0.  1.
    10030    2    1    2    0    0  0.00000000000E+00  0.00000000000E+00  0.20128154013E+03  0.92343766892E+03  0.90123408168E+03 0.  0.
        2    1    3    3  502    0  0.41743384742E+03 -0.16700083663E+03  0.69639432436E+02  0.45496147855E+03  0.25500000920E-02 0. -1.
       -2    1    3    3    0  502 -0.41743384742E+03  0.16700083663E+03  0.13164210769E+03  0.46847619036E+03  0.25500000920E-02 0.  1.
</event>
<event>
 5   0  0.9321543E-04  0.9002462E+03  0.7818609E-02  0.9425274E-01
        1   -1    0    0  501    0  0.00000000000E+00  0.00000000000E+00  0.28884031950E+04  0.28884031950E+04  0.50400001928E-02 0.  1.
       -1   -1    0    0    0  501  0.00000000000E+00  0.00000000000E+00 -0.70146301108E+02  0.70146301290E+02  0.50400001928E-02 0. -1.
    10030    2    1    2    0    0  0.00000000000E+00  0.00000000000E+00  0.28182568939E+04  0.29585494963E+04  0.90024618969E+03 0.  0.
        3    1    3    3  502    0 -0.16287161717E+03 -0.96165158376E+02  0.27514676914E+04  0.27579610890E+04  0.10100000352E+00 0.  1.
       -3    1    3    3    0  502  0.16287161717E+03  0.96165158376E+02  0.66789202451E+02  0.20058840726E+03  0.10100000352E+00 0. -1.
</event>
<event>
 5   0  0.1704416E-03  0.8999822E+03  0.7818609E-02  0.9425604E-01
        2   -1    0    0  501    0  0.00000000000E+00  0.00000000000E+00  0.24922709724E+04  0.24922709725E+04  0.25500000920E-02 0. -1.
       -2   -1    0    0    0  501  0.00000000000E+00  0.00000000000E+00 -0.81247983630E+02  0.81247983670E+02  0.25500000920E-02 0.  1.
    10030    2    1    2    0    0  0.00000000000E+00  0.00000000000E+00  0.24110229888E+04  0.25735189561E+04  0.89998220255E+03 0.  0.
        3    1    3    3  502    0 -0.63109279534E+02 -0.44165472173E+03  0.13734778491E+04  0.14441201773E+04  0.10100000352E+00 0. -1.
       -3    1    3    3    0  502  0.63109279534E+02  0.44165472173E+03  0.10375451398E+04  0.11293987788E+04  0.10100000352E+00 0.  1.
</event>
<event>
 5   0  0.1007561E-03  0.8994984E+03  0.7818609E-02  0.9426209E-01
        1   -1    0    0  501    0  0.00000000000E+00  0.00000000000E+00  0.62339979678E+03  0.62339979680E+03  0.50400001928E-02 0. -1.
       -1   -1    0    0    0  501  0.00000000000E+00  0.00000000000E+00 -0.32446969622E+03  0.32446969626E+03  0.50400001928E-02 0.  1.
    10030    2    1    2    0    0  0.00000000000E+00  0.00000000000E+00  0.29893010055E+03  0.94786949306E+03  0.89949839958E+03 0.  0.
        2    1    3    3  502    0 -0.26974275260E+03  0.97981387852E+02 -0.21544093871E+03  0.35885415286E+03  0.25500000920E-02 0.  1.
       -2    1    3    3    0  502  0.26974275260E+03 -0.97981387852E+02  0.51437103926E+03  0.58901534020E+03  0.25500000920E-02 0. -1.
</event>
<event>
 5   0  0.1536020E-03  0.9004553E+03  0.7818609E-02  0.9425012E-01
        2   -1    0    0  501    0  0.00000000000E+00  0.00000000000E+00  0.20926772117E+03  0.20926772119E+03  0.25500000920E-02 0. -1.
       -2   -1    0    0    0  501  0.00000000000E+00  0.00000000000E+00 -0.96863925427E+03  0.96863925427E+03  0.25500000920E-02 0.  1.
    10030    2    1    2    0    0  0.00000000000E+00  0.00000000000E+00 -0.75937153310E+03  0.11779069755E+04  0.90045528348E+03 0.  0.
        2    1    3    3  502    0 -0.34486643048E+03  0.24406805435E+03 -0.58319409234E+03  0.72015096985E+03  0.25500000920E-02 0.  1.
       -2    1    3    3    0  502  0.34486643048E+03 -0.24406805435E+03 -0.17617744076E+03  0.45775600561E+03  0.25500000920E-02 0. -1.
</event>
<event>
 5   0  0.1641516E-03  0.8809849E+03  0.7818609E-02  0.9449668E-01
        2   -1    0    0  501    0  0.00000000000E+00  0.00000000000E+00  0.10184118399E+04  0.10184118400E+04  0.25500000920E-02 0. -1.
       -2   -1    0    0    0  501  0.00000000000E+00  0.00000000000E+00 -0.19052567560E+03  0.19052567562E+03  0.25500000920E-02 0.  1.
    10030    2    1    2    0    0  0.00000000000E+00  0.00000000000E+00  0.82788616435E+03  0.12089375156E+04  0.88098491214E+03 0.  0.
        1    1    3    3  502    0  0.42788398964E+02  0.19699659645E+03 -0.12351070103E+03  0.23641784915E+03  0.50400001928E-02 0.  1.
       -1    1    3    3    0  502 -0.42788398964E+02 -0.19699659645E+03  0.95139686538E+03  0.97251966642E+03  0.50400001928E-02 0. -1.
</event>
<event>
 5   0  0.9321543E-04  0.9008703E+03  0.7818609E-02  0.9424494E-01
        1   -1    0    0  501    0  0.00000000000E+00  0.00000000000E+00  0.59760237854E+03  0.59760237857E+03  0.50400001928E-02 0.  1.
       -1   -1    0    0    0  501  0.00000000000E+00  0.00000000000E+00 -0.33950975567E+03  0.33950975570E+03  0.50400001928E-02 0. -1.
    10030    2    1    2    0    0  0.00000000000E+00  0.00000000000E+00  0.25809262288E+03  0.93711213427E+03  0.90087032930E+03 0.  0.
        3    1    3    3  502    0  0.36792955572E+03 -0.23617230347E+03  0.16324984058E+02  0.43751117723E+03  0.10100000352E+00 0. -1.
       -3    1    3    3    0  502 -0.36792955572E+03  0.23617230347E+03  0.24176763882E+03  0.49960095704E+03  0.10100000352E+00 0.  1.
</event>
<event>
 5   0  0.1007561E-03  0.8999258E+03  0.7818609E-02  0.9425674E-01
        1   -1    0    0  501    0  0.00000000000E+00  0.00000000000E+00  0.10796432146E+04  0.10796432147E+04  0.50400001928E-02 0.  1.
       -1   -1    0    0    0  501  0.00000000000E+00  0.00000000000E+00 -0.18753103170E+03  0.18753103177E+03  0.50400001928E-02 0. -1.
    10030    2    1    2    0    0  0.00000000000E+00  0.00000000000E+00  0.89211218295E+03  0.12671742464E+04  0.89992578796E+03 0.  0.
        2    1    3    3  502    0 -0.12170426214E+03  0.34386954665E+03  0.75088731391E+02  0.37241980361E+03  0.25500000920E-02 0. -1.
       -2    1    3    3    0  502  0.12170426214E+03 -0.34386954665E+03  0.81702345156E+03  0.89475444281E+03  0.25500000920E-02 0.  1.
</event>
<event>
 5   0  0.1536020E-03  0.8980102E+03  0.7818609E-02  0.9428072E-01
       -2   -1    0    0    0  501  0.00000000000E+00  0.00000000000E+00  0.14915175450E+03  0.14915175452E+03  0.25500000920E-02 0. -1.
        2   -1    0    0  501    0  0.00000000000E+00  0.00000000000E+00 -0.13516809894E+04  0.13516809894E+04  0.25500000920E-02 0.  1.
    10030    2    1    2    0    0  0.00000000000E+00  0.00000000000E+00 -0.12025292349E+04  0.15008327440E+04  0.89801022514E+03 0.  0.
        2    1    3    3  502    0 -0.19988888827E+03  0.12627352437E+03  0.36687778160E+02  0.23926254133E+03  0.25500000920E-02 0. -1.
       -2    1    3    3    0  502  0.19988888827E+03 -0.12627352437E+03 -0.12392170131E+04  0.12615702026E+04  0.25500000920E-02 0.  1.
</event>
<event>
 5   0  0.1630202E-03  0.9002740E+03  0.7818609E-02  0.9425239E-01
       -2   -1    0    0    0  501  0.00000000000E+00  0.00000000000E+00  0.20137996494E+03  0.20137996496E+03  0.25500000920E-02 0. -1.
        2   -1    0    0  501    0  0.00000000000E+00  0.00000000000E+00 -0.10061741959E+04  0.10061741959E+04  0.25500000920E-02 0.  1.
    10030    2    1    2    0    0  0.00000000000E+00  0.00000000000E+00 -0.80479423098E+03  0.12075541609E+04  0.90027401232E+03 0.  0.
        4    1    3    3  502    0  0.21050039516E+03 -0.14673239923E+03 -0.89846901919E+03  0.93439231840E+03  0.12699999809E+01 0.  1.
       -4    1    3    3    0  502 -0.21050039516E+03  0.14673239923E+03  0.93674788207E+02  0.27316184249E+03  0.12699999809E+01 0. -1.
</event>
<event>
 5   0  0.1704416E-03  0.8966920E+03  0.7818609E-02  0.9429726E-01
       -2   -1    0    0    0  501  0.00000000000E+00  0.00000000000E+00  0.47075163430E+03  0.47075163431E+03  0.25500000920E-02 0. -1.
        2   -1    0    0  501    0  0.00000000000E+00  0.00000000000E+00 -0.42700679933E+03  0.42700679934E+03  0.25500000920E-02 0.  1.
    10030    2    1    2    0    0  0.00000000000E+00  0.00000000000E+00  0.43744834969E+02  0.89775843365E+03  0.89669202885E+03 0.  0.
        3    1    3    3  502    0  0.37702590388E+03  0.23110653022E+03 -0.52075952600E+02  0.44527595438E+03  0.10100000352E+00 0.  1.
       -3    1    3    3    0  502 -0.37702590388E+03 -0.23110653022E+03  0.95820787570E+02  0.45248247926E+03  0.10100000352E+00 0. -1.
</event>
<event>
 5   0  0.1635686E-03  0.8988093E+03  0.7818609E-02  0.9427071E-01
       -2   -1    0    0    0  501  0.00000000000E+00  0.00000000000E+00  0.22609635230E+03  0.22609635232E+03  0.25500000920E-02 0. -1.
        2   -1    0    0  501    0  0.00000000000E+00  0.00000000000E+00 -0.89326749643E+03  0.89326749643E+03  0.25500000920E-02 0.  1.
    10030    2    1    2    0    0  0.00000000000E+00  0.00000000000E+00 -0.66717114413E+03  0.11193638488E+04  0.89880926249E+03 0.  0.
        5    1    3    3  502    0 -0.15480153948E+03  0.12275359354E+03 -0.83625009813E+03  0.85928358414E+03  0.46999998093E+01 0.  1.
       -5    1    3    3    0  502  0.15480153948E+03 -0.12275359354E+03  0.16907895401E+03  0.26008026461E+03  0.46999998093E+01 0. -1.
</event>
<event>
 5   0  0.9981885E-04  0.9008877E+03  0.7818609E-02  0.9424472E-01
        1   -1    0    0  501    0  0.00000000000E+00  0.00000000000E+00  0.55681452720E+03  0.55681452723E+03  0.50400001928E-02 0.  1.
       -1   -1    0    0    0  501  0.00000000000E+00  0.00000000000E+00 -0.36439360809E+03  0.36439360812E+03  0.50400001928E-02 0. -1.
    10030    2    1    2    0    0  0.00000000000E+00  0.00000000000E+00  0.19242091911E+03  0.92120813535E+03  0.90088768363E+03 0.  0.
        4    1    3    3  502    0 -0.24425459742E+03  0.37727439459E+03  0.12691719842E+03  0.46701805675E+03  0.12699999809E+01 0.  1.
       -4    1    3    3    0  502  0.24425459742E+03 -0.37727439459E+03  0.65503720695E+02  0.45419007860E+03  0.12699999809E+01 0. -1.
</event>
<event>
 5   0  0.9321543E-04  0.8988924E+03  0.7818609E-02  0.9426967E-01
        1   -1    0    0  501    0  0.00000000000E+00  0.00000000000E+00  0.17053768568E+03  0.17053768575E+03  0.50400001928E-02 0.  1.
       -1   -1    0    0    0  501  0.00000000000E+00  0.00000000000E+00 -0.11844999235E+04  0.11844999235E+04  0.50400001928E-02 0. -1.
    10030    2    1    2    0    0  0.00000000000E+00  0.00000000000E+00 -0.10139622378E+04  0.13550376092E+04  0.89889237552E+03 0.  0.
        3    1    3    3  502    0 -0.67917878743E+02  0.14073863339E+03 -0.11422282517E+04  0.11528684185E+04  0.10100000352E+00 0. -1.
       -3    1    3    3    0  502  0.67917878743E+02 -0.14073863339E+03  0.12826601388E+03  0.20216919077E+03  0.10100000352E+00 0.  1.
</event>
<event>
 5   0  0.9223454E-04  0.9019698E+03  0.7818609E-02  0.9423122E-01
        1   -1    0    0  501    0  0.00000000000E+00  0.00000000000E+00  0.11814195937E+04  0.11814195937E+04  0.50400001928E-02 0. -1.
       -1   -1    0    0    0  501  0.00000000000E+00  0.00000000000E+00 -0.17215506487E+03  0.17215506495E+03  0.50400001928E-02 0.  1.
    10030    2    1    2    0    0  0.00000000000E+00  0.00000000000E+00  0.10092645288E+04  0.13535746586E+04  0.90196977078E+03 0.  0.
        1    1    3    3  502    0 -0.44216865832E+03  0.86423204020E+02  0.53484323837E+03  0.69931350784E+03  0.50400001928E-02 0. -1.
       -1    1    3    3    0  502  0.44216865832E+03 -0.86423204020E+02  0.47442129043E+03  0.65426115079E+03  0.50400001928E-02 0.  1.
</event>
<event>
 5   0  0.1536020E-03  0.9004586E+03  0.7818609E-02  0.9425008E-01
        2   -1    0    0  501    0  0.00000000000E+00  0.00000000000E+00  0.10268791231E+04  0.10268791232E+04  0.25500000920E-02 0. -1.
       -2   -1    0    0    0  501  0.00000000000E+00  0.00000000000E+00 -0.19740047549E+03  0.19740047550E+03  0.25500000920E-02 0.  1.
    10030    2    1    2    0    0  0.00000000000E+00  0.00000000000E+00  0.82947864766E+03  0.12242795987E+04  0.90045861024E+03 0.  0.
        2    1    3    3  502    0 -0.41707221052E+03  0.15545922670E+03  0.32262958226E+03  0.54973325105E+03  0.25500000920E-02 0.  1.
       -2    1    3    3    0  502  0.41707221052E+03 -0.15545922670E+03  0.50684906540E+03  0.67454634760E+03  0.25500000920E-02 0. -1.
</event>
<event>
 5   0  0.1630202E-03  0.8998741E+03  0.7818609E-02  0.9425739E-01
        2   -1    0    0  501    0  0.00000000000E+00  0.00000000000E+00  0.61585354646E+03  0.61585354646E+03  0.25500000920E-02 0. -1.
       -2   -1    0    0    0  501  0.00000000000E+00  0.00000000000E+00 -0.32871997734E+03  0.32871997735E+03  0.25500000920E-02 0.  1.
    10030    2    1    2    0    0  0.00000000000E+00  0.00000000000E+00  0.28713356912E+03  0.94457352381E+03  0.89987413307E+03 0.  0.
        4    1    3    3  502    0  0.26715364590E+03 -0.35452084960E+03  0.22059910269E+03  0.49570321799E+03  0.12699999809E+01 0. -1.
       -4    1    3    3    0  502 -0.26715364590E+03  0.35452084960E+03  0.66534466426E+02  0.44887030582E+03  0.12699999809E+01 0.  1.
</event>
<event>
 5   0  0.9697941E-04  0.9001430E+03  0.7818609E-02  0.9425403E-01
       -1   -1    0    0    0  501  0.00000000000E+00  0.00000000000E+00  0.26052008024E+03  0.26052008029E+03  0.50400001928E-02 0. -1.
        1   -1    0    0  501    0  0.00000000000E+00  0.00000000000E+00 -0.77753832170E+03  0.77753832172E+03  0.50400001928E-02 0.  1.
    10030    2    1    2    0    0  0.00000000000E+00  0.00000000000E+00 -0.51701824146E+03  0.10380584020E+04  0.90014297974E+03 0.  0.
        5    1    3    3  502    0  0.43187679477E+03 -0.50653688440E+01 -0.40437615230E+03  0.59168013857E+03  0.46999998093E+01 0. -1.
       -5    1    3    3    0  502 -0.43187679477E+03  0.50653688440E+01 -0.11264208916E+03  0.44637826344E+03  0.46999998093E+01 0.  1.
</event>
<event>
 5   0  0.1536020E-03  0.8994824E+03  0.7818609E-02  0.9426229E-01
        2   -1    0    0  501    0  0.00000000000E+00  0.00000000000E+00  0.20164353972E+04  0.20164353972E+04  0.25500000920E-02 0. -1.
       -2   -1    0    0    0  501  0.00000000000E+00  0.00000000000E+00 -0.10030925649E+03  0.10030925652E+03  0.25500000920E-02 0.  1.
    10030    2    1    2    0    0  0.00000000000E+00  0.00000000000E+00  0.19161261407E+04  0.21167446537E+04  0.89948237444E+03 0.  0.
        2    1    3    3  502    0 -0.43866053467E+03  0.96234275746E+02  0.90124020657E+03  0.10069349584E+04  0.25500000920E-02 0.  1.
       -2    1    3    3    0  502  0.43866053467E+03 -0.96234275746E+02  0.10148859341E+04  0.11098096953E+04  0.25500000920E-02 0. -1.
</event>
<event>
 5   0  0.1007561E-03  0.8954503E+03  0.7818609E-02  0.9431287E-01
       -1   -1    0    0    0  501  0.00000000000E+00  0.00000000000E+00  0.15644338646E+03  0.15644338654E+03  0.50400001928E-02 0.  1.
        1   -1    0    0  501    0  0.00000000000E+00  0.00000000000E+00 -0.12813441909E+04  0.12813441909E+04  0.50400001928E-02 0. -1.
    10030    2    1    2    0    0  0.00000000000E+00  0.00000000000E+00 -0.11249008044E+04  0.14377875774E+04  0.89545033253E+03 0.  0.
        2    1    3    3  502    0  0.62174085370E+02  0.26720921029E+03  0.56702172905E+01  0.27440577678E+03  0.25500000920E-02 0.  1.
       -2    1    3    3    0  502 -0.62174085370E+02 -0.26720921029E+03 -0.11305710217E+04  0.11633818006E+04  0.25500000920E-02 0. -1.
</event>
<event>
 5   0  0.9321543E-04  0.9074218E+03  0.7818609E-02  0.9416351E-01
        1   -1    0    0  501    0  0.00000000000E+00  0.00000000000E+00  0.41311780783E+03  0.41311780786E+03  0.50400001928E-02 0. -1.
       -1   -1    0    0    0  501  0.00000000000E+00  0.00000000000E+00 -0.49829273534E+03  0.49829273536E+03  0.50400001928E-02 0.  1.
    10030    2    1    2    0    0  0.00000000000E+00  0.00000000000E+00 -0.85174927502E+02  0.91141054323E+03  0.90742184789E+03 0.  0.
        3    1    3    3  502    0  0.51774156372E+02 -0.15122648342E+03  0.38390070841E+03  0.41584826160E+03  0.10100000352E+00 0. -1.
       -3    1    3    3    0  502 -0.51774156372E+02  0.15122648342E+03 -0.46907563592E+03  0.49556228162E+03  0.10100000352E+00 0.  1.
</event>
<event>
 5   0  0.1635686E-03  0.8995505E+03  0.7818609E-02  0.9426143E-01
       -2   -1    0    0    0  501  0.00000000000E+00  0.00000000000E+00  0.19664586391E+03  0.19664586393E+03  0.25500000920E-02 0. -1.
        2   -1    0    0  501    0  0.00000000000E+00  0.00000000000E+00 -0.10287416165E+04  0.10287416165E+04  0.25500000920E-02 0.  1.
    10030    2    1    2    0    0  0.00000000000E+00  0.00000000000E+00 -0.83209575261E+03  0.12253874805E+04  0.89955051872E+03 0.  0.
        5    1    3    3  502    0  0.35758042259E+03  0.96218716556E+02 -0.76375858705E+03  0.84880567230E+03  0.46999998093E+01 0.  1.
       -5    1    3    3    0  502 -0.35758042259E+03 -0.96218716556E+02 -0.68337165560E+02  0.37658180815E+03  0.46999998093E+01 0. -1.
</event>
<event>
 5   0  0.1641516E-03  0.9008144E+03  0.7818609E-02  0.9424564E-01
        2   -1    0    0  501    0  0.00000000000E+00  0.00000000000E+00  0.70737900466E+03  0.70737900466E+03  0.25500000920E-02 0. -1.
       -2   -1    0    0    0  501  0.00000000000E+00  0.00000000000E+00 -0.28678637619E+03  0.28678637620E+03  0.25500000920E-02 0.  1.
    10030    2    1    2    0    0  0.00000000000E+00  0.00000000000E+00  0.42059262847E+03  0.99416538086E+03  0.90081443449E+03 0.  0.
        1    1    3    3  502    0  0.25387777603E+02  0.28504967782E+03 -0.17355231266E+03  0.33469129557E+03  0.50400001928E-02 0. -1.
       -1    1    3    3    0  502 -0.25387777603E+02 -0.28504967782E+03  0.59414494113E+03  0.65947408529E+03  0.50400001928E-02 0.  1.
</event>
<event>
 5   0  0.9981885E-04  0.9006504E+03  0.7818609E-02  0.9424769E-01
       -1   -1    0    0    0  501  0.00000000000E+00  0.00000000000E+00  0.28454393223E+03  0.28454393227E+03  0.50400001928E-02 0. -1.
        1   -1    0    0  501    0  0.00000000000E+00  0.00000000000E+00 -0.71269407797E+03  0.71269407799E+03  0.50400001928E-02 0.  1.
    10030    2    1    2    0    0  0.00000000000E+00  0.00000000000E+00 -0.42815014574E+03  0.99723801026E+03  0.90065037712E+03 0.  0.
        4    1    3    3  502    0 -0.22943721360E+03 -0.23750624051E+03  0.12493004285E+03  0.35307191586E+03  0.12699999809E+01 0. -1.
       -4    1    3    3    0  502  0.22943721360E+03  0.23750624051E+03 -0.55308018859E+03  0.64416609440E+03  0.12699999809E+01 0.  1.
</event>
<event>
 5   0  0.9981885E-04  0.8990527E+03  0.7818609E-02  0.9426766E-01
        1   -1    0    0  501    0  0.00000000000E+00  0.00000000000E+00  0.36973578172E+03  0.36973578175E+03  0.50400001928E-02 0. -1.
       -1   -1    0    0    0  501  0.00000000000E+00  0.00000000000E+00 -0.54653606395E+03  0.54653606397E+03  0.50400001928E-02 0.  1.
    10030    2    1    2    0    0  0.00000000000E+00  0.00000000000E+00 -0.17680028223E+03  0.91627184572E+03  0.89905269893E+03 0.  0.
        4    1    3    3  502    0 -0.37801909179E+03  0.16721172010E+03  0.91658857460E+02  0.42339243280E+03  0.12699999809E+01 0. -1.
       -4    1    3    3    0  502  0.37801909179E+03 -0.16721172010E+03 -0.26845913969E+03  0.49287941292E+03  0.12699999809E+01 0.  1.
</event>
<event>
 5   0  0.9321543E-04  0.9002857E+03  0.7818609E-02  0.9425224E-01
        1   -1    0    0  501    0  0.00000000000E+00  0.00000000000E+00  0.70999491628E+03  0.70999491629E+03  0.50400001928E-02 0.  1.
       -1   -1    0    0    0  501  0.00000000000E+00  0.00000000000E+00 -0.28539443113E+03  0.28539443117E+03  0.50400001928E-02 0. -1.
    10030    2    1    2    0    0  0.00000000000E+00  0.00000000000E+00  0.42460048515E+03  0.99538934747E+03  0.90028572190E+03 0.  0.
        3    1    3    3  502    0  0.18517635287E+03  0.10236816897E+02  0.66579145979E+03  0.69113916993E+03  0.10100000352E+00 0.  1.
       -3    1    3    3    0  502 -0.18517635287E+03 -0.10236816897E+02 -0.24119097464E+03  0.30425017754E+03  0.10100000352E+00 0. -1.
</event>
<event>
 5   0  0.1630202E-03  0.8992569E+03  0.7818609E-02  0.9426511E-01
       -2   -1    0    0    0  501  0.00000000000E+00  0.00000000000E+00  0.99547185588E+02  0.99547185620E+02  0.25500000920E-02 0.  1.
        2   -1    0    0  501    0  0.00000000000E+00  0.00000000000E+00 -0.20308536272E+04  0.20308536272E+04  0.25500000920E-02 0. -1.
    10030    2    1    2    0    0  0.00000000000E+00  0.00000000000E+00 -0.19313064416E+04  0.21304008128E+04  0.89925694429E+03 0.  0.
        4    1    3    3  502    0 -0.29369362274E+03  0.11924751062E+03 -0.21019077847E+03  0.38033891344E+03  0.12699999809E+01 0.  1.
       -4    1    3    3    0  502  0.29369362274E+03 -0.11924751062E+03 -0.17211156631E+04  0.17500618994E+04  0.12699999809E+01 0. -1.
</event>
<event>
 5   0  0.9697941E-04  0.8894628E+03  0.7818609E-02  0.9438850E-01
       -1   -1    0    0    0  501  0.00000000000E+00  0.00000000000E+00  0.87022177025E+03  0.87022177027E+03  0.50400001928E-02 0.  1.
        1   -1    0    0  501    0  0.00000000000E+00  0.00000000000E+00 -0.22728229056E+03  0.22728229061E+03  0.50400001928E-02 0. -1.
    10030    2    1    2    0    0  0.00000000000E+00  0.00000000000E+00  0.64293947970E+03  0.10975040609E+04  0.88946275307E+03 0.  0.
        5    1    3    3  502    0 -0.17367108773E+03  0.78676250463E+02 -0.17426196276E+03  0.25834264217E+03  0.46999998093E+01 0. -1.
       -5    1    3    3    0  502  0.17367108773E+03 -0.78676250463E+02  0.81720144245E+03  0.83916141871E+03  0.46999998093E+01 0.  1.
</event>
<event>
 5   0  0.1704416E-03  0.9002126E+03  0.7818609E-02  0.9425316E-01
        2   -1    0    0  501    0  0.00000000000E+00  0.00000000000E+00  0.82749879605E+03  0.82749879605E+03  0.25500000920E-02 0. -1.
       -2   -1    0    0    0  501  0.00000000000E+00  0.00000000000E+00 -0.24482894707E+03  0.24482894709E+03  0.25500000920E-02 0.  1.
    10030    2    1    2    0    0  0.00000000000E+00  0.00000000000E+00  0.58266984897E+03  0.10723277431E+04  0.90021255035E+03 0.  0.
        3    1    3    3  502    0  0.62557366070E+02 -0.19330606736E+02 -0.23912575941E+03  0.24792788351E+03  0.10100000352E+00 0.  1.
       -3    1    3    3    0  502 -0.62557366070E+02  0.19330606736E+02  0.82179560838E+03  0.82439985963E+03  0.10100000352E+00 0. -1.
</event>
<event>
 5   0  0.1704416E-03  0.8994812E+03  0.7818609E-02  0.9426230E-01
       -2   -1    0    0    0  501  0.00000000000E+00  0.00000000000E+00  0.26739171078E+03  0.26739171079E+03  0.25500000920E-02 0. -1.
        2   -1    0    0  501    0  0.00000000000E+00  0.00000000000E+00 -0.75644299999E+03  0.75644300000E+03  0.25500000920E-02 0.  1.
    10030    2    1    2    0    0  0.00000000000E+00  0.00000000000E+00 -0.48905128921E+03  0.10238347108E+04  0.89948115686E+03 0.  0.
        3    1    3    3  502    0  0.39100819536E+03 -0.22210551348E+03 -0.23661421289E+03  0.50813833146E+03  0.10100000352E+00 0. -1.
       -3    1    3    3    0  502 -0.39100819536E+03  0.22210551348E+03 -0.25243707632E+03  0.51569637933E+03  0.10100000352E+00 0.  1.
</event>
<event>
 5   0  0.9697941E-04  0.9004286E+03  0.7818609E-02  0.9425046E-01
        1   -1    0    0  501    0  0.00000000000E+00  0.00000000000E+00  0.73963687475E+03  0.73963687477E+03  0.50400001928E-02 0. -1.
       -1   -1    0    0    0  501  0.00000000000E+00  0.00000000000E+00 -0.27404382775E+03  0.27404382780E+03  0.50400001928E-02 0.  1.
    10030    2    1    2    0    0  0.00000000000E+00  0.00000000000E+00  0.46559304700E+03  0.10136807026E+04  0.90042860980E+03 0.  0.
        5    1    3    3  502    0 -0.36435603982E+03  0.93674014259E+02 -0.45570025642E+02  0.37898398639E+03  0.46999998093E+01 0.  1.
       -5    1    3    3    0  502  0.36435603982E+03 -0.93674014259E+02  0.51116307264E+03  0.63469671618E+03  0.46999998093E+01 0. -1.
</event>
<event>
 5   0  0.6375625E-04  0.8991827E+03  0.7818609E-02  0.9426604E-01
       -3   -1    0    0    0  501  0.00000000000E+00  0.00000000000E+00  0.11441173551E+04  0.11441173596E+04  0.10100000352E+00 0. -1.
        3   -1    0    0  501    0  0.00000000000E+00  0.00000000000E+00 -0.17667099131E+03  0.17667102018E+03  0.10100000352E+00 0.  1.
    10030    2    1    2    0    0  0.00000000000E+00  0.00000000000E+00  0.96744636384E+03  0.13207883798E+04  0.89918267180E+03 0.  0.
        5    1    3    3  502    0 -0.48138371999E+02  0.76502185316E+02  0.11305968085E+04  0.11342138778E+04  0.46999998093E+01 0. -1.
       -5    1    3    3    0  502  0.48138371999E+02 -0.76502185316E+02 -0.16315044463E+03  0.18657450201E+03  0.46999998093E+01 0.  1.
</event>
<event>
 5   0  0.9697941E-04  0.8989133E+03  0.7818609E-02  0.9426941E-01
       -1   -1    0    0    0  501  0.00000000000E+00  0.00000000000E+00  0.84812995396E+03  0.84812995397E+03  0.50400001928E-02 0.  1.
        1   -1    0    0  501    0  0.00000000000E+00  0.00000000000E+00 -0.23818435329E+03  0.23818435335E+03  0.50400001928E-02 0. -1.
    10030    2    1    2    0    0  0.00000000000E+00  0.00000000000E+00  0.60994560066E+03  0.10863143073E+04  0.89891330979E+03 0.  0.
        5    1    3    3  502    0 -0.10313151128E+03  0.35903955920E+03  0.60695541189E+03  0.71271486284E+03  0.46999998093E+01 0.  1.
       -5    1    3    3    0  502  0.10313151128E+03 -0.35903955920E+03  0.29901887766E+01  0.37359944448E+03  0.46999998093E+01 0. -1.
</event>
<event>
 5   0  0.1704416E-03  0.9011145E+03  0.7818609E-02  0.9424189E-01
        2   -1    0    0  501    0  0.00000000000E+00  0.00000000000E+00  0.11570237877E+04  0.11570237877E+04  0.25500000920E-02 0. -1.
       -2   -1    0    0    0  501  0.00000000000E+00  0.00000000000E+00 -0.17545175391E+03  0.17545175393E+03  0.25500000920E-02 0.  1.
    10030    2    1    2    0    0  0.00000000000E+00  0.00000000000E+00  0.98157203374E+03  0.13324755416E+04  0.90111453850E+03 0.  0.
        3    1    3    3  502    0  0.14199834293E+03  0.11332538027E+03 -0.11888869407E+03  0.21711909862E+03  0.10100000352E+00 0.  1.
       -3    1    3    3    0  502 -0.14199834293E+03 -0.11332538027E+03  0.11004607278E+04  0.11153564430E+04  0.10100000352E+00 0. -1.
</event>
<event>
 5   0  0.6375625E-04  0.8976023E+03  0.7818609E-02  0.9428584E-01
        3   -1    0    0  501    0  0.00000000000E+00  0.00000000000E+00  0.39624437706E+03  0.39624438994E+03  0.10100000352E+00 0. -1.
       -3   -1    0    0    0  501  0.00000000000E+00  0.00000000000E+00 -0.50832893954E+03  0.50832894957E+03  0.10100000352E+00 0.  1.
    10030    2    1    2    0    0  0.00000000000E+00  0.00000000000E+00 -0.11208456247E+03  0.90457333950E+03  0.89760234926E+03 0.  0.
        2    1    3    3  502    0 -0.42771168181E+02 -0.22637786989E+03 -0.44419084994E+03  0.50038167830E+03  0.25500000920E-02 0.  1.
       -2    1    3    3    0  502  0.42771168181E+02  0.22637786989E+03  0.33210628747E+03  0.40419166120E+03  0.25500000920E-02 0. -1.
</event>
<event>
 5   0  0.1536020E-03  0.9002696E+03  0.7818609E-02  0.9425244E-01
        2   -1    0    0  501    0  0.00000000000E+00  0.00000000000E+00  0.42958366275E+03  0.42958366276E+03  0.25500000920E-02 0.  1.
       -2   -1    0    0    0  501  0.00000000000E+00  0.00000000000E+00 -0.47166912147E+03  0.47166912148E+03  0.25500000920E-02 0. -1.
    10030    2    1    2    0    0  0.00000000000E+00  0.00000000000E+00 -0.42085458717E+02  0.90125278424E+03  0.90026962365E+03 0.  0.
        2    1    3    3  502    0  0.35204199290E+03 -0.73007581066E+02 -0.29218473752E+03  0.46328780742E+03  0.25500000920E-02 0. -1.
       -2    1    3    3    0  502 -0.35204199290E+03  0.73007581066E+02  0.25009927880E+03  0.43796497682E+03  0.25500000920E-02 0.  1.
</event>
<event>
 5   0  0.1641516E-03  0.8988216E+03  0.7818609E-02  0.9427056E-01
        2   -1    0    0  501    0  0.00000000000E+00  0.00000000000E+00  0.14354575585E+04  0.14354575585E+04  0.25500000920E-02 0. -1.
       -2   -1    0    0    0  501  0.00000000000E+00  0.00000000000E+00 -0.14070083319E+03  0.14070083321E+03  0.25500000920E-02 0.  1.
    10030    2    1    2    0    0  0.00000000000E+00  0.00000000000E+00  0.12947567253E+04  0.15761583918E+04  0.89882161638E+03 0.  0.
        1    1    3    3  502    0  0.12899295542E+03 -0.19345083110E+03  0.13217847810E+04  0.13420795110E+04  0.50400001928E-02 0. -1.
       -1    1    3    3    0  502 -0.12899295542E+03  0.19345083110E+03 -0.27028055624E+02  0.23407888076E+03  0.50400001928E-02 0.  1.
</event>
<event>
 5   0  0.9223454E-04  0.8986269E+03  0.7818609E-02  0.9427300E-01
       -1   -1    0    0    0  501  0.00000000000E+00  0.00000000000E+00  0.45892884033E+03  0.45892884036E+03  0.50400001928E-02 0.  1.
        1   -1    0    0  501    0  0.00000000000E+00  0.00000000000E+00 -0.43989949973E+03  0.43989949976E+03  0.50400001928E-02 0. -1.
    10030    2    1    2    0    0  0.00000000000E+00  0.00000000000E+00  0.19029340598E+02  0.89882834012E+03  0.89862687986E+03 0.  0.
        1    1    3    3  502    0 -0.34358615704E+03 -0.27616694087E+03 -0.77469995805E+02  0.44757259391E+03  0.50400001928E-02 0.  1.
       -1    1    3    3    0  502  0.34358615704E+03  0.27616694087E+03  0.96499336403E+02  0.45125574621E+03  0.50400001928E-02 0. -1.
</event>
<event>
 5   0  0.1630202E-03  0.9005766E+03  0.7818609E-02  0.9424861E-01
       -2   -1    0    0    0  501  0.00000000000E+00  0.00000000000E+00  0.14808942284E+03  0.14808942286E+03  0.25500000920E-02 0.  1.
        2   -1    0    0  501    0  0.00000000000E+00  0.00000000000E+00 -0.13691697903E+04  0.13691697903E+04  0.25500000920E-02 0. -1.
    10030    2    1    2    0    0  0.00000000000E+00  0.00000000000E+00 -0.12210803675E+04  0.15172592132E+04  0.90057662425E+03 0.  0.
        4    1    3    3  502    0  0.12572117759E+03  0.37569276744E+03 -0.24995703835E+03  0.46843463143E+03  0.12699999809E+01 0. -1.
       -4    1    3    3    0  502 -0.12572117759E+03 -0.37569276744E+03 -0.97112332915E+03  0.10488245818E+04  0.12699999809E+01 0.  1.
</event>
<event>
 5   0  0.1630202E-03  0.8996007E+03  0.7818609E-02  0.9426081E-01
       -2   -1    0    0    0  501  0.00000000000E+00  0.00000000000E+00  0.34477186319E+03  0.34477186320E+03  0.25500000920E-02 0. -1.
        2   -1    0    0  501    0  0.00000000000E+00  0.00000000000E+00 -0.58682382168E+03  0.58682382169E+03  0.25500000920E-02 0.  1.
    10030    2    1    2    0    0  0.00000000000E+00  0.00000000000E+00 -0.24205195849E+03  0.93159568488E+03  0.89960067224E+03 0.  0.
        4    1    3    3  502    0  0.38569959497E+02 -0.43015165115E+03 -0.25119723689E+03  0.49961960478E+03  0.12699999809E+01 0.  1.
       -4    1    3    3    0  502 -0.38569959497E+02  0.43015165115E+03  0.91452783951E+01  0.43197608010E+03  0.12699999809E+01 0. -1.
</event>
<event>
 5   0  0.1635686E-03  0.8988120E+03  0.7818609E-02  0.9427068E-01
        2   -1    0    0  501    0  0.00000000000E+00  0.00000000000E+00  0.10608862105E+04  0.10608862105E+04  0.25500000920E-02 0.  1.
       -2   -1    0    0    0  501  0.00000000000E+00  0.00000000000E+00 -0.19037458736E+03  0.19037458737E+03  0.25500000920E-02 0. -1.
    10030    2    1    2    0    0  0.00000000000E+00  0.00000000000E+00  0.87051162310E+03  0.12512607978E+04  0.89881204834E+03 0.  0.
        5    1    3    3  502    0  0.29356296020E+02 -0.41276318630E+03  0.67920976577E+03  0.79535101433E+03  0.46999998093E+01 0.  1.
       -5    1    3    3    0  502 -0.29356296020E+02  0.41276318630E+03  0.19130185733E+03  0.45590978351E+03  0.46999998093E+01 0. -1.
</event>
<event>
 5   0  0.9981885E-04  0.9015887E+03  0.7818609E-02  0.9423598E-01
       -1   -1    0    0    0  501  0.00000000000E+00  0.00000000000E+00  0.21490134672E+03  0.21490134678E+03  0.50400001928E-02 0.  1.
        1   -1    0    0  501    0  0.00000000000E+00  0.00000000000E+00 -0.94562249971E+03  0.94562249973E+03  0.50400001928E-02 0. -1.
    10030    2    1    2    0    0  0.00000000000E+00  0.00000000000E+00 -0.73072115299E+03  0.11605238465E+04  0.90158870606E+03 0.  0.
        4    1    3    3  502    0  0.30800409947E+02 -0.27924221670E+03  0.88436871220E+02  0.29452941098E+03  0.12699999809E+01 0.  1.
       -4    1    3    3    0  502 -0.30800409947E+02  0.27924221670E+03 -0.81915802421E+03  0.86599443553E+03  0.12699999809E+01 0. -1.
</event>
<event>
 5   0  0.1007561E-03  0.9004757E+03  0.7818609E-02  0.9424987E-01
       -1   -1    0    0    0  501  0.00000000000E+00  0.00000000000E+00  0.82456639136E+03  0.82456639137E+03  0.50400001928E-02 0. -1.
        1   -1    0    0  501    0  0.00000000000E+00  0.00000000000E+00 -0.24584331956E+03  0.24584331961E+03  0.50400001928E-02 0.  1.
    10030    2    1    2    0    0  0.00000000000E+00  0.00000000000E+00  0.57872307180E+03  0.10704097110E+04  0.90047573845E+03 0.  0.
        2    1    3    3  502    0 -0.14863273122E+03  0.39524509073E+03  0.47505921302E+03  0.63560335620E+03  0.25500000920E-02 0. -1.
       -2    1    3    3    0  502  0.14863273122E+03 -0.39524509073E+03  0.10366385878E+03  0.43480635478E+03  0.25500000920E-02 0.  1.
</event>
<event>
 5   0  0.1704416E-03  0.8997128E+03  0.7818609E-02  0.9425940E-01
        2   -1    0    0  501    0  0.00000000000E+00  0.00000000000E+00  0.28364367406E+04  0.28364367406E+04  0.25500000920E-02 0.  1.
       -2   -1    0    0    0  501  0.00000000000E+00  0.00000000000E+00 -0.71346840720E+02  0.71346840765E+02  0.25500000920E-02 0. -1.
    10030    2    1    2    0    0  0.00000000000E+00  0.00000000000E+00  0.27650898999E+04  0.29077835814E+04  0.89971284400E+03 0.  0.
        3    1    3    3  502    0 -0.14214452628E+03  0.17857801902E+03  0.12968531676E+03  0.26251374595E+03  0.10100000352E+00 0. -1.
       -3    1    3    3    0  502  0.14214452628E+03 -0.17857801902E+03  0.26354045831E+04  0.26452698354E+04  0.10100000352E+00 0.  1.
</event>
<event>
 5   0  0.1630202E-03  0.9016733E+03  0.7818609E-02  0.9423492E-01
        2   -1    0    0  501    0  0.00000000000E+00  0.00000000000E+00  0.32173436154E+03  0.32173436155E+03  0.25500000920E-02 0.  1.
       -2   -1    0    0    0  501  0.00000000000E+00  0.00000000000E+00 -0.63174384314E+03  0.63174384314E+03  0.25500000920E-02 0. -1.
    10030    2    1    2    0    0  0.00000000000E+00  0.00000000000E+00 -0.31000948160E+03  0.95347820469E+03  0.90167333782E+03 0.  0.
        4    1    3    3  502    0 -0.20405135189E+02 -0.11100901622E+03  0.30655033206E+03  0.32667122647E+03  0.12699999809E+01 0.  1.
       -4    1    3    3    0  502  0.20405135189E+02  0.11100901622E+03 -0.61655981366E+03  0.62680697822E+03  0.12699999809E+01 0. -1.
</event>
<event>
 5   0  0.1630202E-03  0.8993736E+03  0.7818609E-02  0.9426365E-01
       -2   -1    0    0    0  501  0.00000000000E+00  0.00000000000E+00  0.30461546595E+03  0.30461546596E+03  0.25500000920E-02 0. -1.
        2   -1    0    0  501    0  0.00000000000E+00  0.00000000000E+00 -0.66384758146E+03  0.66384758147E+03  0.25500000920E-02 0.  1.
    10030    2    1    2    0    0  0.00000000000E+00  0.00000000000E+00 -0.35923211551E+03  0.96846304743E+03  0.89937364950E+03 0.  0.
        4    1    3    3  502    0  0.75529536688E+02 -0.71864502922E+02 -0.65065215407E+03  0.65895299999E+03  0.12699999809E+01 0.  1.
       -4    1    3    3    0  502 -0.75529536688E+02  0.71864502922E+02  0.29142003856E+03  0.30951004744E+03  0.12699999809E+01 0. -1.
</event>
<event>
 5   0  0.9321543E-04  0.8945973E+03  0.7818609E-02  0.9432360E-01
       -1   -1    0    0    0  501  0.00000000000E+00  0.00000000000E+00  0.33255672043E+03  0.33255672047E+03  0.50400001928E-02 0. -1.
        1   -1    0    0  501    0  0.00000000000E+00  0.00000000000E+00 -0.60162996789E+03  0.60162996792E+03  0.50400001928E-02 0.  1.
    10030    2    1    2    0    0  0.00000000000E+00  0.00000000000E+00 -0.26907324746E+03  0.93418668838E+03  0.89459731514E+03 0.  0.
        3    1    3    3  502    0 -0.40812729325E+02  0.33243922525E+03  0.17505349164E+03  0.37792228367E+03  0.10100000352E+00 0. -1.
       -3    1    3    3    0  502  0.40812729325E+02 -0.33243922525E+03 -0.44412673910E+03  0.55626440471E+03  0.10100000352E+00 0.  1.
</event>
<event>
 5   0  0.9223454E-04  0.9005160E+03  0.7818609E-02  0.9424937E-01
       -1   -1    0    0    0  501  0.00000000000E+00  0.00000000000E+00  0.23719028531E+03  0.23719028536E+03  0.50400001928E-02 0. -1.
        1   -1    0    0  501    0  0.00000000000E+00  0.00000000000E+00 -0.85472420111E+03  0.85472420112E+03  0.50400001928E-02 0.  1.
    10030    2    1    2    0    0  0.00000000000E+00  0.00000000000E+00 -0.61753391580E+03  0.10919144865E+04  0.90051602353E+03 0.  0.
        1    1    3    3  502    0  0.60860523623E+02 -0.31235192378E+03  0.77470463188E+02  0.32752007621E+03  0.50400001928E-02 0. -1.
       -1    1    3    3    0  502 -0.60860523623E+02  0.31235192378E+03 -0.69500437899E+03  0.76439441028E+03  0.50400001928E-02 0.  1.
</event>
<event>
 5   0  0.1007561E-03  0.8993925E+03  0.7818609E-02  0.9426341E-01
        1   -1    0    0  501    0  0.00000000000E+00  0.00000000000E+00  0.52961099674E+03  0.52961099677E+03  0.50400001928E-02 0. -1.
       -1   -1    0    0    0  501  0.00000000000E+00  0.00000000000E+00 -0.38184010755E+03  0.38184010758E+03  0.50400001928E-02 0.  1.
    10030    2    1    2    0    0  0.00000000000E+00  0.00000000000E+00  0.14777088919E+03  0.91145110435E+03  0.89939250604E+03 0.  0.
        2    1    3    3  502    0  0.42871866965E+03  0.13571556275E+03  0.70964386903E+02  0.45525196968E+03  0.25500000920E-02 0. -1.
       -2    1    3    3    0  502 -0.42871866965E+03 -0.13571556275E+03  0.76806502291E+02  0.45619913468E+03  0.25500000920E-02 0.  1.
</event>
<event>
 5   0  0.1641516E-03  0.9000367E+03  0.7818609E-02  0.9425536E-01
        2   -1    0    0  501    0  0.00000000000E+00  0.00000000000E+00  0.18439395830E+03  0.18439395832E+03  0.25500000920E-02 0.  1.
       -2   -1    0    0    0  501  0.00000000000E+00  0.00000000000E+00 -0.10982816767E+04  0.10982816767E+04  0.25500000920E-02 0. -1.
    10030    2    1    2    0    0  0.00000000000E+00  0.00000000000E+00 -0.91388771842E+03  0.12826756350E+04  0.90003667861E+03 0.  0.
        1    1    3    3  502    0  0.21358838046E+03  0.12969095274E+03 -0.99032749872E+03  0.10213658964E+04  0.50400001928E-02 0. -1.
       -1    1    3    3    0  502 -0.21358838046E+03 -0.12969095274E+03  0.76439780305E+02  0.26130973868E+03  0.50400001928E-02 0.  1.
</event>
<event>
 5   0  0.1630202E-03  0.8996129E+03  0.7818609E-02  0.9426065E-01
       -2   -1    0    0    0  501  0.00000000000E+00  0.00000000000E+00  0.32922639657E+03  0.32922639658E+03  0.25500000920E-02 0. -1.
        2   -1    0    0  501    0  0.00000000000E+00  0.00000000000E+00 -0.61454931872E+03  0.61454931872E+03  0.25500000920E-02 0.  1.
    10030    2    1    2    0    0  0.00000000000E+00  0.00000000000E+00 -0.28532292215E+03  0.94377571531E+03  0.89961293393E+03 0.  0.
        4    1    3    3  502    0  0.13355774724E+03  0.15628150544E+03  0.27705705412E+03  0.34499826801E+03  0.12699999809E+01 0. -1.
       -4    1    3    3    0  502 -0.13355774724E+03 -0.15628150544E+03 -0.56237997626E+03  0.59877744730E+03  0.12699999809E+01 0.  1.
</event>
<event>
 5   0  0.9697941E-04  0.8746736E+03  0.7818609E-02  0.9457806E-01
       -1   -1    0    0    0  501  0.00000000000E+00  0.00000000000E+00  0.29967975759E+03  0.29967975763E+03  0.50400001928E-02 0.  1.
        1   -1    0    0  501    0  0.00000000000E+00  0.00000000000E+00 -0.63822621048E+03  0.63822621050E+03  0.50400001928E-02 0. -1.
    10030    2    1    2    0    0  0.00000000000E+00  0.00000000000E+00 -0.33854645288E+03  0.93790596813E+03  0.87467359872E+03 0.  0.
        5    1    3    3  502    0 -0.29500846711E+03  0.24812472910E+03  0.52163643397E+02  0.38902315168E+03  0.46999998093E+01 0.  1.
       -5    1    3    3    0  502  0.29500846711E+03 -0.24812472910E+03 -0.39071009628E+03  0.54888281645E+03  0.46999998093E+01 0. -1.
</event>
<event>
 5   0  0.1641516E-03  0.9005333E+03  0.7818609E-02  0.9424915E-01
        2   -1    0    0  501    0  0.00000000000E+00  0.00000000000E+00  0.14807272584E+04  0.14807272584E+04  0.25500000920E-02 0.  1.
       -2   -1    0    0    0  501  0.00000000000E+00  0.00000000000E+00 -0.13691923336E+03  0.13691923338E+03  0.25500000920E-02 0. -1.
    10030    2    1    2    0    0  0.00000000000E+00  0.00000000000E+00  0.13438080250E+04  0.16176464917E+04  0.90053326657E+03 0.  0.
        1    1    3    3  502    0 -0.40288911226E+03  0.16779045647E+03  0.87085629084E+03  0.97409648053E+03  0.50400001928E-02 0. -1.
       -1    1    3    3    0  502  0.40288911226E+03 -0.16779045647E+03  0.47295173416E+03  0.64355001122E+03  0.50400001928E-02 0.  1.
</event>
<event>
 5   0  0.9321543E-04  0.9016705E+03  0.7818609E-02  0.9423496E-01
        1   -1    0    0  501    0  0.00000000000E+00  0.00000000000E+00  0.40387808744E+03  0.40387808747E+03  0.50400001928E-02 0.  1.
       -1   -1    0    0    0  501  0.00000000000E+00  0.00000000000E+00 -0.50325188137E+03  0.50325188139E+03  0.50400001928E-02 0. -1.
    10030    2    1    2    0    0  0.00000000000E+00  0.00000000000E+00 -0.99373793930E+02  0.90712996886E+03  0.90167046613E+03 0.  0.
        3    1    3    3  502    0 -0.34491221788E+03  0.17443338742E+03  0.18379794167E+03  0.42798731085E+03  0.10100000352E+00 0.  1.
       -3    1    3    3    0  502  0.34491221788E+03 -0.17443338742E+03 -0.28317173560E+03  0.47914265801E+03  0.10100000352E+00 0. -1.
</event>
<event>
 5   0  0.9697941E-04  0.9003481E+03  0.7818609E-02  0.9425146E-01
        1   -1    0    0  501    0  0.00000000000E+00  0.00000000000E+00  0.74942109177E+03  0.74942109179E+03  0.50400001928E-02 0.  1.
       -1   -1    0    0    0  501  0.00000000000E+00  0.00000000000E+00 -0.27041762892E+03  0.27041762897E+03  0.50400001928E-02 0. -1.
    10030    2    1    2    0    0  0.00000000000E+00  0.00000000000E+00  0.47900346285E+03  0.10198387208E+04  0.90034809876E+03 0.  0.
        5    1    3    3  502    0  0.18412271993E+03 -0.18005002821E+03 -0.17870738930E+03  0.31349259902E+03  0.46999998093E+01 0. -1.
       -5    1    3    3    0  502 -0.18412271993E+03  0.18005002821E+03  0.65771085215E+03  0.70634612174E+03  0.46999998093E+01 0.  1.
</event>
<event>
 5   0  0.9697941E-04  0.9002229E+03  0.7818609E-02  0.9425303E-01
       -1   -1    0    0    0  501  0.00000000000E+00  0.00000000000E+00  0.28745717952E+03  0.28745717957E+03  0.50400001928E-02 0. -1.
        1   -1    0    0  501    0  0.00000000000E+00  0.00000000000E+00 -0.70480174319E+03  0.70480174320E+03  0.50400001928E-02 0.  1.
    10030    2    1    2    0    0  0.00000000000E+00  0.00000000000E+00 -0.41734456366E+03  0.99225892277E+03  0.90022290851E+03 0.  0.
        5    1    3    3  502    0 -0.15766910701E+03 -0.20101085614E+02  0.25546583719E+03  0.30091275300E+03  0.46999998093E+01 0. -1.
       -5    1    3    3    0  502  0.15766910701E+03  0.20101085614E+02 -0.67281040086E+03  0.69134616977E+03  0.46999998093E+01 0.  1.
</event>
<event>
 5   0  0.6375625E-04  0.8997766E+03  0.7818609E-02  0.9425861E-01
       -4   -1    0    0    0  501  0.00000000000E+00  0.00000000000E+00  0.12762977923E+04  0.12762984241E+04  0.12699999809E+01 0. -1.
        4   -1    0    0  501    0  0.00000000000E+00  0.00000000000E+00 -0.15858006231E+03  0.15858514767E+03  0.12699999809E+01 0.  1.
    10030    2    1    2    0    0  0.00000000000E+00  0.00000000000E+00  0.11177177300E+04  0.14348835718E+04  0.89977660603E+03 0.  0.
        2    1    3    3  502    0  0.28323079872E+03  0.13854732414E+03  0.47097178074E+02  0.31879960878E+03  0.25500000920E-02 0.  1.
       -2    1    3    3    0  502 -0.28323079872E+03 -0.13854732414E+03  0.10706205519E+04  0.11160839630E+04  0.25500000920E-02 0. -1.
</event>
<event>
 5   0  0.1635686E-03  0.8957398E+03  0.7818609E-02  0.9430923E-01
        2   -1    0    0  501    0  0.00000000000E+00  0.00000000000E+00  0.65690121329E+03  0.65690121329E+03  0.25500000920E-02 0.  1.
       -2   -1    0    0    0  501  0.00000000000E+00  0.00000000000E+00 -0.30535406677E+03  0.30535406679E+03  0.25500000920E-02 0. -1.
    10030    2    1    2    0    0  0.00000000000E+00  0.00000000000E+00  0.35154714651E+03  0.96225528008E+03  0.89573982150E+03 0.  0.
        5    1    3    3  502    0  0.29737071276E+03 -0.11415747678E+03  0.51395848272E+03  0.60467899110E+03  0.46999998093E+01 0.  1.
       -5    1    3    3    0  502 -0.29737071276E+03  0.11415747678E+03 -0.16241133621E+03  0.35757628898E+03  0.46999998093E+01 0. -1.
</event>
<event>
 5   0  0.1536020E-03  0.8865425E+03  0.7818609E-02  0.9442562E-01
        2   -1    0    0  501    0  0.00000000000E+00  0.00000000000E+00  0.97066185808E+03  0.97066185808E+03  0.25500000920E-02 0. -1.
       -2   -1    0    0    0  501  0.00000000000E+00  0.00000000000E+00 -0.20242827464E+03  0.20242827465E+03  0.25500000920E-02 0.  1.
    10030    2    1    2    0    0  0.00000000000E+00  0.00000000000E+00  0.76823358344E+03  0.11730901327E+04  0.88654250930E+03 0.  0.
        2    1    3    3  502    0  0.21521571794E+03  0.59883111671E+02 -0.12249756246E+03  0.25477332107E+03  0.25500000920E-02 0.  1.
       -2    1    3    3    0  502 -0.21521571794E+03 -0.59883111671E+02  0.89073114590E+03  0.91831681167E+03  0.25500000920E-02 0. -1.
</event>
<event>
 5   0  0.9223454E-04  0.8998080E+03  0.7818609E-02  0.9425822E-01
       -1   -1    0    0    0  501  0.00000000000E+00  0.00000000000E+00  0.27013507941E+03  0.27013507946E+03  0.50400001928E-02 0.  1.
        1   -1    0    0  501    0  0.00000000000E+00  0.00000000000E+00 -0.74930509304E+03  0.74930509306E+03  0.50400001928E-02 0. -1.
    10030    2    1    2    0    0  0.00000000000E+00  0.00000000000E+00 -0.47917001363E+03  0.10194401725E+04  0.89980795916E+03 0.  0.
        1    1    3    3  502    0 -0.26988802556E+03 -0.55418175627E+02 -0.64254516006E+03  0.69912445478E+03  0.50400001928E-02 0. -1.
       -1    1    3    3    0  502  0.26988802556E+03  0.55418175627E+02  0.16337514643E+03  0.32031571773E+03  0.50400001928E-02 0.  1.
</event>
<event>
 5   0  0.1635686E-03  0.8983276E+03  0.7818609E-02  0.9427674E-01
       -2   -1    0    0    0  501  0.00000000000E+00  0.00000000000E+00  0.26660357248E+03  0.26660357249E+03  0.25500000920E-02 0.  1.
        2   -1    0    0  501    0  0.00000000000E+00  0.00000000000E+00 -0.75673447244E+03  0.75673447244E+03  0.25500000920E-02 0. -1.
    10030    2    1    2    0    0  0.00000000000E+00  0.00000000000E+00 -0.49013089996E+03  0.10233380449E+04  0.89832758786E+03 0.  0.
        5    1    3    3  502    0  0.40140482083E+03  0.22382195382E+02 -0.16951205845E+02  0.40241300455E+03  0.46999998093E+01 0.  1.
       -5    1    3    3    0  502 -0.40140482083E+03 -0.22382195382E+02 -0.47317969412E+03  0.62092504038E+03  0.46999998093E+01 0. -1.
</event>
<event>
 5   0  0.9697941E-04  0.9006544E+03  0.7818609E-02  0.9424764E-01
        1   -1    0    0  501    0  0.00000000000E+00  0.00000000000E+00  0.17025291980E+04  0.17025291980E+04  0.50400001928E-02 0. -1.
       -1   -1    0    0    0  501  0.00000000000E+00  0.00000000000E+00 -0.11911373306E+03  0.11911373316E+03  0.50400001928E-02 0.  1.
    10030    2    1    2    0    0  0.00000000000E+00  0.00000000000E+00  0.15834154649E+04  0.18216429312E+04  0.90065444765E+03 0.  0.
        5    1    3    3  502    0  0.22684268689E+03 -0.38870511252E+03  0.76148733118E+03  0.88455317231E+03  0.46999998093E+01 0.  1.
       -5    1    3    3    0  502 -0.22684268689E+03  0.38870511252E+03  0.82192813377E+03  0.93708975887E+03  0.46999998093E+01 0. -1.
</event>
<event>
 5   0  0.1704416E-03  0.8997010E+03  0.7818609E-02  0.9425955E-01
       -2   -1    0    0    0  501  0.00000000000E+00  0.00000000000E+00  0.17451193044E+03  0.17451193046E+03  0.25500000920E-02 0. -1.
        2   -1    0    0  501    0  0.00000000000E+00  0.00000000000E+00 -0.11596081397E+04  0.11596081397E+04  0.25500000920E-02 0.  1.
    10030    2    1    2    0    0  0.00000000000E+00  0.00000000000E+00 -0.98509620929E+03  0.13341200702E+04  0.89970096150E+03 0.  0.
        3    1    3    3  502    0  0.30290894802E+03 -0.25589838872E+03 -0.17754271121E+03  0.43446431458E+03  0.10100000352E+00 0. -1.
       -3    1    3    3    0  502 -0.30290894802E+03  0.25589838872E+03 -0.80755349808E+03  0.89965575561E+03  0.10100000352E+00 0.  1.
</event>
<event>
 5   0  0.1635686E-03  0.8978446E+03  0.7818609E-02  0.9428280E-01
        2   -1    0    0  501    0  0.00000000000E+00  0.00000000000E+00  0.23919711250E+03  0.23919711251E+03  0.25500000920E-02 0.  1.
       -2   -1    0    0    0  501  0.00000000000E+00  0.00000000000E+00 -0.84253211720E+03  0.84253211720E+03  0.25500000920E-02 0. -1.
    10030    2    1    2    0    0  0.00000000000E+00  0.00000000000E+00 -0.60333500470E+03  0.10817292297E+04  0.89784464053E+03 0.  0.
        5    1    3    3  502    0 -0.54317783523E+02 -0.20365249194E+02  0.23463253551E+03  0.24174300755E+03  0.46999998093E+01 0.  1.
       -5    1    3    3    0  502  0.54317783523E+02  0.20365249194E+02 -0.83796754021E+03  0.83998622217E+03  0.46999998093E+01 0. -1.
</event>
<event>
 5   0  0.9981885E-04  0.9003070E+03  0.7818609E-02  0.9425198E-01
       -1   -1    0    0    0  501  0.00000000000E+00  0.00000000000E+00  0.22012139998E+03  0.22012140004E+03  0.50400001928E-02 0.  1.
        1   -1    0    0  501    0  0.00000000000E+00  0.00000000000E+00 -0.92057461453E+03  0.92057461455E+03  0.50400001928E-02 0. -1.
    10030    2    1    2    0    0  0.00000000000E+00  0.00000000000E+00 -0.70045321456E+03  0.11406960146E+04  0.90030699870E+03 0.  0.
        4    1    3    3  502    0 -0.44019755791E+03 -0.92405060477E+02 -0.32742135046E+03  0.55634426287E+03  0.12699999809E+01 0. -1.
       -4    1    3    3    0  502  0.44019755791E+03  0.92405060477E+02 -0.37303186410E+03  0.58435175171E+03  0.12699999809E+01 0.  1.
</event>
<event>
 5   0  0.1704416E-03  0.8996961E+03  0.7818609E-02  0.9425961E-01
       -2   -1    0    0    0  501  0.00000000000E+00  0.00000000000E+00  0.16588794390E+03  0.16588794392E+03  0.25500000920E-02 0. -1.
        2   -1    0    0  501    0  0.00000000000E+00  0.00000000000E+00 -0.12198794019E+04  0.12198794019E+04  0.25500000920E-02 0.  1.
    10030    2    1    2    0    0  0.00000000000E+00  0.00000000000E+00 -0.10539914580E+04  0.13857673458E+04  0.89969613937E+03 0.  0.
        3    1    3    3  502    0  0.35218687463E+03 -0.94995616307E+02 -0.93247820883E+03  0.10012868630E+04  0.10100000352E+00 0.  1.
       -3    1    3    3    0  502 -0.35218687463E+03  0.94995616307E+02 -0.12151324916E+03  0.38448048286E+03  0.10100000352E+00 0. -1.
</event>
<event>
 5   0  0.1536020E-03  0.8989420E+03  0.7818609E-02  0.9426905E-01
        2   -1    0    0  501    0  0.00000000000E+00  0.00000000000E+00  0.85590885347E+03  0.85590885347E+03  0.25500000920E-02 0. -1.
       -2   -1    0    0    0  501  0.00000000000E+00  0.00000000000E+00 -0.23603466462E+03  0.23603466463E+03  0.25500000920E-02 0.  1.
    10030    2    1    2    0    0  0.00000000000E+00  0.00000000000E+00  0.61987418885E+03  0.10919435181E+04  0.89894195403E+03 0.  0.
        2    1    3    3  502    0 -0.27795696949E+03  0.21000862985E+03  0.65492102495E+03  0.74181213958E+03  0.25500000920E-02 0. -1.
       -2    1    3    3    0  502  0.27795696949E+03 -0.21000862985E+03 -0.35046836098E+02  0.35013137852E+03  0.25500000920E-02 0.  1.
</event>
<event>
 5   0  0.1630202E-03  0.8991227E+03  0.7818609E-02  0.9426679E-01
       -2   -1    0    0    0  501  0.00000000000E+00  0.00000000000E+00  0.20317314680E+03  0.20317314681E+03  0.25500000920E-02 0.  1.
        2   -1    0    0  501    0  0.00000000000E+00  0.00000000000E+00 -0.99474470988E+03  0.99474470989E+03  0.25500000920E-02 0. -1.
    10030    2    1    2    0    0  0.00000000000E+00  0.00000000000E+00 -0.79157156309E+03  0.11979178567E+04  0.89912271238E+03 0.  0.
        4    1    3    3  502    0  0.35147248285E+03 -0.15932876122E+03 -0.70304408692E+03  0.80199199585E+03  0.12699999809E+01 0. -1.
       -4    1    3    3    0  502 -0.35147248285E+03  0.15932876122E+03 -0.88527476165E+02  0.39592586085E+03  0.12699999809E+01 0.  1.
</event>
<event>
 5   0  0.1635686E-03  0.9010746E+03  0.7818609E-02  0.9424239E-01
        2   -1    0    0  501    0  0.00000000000E+00  0.00000000000E+00  0.80925975535E+03  0.80925975535E+03  0.25500000920E-02 0.  1.
       -2   -1    0    0    0  501  0.00000000000E+00  0.00000000000E+00 -0.25082659056E+03  0.25082659057E+03  0.25500000920E-02 0. -1.
    10030    2    1    2    0    0  0.00000000000E+00  0.00000000000E+00  0.55843316479E+03  0.10600863459E+04  0.90107461471E+03 0.  0.
        5    1    3    3  502    0 -0.27312129155E+03  0.17231870841E+03 -0.90338524324E+02  0.33536862725E+03  0.46999998093E+01 0. -1.
       -5    1    3    3    0  502  0.27312129155E+03 -0.17231870841E+03  0.64877168912E+03  0.72471771868E+03  0.46999998093E+01 0.  1.
</event>
<event>
 5   0  0.1641516E-03  0.9000868E+03  0.7818609E-02  0.9425473E-01
        2   -1    0    0  501    0  0.00000000000E+00  0.00000000000E+00  0.81538994073E+03  0.81538994074E+03  0.25500000920E-02 0. -1.
       -2   -1    0    0    0  501  0.00000000000E+00  0.00000000000E+00 -0.24839533713E+03  0.24839533714E+03  0.25500000920E-02 0.  1.
    10030    2    1    2    0    0  0.00000000000E+00  0.00000000000E+00  0.56699460361E+03  0.10637852779E+04  0.90008679410E+03 0.  0.
        1    1    3    3  502    0 -0.10041572180E+03 -0.28354269982E+03  0.67913120302E+03  0.74276441133E+03  0.50400001928E-02 0. -1.
       -1    1    3    3    0  502  0.10041572180E+03  0.28354269982E+03 -0.11213659941E+03  0.32102086655E+03  0.50400001928E-02 0.  1.
</event>
<event>
 5   0  0.1641516E-03  0.9039041E+03  0.7818609E-02  0.9420714E-01
        2   -1    0    0  501    0  0.00000000000E+00  0.00000000000E+00  0.10899901685E+04  0.10899901685E+04  0.25500000920E-02 0. -1.
       -2   -1    0    0    0  501  0.00000000000E+00  0.00000000000E+00 -0.18739677619E+03  0.18739677621E+03  0.25500000920E-02 0.  1.
    10030    2    1    2    0    0  0.00000000000E+00  0.00000000000E+00  0.90259339230E+03  0.12773869447E+04  0.90390407383E+03 0.  0.
        1    1    3    3  502    0 -0.21838166093E+03  0.36293341464E+03  0.67406753911E+03  0.79610191597E+03  0.50400001928E-02 0. -1.
       -1    1    3    3    0  502  0.21838166093E+03 -0.36293341464E+03  0.22852585319E+03  0.48128502874E+03  0.50400001928E-02 0.  1.
</event>
<event>
 5   0  0.9223454E-04  0.9006362E+03  0.7818609E-02  0.9424786E-01
        1   -1    0    0  501    0  0.00000000000E+00  0.00000000000E+00  0.63386554007E+03  0.63386554009E+03  0.50400001928E-02 0.  1.
       -1   -1    0    0    0  501  0.00000000000E+00  0.00000000000E+00 -0.31992023632E+03  0.31992023636E+03  0.50400001928E-02 0. -1.
    10030    2    1    2    0    0  0.00000000000E+00  0.00000000000E+00  0.31394530375E+03  0.95378577644E+03  0.90063624932E+03 0.  0.
        1    1    3    3  502    0  0.12535714350E+02  0.44378559834E+03  0.77133920381E+02  0.45061340762E+03  0.50400001928E-02 0. -1.
       -1    1    3    3    0  502 -0.12535714350E+02 -0.44378559834E+03  0.23681138337E+03  0.50317236882E+03  0.50400001928E-02 0.  1.
</event>
<event>
 5   0  0.1007561E-03  0.8829535E+03  0.7818609E-02  0.9447145E-01
        1   -1    0    0  501    0  0.00000000000E+00  0.00000000000E+00  0.34572474026E+03  0.34572474030E+03  0.50400001928E-02 0. -1.
       -1   -1    0    0    0  501  0.00000000000E+00  0.00000000000E+00 -0.56374826744E+03  0.56374826746E+03  0.50400001928E-02 0.  1.
    10030    2    1    2    0    0  0.00000000000E+00  0.00000000000E+00 -0.21802352718E+03  0.90947300776E+03  0.88295350582E+03 0.  0.
        2    1    3    3  502    0  0.28511057140E+03 -0.33161895428E+03 -0.17117806268E+03  0.46963932748E+03  0.25500000920E-02 0.  1.
       -2    1    3    3    0  502 -0.28511057140E+03  0.33161895428E+03 -0.46845464503E+02  0.43983368029E+03  0.25500000920E-02 0. -1.
</event>
<event>
 5   0  0.1641516E-03  0.9003500E+03  0.7818609E-02  0.9425144E-01
       -2   -1    0    0    0  501  0.00000000000E+00  0.00000000000E+00  0.11476672794E+03  0.11476672796E+03  0.25500000920E-02 0. -1.
        2   -1    0    0  501    0  0.00000000000E+00  0.00000000000E+00 -0.17658211483E+04  0.17658211483E+04  0.25500000920E-02 0.  1.
    10030    2    1    2    0    0  0.00000000000E+00  0.00000000000E+00 -0.16510544204E+04  0.18805878763E+04  0.90034996605E+03 0.  0.
        1    1    3    3  502    0  0.54580025785E+02 -0.38893274658E+03 -0.36595985747E+03  0.53681866387E+03  0.50400001928E-02 0. -1.
       -1    1    3    3    0  502 -0.54580025785E+02  0.38893274658E+03 -0.12850945629E+04  0.13437692124E+04  0.50400001928E-02 0.  1.
</event>
<event>
 5   0  0.9321543E-04  0.8992463E+03  0.7818609E-02  0.9426524E-01
        1   -1    0    0  501    0  0.00000000000E+00  0.00000000000E+00  0.37958700511E+03  0.37958700514E+03  0.50400001928E-02 0.  1.
       -1   -1    0    0    0  501  0.00000000000E+00  0.00000000000E+00 -0.53258143478E+03  0.53258143480E+03  0.50400001928E-02 0. -1.
    10030    2    1    2    0    0  0.00000000000E+00  0.00000000000E+00 -0.15299442967E+03  0.91216843994E+03  0.89924633295E+03 0.  0.
        3    1    3    3  502    0 -0.12189907446E+03 -0.38534787926E+03  0.12333265533E+03  0.42256754073E+03  0.10100000352E+00 0.  1.
       -3    1    3    3    0  502  0.12189907446E+03  0.38534787926E+03 -0.27632708500E+03  0.48960089921E+03  0.10100000352E+00 0. -1.
</event>
<event>
 5   0  0.1635686E-03  0.9064368E+03  0.7818609E-02  0.9417571E-01
        2   -1    0    0  501    0  0.00000000000E+00  0.00000000000E+00  0.34314142669E+03  0.34314142670E+03  0.25500000920E-02 0.  1.
       -2   -1    0    0    0  501  0.00000000000E+00  0.00000000000E+00 -0.59860716335E+03  0.59860716335E+03  0.25500000920E-02 0. -1.
    10030    2    1    2    0    0  0.00000000000E+00  0.00000000000E+00 -0.25546573666E+03  0.94174859005E+03  0.90643679551E+03 0.  0.
        5    1    3    3  502    0 -0.66225078700E+00  0.32671527384E+03 -0.45404056969E+03  0.55939095243E+03  0.46999998093E+01 0. -1.
       -5    1    3    3    0  502  0.66225078700E+00 -0.32671527384E+03  0.19857483304E+03  0.38235763762E+03  0.46999998093E+01 0.  1.
</event>
<event>
 5   0  0.9321543E-04  0.9016829E+03  0.7818609E-02  0.9423480E-01
        1   -1    0    0  501    0  0.00000000000E+00  0.00000000000E+00  0.66286430856E+03  0.66286430858E+03  0.50400001928E-02 0.  1.
       -1   -1    0    0    0  501  0.00000000000E+00  0.00000000000E+00 -0.30663595723E+03  0.30663595727E+03  0.50400001928E-02 0. -1.
    10030    2    1    2    0    0  0.00000000000E+00  0.00000000000E+00  0.35622835133E+03  0.96950026584E+03  0.90168294160E+03 0.  0.
        3    1    3    3  502    0  0.90871685376E+02 -0.78299585881E+02  0.64539185074E+03  0.65644431566E+03  0.10100000352E+00 0.  1.
       -3    1    3    3    0  502 -0.90871685376E+02  0.78299585881E+02 -0.28916349941E+03  0.31305595019E+03  0.10100000352E+00 0. -1.
</event>
<event>
 5   0  0.1536020E-03  0.9026436E+03  0.7818609E-02  0.9422283E-01
       -2   -1    0    0    0  501  0.00000000000E+00  0.00000000000E+00  0.17769846666E+03  0.17769846667E+03  0.25500000920E-02 0. -1.
        2   -1    0    0  501    0  0.00000000000E+00  0.00000000000E+00 -0.11462752781E+04  0.11462752781E+04  0.25500000920E-02 0.  1.
    10030    2    1    2    0    0  0.00000000000E+00  0.00000000000E+00 -0.96857681141E+03  0.13239737447E+04  0.90264358257E+03 0.  0.
        2    1    3    3  502    0 -0.72954424140E+02  0.30090478349E+03 -0.96592941411E+03  0.10143400169E+04  0.25500000920E-02 0.  1.
       -2    1    3    3    0  502  0.72954424140E+02 -0.30090478349E+03 -0.26473972920E+01  0.30963372789E+03  0.25500000920E-02 0. -1.
</event>
<event>
 5   0  0.9981885E-04  0.9013169E+03  0.7818609E-02  0.9423937E-01
        1   -1    0    0  501    0  0.00000000000E+00  0.00000000000E+00  0.10522432211E+04  0.10522432212E+04  0.50400001928E-02 0. -1.
       -1   -1    0    0    0  501  0.00000000000E+00  0.00000000000E+00 -0.19300961222E+03  0.19300961228E+03  0.50400001928E-02 0.  1.
    10030    2    1    2    0    0  0.00000000000E+00  0.00000000000E+00  0.85923360893E+03  0.12452528334E+04  0.90131693897E+03 0.  0.
        4    1    3    3  502    0  0.39298439853E+03 -0.12294727068E+03  0.17659791109E+03  0.44804152035E+03  0.12699999809E+01 0.  1.
       -4    1    3    3    0  502 -0.39298439853E+03  0.12294727068E+03  0.68263569784E+03  0.79721131309E+03  0.12699999809E+01 0. -1.
</event>
<event>
 5   0  0.9697941E-04  0.8903715E+03  0.7818609E-02  0.9437698E-01
        1   -1    0    0  501    0  0.00000000000E+00  0.00000000000E+00  0.51731601029E+03  0.51731601031E+03  0.50400001928E-02 0. -1.
       -1   -1    0    0    0  501  0.00000000000E+00  0.00000000000E+00 -0.38311275772E+03  0.38311275775E+03  0.50400001928E-02 0.  1.
    10030    2    1    2    0    0  0.00000000000E+00  0.00000000000E+00  0.13420325257E+03  0.90042876806E+03  0.89037152546E+03 0.  0.
        5    1    3    3  502    0  0.20516143532E+02 -0.23352772452E+03  0.44981007649E+03  0.50725467486E+03  0.46999998093E+01 0. -1.
       -5    1    3    3    0  502 -0.20516143532E+02  0.23352772452E+03 -0.31560682392E+03  0.39317409320E+03  0.46999998093E+01 0.  1.
</event>
<event>
 5   0  0.9223454E-04  0.8992826E+03  0.7818609E-02  0.9426479E-01
        1   -1    0    0  501    0  0.00000000000E+00  0.00000000000E+00  0.56869634717E+03  0.56869634719E+03  0.50400001928E-02 0.  1.
       -1   -1    0    0    0  501  0.00000000000E+00  0.00000000000E+00 -0.35551012648E+03  0.35551012651E+03  0.50400001928E-02 0. -1.
    10030    2    1    2    0    0  0.00000000000E+00  0.00000000000E+00  0.21318622069E+03  0.92420647370E+03  0.89928262595E+03 0.  0.
        1    1    3    3  502    0 -0.34130670186E+03  0.11834338301E+03  0.38174818376E+03  0.52557311277E+03  0.50400001928E-02 0.  1.
       -1    1    3    3    0  502  0.34130670186E+03 -0.11834338301E+03 -0.16856196306E+03  0.39863336094E+03  0.50400001928E-02 0. -1.
</event>
<event>
 5   0  0.1007561E-03  0.9007128E+03  0.7818609E-02  0.9424691E-01
       -1   -1    0    0    0  501  0.00000000000E+00  0.00000000000E+00  0.26061870260E+03  0.26061870265E+03  0.50400001928E-02 0.  1.
        1   -1    0    0  501    0  0.00000000000E+00  0.00000000000E+00 -0.77822847905E+03  0.77822847906E+03  0.50400001928E-02 0. -1.
    10030    2    1    2    0    0  0.00000000000E+00  0.00000000000E+00 -0.51760977644E+03  0.10388471817E+04  0.90071282121E+03 0.  0.
        2    1    3    3  502    0  0.32638654767E+03  0.19526348870E+03 -0.53696558747E+03  0.65801827532E+03  0.25500000920E-02 0. -1.
       -2    1    3    3    0  502 -0.32638654767E+03 -0.19526348870E+03  0.19355811028E+02  0.38082890640E+03  0.25500000920E-02 0.  1.
</event>
<event>
 5   0  0.1704416E-03  0.8998724E+03  0.7818609E-02  0.9425741E-01
        2   -1    0    0  501    0  0.00000000000E+00  0.00000000000E+00  0.38139451299E+03  0.38139451299E+03  0.25500000920E-02 0.  1.
       -2   -1    0    0    0  501  0.00000000000E+00  0.00000000000E+00 -0.53079578267E+03  0.53079578267E+03  0.25500000920E-02 0. -1.
    10030    2    1    2    0    0  0.00000000000E+00  0.00000000000E+00 -0.14940126968E+03  0.91219029567E+03  0.89987243325E+03 0.  0.
        3    1    3    3  502    0  0.22586476232E+03  0.19308346629E+02  0.31927728987E+03  0.39156825859E+03  0.10100000352E+00 0.  1.
       -3    1    3    3    0  502 -0.22586476232E+03 -0.19308346629E+02 -0.46867855955E+03  0.52062203708E+03  0.10100000352E+00 0. -1.
</event>
<event>
 5   0  0.1641516E-03  0.9011545E+03  0.7818609E-02  0.9424139E-01
        2   -1    0    0  501    0  0.00000000000E+00  0.00000000000E+00  0.70120350662E+03  0.70120350663E+03  0.25500000920E-02 0. -1.
       -2   -1    0    0    0  501  0.00000000000E+00  0.00000000000E+00 -0.28953056356E+03  0.28953056358E+03  0.25500000920E-02 0.  1.
    10030    2    1    2    0    0  0.00000000000E+00  0.00000000000E+00  0.41167294306E+03  0.99073407020E+03  0.90115447389E+03 0.  0.
        1    1    3    3  502    0  0.19904417361E+03  0.16458177926E+03 -0.20007212335E+03  0.32670261657E+03  0.50400001928E-02 0.  1.
       -1    1    3    3    0  502 -0.19904417361E+03 -0.16458177926E+03  0.61174506640E+03  0.66403145363E+03  0.50400001928E-02 0. -1.
</event>
<event>
 5   0  0.1007561E-03  0.9012396E+03  0.7818609E-02  0.9424033E-01
       -1   -1    0    0    0  501  0.00000000000E+00  0.00000000000E+00  0.87565208602E+03  0.87565208603E+03  0.50400001928E-02 0.  1.
        1   -1    0    0  501    0  0.00000000000E+00  0.00000000000E+00 -0.23189370969E+03  0.23189370974E+03  0.50400001928E-02 0. -1.
    10030    2    1    2    0    0  0.00000000000E+00  0.00000000000E+00  0.64375837633E+03  0.11075457958E+04  0.90123961445E+03 0.  0.
        2    1    3    3  502    0 -0.22338028412E+03 -0.69564018455E+02 -0.15140470755E+03  0.27867775202E+03  0.25500000920E-02 0. -1.
       -2    1    3    3    0  502  0.22338028412E+03  0.69564018455E+02  0.79516308387E+03  0.82886804376E+03  0.25500000920E-02 0.  1.
</event>
<event>
 5   0  0.9981885E-04  0.8902207E+03  0.7818609E-02  0.9437889E-01
       -1   -1    0    0    0  501  0.00000000000E+00  0.00000000000E+00  0.14069008504E+03  0.14069008513E+03  0.50400001928E-02 0.  1.
        1   -1    0    0  501    0  0.00000000000E+00  0.00000000000E+00 -0.14082245841E+04  0.14082245841E+04  0.50400001928E-02 0. -1.
    10030    2    1    2    0    0  0.00000000000E+00  0.00000000000E+00 -0.12675344990E+04  0.15489146692E+04  0.89022072895E+03 0.  0.
        4    1    3    3  502    0  0.11655522684E+03  0.35614040492E+03 -0.10517127306E+04  0.11164776708E+04  0.12699999809E+01 0.  1.
       -4    1    3    3    0  502 -0.11655522684E+03 -0.35614040492E+03 -0.21582176845E+03  0.43243699836E+03  0.12699999809E+01 0. -1.
</event>
<event>
 5   0  0.9321543E-04  0.8981834E+03  0.7818609E-02  0.9427855E-01
       -1   -1    0    0    0  501  0.00000000000E+00  0.00000000000E+00  0.41581454350E+03  0.41581454353E+03  0.50400001928E-02 0.  1.
        1   -1    0    0  501    0  0.00000000000E+00  0.00000000000E+00 -0.48503202898E+03  0.48503202901E+03  0.50400001928E-02 0. -1.
    10030    2    1    2    0    0  0.00000000000E+00  0.00000000000E+00 -0.69217485479E+02  0.90084657254E+03  0.89818343725E+03 0.  0.
        3    1    3    3  502    0  0.12392071317E+03  0.42870584376E+03  0.15922362236E+02  0.44654067614E+03  0.10100000352E+00 0.  1.
       -3    1    3    3    0  502 -0.12392071317E+03 -0.42870584376E+03 -0.85139847715E+02  0.45430589639E+03  0.10100000352E+00 0. -1.
</event>
<event>
 5   0  0.9981885E-04  0.8990437E+03  0.7818609E-02  0.9426778E-01
       -1   -1    0    0    0  501  0.00000000000E+00  0.00000000000E+00  0.10016531912E+04  0.10016531912E+04  0.50400001928E-02 0.  1.
        1   -1    0    0  501    0  0.00000000000E+00  0.00000000000E+00 -0.20173638694E+03  0.20173638701E+03  0.50400001928E-02 0. -1.
    10030    2    1    2    0    0  0.00000000000E+00  0.00000000000E+00  0.79991680422E+03  0.12033895782E+04  0.89904370484E+03 0.  0.
        4    1    3    3  502    0 -0.28083493691E+03  0.29295039816E+02 -0.68221658123E+02  0.29048626247E+03  0.12699999809E+01 0. -1.
       -4    1    3    3    0  502  0.28083493691E+03 -0.29295039816E+02  0.86813846235E+03  0.91290331572E+03  0.12699999809E+01 0.  1.
</event>
<event>
 5   0  0.1536020E-03  0.9002179E+03  0.7818609E-02  0.9425309E-01
       -2   -1    0    0    0  501  0.00000000000E+00  0.00000000000E+00  0.53444541174E+03  0.53444541175E+03  0.25500000920E-02 0.  1.
        2   -1    0    0  501    0  0.00000000000E+00  0.00000000000E+00 -0.37908097618E+03  0.37908097619E+03  0.25500000920E-02 0. -1.
    10030    2    1    2    0    0  0.00000000000E+00  0.00000000000E+00  0.15536443556E+03  0.91352638794E+03  0.90021794784E+03 0.  0.
        2    1    3    3  502    0  0.32073851319E+03  0.22319188007E+03  0.30439104446E+03  0.49531981298E+03  0.25500000920E-02 0.  1.
       -2    1    3    3    0  502 -0.32073851319E+03 -0.22319188007E+03 -0.14902660890E+03  0.41820657496E+03  0.25500000920E-02 0. -1.
</event>
<event>
 5   0  0.1641516E-03  0.9140417E+03  0.7818609E-02  0.9408197E-01
       -2   -1    0    0    0  501  0.00000000000E+00  0.00000000000E+00  0.59267923700E+03  0.59267923701E+03  0.25500000920E-02 0. -1.
        2   -1    0    0  501    0  0.00000000000E+00  0.00000000000E+00 -0.35241333218E+03  0.35241333219E+03  0.25500000920E-02 0.  1.
    10030    2    1    2    0    0  0.00000000000E+00  0.00000000000E+00  0.24026590483E+03  0.94509256920E+03  0.91404171641E+03 0.  0.
        1    1    3    3  502    0  0.31884708999E+02  0.25253794078E+03 -0.27233498300E+03  0.37277122902E+03  0.50400001928E-02 0.  1.
       -1    1    3    3    0  502 -0.31884708999E+02 -0.25253794078E+03  0.51260088782E+03  0.57232134018E+03  0.50400001928E-02 0. -1.
</event>
<event>
 5   0  0.6375625E-04  0.8991928E+03  0.7818609E-02  0.9426591E-01
        3   -1    0    0  501    0  0.00000000000E+00  0.00000000000E+00  0.35796809081E+03  0.35796810505E+03  0.10100000352E+00 0.  1.
       -3   -1    0    0    0  501  0.00000000000E+00  0.00000000000E+00 -0.56467858992E+03  0.56467859896E+03  0.10100000352E+00 0. -1.
    10030    2    1    2    0    0  0.00000000000E+00  0.00000000000E+00 -0.20671049912E+03  0.92264670401E+03  0.89919281023E+03 0.  0.
        1    1    3    3  502    0  0.29640687623E+03  0.19609251895E+03  0.17919539848E+03  0.39802048079E+03  0.50400001928E-02 0.  1.
       -1    1    3    3    0  502 -0.29640687623E+03 -0.19609251895E+03 -0.38590589760E+03  0.52462622322E+03  0.50400001928E-02 0. -1.
</event>
<event>
 5   0  0.9223454E-04  0.9034359E+03  0.7818609E-02  0.9421297E-01
       -1   -1    0    0    0  501  0.00000000000E+00  0.00000000000E+00  0.65756054541E+03  0.65756054543E+03  0.50400001928E-02 0.  1.
        1   -1    0    0  501    0  0.00000000000E+00  0.00000000000E+00 -0.31031226623E+03  0.31031226627E+03  0.50400001928E-02 0. -1.
    10030    2    1    2    0    0  0.00000000000E+00  0.00000000000E+00  0.34724827918E+03  0.96787281170E+03  0.90343589271E+03 0.  0.
        1    1    3    3  502    0 -0.76624886766E+02 -0.42186239476E+03  0.21323232155E+02  0.42929469323E+03  0.50400001928E-02 0.  1.
       -1    1    3    3    0  502  0.76624886766E+02  0.42186239476E+03  0.32592504702E+03  0.53857811846E+03  0.50400001928E-02 0. -1.
</event>
<event>
 5   0  0.1536020E-03  0.8980680E+03  0.7818609E-02  0.9428000E-01
       -2   -1    0    0    0  501  0.00000000000E+00  0.00000000000E+00  0.11725441895E+03  0.11725441898E+03  0.25500000920E-02 0. -1.
        2   -1    0    0  501    0  0.00000000000E+00  0.00000000000E+00 -0.17196071425E+04  0.17196071425E+04  0.25500000920E-02 0.  1.
    10030    2    1    2    0    0  0.00000000000E+00  0.00000000000E+00 -0.16023527236E+04  0.18368615615E+04  0.89806800711E+03 0.  0.
        2    1    3    3  502    0 -0.23365111583E+03 -0.68296007144E+02 -0.29414923879E+02  0.24519874852E+03  0.25500000920E-02 0. -1.
       -2    1    3    3    0  502  0.23365111583E+03  0.68296007144E+02 -0.15729377997E+04  0.15916628130E+04  0.25500000920E-02 0.  1.
</event>
<event>
 5   0  0.9321543E-04  0.9036249E+03  0.7818609E-02  0.9421061E-01
       -1   -1    0    0    0  501  0.00000000000E+00  0.00000000000E+00  0.22285382726E+03  0.22285382732E+03  0.50400001928E-02 0. -1.
        1   -1    0    0  501    0  0.00000000000E+00  0.00000000000E+00 -0.91600167735E+03  0.91600167736E+03  0.50400001928E-02 0.  1.
    10030    2    1    2    0    0  0.00000000000E+00  0.00000000000E+00 -0.69314785009E+03  0.11388555047E+04  0.90362487707E+03 0.  0.
        3    1    3    3  502    0  0.17088059083E+03  0.28393591632E+03 -0.73362663634E+03  0.80500175941E+03  0.10100000352E+00 0.  1.
       -3    1    3    3    0  502 -0.17088059083E+03 -0.28393591632E+03  0.40478786255E+02  0.33385374528E+03  0.10100000352E+00 0. -1.
</event>
<event>
 5   0  0.1641516E-03  0.9007682E+03  0.7818609E-02  0.9424622E-01
       -2   -1    0    0    0  501  0.00000000000E+00  0.00000000000E+00  0.15674714448E+03  0.15674714450E+03  0.25500000920E-02 0. -1.
        2   -1    0    0  501    0  0.00000000000E+00  0.00000000000E+00 -0.12940958432E+04  0.12940958432E+04  0.25500000920E-02 0.  1.
    10030    2    1    2    0    0  0.00000000000E+00  0.00000000000E+00 -0.11373486987E+04  0.14508429877E+04  0.90076817912E+03 0.  0.
        1    1    3    3  502    0 -0.42014411214E+02  0.40385432355E+03 -0.88257919848E+03  0.97149861915E+03  0.50400001928E-02 0.  1.
       -1    1    3    3    0  502  0.42014411214E+02 -0.40385432355E+03 -0.25476950026E+03  0.47934436857E+03  0.50400001928E-02 0. -1.
</event>
<event>
 5   0  0.9321543E-04  0.8974536E+03  0.7818609E-02  0.9428770E-01
        1   -1    0    0  501    0  0.00000000000E+00  0.00000000000E+00  0.40812798932E+03  0.40812798935E+03  0.50400001928E-02 0.  1.
       -1   -1    0    0    0  501  0.00000000000E+00  0.00000000000E+00 -0.49336417140E+03  0.49336417143E+03  0.50400001928E-02 0. -1.
    10030    2    1    2    0    0  0.00000000000E+00  0.00000000000E+00 -0.85236182078E+02  0.90149216078E+03  0.89745356939E+03 0.  0.
        3    1    3    3  502    0  0.55414806931E+02  0.33935990191E+03  0.24698429802E+03  0.42336414293E+03  0.10100000352E+00 0.  1.
       -3    1    3    3    0  502 -0.55414806931E+02 -0.33935990191E+03 -0.33222048010E+03  0.47812801785E+03  0.10100000352E+00 0. -1.
</event>
<event>
 5   0  0.1635686E-03  0.9001808E+03  0.7818609E-02  0.9425355E-01
       -2   -1    0    0    0  501  0.00000000000E+00  0.00000000000E+00  0.24044924103E+03  0.24044924104E+03  0.25500000920E-02 0.  1.
        2   -1    0    0  501    0  0.00000000000E+00  0.00000000000E+00 -0.84251206728E+03  0.84251206729E+03  0.25500000920E-02 0. -1.
    10030    2    1    2    0    0  0.00000000000E+00  0.00000000000E+00 -0.60206282625E+03  0.10829613083E+04  0.90018084216E+03 0.  0.
        5    1    3    3  502    0  0.42794822782E+03  0.10997143999E+03 -0.19806075580E+03  0.48423502175E+03  0.46999998093E+01 0.  1.
       -5    1    3    3    0  502 -0.42794822782E+03 -0.10997143999E+03 -0.40400207045E+03  0.59872628658E+03  0.46999998093E+01 0. -1.
</event>
<event>
 5   0  0.1641516E-03  0.8985836E+03  0.7818609E-02  0.9427354E-01
        2   -1    0    0  501    0  0.00000000000E+00  0.00000000000E+00  0.35064488872E+03  0.35064488873E+03  0.25500000920E-02 0. -1.
       -2   -1    0    0    0  501  0.00000000000E+00  0.00000000000E+00 -0.57569107235E+03  0.57569107236E+03  0.25500000920E-02 0.  1.
    10030    2    1    2    0    0  0.00000000000E+00  0.00000000000E+00 -0.22504618363E+03  0.92633596108E+03  0.89858362328E+03 0.  0.
        1    1    3    3  502    0 -0.23796803651E+03  0.36414592560E+03 -0.22838685715E+03  0.49131618951E+03  0.50400001928E-02 0.  1.
       -1    1    3    3    0  502  0.23796803651E+03 -0.36414592560E+03  0.33406735169E+01  0.43501977157E+03  0.50400001928E-02 0. -1.
</event>
<event>
 5   0  0.1007561E-03  0.8990608E+03  0.7818609E-02  0.9426756E-01
       -1   -1    0    0    0  501  0.00000000000E+00  0.00000000000E+00  0.62733203535E+03  0.62733203537E+03  0.50400001928E-02 0.  1.
        1   -1    0    0  501    0  0.00000000000E+00  0.00000000000E+00 -0.32212218045E+03  0.32212218049E+03  0.50400001928E-02 0. -1.
    10030    2    1    2    0    0  0.00000000000E+00  0.00000000000E+00  0.30520985491E+03  0.94945421586E+03  0.89906076129E+03 0.  0.
        2    1    3    3  502    0  0.11635382536E+03 -0.33345137022E+03  0.44631161463E+03  0.56914153454E+03  0.25500000920E-02 0.  1.
       -2    1    3    3    0  502 -0.11635382536E+03  0.33345137022E+03 -0.14110175972E+03  0.38031268133E+03  0.25500000920E-02 0. -1.
</event>
<event>
 5   0  0.1536020E-03  0.9004263E+03  0.7818609E-02  0.9425049E-01
       -2   -1    0    0    0  501  0.00000000000E+00  0.00000000000E+00  0.10337126364E+04  0.10337126365E+04  0.25500000920E-02 0. -1.
        2   -1    0    0  501    0  0.00000000000E+00  0.00000000000E+00 -0.19608143732E+03  0.19608143734E+03  0.25500000920E-02 0.  1.
    10030    2    1    2    0    0  0.00000000000E+00  0.00000000000E+00  0.83763119913E+03  0.12297940738E+04  0.90042625360E+03 0.  0.
        2    1    3    3  502    0  0.62062924423E+02  0.27463775207E+03  0.89862277576E+03  0.94170090505E+03  0.25500000920E-02 0. -1.
       -2    1    3    3    0  502 -0.62062924423E+02 -0.27463775207E+03 -0.60991576630E+02  0.28809316874E+03  0.25500000920E-02 0.  1.
</event>
<event>
 5   0  0.1641516E-03  0.8991017E+03  0.7818609E-02  0.9426705E-01
       -2   -1    0    0    0  501  0.00000000000E+00  0.00000000000E+00  0.36600224889E+03  0.36600224890E+03  0.25500000920E-02 0. -1.
        2   -1    0    0  501    0  0.00000000000E+00  0.00000000000E+00 -0.55217132654E+03  0.55217132655E+03  0.25500000920E-02 0.  1.
    10030    2    1    2    0    0  0.00000000000E+00  0.00000000000E+00 -0.18616907765E+03  0.91817357545E+03  0.89910165675E+03 0.  0.
        1    1    3    3  502    0  0.11311723245E+03  0.32614099085E+03  0.20100417126E+03  0.39945729569E+03  0.50400001928E-02 0. -1.
       -1    1    3    3    0  502 -0.11311723245E+03 -0.32614099085E+03 -0.38717324891E+03  0.51871627976E+03  0.50400001928E-02 0.  1.
</event>
<event>
 5   0  0.1007561E-03  0.8996491E+03  0.7818609E-02  0.9426020E-01
        1   -1    0    0  501    0  0.00000000000E+00  0.00000000000E+00  0.35323655267E+03  0.35323655270E+03  0.50400001928E-02 0. -1.
       -1   -1    0    0    0  501  0.00000000000E+00  0.00000000000E+00 -0.57282328351E+03  0.57282328354E+03  0.50400001928E-02 0.  1.
    10030    2    1    2    0    0  0.00000000000E+00  0.00000000000E+00 -0.21958673085E+03  0.92605983624E+03  0.89964909155E+03 0.  0.
        2    1    3    3  502    0  0.26042370306E+03  0.10900926874E+03  0.25068523529E+03  0.37755345712E+03  0.25500000920E-02 0. -1.
       -2    1    3    3    0  502 -0.26042370306E+03 -0.10900926874E+03 -0.47027196614E+03  0.54850637912E+03  0.25500000920E-02 0.  1.
</event>
<event>
 5   0  0.9981885E-04  0.8997692E+03  0.7818609E-02  0.9425870E-01
       -1   -1    0    0    0  501  0.00000000000E+00  0.00000000000E+00  0.32575404154E+03  0.32575404158E+03  0.50400001928E-02 0.  1.
        1   -1    0    0  501    0  0.00000000000E+00  0.00000000000E+00 -0.62131590528E+03  0.62131590530E+03  0.50400001928E-02 0. -1.
    10030    2    1    2    0    0  0.00000000000E+00  0.00000000000E+00 -0.29556186373E+03  0.94706994688E+03  0.89976923096E+03 0.  0.
        4    1    3    3  502    0  0.30677298805E+03 -0.15165891620E+03  0.15960633472E+03  0.37760546612E+03  0.12699999809E+01 0.  1.
       -4    1    3    3    0  502 -0.30677298805E+03  0.15165891620E+03 -0.45516819846E+03  0.56946448076E+03  0.12699999809E+01 0. -1.
</event>
<event>
 5   0  0.1635686E-03  0.9039153E+03  0.7818609E-02  0.9420700E-01
        2   -1    0    0  501    0  0.00000000000E+00  0.00000000000E+00  0.26994155228E+03  0.26994155229E+03  0.25500000920E-02 0.  1.
       -2   -1    0    0    0  501  0.00000000000E+00  0.00000000000E+00 -0.75670353144E+03  0.75670353144E+03  0.25500000920E-02 0. -1.
    10030    2    1    2    0    0  0.00000000000E+00  0.00000000000E+00 -0.48676197916E+03  0.10266450837E+04  0.90391531882E+03 0.  0.
        5    1    3    3  502    0  0.10367778408E+03  0.36603215102E+03 -0.52046142904E+03  0.64469435208E+03  0.46999998093E+01 0. -1.
       -5    1    3    3    0  502 -0.10367778408E+03 -0.36603215102E+03  0.33699449884E+02  0.38195073165E+03  0.46999998093E+01 0.  1.
</event>
<event>
 5   0  0.9321543E-04  0.8998290E+03  0.7818609E-02  0.9425795E-01
        1   -1    0    0  501    0  0.00000000000E+00  0.00000000000E+00  0.15815501586E+04  0.15815501586E+04  0.50400001928E-02 0.  1.
       -1   -1    0    0    0  501  0.00000000000E+00  0.00000000000E+00 -0.12799028984E+03  0.12799028994E+03  0.50400001928E-02 0. -1.
    10030    2    1    2    0    0  0.00000000000E+00  0.00000000000E+00  0.14535598687E+04  0.17095404485E+04  0.89982901330E+03 0.  0.
        3    1    3    3  502    0  0.31759696670E+03 -0.31661589484E+03  0.65802753050E+03  0.79631256377E+03  0.10100000352E+00 0.  1.
       -3    1    3    3    0  502 -0.31759696670E+03  0.31661589484E+03  0.79553233825E+03  0.91322788477E+03  0.10100000352E+00 0. -1.
</event>
<event>
 5   0  0.9321543E-04  0.8993836E+03  0.7818609E-02  0.9426352E-01
        1   -1    0    0  501    0  0.00000000000E+00  0.00000000000E+00  0.80368497275E+03  0.80368497277E+03  0.50400001928E-02 0.  1.
       -1   -1    0    0    0  501  0.00000000000E+00  0.00000000000E+00 -0.25161935370E+03  0.25161935375E+03  0.50400001928E-02 0. -1.
    10030    2    1    2    0    0  0.00000000000E+00  0.00000000000E+00  0.55206561905E+03  0.10553043265E+04  0.89938355213E+03 0.  0.
        3    1    3    3  502    0 -0.76921776888E+02 -0.86771931985E+02 -0.23377510827E+03  0.26095428601E+03  0.10100000352E+00 0. -1.
       -3    1    3    3    0  502  0.76921776888E+02  0.86771931985E+02  0.78584072732E+03  0.79435004051E+03  0.10100000352E+00 0.  1.
</event>
<event>
 5   0  0.1704416E-03  0.9008962E+03  0.7818609E-02  0.9424462E-01
        2   -1    0    0  501    0  0.00000000000E+00  0.00000000000E+00  0.60258258447E+03  0.60258258448E+03  0.25500000920E-02 0.  1.
       -2   -1    0    0    0  501  0.00000000000E+00  0.00000000000E+00 -0.33672310490E+03  0.33672310491E+03  0.25500000920E-02 0. -1.
    10030    2    1    2    0    0  0.00000000000E+00  0.00000000000E+00  0.26585947958E+03  0.93930568938E+03  0.90089617339E+03 0.  0.
        3    1    3    3  502    0  0.21168971769E+02  0.16301624429E+03 -0.30433225549E+03  0.34589095565E+03  0.10100000352E+00 0. -1.
       -3    1    3    3    0  502 -0.21168971769E+02 -0.16301624429E+03  0.57019173507E+03  0.59341473373E+03  0.10100000352E+00 0.  1.
</event>
<event>
 5   0  0.1635686E-03  0.8994497E+03  0.7818609E-02  0.9426270E-01
        2   -1    0    0  501    0  0.00000000000E+00  0.00000000000E+00  0.62283665064E+03  0.62283665065E+03  0.25500000920E-02 0.  1.
       -2   -1    0    0    0  501  0.00000000000E+00  0.00000000000E+00 -0.32472788054E+03  0.32472788055E+03  0.25500000920E-02 0. -1.
    10030    2    1    2    0    0  0.00000000000E+00  0.00000000000E+00  0.29810877010E+03  0.94756453120E+03  0.89944966617E+03 0.  0.
        5    1    3    3  502    0 -0.16024133330E+03  0.28507136030E+03  0.47425368464E+03  0.57609167045E+03  0.46999998093E+01 0.  1.
       -5    1    3    3    0  502  0.16024133330E+03 -0.28507136030E+03 -0.17614491455E+03  0.37147286076E+03  0.46999998093E+01 0. -1.
</event>
<event>
 5   0  0.9697941E-04  0.8980019E+03  0.7818609E-02  0.9428083E-01
       -1   -1    0    0    0  501  0.00000000000E+00  0.00000000000E+00  0.32709560096E+03  0.32709560100E+03  0.50400001928E-02 0. -1.
        1   -1    0    0  501    0  0.00000000000E+00  0.00000000000E+00 -0.61633929793E+03  0.61633929795E+03  0.50400001928E-02 0.  1.
    10030    2    1    2    0    0  0.00000000000E+00  0.00000000000E+00 -0.28924369697E+03  0.94343489895E+03  0.89800194449E+03 0.  0.
        5    1    3    3  502    0 -0.22870010151E+03  0.11992511188E+03  0.24123925290E+03  0.35341793394E+03  0.46999998093E+01 0. -1.
       -5    1    3    3    0  502  0.22870010151E+03 -0.11992511188E+03 -0.53048294988E+03  0.59001696501E+03  0.46999998093E+01 0.  1.
</event>
<event>
 5   0  0.1007561E-03  0.9007818E+03  0.7818609E-02  0.9424605E-01
       -1   -1    0    0    0  501  0.00000000000E+00  0.00000000000E+00  0.12897063913E+03  0.12897063923E+03  0.50400001928E-02 0. -1.
        1   -1    0    0  501    0  0.00000000000E+00  0.00000000000E+00 -0.15728537686E+04  0.15728537686E+04  0.50400001928E-02 0.  1.
    10030    2    1    2    0    0  0.00000000000E+00  0.00000000000E+00 -0.14438831294E+04  0.17018244078E+04  0.90078178465E+03 0.  0.
        2    1    3    3  502    0 -0.38108493521E+03 -0.23662367729E+03 -0.79834547138E+03  0.91573576111E+03  0.25500000920E-02 0. -1.
       -2    1    3    3    0  502  0.38108493521E+03  0.23662367729E+03 -0.64553765806E+03  0.78608864670E+03  0.25500000920E-02 0.  1.
</event>
<event>
 5   0  0.1630202E-03  0.9000839E+03  0.7818609E-02  0.9425477E-01
       -2   -1    0    0    0  501  0.00000000000E+00  0.00000000000E+00  0.16333600159E+03  0.16333600161E+03  0.25500000920E-02 0. -1.
        2   -1    0    0  501    0  0.00000000000E+00  0.00000000000E+00 -0.12400068861E+04  0.12400068861E+04  0.25500000920E-02 0.  1.
    10030    2    1    2    0    0  0.00000000000E+00  0.00000000000E+00 -0.10766708845E+04  0.14033428877E+04  0.90008392219E+03 0.  0.
        4    1    3    3  502    0 -0.29505976930E+03  0.17875656529E+03 -0.87745829419E+02  0.35597067376E+03  0.12699999809E+01 0. -1.
       -4    1    3    3    0  502  0.29505976930E+03 -0.17875656529E+03 -0.98892505511E+03  0.10473722140E+04  0.12699999809E+01 0.  1.
</event>
<event>
 5   0  0.1635686E-03  0.8897738E+03  0.7818609E-02  0.9438456E-01
       -2   -1    0    0    0  501  0.00000000000E+00  0.00000000000E+00  0.12114767634E+03  0.12114767637E+03  0.25500000920E-02 0.  1.
        2   -1    0    0  501    0  0.00000000000E+00  0.00000000000E+00 -0.16337443795E+04  0.16337443795E+04  0.25500000920E-02 0. -1.
    10030    2    1    2    0    0  0.00000000000E+00  0.00000000000E+00 -0.15125967032E+04  0.17548920559E+04  0.88977375854E+03 0.  0.
        5    1    3    3  502    0  0.28788975364E+03  0.16366405123E+03 -0.17043914164E+03  0.37247553331E+03  0.46999998093E+01 0.  1.
       -5    1    3    3    0  502 -0.28788975364E+03 -0.16366405123E+03 -0.13421575616E+04  0.13824165226E+04  0.46999998093E+01 0. -1.
</event>
<event>
 5   0  0.9223454E-04  0.9021310E+03  0.7818609E-02  0.9422921E-01
        1   -1    0    0  501    0  0.00000000000E+00  0.00000000000E+00  0.37642323180E+03  0.37642323183E+03  0.50400001928E-02 0.  1.
       -1   -1    0    0    0  501  0.00000000000E+00  0.00000000000E+00 -0.54050884707E+03  0.54050884709E+03  0.50400001928E-02 0. -1.
    10030    2    1    2    0    0  0.00000000000E+00  0.00000000000E+00 -0.16408561527E+03  0.91693207892E+03  0.90213100391E+03 0.  0.
        1    1    3    3  502    0  0.25270657281E+03 -0.37140531187E+03 -0.40661575370E+02  0.45106083998E+03  0.50400001928E-02 0. -1.
       -1    1    3    3    0  502 -0.25270657281E+03  0.37140531187E+03 -0.12342403990E+03  0.46587123895E+03  0.50400001928E-02 0.  1.
</event>
<event>
 5   0  0.1536020E-03  0.8915298E+03  0.7818609E-02  0.9436232E-01
       -2   -1    0    0    0  501  0.00000000000E+00  0.00000000000E+00  0.27353774716E+03  0.27353774717E+03  0.25500000920E-02 0.  1.
        2   -1    0    0  501    0  0.00000000000E+00  0.00000000000E+00 -0.72643121243E+03  0.72643121244E+03  0.25500000920E-02 0. -1.
    10030    2    1    2    0    0  0.00000000000E+00  0.00000000000E+00 -0.45289346527E+03  0.99996895961E+03  0.89152982524E+03 0.  0.
        2    1    3    3  502    0  0.14201867972E+03 -0.13405292725E+03 -0.67589385690E+03  0.70354246389E+03  0.25500000920E-02 0. -1.
       -2    1    3    3    0  502 -0.14201867972E+03  0.13405292725E+03  0.22300039163E+03  0.29642649572E+03  0.25500000920E-02 0.  1.
</event>
<event>
 5   0  0.1007561E-03  0.8954734E+03  0.7818609E-02  0.9431258E-01
        1   -1    0    0  501    0  0.00000000000E+00  0.00000000000E+00  0.83673898260E+03  0.83673898262E+03  0.50400001928E-02 0. -1.
       -1   -1    0    0    0  501  0.00000000000E+00  0.00000000000E+00 -0.23958266241E+03  0.23958266246E+03  0.50400001928E-02 0.  1.
    10030    2    1    2    0    0  0.00000000000E+00  0.00000000000E+00  0.59715632020E+03  0.10763216451E+04  0.89547340156E+03 0.  0.
        2    1    3    3  502    0  0.22987724903E+03  0.16261065080E+03  0.71699496833E+03  0.77030354926E+03  0.25500000920E-02 0. -1.
       -2    1    3    3    0  502 -0.22987724903E+03 -0.16261065080E+03 -0.11983864814E+03  0.30601809582E+03  0.25500000920E-02 0.  1.
</event>
<event>
 5   0  0.1641516E-03  0.8979521E+03  0.7818609E-02  0.9428145E-01
       -2   -1    0    0    0  501  0.00000000000E+00  0.00000000000E+00  0.35481501587E+03  0.35481501588E+03  0.25500000920E-02 0. -1.
        2   -1    0    0  501    0  0.00000000000E+00  0.00000000000E+00 -0.56812559119E+03  0.56812559120E+03  0.25500000920E-02 0.  1.
    10030    2    1    2    0    0  0.00000000000E+00  0.00000000000E+00 -0.21331057532E+03  0.92294060708E+03  0.89795209374E+03 0.  0.
        1    1    3    3  502    0  0.43203281281E+03  0.11319013060E+03 -0.15392571100E+03  0.47239547155E+03  0.50400001928E-02 0.  1.
       -1    1    3    3    0  502 -0.43203281281E+03 -0.11319013060E+03 -0.59384864316E+02  0.45054513553E+03  0.50400001928E-02 0. -1.
</event>
<event>
 5   0  0.9321543E-04  0.9006531E+03  0.7818609E-02  0.9424765E-01
        1   -1    0    0  501    0  0.00000000000E+00  0.00000000000E+00  0.11388752534E+04  0.11388752535E+04  0.50400001928E-02 0. -1.
       -1   -1    0    0    0  501  0.00000000000E+00  0.00000000000E+00 -0.17806515584E+03  0.17806515592E+03  0.50400001928E-02 0.  1.
    10030    2    1    2    0    0  0.00000000000E+00  0.00000000000E+00  0.96081009760E+03  0.13169404094E+04  0.90065309536E+03 0.  0.
        3    1    3    3  502    0 -0.18866870757E+03 -0.40216868709E+03  0.37237527784E+03  0.57965411396E+03  0.10100000352E+00 0.  1.
       -3    1    3    3    0  502  0.18866870757E+03  0.40216868709E+03  0.58843481976E+03  0.73728629541E+03  0.10100000352E+00 0. -1.
</event>
<event>
 5   0  0.9321543E-04  0.9087910E+03  0.7818609E-02  0.9414658E-01
       -1   -1    0    0    0  501  0.00000000000E+00  0.00000000000E+00  0.22139861123E+03  0.22139861129E+03  0.50400001928E-02 0. -1.
        1   -1    0    0  501    0  0.00000000000E+00  0.00000000000E+00 -0.93259517307E+03  0.93259517308E+03  0.50400001928E-02 0.  1.
    10030    2    1    2    0    0  0.00000000000E+00  0.00000000000E+00 -0.71119656184E+03  0.11539937844E+04  0.90879101272E+03 0.  0.
        3    1    3    3  502    0  0.33128687848E+03 -0.27272957092E+03 -0.16579280244E+03  0.46002138890E+03  0.10100000352E+00 0. -1.
       -3    1    3    3    0  502 -0.33128687848E+03  0.27272957092E+03 -0.54540375940E+03  0.69397239547E+03  0.10100000352E+00 0.  1.
</event>
<event>
 5   0  0.1630202E-03  0.8989942E+03  0.7818609E-02  0.9426840E-01
       -2   -1    0    0    0  501  0.00000000000E+00  0.00000000000E+00  0.23072033459E+03  0.23072033460E+03  0.25500000920E-02 0. -1.
        2   -1    0    0  501    0  0.00000000000E+00  0.00000000000E+00 -0.87572529062E+03  0.87572529062E+03  0.25500000920E-02 0.  1.
    10030    2    1    2    0    0  0.00000000000E+00  0.00000000000E+00 -0.64500495603E+03  0.11064456252E+04  0.89899417588E+03 0.  0.
        4    1    3    3  502    0  0.39386676361E+02  0.23967876404E+01 -0.87358727989E+03  0.87447893248E+03  0.12699999809E+01 0.  1.
       -4    1    3    3    0  502 -0.39386676361E+02 -0.23967876404E+01  0.22858232385E+03  0.23196669275E+03  0.12699999809E+01 0. -1.
</event>
<event>
 5   0  0.1641516E-03  0.8980506E+03  0.7818609E-02  0.9428022E-01
       -2   -1    0    0    0  501  0.00000000000E+00  0.00000000000E+00  0.26738317148E+03  0.26738317149E+03  0.25500000920E-02 0. -1.
        2   -1    0    0  501    0  0.00000000000E+00  0.00000000000E+00 -0.75406281779E+03  0.75406281780E+03  0.25500000920E-02 0.  1.
    10030    2    1    2    0    0  0.00000000000E+00  0.00000000000E+00 -0.48667964631E+03  0.10214459893E+04  0.89805057258E+03 0.  0.
        1    1    3    3  502    0 -0.21237180605E+03 -0.25499806508E+03 -0.58738874530E+03  0.67464904605E+03  0.50400001928E-02 0.  1.
       -1    1    3    3    0  502  0.21237180605E+03  0.25499806508E+03  0.10070909899E+03  0.34679694325E+03  0.50400001928E-02 0. -1.
</event>
<event>
 5   0  0.6375625E-04  0.8993057E+03  0.7818609E-02  0.9426450E-01
        4   -1    0    0  501    0  0.00000000000E+00  0.00000000000E+00  0.98258351895E+03  0.98258433969E+03  0.12699999809E+01 0.  1.
       -4   -1    0    0    0  501  0.00000000000E+00  0.00000000000E+00 -0.20576865511E+03  0.20577257428E+03  0.12699999809E+01 0. -1.
    10030    2    1    2    0    0  0.00000000000E+00  0.00000000000E+00  0.77681486384E+03  0.11883569140E+04  0.89930574462E+03 0.  0.
        4    1    3    3  502    0 -0.37208118251E+03  0.22337388652E+03  0.23291886931E+03  0.49253742207E+03  0.12699999809E+01 0.  1.
       -4    1    3    3    0  502  0.37208118251E+03 -0.22337388652E+03  0.54389599453E+03  0.69581949191E+03  0.12699999809E+01 0. -1.
</event>
<event>
 5   0  0.9981885E-04  0.8995463E+03  0.7818609E-02  0.9426149E-01
        1   -1    0    0  501    0  0.00000000000E+00  0.00000000000E+00  0.43582455153E+03  0.43582455156E+03  0.50400001928E-02 0. -1.
       -1   -1    0    0    0  501  0.00000000000E+00  0.00000000000E+00 -0.46416814316E+03  0.46416814319E+03  0.50400001928E-02 0.  1.
    10030    2    1    2    0    0  0.00000000000E+00  0.00000000000E+00 -0.28343591636E+02  0.89999269475E+03  0.89954626975E+03 0.  0.
        4    1    3    3  502    0 -0.34115638481E+02 -0.42228663345E+03  0.13691434721E+03  0.44523817104E+03  0.12699999809E+01 0. -1.
       -4    1    3    3    0  502  0.34115638481E+02  0.42228663345E+03 -0.16525793885E+03  0.45475452371E+03  0.12699999809E+01 0.  1.
</event>
<event>
 5   0  0.9697941E-04  0.8995173E+03  0.7818609E-02  0.9426185E-01
        1   -1    0    0  501    0  0.00000000000E+00  0.00000000000E+00  0.11212217975E+04  0.11212217975E+04  0.50400001928E-02 0. -1.
       -1   -1    0    0    0  501  0.00000000000E+00  0.00000000000E+00 -0.18041288712E+03  0.18041288719E+03  0.50400001928E-02 0.  1.
    10030    2    1    2    0    0  0.00000000000E+00  0.00000000000E+00  0.94080891042E+03  0.13016346847E+04  0.89951734091E+03 0.  0.
        5    1    3    3  502    0  0.34432817496E+02 -0.41105149729E+03  0.72971013425E+03  0.83824096915E+03  0.46999998093E+01 0. -1.
       -5    1    3    3    0  502 -0.34432817496E+02  0.41105149729E+03  0.21109877617E+03  0.46339371559E+03  0.46999998093E+01 0.  1.
</event>
<event>
 5   0  0.1536020E-03  0.9001636E+03  0.7818609E-02  0.9425377E-01
        2   -1    0    0  501    0  0.00000000000E+00  0.00000000000E+00  0.16348981080E+04  0.16348981080E+04  0.25500000920E-02 0. -1.
       -2   -1    0    0    0  501  0.00000000000E+00  0.00000000000E+00 -0.12390596885E+03  0.12390596887E+03  0.25500000920E-02 0.  1.
    10030    2    1    2    0    0  0.00000000000E+00  0.00000000000E+00  0.15109921392E+04  0.17588040769E+04  0.90016361638E+03 0.  0.
        2    1    3    3  502    0  0.10442090436E+03 -0.14500619769E+03 -0.51628167664E+02  0.18599997403E+03  0.25500000920E-02 0.  1.
       -2    1    3    3    0  502 -0.10442090436E+03  0.14500619769E+03  0.15626203069E+04  0.15728041029E+04  0.25500000920E-02 0. -1.
</event>
<event>
 5   0  0.9981885E-04  0.9007761E+03  0.7818609E-02  0.9424612E-01
       -1   -1    0    0    0  501  0.00000000000E+00  0.00000000000E+00  0.52463249452E+03  0.52463249454E+03  0.50400001928E-02 0.  1.
        1   -1    0    0  501    0  0.00000000000E+00  0.00000000000E+00 -0.38665043913E+03  0.38665043916E+03  0.50400001928E-02 0. -1.
    10030    2    1    2    0    0  0.00000000000E+00  0.00000000000E+00  0.13798205539E+03  0.91128293370E+03  0.90077607520E+03 0.  0.
        4    1    3    3  502    0  0.40117193915E+03 -0.16929202132E+02  0.27538602434E+03  0.48689279924E+03  0.12699999809E+01 0.  1.
       -4    1    3    3    0  502 -0.40117193915E+03  0.16929202132E+02 -0.13740396895E+03  0.42439013446E+03  0.12699999809E+01 0. -1.
</event>
<event>
 5   0  0.1635686E-03  0.8997345E+03  0.7818609E-02  0.9425913E-01
       -2   -1    0    0    0  501  0.00000000000E+00  0.00000000000E+00  0.11056650314E+03  0.11056650317E+03  0.25500000920E-02 0.  1.
        2   -1    0    0  501    0  0.00000000000E+00  0.00000000000E+00 -0.18303965415E+04  0.18303965415E+04  0.25500000920E-02 0. -1.
    10030    2    1    2    0    0  0.00000000000E+00  0.00000000000E+00 -0.17198300384E+04  0.19409630447E+04  0.89973450526E+03 0.  0.
        5    1    3    3  502    0  0.76685576665E+02  0.42600721733E+03 -0.59574396996E+03  0.73640735644E+03  0.46999998093E+01 0. -1.
       -5    1    3    3    0  502 -0.76685576665E+02 -0.42600721733E+03 -0.11240860684E+04  0.12045556883E+04  0.46999998093E+01 0.  1.
</event>
<event>
 5   0  0.9697941E-04  0.9001275E+03  0.7818609E-02  0.9425422E-01
        1   -1    0    0  501    0  0.00000000000E+00  0.00000000000E+00  0.21554658728E+04  0.21554658728E+04  0.50400001928E-02 0.  1.
       -1   -1    0    0    0  501  0.00000000000E+00  0.00000000000E+00 -0.93973833498E+02  0.93973833633E+02  0.50400001928E-02 0. -1.
    10030    2    1    2    0    0  0.00000000000E+00  0.00000000000E+00  0.20614920393E+04  0.22494397065E+04  0.90012752697E+03 0.  0.
        5    1    3    3  502    0  0.43902181170E+03  0.64286999222E+02  0.84269834373E+03  0.95238414411E+03  0.46999998093E+01 0. -1.
       -5    1    3    3    0  502 -0.43902181170E+03 -0.64286999222E+02  0.12187936956E+04  0.12970555623E+04  0.46999998093E+01 0.  1.
</event>
<event>
 5   0  0.9223454E-04  0.8991276E+03  0.7818609E-02  0.9426673E-01
        1   -1    0    0  501    0  0.00000000000E+00  0.00000000000E+00  0.14849552577E+04  0.14849552577E+04  0.50400001928E-02 0. -1.
       -1   -1    0    0    0  501  0.00000000000E+00  0.00000000000E+00 -0.13610350061E+03  0.13610350070E+03  0.50400001928E-02 0.  1.
    10030    2    1    2    0    0  0.00000000000E+00  0.00000000000E+00  0.13488517571E+04  0.16210587584E+04  0.89912759696E+03 0.  0.
        1    1    3    3  502    0  0.12370706939E+03 -0.38941003865E+03  0.33634040301E+03  0.52921496950E+03  0.50400001928E-02 0.  1.
       -1    1    3    3    0  502 -0.12370706939E+03  0.38941003865E+03  0.10125113541E+04  0.10918437889E+04  0.50400001928E-02 0. -1.
</event>
<event>
 5   0  0.1536020E-03  0.8991172E+03  0.7818609E-02  0.9426686E-01
        2   -1    0    0  501    0  0.00000000000E+00  0.00000000000E+00  0.13128244176E+04  0.13128244176E+04  0.25500000920E-02 0.  1.
       -2   -1    0    0    0  501  0.00000000000E+00  0.00000000000E+00 -0.15394514455E+03  0.15394514457E+03  0.25500000920E-02 0. -1.
    10030    2    1    2    0    0  0.00000000000E+00  0.00000000000E+00  0.11588792731E+04  0.14667695622E+04  0.89911722208E+03 0.  0.
        2    1    3    3  502    0 -0.33070130444E+03 -0.41645370981E+02  0.10715684672E+04  0.11222106173E+04  0.25500000920E-02 0.  1.
       -2    1    3    3    0  502  0.33070130444E+03  0.41645370981E+02  0.87310805884E+02  0.34455894491E+03  0.25500000920E-02 0. -1.
</event>
<event>
 5   0  0.9697941E-04  0.9012685E+03  0.7818609E-02  0.9423997E-01
       -1   -1    0    0    0  501  0.00000000000E+00  0.00000000000E+00  0.51625290508E+03  0.51625290511E+03  0.50400001928E-02 0. -1.
        1   -1    0    0  501    0  0.00000000000E+00  0.00000000000E+00 -0.39335613440E+03  0.39335613443E+03  0.50400001928E-02 0.  1.
    10030    2    1    2    0    0  0.00000000000E+00  0.00000000000E+00  0.12289677068E+03  0.90960903954E+03  0.90126854409E+03 0.  0.
        5    1    3    3  502    0  0.32804802849E+03 -0.77186867300E+02 -0.24044488745E+03  0.41401588784E+03  0.46999998093E+01 0.  1.
       -5    1    3    3    0  502 -0.32804802849E+03  0.77186867300E+02  0.36334165814E+03  0.49559315170E+03  0.46999998093E+01 0. -1.
</event>
<event>
 5   0  0.1641516E-03  0.8936062E+03  0.7818609E-02  0.9433609E-01
       -2   -1    0    0    0  501  0.00000000000E+00  0.00000000000E+00  0.14217405646E+03  0.14217405648E+03  0.25500000920E-02 0. -1.
        2   -1    0    0  501    0  0.00000000000E+00  0.00000000000E+00 -0.14041451192E+04  0.14041451192E+04  0.25500000920E-02 0.  1.
    10030    2    1    2    0    0  0.00000000000E+00  0.00000000000E+00 -0.12619710628E+04  0.15463191757E+04  0.89360619398E+03 0.  0.
        1    1    3    3  502    0 -0.94796101129E+02  0.42905132828E+03 -0.77115711410E+03  0.88755542798E+03  0.50400001928E-02 0.  1.
       -1    1    3    3    0  502  0.94796101129E+02 -0.42905132828E+03 -0.49081394866E+03  0.65876374773E+03  0.50400001928E-02 0. -1.
</event>
<event>
 5   0  0.9223454E-04  0.9002972E+03  0.7818609E-02  0.9425210E-01
       -1   -1    0    0    0  501  0.00000000000E+00  0.00000000000E+00  0.17465428726E+03  0.17465428733E+03  0.50400001928E-02 0. -1.
        1   -1    0    0  501    0  0.00000000000E+00  0.00000000000E+00 -0.11601992019E+04  0.11601992019E+04  0.50400001928E-02 0.  1.
    10030    2    1    2    0    0  0.00000000000E+00  0.00000000000E+00 -0.98554491466E+03  0.13348534893E+04  0.90029720591E+03 0.  0.
        1    1    3    3  502    0  0.43623013156E+03  0.10782307956E+03 -0.45323125710E+03  0.63823280753E+03  0.50400001928E-02 0. -1.
       -1    1    3    3    0  502 -0.43623013156E+03 -0.10782307956E+03 -0.53231365756E+03  0.69662068173E+03  0.50400001928E-02 0.  1.
</event>
<event>
 5   0  0.1007561E-03  0.9030179E+03  0.7818609E-02  0.9421817E-01
        1   -1    0    0  501    0  0.00000000000E+00  0.00000000000E+00  0.51930425926E+03  0.51930425929E+03  0.50400001928E-02 0.  1.
       -1   -1    0    0    0  501  0.00000000000E+00  0.00000000000E+00 -0.39256431237E+03  0.39256431240E+03  0.50400001928E-02 0. -1.
    10030    2    1    2    0    0  0.00000000000E+00  0.00000000000E+00  0.12673994689E+03  0.91186857168E+03  0.90301787241E+03 0.  0.
        2    1    3    3  502    0 -0.10866032755E+03 -0.40794970982E+02  0.50398251469E+03  0.51717470120E+03  0.25500000920E-02 0.  1.
       -2    1    3    3    0  502  0.10866032755E+03  0.40794970982E+02 -0.37724256779E+03  0.39469387049E+03  0.25500000920E-02 0. -1.
</event>
<event>
 5   0  0.1630202E-03  0.9006016E+03  0.7818609E-02  0.9424830E-01
       -2   -1    0    0    0  501  0.00000000000E+00  0.00000000000E+00  0.23645554133E+03  0.23645554134E+03  0.25500000920E-02 0. -1.
        2   -1    0    0  501    0  0.00000000000E+00  0.00000000000E+00 -0.85754303875E+03  0.85754303875E+03  0.25500000920E-02 0.  1.
    10030    2    1    2    0    0  0.00000000000E+00  0.00000000000E+00 -0.62108749742E+03  0.10939985801E+04  0.90060158438E+03 0.  0.
        4    1    3    3  502    0 -0.20142787794E+03 -0.19986920844E+02  0.17807333193E+03  0.26960042927E+03  0.12699999809E+01 0. -1.
       -4    1    3    3    0  502  0.20142787794E+03  0.19986920844E+02 -0.79916082935E+03  0.82439815083E+03  0.12699999809E+01 0.  1.
</event>
<event>
 5   0  0.1536020E-03  0.9033033E+03  0.7818609E-02  0.9421462E-01
       -2   -1    0    0    0  501  0.00000000000E+00  0.00000000000E+00  0.14581516014E+03  0.14581516016E+03  0.25500000920E-02 0. -1.
        2   -1    0    0  501    0  0.00000000000E+00  0.00000000000E+00 -0.13989574154E+04  0.13989574155E+04  0.25500000920E-02 0.  1.
    10030    2    1    2    0    0  0.00000000000E+00  0.00000000000E+00 -0.12531422553E+04  0.15447725756E+04  0.90330327039E+03 0.  0.
        2    1    3    3  502    0 -0.40424066918E+02  0.44180972764E+03 -0.77126995240E+03  0.88976810468E+03  0.25500000920E-02 0. -1.
       -2    1    3    3    0  502  0.40424066918E+02 -0.44180972764E+03 -0.48187230291E+03  0.65500447093E+03  0.25500000920E-02 0.  1.
</event>
<event>
 5   0  0.1630202E-03  0.8990022E+03  0.7818609E-02  0.9426830E-01
        2   -1    0    0  501    0  0.00000000000E+00  0.00000000000E+00  0.64530393564E+03  0.64530393565E+03  0.25500000920E-02 0.  1.
       -2   -1    0    0    0  501  0.00000000000E+00  0.00000000000E+00 -0.31311019122E+03  0.31311019123E+03  0.25500000920E-02 0. -1.
    10030    2    1    2    0    0  0.00000000000E+00  0.00000000000E+00  0.33219374442E+03  0.95841412688E+03  0.89900219954E+03 0.  0.
        4    1    3    3  502    0 -0.40318331419E+03  0.12635570841E+03  0.32961896213E+03  0.53588508375E+03  0.12699999809E+01 0.  1.
       -4    1    3    3    0  502  0.40318331419E+03 -0.12635570841E+03  0.25747822933E+01  0.42252904313E+03  0.12699999809E+01 0. -1.
</event>
<event>
 5   0  0.1007561E-03  0.9001523E+03  0.7818609E-02  0.9425391E-01
        1   -1    0    0  501    0  0.00000000000E+00  0.00000000000E+00  0.32272105510E+03  0.32272105514E+03  0.50400001928E-02 0. -1.
       -1   -1    0    0    0  501  0.00000000000E+00  0.00000000000E+00 -0.62768927474E+03  0.62768927476E+03  0.50400001928E-02 0.  1.
    10030    2    1    2    0    0  0.00000000000E+00  0.00000000000E+00 -0.30496821965E+03  0.95041032990E+03  0.90015230944E+03 0.  0.
        2    1    3    3  502    0 -0.44272214771E+03 -0.79649905141E+02 -0.16819927121E+03  0.48024785508E+03  0.25500000920E-02 0.  1.
       -2    1    3    3    0  502  0.44272214771E+03  0.79649905141E+02 -0.13676894844E+03  0.47016247482E+03  0.25500000920E-02 0. -1.
</event>
<event>
 5   0  0.1641516E-03  0.8990775E+03  0.7818609E-02  0.9426735E-01
        2   -1    0    0  501    0  0.00000000000E+00  0.00000000000E+00  0.97605748182E+03  0.97605748182E+03  0.25500000920E-02 0. -1.
       -2   -1    0    0    0  501  0.00000000000E+00  0.00000000000E+00 -0.20704221057E+03  0.20704221058E+03  0.25500000920E-02 0.  1.
    10030    2    1    2    0    0  0.00000000000E+00  0.00000000000E+00  0.76901527125E+03  0.11830996924E+04  0.89907752432E+03 0.  0.
        1    1    3    3  502    0 -0.64335011423E+02  0.26781335981E+03  0.85201872527E+03  0.89543224066E+03  0.50400001928E-02 0. -1.
       -1    1    3    3    0  502  0.64335011423E+02 -0.26781335981E+03 -0.83003454016E+02  0.28766745174E+03  0.50400001928E-02 0.  1.
</event>
<event>
 5   0  0.9981885E-04  0.9041523E+03  0.7818609E-02  0.9420406E-01
        1   -1    0    0  501    0  0.00000000000E+00  0.00000000000E+00  0.51388123016E+03  0.51388123018E+03  0.50400001928E-02 0. -1.
       -1   -1    0    0    0  501  0.00000000000E+00  0.00000000000E+00 -0.39770445372E+03  0.39770445375E+03  0.50400001928E-02 0.  1.
    10030    2    1    2    0    0  0.00000000000E+00  0.00000000000E+00  0.11617677644E+03  0.91158568394E+03  0.90415231890E+03 0.  0.
        4    1    3    3  502    0 -0.43083896555E+03  0.10256445922E+03  0.14955111911E+03  0.46744928351E+03  0.12699999809E+01 0.  1.
       -4    1    3    3    0  502  0.43083896555E+03 -0.10256445922E+03 -0.33374342669E+02  0.44413640042E+03  0.12699999809E+01 0. -1.
</event>
<event>
 5   0  0.1007561E-03  0.9000097E+03  0.7818609E-02  0.9425569E-01
       -1   -1    0    0    0  501  0.00000000000E+00  0.00000000000E+00  0.25838248697E+03  0.25838248702E+03  0.50400001928E-02 0.  1.
        1   -1    0    0  501    0  0.00000000000E+00  0.00000000000E+00 -0.78373875913E+03  0.78373875915E+03  0.50400001928E-02 0. -1.
    10030    2    1    2    0    0  0.00000000000E+00  0.00000000000E+00 -0.52535627216E+03  0.10421212462E+04  0.90000971051E+03 0.  0.
        2    1    3    3  502    0  0.11600087644E+03  0.34469530662E+03  0.44183523455E+02  0.36636490210E+03  0.25500000920E-02 0.  1.
       -2    1    3    3    0  502 -0.11600087644E+03 -0.34469530662E+03 -0.56953979562E+03  0.67575634406E+03  0.25500000920E-02 0. -1.
</event>
<event>
 5   0  0.9223454E-04  0.9003344E+03  0.7818609E-02  0.9425164E-01
        1   -1    0    0  501    0  0.00000000000E+00  0.00000000000E+00  0.16517567500E+04  0.16517567500E+04  0.50400001928E-02 0. -1.
       -1   -1    0    0    0  501  0.00000000000E+00  0.00000000000E+00 -0.12268785079E+03  0.12268785089E+03  0.50400001928E-02 0.  1.
    10030    2    1    2    0    0  0.00000000000E+00  0.00000000000E+00  0.15290688992E+04  0.17744446009E+04  0.90033435073E+03 0.  0.
        1    1    3    3  502    0 -0.25450993979E+03 -0.26735046565E+03  0.25668020940E+03  0.44959571935E+03  0.50400001928E-02 0.  1.
       -1    1    3    3    0  502  0.25450993979E+03  0.26735046565E+03  0.12723886898E+04  0.13248488815E+04  0.50400001928E-02 0. -1.
</event>
<event>
 5   0  0.1630202E-03  0.8800867E+03  0.7818609E-02  0.9450822E-01
       -2   -1    0    0    0  501  0.00000000000E+00  0.00000000000E+00  0.45763563008E+03  0.45763563009E+03  0.25500000920E-02 0.  1.
        2   -1    0    0  501    0  0.00000000000E+00  0.00000000000E+00 -0.42312736452E+03  0.42312736452E+03  0.25500000920E-02 0. -1.
    10030    2    1    2    0    0  0.00000000000E+00  0.00000000000E+00  0.34508265564E+02  0.88076299461E+03  0.88008671862E+03 0.  0.
        4    1    3    3  502    0 -0.16643307182E+03 -0.22562300303E+03  0.35667671620E+03  0.45368006312E+03  0.12699999809E+01 0.  1.
       -4    1    3    3    0  502  0.16643307182E+03  0.22562300303E+03 -0.32216845063E+03  0.42708293150E+03  0.12699999809E+01 0. -1.
</event>
<event>
 5   0  0.9321543E-04  0.9001705E+03  0.7818609E-02  0.9425368E-01
        1   -1    0    0  501    0  0.00000000000E+00  0.00000000000E+00  0.61104886189E+03  0.61104886191E+03  0.50400001928E-02 0. -1.
       -1   -1    0    0    0  501  0.00000000000E+00  0.00000000000E+00 -0.33152299855E+03  0.33152299859E+03  0.50400001928E-02 0.  1.
    10030    2    1    2    0    0  0.00000000000E+00  0.00000000000E+00  0.27952586333E+03  0.94257186050E+03  0.90017054158E+03 0.  0.
        3    1    3    3  502    0 -0.12959859790E+03 -0.43098820968E+03  0.13401745960E+03  0.46958207285E+03  0.10100000352E+00 0.  1.
       -3    1    3    3    0  502  0.12959859790E+03  0.43098820968E+03  0.14550840374E+03  0.47298978765E+03  0.10100000352E+00 0. -1.
</event>
<event>
 5   0  0.9697941E-04  0.9013752E+03  0.7818609E-02  0.9423864E-01
       -1   -1    0    0    0  501  0.00000000000E+00  0.00000000000E+00  0.46570623915E+03  0.46570623918E+03  0.50400001928E-02 0. -1.
        1   -1    0    0  501    0  0.00000000000E+00  0.00000000000E+00 -0.43615332086E+03  0.43615332088E+03  0.50400001928E-02 0.  1.
    10030    2    1    2    0    0  0.00000000000E+00  0.00000000000E+00  0.29552918299E+02  0.90185956007E+03  0.90137522215E+03 0.  0.
        5    1    3    3  502    0  0.57134958634E+02 -0.38679349372E+03 -0.20945023537E+03  0.44358212472E+03  0.46999998093E+01 0.  1.
       -5    1    3    3    0  502 -0.57134958634E+02  0.38679349372E+03  0.23900315367E+03  0.45827743534E+03  0.46999998093E+01 0. -1.
</event>
<event>
 5   0  0.9321543E-04  0.8992745E+03  0.7818609E-02  0.9426489E-01
        1   -1    0    0  501    0  0.00000000000E+00  0.00000000000E+00  0.10461317452E+04  0.10461317452E+04  0.50400001928E-02 0.  1.
       -1   -1    0    0    0  501  0.00000000000E+00  0.00000000000E+00 -0.19325833373E+03  0.19325833379E+03  0.50400001928E-02 0. -1.
    10030    2    1    2    0    0  0.00000000000E+00  0.00000000000E+00  0.85287341147E+03  0.12393900790E+04  0.89927454759E+03 0.  0.
        3    1    3    3  502    0 -0.28859014906E+03 -0.28227664216E+03  0.15353251291E+03  0.43189885339E+03  0.10100000352E+00 0. -1.
       -3    1    3    3    0  502  0.28859014906E+03  0.28227664216E+03  0.69934089856E+03  0.80749122561E+03  0.10100000352E+00 0.  1.
</event>
<event>
 5   0  0.1536020E-03  0.9122296E+03  0.7818609E-02  0.9410422E-01
        2   -1    0    0  501    0  0.00000000000E+00  0.00000000000E+00  0.49210368520E+03  0.49210368521E+03  0.25500000920E-02 0.  1.
       -2   -1    0    0    0  501  0.00000000000E+00  0.00000000000E+00 -0.42275786352E+03  0.42275786352E+03  0.25500000920E-02 0. -1.
    10030    2    1    2    0    0  0.00000000000E+00  0.00000000000E+00  0.69345821684E+02  0.91486154873E+03  0.91222958205E+03 0.  0.
        2    1    3    3  502    0 -0.41500449830E+03  0.94076773990E+02  0.19934632378E+03  0.46991289600E+03  0.25500000920E-02 0.  1.
       -2    1    3    3    0  502  0.41500449830E+03 -0.94076773990E+02 -0.13000050210E+03  0.44494865273E+03  0.25500000920E-02 0. -1.
</event>
<event>
 5   0  0.1536020E-03  0.8969779E+03  0.7818609E-02  0.9429367E-01
       -2   -1    0    0    0  501  0.00000000000E+00  0.00000000000E+00  0.12126545678E+03  0.12126545680E+03  0.25500000920E-02 0.  1.
        2   -1    0    0  501    0  0.00000000000E+00  0.00000000000E+00 -0.16586945168E+04  0.16586945169E+04  0.25500000920E-02 0. -1.
    10030    2    1    2    0    0  0.00000000000E+00  0.00000000000E+00 -0.15374290601E+04  0.17799599737E+04  0.89697792228E+03 0.  0.
        2    1    3    3  502    0 -0.15149742166E+03 -0.13554773123E+03 -0.15620208424E+04  0.15751932479E+04  0.25500000920E-02 0. -1.
       -2    1    3    3    0  502  0.15149742166E+03  0.13554773123E+03  0.24591782305E+02  0.20476672575E+03  0.25500000920E-02 0.  1.
</event>
<event>
 5   0  0.1630202E-03  0.8995446E+03  0.7818609E-02  0.9426151E-01
       -2   -1    0    0    0  501  0.00000000000E+00  0.00000000000E+00  0.23914975344E+03  0.23914975346E+03  0.25500000920E-02 0.  1.
        2   -1    0    0  501    0  0.00000000000E+00  0.00000000000E+00 -0.84589309001E+03  0.84589309001E+03  0.25500000920E-02 0. -1.
    10030    2    1    2    0    0  0.00000000000E+00  0.00000000000E+00 -0.60674333656E+03  0.10850428435E+04  0.89954460462E+03 0.  0.
        4    1    3    3  502    0 -0.11723589799E+03  0.46093308455E+02 -0.82417753309E+03  0.83375000318E+03  0.12699999809E+01 0. -1.
       -4    1    3    3    0  502  0.11723589799E+03 -0.46093308455E+02  0.21743419652E+03  0.25129284029E+03  0.12699999809E+01 0.  1.
</event>
<event>
 5   0  0.9697941E-04  0.8980052E+03  0.7818609E-02  0.9428079E-01
       -1   -1    0    0    0  501  0.00000000000E+00  0.00000000000E+00  0.47009086695E+03  0.47009086698E+03  0.50400001928E-02 0.  1.
        1   -1    0    0  501    0  0.00000000000E+00  0.00000000000E+00 -0.42886030840E+03  0.42886030843E+03  0.50400001928E-02 0. -1.
    10030    2    1    2    0    0  0.00000000000E+00  0.00000000000E+00  0.41230558558E+02  0.89895117541E+03  0.89800515411E+03 0.  0.
        5    1    3    3  502    0  0.27353197826E+03  0.33232027128E+03 -0.10728754197E+03  0.44360930163E+03  0.46999998093E+01 0. -1.
       -5    1    3    3    0  502 -0.27353197826E+03 -0.33232027128E+03  0.14851810052E+03  0.45534187378E+03  0.46999998093E+01 0.  1.
</event>
<event>
 5   0  0.9321543E-04  0.8986428E+03  0.7818609E-02  0.9427280E-01
       -1   -1    0    0    0  501  0.00000000000E+00  0.00000000000E+00  0.17420091462E+03  0.17420091470E+03  0.50400001928E-02 0.  1.
        1   -1    0    0  501    0  0.00000000000E+00  0.00000000000E+00 -0.11589474432E+04  0.11589474432E+04  0.50400001928E-02 0. -1.
    10030    2    1    2    0    0  0.00000000000E+00  0.00000000000E+00 -0.98474652859E+03  0.13331483579E+04  0.89864276476E+03 0.  0.
        3    1    3    3  502    0  0.43596678334E+03 -0.10565618083E+03 -0.53046893849E+03  0.69471402003E+03  0.10100000352E+00 0. -1.
       -3    1    3    3    0  502 -0.43596678334E+03  0.10565618083E+03 -0.45427759011E+03  0.63843433789E+03  0.10100000352E+00 0.  1.
</event>
<event>
 5   0  0.9981885E-04  0.9001371E+03  0.7818609E-02  0.9425410E-01
       -1   -1    0    0    0  501  0.00000000000E+00  0.00000000000E+00  0.15990989099E+03  0.15990989107E+03  0.50400001928E-02 0.  1.
        1   -1    0    0  501    0  0.00000000000E+00  0.00000000000E+00 -0.12667239878E+04  0.12667239878E+04  0.50400001928E-02 0. -1.
    10030    2    1    2    0    0  0.00000000000E+00  0.00000000000E+00 -0.11068140968E+04  0.14266338789E+04  0.90013708927E+03 0.  0.
        4    1    3    3  502    0  0.23755666799E+03 -0.14726632298E+03  0.56846937151E+01  0.27956120803E+03  0.12699999809E+01 0.  1.
       -4    1    3    3    0  502 -0.23755666799E+03  0.14726632298E+03 -0.11124987905E+04  0.11470726709E+04  0.12699999809E+01 0. -1.
</event>
<event>
 5   0  0.1635686E-03  0.9000370E+03  0.7818609E-02  0.9425535E-01
       -2   -1    0    0    0  501  0.00000000000E+00  0.00000000000E+00  0.18141717049E+03  0.18141717051E+03  0.25500000920E-02 0.  1.
        2   -1    0    0  501    0  0.00000000000E+00  0.00000000000E+00 -0.11163035569E+04  0.11163035569E+04  0.25500000920E-02 0. -1.
    10030    2    1    2    0    0  0.00000000000E+00  0.00000000000E+00 -0.93488638639E+03  0.12977207274E+04  0.90003696082E+03 0.  0.
        5    1    3    3  502    0 -0.27680823733E+01  0.10041827171E+03  0.16500779316E+03  0.19323859183E+03  0.46999998093E+01 0.  1.
       -5    1    3    3    0  502  0.27680823733E+01 -0.10041827171E+03 -0.10998941796E+04  0.11044821356E+04  0.46999998093E+01 0. -1.
</event>
<event>
 5   0  0.9321543E-04  0.9002513E+03  0.7818609E-02  0.9425267E-01
        1   -1    0    0  501    0  0.00000000000E+00  0.00000000000E+00  0.76384474093E+03  0.76384474095E+03  0.50400001928E-02 0.  1.
       -1   -1    0    0    0  501  0.00000000000E+00  0.00000000000E+00 -0.26525427853E+03  0.26525427857E+03  0.50400001928E-02 0. -1.
    10030    2    1    2    0    0  0.00000000000E+00  0.00000000000E+00  0.49859046240E+03  0.10290990195E+04  0.90025126647E+03 0.  0.
        3    1    3    3  502    0  0.54907891116E+02 -0.14363401741E+03 -0.23429828606E+03  0.28025221590E+03  0.10100000352E+00 0. -1.
       -3    1    3    3    0  502 -0.54907891116E+02  0.14363401741E+03  0.73288874846E+03  0.74884680362E+03  0.10100000352E+00 0.  1.
</event>
<event>
 5   0  0.1007561E-03  0.8988774E+03  0.7818609E-02  0.9426986E-01
        1   -1    0    0  501    0  0.00000000000E+00  0.00000000000E+00  0.35311253543E+03  0.35311253546E+03  0.50400001928E-02 0.  1.
       -1   -1    0    0    0  501  0.00000000000E+00  0.00000000000E+00 -0.57204182652E+03  0.57204182655E+03  0.50400001928E-02 0. -1.
    10030    2    1    2    0    0  0.00000000000E+00  0.00000000000E+00 -0.21892929110E+03  0.92515436201E+03  0.89887738821E+03 0.  0.
        2    1    3    3  502    0 -0.15144634455E+03 -0.32111171378E+03 -0.39310457909E+03  0.52969796876E+03  0.25500000920E-02 0. -1.
       -2    1    3    3    0  502  0.15144634455E+03  0.32111171378E+03  0.17417528799E+03  0.39545639324E+03  0.25500000920E-02 0.  1.
</event>
<event>
 5   0  0.1704416E-03  0.9001799E+03  0.7818609E-02  0.9425357E-01
        2   -1    0    0  501    0  0.00000000000E+00  0.00000000000E+00  0.78161357900E+03  0.78161357900E+03  0.25500000920E-02 0.  1.
       -2   -1    0    0    0  501  0.00000000000E+00  0.00000000000E+00 -0.25918302176E+03  0.25918302177E+03  0.25500000920E-02 0. -1.
    10030    2    1    2    0    0  0.00000000000E+00  0.00000000000E+00  0.52243055724E+03  0.10407966008E+04  0.90017991371E+03 0.  0.
        3    1    3    3  502    0 -0.16032064100E+02  0.23357775407E+03  0.70566523946E+03  0.74349111269E+03  0.10100000352E+00 0.  1.
       -3    1    3    3    0  502  0.16032064100E+02 -0.23357775407E+03 -0.18323468222E+03  0.29730548808E+03  0.10100000352E+00 0. -1.
</event>
<event>
 5   0  0.9321543E-04  0.8957233E+03  0.7818609E-02  0.9430943E-01
       -1   -1    0    0    0  501  0.00000000000E+00  0.00000000000E+00  0.19126857426E+03  0.19126857433E+03  0.50400001928E-02 0.  1.
        1   -1    0    0  501    0  0.00000000000E+00  0.00000000000E+00 -0.10486827990E+04  0.10486827990E+04  0.50400001928E-02 0. -1.
    10030    2    1    2    0    0  0.00000000000E+00  0.00000000000E+00 -0.85741422470E+03  0.12399513733E+04  0.89572331411E+03 0.  0.
        3    1    3    3  502    0 -0.43007912580E+03 -0.12450028892E+03 -0.44333606243E+03  0.63009146229E+03  0.10100000352E+00 0. -1.
       -3    1    3    3    0  502  0.43007912580E+03  0.12450028892E+03 -0.41407816227E+03  0.60985991101E+03  0.10100000352E+00 0.  1.
</event>
<event>
 5   0  0.9321543E-04  0.8994256E+03  0.7818609E-02  0.9426300E-01
        1   -1    0    0  501    0  0.00000000000E+00  0.00000000000E+00  0.10198113350E+04  0.10198113350E+04  0.50400001928E-02 0.  1.
       -1   -1    0    0    0  501  0.00000000000E+00  0.00000000000E+00 -0.19831277506E+03  0.19831277512E+03  0.50400001928E-02 0. -1.
    10030    2    1    2    0    0  0.00000000000E+00  0.00000000000E+00  0.82149855995E+03  0.12181241101E+04  0.89942562990E+03 0.  0.
        3    1    3    3  502    0 -0.43444514736E+03 -0.11547980959E+03  0.39343531723E+03  0.59738558028E+03  0.10100000352E+00 0. -1.
       -3    1    3    3    0  502  0.43444514736E+03  0.11547980959E+03  0.42806324272E+03  0.62073852986E+03  0.10100000352E+00 0.  1.
</event>
<event>
 5   0  0.9321543E-04  0.9005774E+03  0.7818609E-02  0.9424860E-01
        1   -1    0    0  501    0  0.00000000000E+00  0.00000000000E+00  0.41491966861E+03  0.41491966864E+03  0.50400001928E-02 0. -1.
       -1   -1    0    0    0  501  0.00000000000E+00  0.00000000000E+00 -0.48867274835E+03  0.48867274837E+03  0.50400001928E-02 0.  1.
    10030    2    1    2    0    0  0.00000000000E+00  0.00000000000E+00 -0.73753079739E+02  0.90359241701E+03  0.90057744771E+03 0.  0.
        3    1    3    3  502    0 -0.32174796734E+03 -0.31140494217E+03 -0.84629278185E+02  0.45569388566E+03  0.10100000352E+00 0.  1.
       -3    1    3    3    0  502  0.32174796734E+03  0.31140494217E+03  0.10876198445E+02  0.44789853136E+03  0.10100000352E+00 0. -1.
</event>
<event>
 5   0  0.6375625E-04  0.8978279E+03  0.7818609E-02  0.9428301E-01
        4   -1    0    0  501    0  0.00000000000E+00  0.00000000000E+00  0.30859890136E+03  0.30860151461E+03  0.12699999809E+01 0.  1.
       -4   -1    0    0    0  501  0.00000000000E+00  0.00000000000E+00 -0.65302207632E+03  0.65302331127E+03  0.12699999809E+01 0. -1.
    10030    2    1    2    0    0  0.00000000000E+00  0.00000000000E+00 -0.34442317496E+03  0.96162482589E+03  0.89782792467E+03 0.  0.
        4    1    3    3  502    0 -0.21454011299E+03 -0.22973674737E+03  0.17105455687E+03  0.35786548800E+03  0.12699999809E+01 0.  1.
       -4    1    3    3    0  502  0.21454011299E+03  0.22973674737E+03 -0.51547773183E+03  0.60375933789E+03  0.12699999809E+01 0. -1.
</event>
<event>
 5   0  0.9981885E-04  0.9003474E+03  0.7818609E-02  0.9425147E-01
        1   -1    0    0  501    0  0.00000000000E+00  0.00000000000E+00  0.45607234794E+03  0.45607234796E+03  0.50400001928E-02 0.  1.
       -1   -1    0    0    0  501  0.00000000000E+00  0.00000000000E+00 -0.44435137408E+03  0.44435137411E+03  0.50400001928E-02 0. -1.
    10030    2    1    2    0    0  0.00000000000E+00  0.00000000000E+00  0.11720973858E+02  0.90042372207E+03  0.90034743185E+03 0.  0.
        4    1    3    3  502    0  0.32734402625E+02  0.65570265358E+01 -0.44310987072E+03  0.44436753497E+03  0.12699999809E+01 0. -1.
       -4    1    3    3    0  502 -0.32734402625E+02 -0.65570265358E+01  0.45483084458E+03  0.45605618710E+03  0.12699999809E+01 0.  1.
</event>
<event>
 5   0  0.9981885E-04  0.8982162E+03  0.7818609E-02  0.9427814E-01
       -1   -1    0    0    0  501  0.00000000000E+00  0.00000000000E+00  0.27683414161E+03  0.27683414165E+03  0.50400001928E-02 0. -1.
        1   -1    0    0  501    0  0.00000000000E+00  0.00000000000E+00 -0.72858821611E+03  0.72858821612E+03  0.50400001928E-02 0.  1.
    10030    2    1    2    0    0  0.00000000000E+00  0.00000000000E+00 -0.45175407450E+03  0.10054223578E+04  0.89821621767E+03 0.  0.
        4    1    3    3  502    0 -0.24968393665E+03  0.36142477250E+03 -0.12131143565E+03  0.45572800191E+03  0.12699999809E+01 0.  1.
       -4    1    3    3    0  502  0.24968393665E+03 -0.36142477250E+03 -0.33044263885E+03  0.54969435587E+03  0.12699999809E+01 0. -1.
</event>
<event>
 5   0  0.1704416E-03  0.9007906E+03  0.7818609E-02  0.9424594E-01
       -2   -1    0    0    0  501  0.00000000000E+00  0.00000000000E+00  0.11545367466E+03  0.11545367469E+03  0.25500000920E-02 0. -1.
        2   -1    0    0  501    0  0.00000000000E+00  0.00000000000E+00 -0.17570330165E+04  0.17570330165E+04  0.25500000920E-02 0.  1.
    10030    2    1    2    0    0  0.00000000000E+00  0.00000000000E+00 -0.16415793418E+04  0.18724866912E+04  0.90079058228E+03 0.  0.
        3    1    3    3  502    0 -0.42637648098E+03  0.38573526431E+02 -0.52998432690E+03  0.68129891929E+03  0.10100000352E+00 0.  1.
       -3    1    3    3    0  502  0.42637648098E+03 -0.38573526431E+02 -0.11115950149E+04  0.11911877719E+04  0.10100000352E+00 0. -1.
</event>
<event>
 5   0  0.1630202E-03  0.9025109E+03  0.7818609E-02  0.9422448E-01
        2   -1    0    0  501    0  0.00000000000E+00  0.00000000000E+00  0.36906245767E+03  0.36906245767E+03  0.25500000920E-02 0. -1.
       -2   -1    0    0    0  501  0.00000000000E+00  0.00000000000E+00 -0.55175350122E+03  0.55175350123E+03  0.25500000920E-02 0.  1.
    10030    2    1    2    0    0  0.00000000000E+00  0.00000000000E+00 -0.18269104356E+03  0.92081595890E+03  0.90251094884E+03 0.  0.
        4    1    3    3  502    0  0.15342771239E+03 -0.26101128975E+03  0.25004974343E+03  0.39267472976E+03  0.12699999809E+01 0. -1.
       -4    1    3    3    0  502 -0.15342771239E+03  0.26101128975E+03 -0.43274078698E+03  0.52814122915E+03  0.12699999809E+01 0.  1.
</event>
<event>
 5   0  0.1630202E-03  0.8997066E+03  0.7818609E-02  0.9425948E-01
       -2   -1    0    0    0  501  0.00000000000E+00  0.00000000000E+00  0.21080163704E+03  0.21080163706E+03  0.25500000920E-02 0.  1.
        2   -1    0    0  501    0  0.00000000000E+00  0.00000000000E+00 -0.95999260220E+03  0.95999260221E+03  0.25500000920E-02 0. -1.
    10030    2    1    2    0    0  0.00000000000E+00  0.00000000000E+00 -0.74919096516E+03  0.11707942393E+04  0.89970664576E+03 0.  0.
        4    1    3    3  502    0  0.82266019704E+02 -0.44218934506E+03 -0.36392125158E+03  0.57856668166E+03  0.12699999809E+01 0.  1.
       -4    1    3    3    0  502 -0.82266019704E+02  0.44218934506E+03 -0.38526971358E+03  0.59222755760E+03  0.12699999809E+01 0. -1.
</event>
<event>
 5   0  0.9697941E-04  0.8947271E+03  0.7818609E-02  0.9432197E-01
       -1   -1    0    0    0  501  0.00000000000E+00  0.00000000000E+00  0.25184537023E+03  0.25184537028E+03  0.50400001928E-02 0.  1.
        1   -1    0    0  501    0  0.00000000000E+00  0.00000000000E+00 -0.79467067927E+03  0.79467067929E+03  0.50400001928E-02 0. -1.
    10030    2    1    2    0    0  0.00000000000E+00  0.00000000000E+00 -0.54282530905E+03  0.10465160496E+04  0.89472706780E+03 0.  0.
        5    1    3    3  502    0 -0.34357279038E+03  0.26915642586E+03 -0.38616104628E+03  0.58277773424E+03  0.46999998093E+01 0. -1.
       -5    1    3    3    0  502  0.34357279038E+03 -0.26915642586E+03 -0.15666426277E+03  0.46373831532E+03  0.46999998093E+01 0.  1.
</event>
<event>
 5   0  0.9321543E-04  0.8998968E+03  0.7818609E-02  0.9425710E-01
       -1   -1    0    0    0  501  0.00000000000E+00  0.00000000000E+00  0.51200691491E+03  0.51200691493E+03  0.50400001928E-02 0.  1.
        1   -1    0    0  501    0  0.00000000000E+00  0.00000000000E+00 -0.39541176321E+03  0.39541176324E+03  0.50400001928E-02 0. -1.
    10030    2    1    2    0    0  0.00000000000E+00  0.00000000000E+00  0.11659515170E+03  0.90741867817E+03  0.89989678746E+03 0.  0.
        3    1    3    3  502    0  0.98025059635E+02  0.16631632223E+03 -0.35152734657E+03  0.40105051670E+03  0.10100000352E+00 0. -1.
       -3    1    3    3    0  502 -0.98025059635E+02 -0.16631632223E+03  0.46812249827E+03  0.50636816147E+03  0.10100000352E+00 0.  1.
</event>
<event>
 5   0  0.1630202E-03  0.8997627E+03  0.7818609E-02  0.9425878E-01
       -2   -1    0    0    0  501  0.00000000000E+00  0.00000000000E+00  0.15562830060E+03  0.15562830062E+03  0.25500000920E-02 0.  1.
        2   -1    0    0  501    0  0.00000000000E+00  0.00000000000E+00 -0.13004911455E+04  0.13004911455E+04  0.25500000920E-02 0. -1.
    10030    2    1    2    0    0  0.00000000000E+00  0.00000000000E+00 -0.11448628449E+04  0.14561194461E+04  0.89976269524E+03 0.  0.
        4    1    3    3  502    0 -0.39127645946E+00  0.80237330536E+02 -0.12888147263E+04  0.12913106497E+04  0.12699999809E+01 0. -1.
       -4    1    3    3    0  502  0.39127645946E+00 -0.80237330536E+02  0.14395188144E+03  0.16480879642E+03  0.12699999809E+01 0.  1.
</event>
<event>
 5   0  0.1635686E-03  0.8995758E+03  0.7818609E-02  0.9426112E-01
        2   -1    0    0  501    0  0.00000000000E+00  0.00000000000E+00  0.63521618859E+03  0.63521618860E+03  0.25500000920E-02 0. -1.
       -2   -1    0    0    0  501  0.00000000000E+00  0.00000000000E+00 -0.31848863705E+03  0.31848863706E+03  0.25500000920E-02 0.  1.
    10030    2    1    2    0    0  0.00000000000E+00  0.00000000000E+00  0.31672755154E+03  0.95370482566E+03  0.89957576256E+03 0.  0.
        5    1    3    3  502    0 -0.26037581484E+03 -0.30632214857E+03 -0.55408036582E+02  0.40585830554E+03  0.46999998093E+01 0.  1.
       -5    1    3    3    0  502  0.26037581484E+03  0.30632214857E+03  0.37213558812E+03  0.54784652012E+03  0.46999998093E+01 0. -1.
</event>
<event>
 5   0  0.9697941E-04  0.9102787E+03  0.7818609E-02  0.9412823E-01
       -1   -1    0    0    0  501  0.00000000000E+00  0.00000000000E+00  0.68065027223E+03  0.68065027225E+03  0.50400001928E-02 0.  1.
        1   -1    0    0  501    0  0.00000000000E+00  0.00000000000E+00 -0.30434399526E+03  0.30434399530E+03  0.50400001928E-02 0. -1.
    10030    2    1    2    0    0  0.00000000000E+00  0.00000000000E+00  0.37630627697E+03  0.98499426756E+03  0.91027868976E+03 0.  0.
        5    1    3    3  502    0 -0.23185488937E+03  0.32754880065E+03  0.42044730663E+03  0.58124257774E+03  0.46999998093E+01 0. -1.
       -5    1    3    3    0  502  0.23185488937E+03 -0.32754880065E+03 -0.44141029655E+02  0.40375168981E+03  0.46999998093E+01 0.  1.
</event>
<event>
 5   0  0.9321543E-04  0.9008991E+03  0.7818609E-02  0.9424458E-01
        1   -1    0    0  501    0  0.00000000000E+00  0.00000000000E+00  0.13244300696E+04  0.13244300696E+04  0.50400001928E-02 0.  1.
       -1   -1    0    0    0  501  0.00000000000E+00  0.00000000000E+00 -0.15320159298E+03  0.15320159306E+03  0.50400001928E-02 0. -1.
    10030    2    1    2    0    0  0.00000000000E+00  0.00000000000E+00  0.11712284766E+04  0.14776316626E+04  0.90089909872E+03 0.  0.
        3    1    3    3  502    0  0.63157348249E+02 -0.38203382581E+03  0.20813853769E+03  0.43961387122E+03  0.10100000352E+00 0. -1.
       -3    1    3    3    0  502 -0.63157348249E+02  0.38203382581E+03  0.96308993889E+03  0.10380177914E+04  0.10100000352E+00 0.  1.
</event>
<event>
 5   0  0.1536020E-03  0.8981546E+03  0.7818609E-02  0.9427891E-01
       -2   -1    0    0    0  501  0.00000000000E+00  0.00000000000E+00  0.37072618326E+03  0.37072618327E+03  0.25500000920E-02 0.  1.
        2   -1    0    0  501    0  0.00000000000E+00  0.00000000000E+00 -0.54398755418E+03  0.54398755419E+03  0.25500000920E-02 0. -1.
    10030    2    1    2    0    0  0.00000000000E+00  0.00000000000E+00 -0.17326137092E+03  0.91471373746E+03  0.89815461856E+03 0.  0.
        2    1    3    3  502    0  0.32635483533E+03 -0.22510100550E+03 -0.30145203588E+03  0.49804745875E+03  0.25500000920E-02 0. -1.
       -2    1    3    3    0  502 -0.32635483533E+03  0.22510100550E+03  0.12819066496E+03  0.41666627871E+03  0.25500000920E-02 0.  1.
</event>
<event>
 5   0  0.1635686E-03  0.9004586E+03  0.7818609E-02  0.9425008E-01
        2   -1    0    0  501    0  0.00000000000E+00  0.00000000000E+00  0.41958339764E+03  0.41958339764E+03  0.25500000920E-02 0. -1.
       -2   -1    0    0    0  501  0.00000000000E+00  0.00000000000E+00 -0.48311358467E+03  0.48311358468E+03  0.25500000920E-02 0.  1.
    10030    2    1    2    0    0  0.00000000000E+00  0.00000000000E+00 -0.63530187037E+02  0.90269698232E+03  0.90045863716E+03 0.  0.
        5    1    3    3  502    0  0.40829223345E+03 -0.11605357847E+02 -0.22156908432E+03  0.46470655402E+03  0.46999998093E+01 0.  1.
       -5    1    3    3    0  502 -0.40829223345E+03  0.11605357847E+02  0.15803889728E+03  0.43799042830E+03  0.46999998093E+01 0. -1.
</event>
<event>
 5   0  0.1641516E-03  0.9022129E+03  0.7818609E-02  0.9422819E-01
        2   -1    0    0  501    0  0.00000000000E+00  0.00000000000E+00  0.11943327913E+04  0.11943327913E+04  0.25500000920E-02 0. -1.
       -2   -1    0    0    0  501  0.00000000000E+00  0.00000000000E+00 -0.17038553335E+03  0.17038553337E+03  0.25500000920E-02 0.  1.
    10030    2    1    2    0    0  0.00000000000E+00  0.00000000000E+00  0.10239472580E+04  0.13647183247E+04  0.90221290095E+03 0.  0.
        1    1    3    3  502    0  0.22649464694E+03  0.34667262596E+03  0.78262656574E+03  0.88542988209E+03  0.50400001928E-02 0. -1.
       -1    1    3    3    0  502 -0.22649464694E+03 -0.34667262596E+03  0.24132069223E+03  0.47928844259E+03  0.50400001928E-02 0.  1.
</event>
<event>
 5   0  0.1630202E-03  0.8987939E+03  0.7818609E-02  0.9427090E-01
        2   -1    0    0  501    0  0.00000000000E+00  0.00000000000E+00  0.14506286724E+04  0.14506286724E+04  0.25500000920E-02 0.  1.
       -2   -1    0    0    0  501  0.00000000000E+00  0.00000000000E+00 -0.13922074966E+03  0.13922074968E+03  0.25500000920E-02 0. -1.
    10030    2    1    2    0    0  0.00000000000E+00  0.00000000000E+00  0.13114079228E+04  0.15898494221E+04  0.89879388355E+03 0.  0.
        4    1    3    3  502    0  0.37601589725E+03  0.10762023015E+03  0.10472037766E+04  0.11178584130E+04  0.12699999809E+01 0. -1.
       -4    1    3    3    0  502 -0.37601589725E+03 -0.10762023015E+03  0.26420414618E+03  0.47199100911E+03  0.12699999809E+01 0.  1.
</event>
<event>
 5   0  0.1635686E-03  0.8943657E+03  0.7818609E-02  0.9432652E-01
       -2   -1    0    0    0  501  0.00000000000E+00  0.00000000000E+00  0.13891359427E+03  0.13891359429E+03  0.25500000920E-02 0. -1.
        2   -1    0    0  501    0  0.00000000000E+00  0.00000000000E+00 -0.14395459517E+04  0.14395459517E+04  0.25500000920E-02 0.  1.
    10030    2    1    2    0    0  0.00000000000E+00  0.00000000000E+00 -0.13006323575E+04  0.15784595460E+04  0.89436570213E+03 0.  0.
        5    1    3    3  502    0 -0.28582088720E+03  0.28637146197E+03 -0.98633349068E+03  0.10661041406E+04  0.46999998093E+01 0.  1.
       -5    1    3    3    0  502  0.28582088720E+03 -0.28637146197E+03 -0.31429886677E+03  0.51235540540E+03  0.46999998093E+01 0. -1.
</event>
<event>
 5   0  0.1704416E-03  0.9016017E+03  0.7818609E-02  0.9423581E-01
       -2   -1    0    0    0  501  0.00000000000E+00  0.00000000000E+00  0.83066056871E+03  0.83066056872E+03  0.25500000920E-02 0. -1.
        2   -1    0    0  501    0  0.00000000000E+00  0.00000000000E+00 -0.24465037713E+03  0.24465037714E+03  0.25500000920E-02 0.  1.
    10030    2    1    2    0    0  0.00000000000E+00  0.00000000000E+00  0.58601019158E+03  0.10753109459E+04  0.90160173338E+03 0.  0.
        3    1    3    3  502    0  0.23035349059E+03  0.21488501437E+03 -0.91587334765E+02  0.32806485658E+03  0.10100000352E+00 0.  1.
       -3    1    3    3    0  502 -0.23035349059E+03 -0.21488501437E+03  0.67759752635E+03  0.74724608928E+03  0.10100000352E+00 0. -1.
</event>
<event>
 5   0  0.1007561E-03  0.9045680E+03  0.7818609E-02  0.9419889E-01
       -1   -1    0    0    0  501  0.00000000000E+00  0.00000000000E+00  0.50343579996E+03  0.50343579999E+03  0.50400001928E-02 0.  1.
        1   -1    0    0  501    0  0.00000000000E+00  0.00000000000E+00 -0.40632950377E+03  0.40632950381E+03  0.50400001928E-02 0. -1.
    10030    2    1    2    0    0  0.00000000000E+00  0.00000000000E+00  0.97106296187E+02  0.90976530379E+03  0.90456800475E+03 0.  0.
        2    1    3    3  502    0  0.44106755159E+03  0.95073709103E+02  0.17048681322E+02  0.45151993618E+03  0.25500000920E-02 0. -1.
       -2    1    3    3    0  502 -0.44106755159E+03 -0.95073709103E+02  0.80057614865E+02  0.45824536761E+03  0.25500000920E-02 0.  1.
</event>
<event>
 5   0  0.1635686E-03  0.8986758E+03  0.7818609E-02  0.9427238E-01
        2   -1    0    0  501    0  0.00000000000E+00  0.00000000000E+00  0.63706284059E+03  0.63706284060E+03  0.25500000920E-02 0.  1.
       -2   -1    0    0    0  501  0.00000000000E+00  0.00000000000E+00 -0.31693037771E+03  0.31693037772E+03  0.25500000920E-02 0. -1.
    10030    2    1    2    0    0  0.00000000000E+00  0.00000000000E+00  0.32013246288E+03  0.95399321832E+03  0.89867584078E+03 0.  0.
        5    1    3    3  502    0 -0.16030025233E+03 -0.40974900564E+03  0.63400310865E+02  0.44455832906E+03  0.46999998093E+01 0. -1.
       -5    1    3    3    0  502  0.16030025233E+03  0.40974900564E+03  0.25673215201E+03  0.50943488926E+03  0.46999998093E+01 0.  1.
</event>
<event>
 5   0  0.9697941E-04  0.9195041E+03  0.7818609E-02  0.9401524E-01
        1   -1    0    0  501    0  0.00000000000E+00  0.00000000000E+00  0.19960976021E+04  0.19960976021E+04  0.50400001928E-02 0. -1.
       -1   -1    0    0    0  501  0.00000000000E+00  0.00000000000E+00 -0.10589258556E+03  0.10589258568E+03  0.50400001928E-02 0.  1.
    10030    2    1    2    0    0  0.00000000000E+00  0.00000000000E+00  0.18902050165E+04  0.21019901878E+04  0.91950407556E+03 0.  0.
        5    1    3    3  502    0  0.71771915199E+02 -0.37680413930E+03  0.36580324538E+03  0.53006289394E+03  0.46999998093E+01 0.  1.
       -5    1    3    3    0  502 -0.71771915199E+02  0.37680413930E+03  0.15244017712E+04  0.15719272938E+04  0.46999998093E+01 0. -1.
</event>
<event>
 5   0  0.9697941E-04  0.8943327E+03  0.7818609E-02  0.9432694E-01
        1   -1    0    0  501    0  0.00000000000E+00  0.00000000000E+00  0.15742281287E+04  0.15742281287E+04  0.50400001928E-02 0.  1.
       -1   -1    0    0    0  501  0.00000000000E+00  0.00000000000E+00 -0.12701954047E+03  0.12701954057E+03  0.50400001928E-02 0. -1.
    10030    2    1    2    0    0  0.00000000000E+00  0.00000000000E+00  0.14472085882E+04  0.17012476693E+04  0.89433267545E+03 0.  0.
        5    1    3    3  502    0 -0.42381776014E+03  0.11021642185E+02  0.45329227724E+03  0.62067620303E+03  0.46999998093E+01 0. -1.
       -5    1    3    3    0  502  0.42381776014E+03 -0.11021642185E+02  0.99391631099E+03  0.10805714662E+04  0.46999998093E+01 0.  1.
</event>
<event>
 5   0  0.9697941E-04  0.9027167E+03  0.7818609E-02  0.9422192E-01
        1   -1    0    0  501    0  0.00000000000E+00  0.00000000000E+00  0.48573420248E+03  0.48573420250E+03  0.50400001928E-02 0. -1.
       -1   -1    0    0    0  501  0.00000000000E+00  0.00000000000E+00 -0.41941527638E+03  0.41941527641E+03  0.50400001928E-02 0.  1.
    10030    2    1    2    0    0  0.00000000000E+00  0.00000000000E+00  0.66318926094E+02  0.90514947892E+03  0.90271666608E+03 0.  0.
        5    1    3    3  502    0  0.43832412381E+01 -0.30385036784E+03 -0.30144331972E+03  0.42805890231E+03  0.46999998093E+01 0.  1.
       -5    1    3    3    0  502 -0.43832412381E+01  0.30385036784E+03  0.36776224582E+03  0.47709057661E+03  0.46999998093E+01 0. -1.
</event>
<event>
 5   0  0.9223454E-04  0.8992019E+03  0.7818609E-02  0.9426580E-01
       -1   -1    0    0    0  501  0.00000000000E+00  0.00000000000E+00  0.40668315190E+03  0.40668315193E+03  0.50400001928E-02 0. -1.
        1   -1    0    0  501    0  0.00000000000E+00  0.00000000000E+00 -0.49704793283E+03  0.49704793285E+03  0.50400001928E-02 0.  1.
    10030    2    1    2    0    0  0.00000000000E+00  0.00000000000E+00 -0.90364780927E+02  0.90373108478E+03  0.89920191279E+03 0.  0.
        1    1    3    3  502    0  0.33738935631E+03 -0.23382966302E+03  0.13913471742E+03  0.43343553002E+03  0.50400001928E-02 0. -1.
       -1    1    3    3    0  502 -0.33738935631E+03  0.23382966302E+03 -0.22949949835E+03  0.47029555477E+03  0.50400001928E-02 0.  1.
</event>
<event>
 5   0  0.1704416E-03  0.8998810E+03  0.7818609E-02  0.9425730E-01
        2   -1    0    0  501    0  0.00000000000E+00  0.00000000000E+00  0.52295081107E+03  0.52295081108E+03  0.25500000920E-02 0.  1.
       -2   -1    0    0    0  501  0.00000000000E+00  0.00000000000E+00 -0.38712332244E+03  0.38712332245E+03  0.25500000920E-02 0. -1.
    10030    2    1    2    0    0  0.00000000000E+00  0.00000000000E+00  0.13582748863E+03  0.91007413352E+03  0.89988100427E+03 0.  0.
        3    1    3    3  502    0  0.91336315191E+02  0.82447940862E+02 -0.36977770698E+03  0.38971213505E+03  0.10100000352E+00 0. -1.
       -3    1    3    3    0  502 -0.91336315191E+02 -0.82447940862E+02  0.50560519561E+03  0.52036199847E+03  0.10100000352E+00 0.  1.
</event>
<event>
 5   0  0.6375625E-04  0.8986115E+03  0.7818609E-02  0.9427319E-01
       -4   -1    0    0    0  501  0.00000000000E+00  0.00000000000E+00  0.29183052033E+03  0.29183328373E+03  0.12699999809E+01 0.  1.
        4   -1    0    0  501    0  0.00000000000E+00  0.00000000000E+00 -0.69174983712E+03  0.69175100293E+03  0.12699999809E+01 0. -1.
    10030    2    1    2    0    0  0.00000000000E+00  0.00000000000E+00 -0.39991931679E+03  0.98358428666E+03  0.89861147835E+03 0.  0.
        4    1    3    3  502    0 -0.43702451754E+03 -0.94672443775E+02 -0.24793004418E+03  0.51129660692E+03  0.12699999809E+01 0. -1.
       -4    1    3    3    0  502  0.43702451754E+03  0.94672443775E+02 -0.15198927261E+03  0.47228767974E+03  0.12699999809E+01 0.  1.
</event>
<event>
 5   0  0.9981885E-04  0.8999261E+03  0.7818609E-02  0.9425674E-01
        1   -1    0    0  501    0  0.00000000000E+00  0.00000000000E+00  0.44543938801E+03  0.44543938804E+03  0.50400001928E-02 0. -1.
       -1   -1    0    0    0  501  0.00000000000E+00  0.00000000000E+00 -0.45453267765E+03  0.45453267767E+03  0.50400001928E-02 0.  1.
    10030    2    1    2    0    0  0.00000000000E+00  0.00000000000E+00 -0.90932896345E+01  0.89997206571E+03  0.89992612538E+03 0.  0.
        4    1    3    3  502    0 -0.64331843016E+02 -0.34123639671E+03  0.28162225786E+03  0.44709459120E+03  0.12699999809E+01 0. -1.
       -4    1    3    3    0  502  0.64331843016E+02  0.34123639671E+03 -0.29071554749E+03  0.45287747451E+03  0.12699999809E+01 0.  1.
</event>
<event>
 5   0  0.1536020E-03  0.9041461E+03  0.7818609E-02  0.9420413E-01
        2   -1    0    0  501    0  0.00000000000E+00  0.00000000000E+00  0.28232200259E+03  0.28232200260E+03  0.25500000920E-02 0. -1.
       -2   -1    0    0    0  501  0.00000000000E+00  0.00000000000E+00 -0.72388994211E+03  0.72388994211E+03  0.25500000920E-02 0.  1.
    10030    2    1    2    0    0  0.00000000000E+00  0.00000000000E+00 -0.44156793952E+03  0.10062119447E+04  0.90414613447E+03 0.  0.
        2    1    3    3  502    0 -0.23209971807E+03 -0.23358740954E+03 -0.56548551393E+03  0.65437544536E+03  0.25500000920E-02 0.  1.
       -2    1    3    3    0  502  0.23209971807E+03  0.23358740954E+03  0.12391757441E+03  0.35183649935E+03  0.25500000920E-02 0. -1.
</event>
<event>
 5   0  0.1536020E-03  0.9004950E+03  0.7818609E-02  0.9424963E-01
        2   -1    0    0  501    0  0.00000000000E+00  0.00000000000E+00  0.47496950225E+03  0.47496950226E+03  0.25500000920E-02 0. -1.
       -2   -1    0    0    0  501  0.00000000000E+00  0.00000000000E+00 -0.42681230953E+03  0.42681230954E+03  0.25500000920E-02 0.  1.
    10030    2    1    2    0    0  0.00000000000E+00  0.00000000000E+00  0.48157192720E+02  0.90178181180E+03  0.90049504212E+03 0.  0.
        2    1    3    3  502    0 -0.11109231287E+02  0.11967413131E+03 -0.41045101518E+03  0.42768603975E+03  0.25500000920E-02 0.  1.
       -2    1    3    3    0  502  0.11109231287E+02 -0.11967413131E+03  0.45860820790E+03  0.47409577206E+03  0.25500000920E-02 0. -1.
</event>
<event>
 5   0  0.9223454E-04  0.9033545E+03  0.7818609E-02  0.9421398E-01
       -1   -1    0    0    0  501  0.00000000000E+00  0.00000000000E+00  0.51570296572E+03  0.51570296574E+03  0.50400001928E-02 0.  1.
        1   -1    0    0  501    0  0.00000000000E+00  0.00000000000E+00 -0.39560049757E+03  0.39560049760E+03  0.50400001928E-02 0. -1.
    10030    2    1    2    0    0  0.00000000000E+00  0.00000000000E+00  0.12010246815E+03  0.91130346335E+03  0.90335452589E+03 0.  0.
        1    1    3    3  502    0 -0.21510371822E+03  0.29255739833E+03  0.33102778988E+03  0.49136426265E+03  0.50400001928E-02 0.  1.
       -1    1    3    3    0  502  0.21510371822E+03 -0.29255739833E+03 -0.21092532173E+03  0.41993920070E+03  0.50400001928E-02 0. -1.
</event>
<event>
 5   0  0.1635686E-03  0.9008333E+03  0.7818609E-02  0.9424540E-01
        2   -1    0    0  501    0  0.00000000000E+00  0.00000000000E+00  0.94951741759E+03  0.94951741759E+03  0.25500000920E-02 0.  1.
       -2   -1    0    0    0  501  0.00000000000E+00  0.00000000000E+00 -0.21366134647E+03  0.21366134648E+03  0.25500000920E-02 0. -1.
    10030    2    1    2    0    0  0.00000000000E+00  0.00000000000E+00  0.73585607112E+03  0.11631787641E+04  0.90083332520E+03 0.  0.
        5    1    3    3  502    0  0.25360982960E+03  0.22093717320E+03 -0.18840602503E+02  0.33690983730E+03  0.46999998093E+01 0. -1.
       -5    1    3    3    0  502 -0.25360982960E+03 -0.22093717320E+03  0.75469667362E+03  0.82626892677E+03  0.46999998093E+01 0.  1.
</event>
<event>
 5   0  0.9321543E-04  0.8996519E+03  0.7818609E-02  0.9426017E-01
        1   -1    0    0  501    0  0.00000000000E+00  0.00000000000E+00  0.30370506163E+03  0.30370506167E+03  0.50400001928E-02 0. -1.
       -1   -1    0    0    0  501  0.00000000000E+00  0.00000000000E+00 -0.66624967642E+03  0.66624967644E+03  0.50400001928E-02 0.  1.
    10030    2    1    2    0    0  0.00000000000E+00  0.00000000000E+00 -0.36254461479E+03  0.96995473811E+03  0.89965193062E+03 0.  0.
        3    1    3    3  502    0 -0.58283411137E+02 -0.37014147494E+03 -0.44960191019E+03  0.58527220619E+03  0.10100000352E+00 0.  1.
       -3    1    3    3    0  502  0.58283411137E+02  0.37014147494E+03  0.87057295404E+02  0.38468253192E+03  0.10100000352E+00 0. -1.
</event>
<event>
 5   0  0.1630202E-03  0.9003906E+03  0.7818609E-02  0.9425093E-01
        2   -1    0    0  501    0  0.00000000000E+00  0.00000000000E+00  0.12688675942E+04  0.12688675942E+04  0.25500000920E-02 0.  1.
       -2   -1    0    0    0  501  0.00000000000E+00  0.00000000000E+00 -0.15972966521E+03  0.15972966523E+03  0.25500000920E-02 0. -1.
    10030    2    1    2    0    0  0.00000000000E+00  0.00000000000E+00  0.11091379290E+04  0.14285972594E+04  0.90039057310E+03 0.  0.
        4    1    3    3  502    0  0.42762260689E+03 -0.14073215268E+03  0.55020918899E+03  0.71091377625E+03  0.12699999809E+01 0.  1.
       -4    1    3    3    0  502 -0.42762260689E+03  0.14073215268E+03  0.55892874003E+03  0.71768348320E+03  0.12699999809E+01 0. -1.
</event>
<event>
 5   0  0.6375625E-04  0.9002792E+03  0.7818609E-02  0.9425232E-01
        3   -1    0    0  501    0  0.00000000000E+00  0.00000000000E+00  0.42576653676E+03  0.42576654874E+03  0.10100000352E+00 0.  1.
       -3   -1    0    0    0  501  0.00000000000E+00  0.00000000000E+00 -0.47590788474E+03  0.47590789545E+03  0.10100000352E+00 0. -1.
    10030    2    1    2    0    0  0.00000000000E+00  0.00000000000E+00 -0.50141347979E+02  0.90167444419E+03  0.90027920588E+03 0.  0.
        4    1    3    3  502    0 -0.32954066100E+03 -0.28327018678E+03  0.92520839018E+02  0.44429805820E+03  0.12699999809E+01 0. -1.
       -4    1    3    3    0  502  0.32954066100E+03  0.28327018678E+03 -0.14266218700E+03  0.45737638599E+03  0.12699999809E+01 0.  1.
</event>
<event>
 5   0  0.6375625E-04  0.8965168E+03  0.7818609E-02  0.9429946E-01
       -4   -1    0    0    0  501  0.00000000000E+00  0.00000000000E+00  0.90907932651E+03  0.90908021362E+03  0.12699999809E+01 0. -1.
        4   -1    0    0  501    0  0.00000000000E+00  0.00000000000E+00 -0.22102916347E+03  0.22103281205E+03  0.12699999809E+01 0.  1.
    10030    2    1    2    0    0  0.00000000000E+00  0.00000000000E+00  0.68805016304E+03  0.11301130257E+04  0.89651682858E+03 0.  0.
        4    1    3    3  502    0  0.34637541771E+03  0.17125987110E+03  0.57602939452E+02  0.39067324579E+03  0.12699999809E+01 0.  1.
       -4    1    3    3    0  502 -0.34637541771E+03 -0.17125987110E+03  0.63044722359E+03  0.73943977988E+03  0.12699999809E+01 0. -1.
</event>
<event>
 5   0  0.9223454E-04  0.8972607E+03  0.7818609E-02  0.9429012E-01
       -1   -1    0    0    0  501  0.00000000000E+00  0.00000000000E+00  0.44505942498E+03  0.44505942501E+03  0.50400001928E-02 0. -1.
        1   -1    0    0  501    0  0.00000000000E+00  0.00000000000E+00 -0.45222991676E+03  0.45222991679E+03  0.50400001928E-02 0.  1.
    10030    2    1    2    0    0  0.00000000000E+00  0.00000000000E+00 -0.71704917799E+01  0.89728934179E+03  0.89726069063E+03 0.  0.
        1    1    3    3  502    0  0.25272062727E+03  0.28860602735E+03  0.22903351482E+03  0.44678574888E+03  0.50400001928E-02 0. -1.
       -1    1    3    3    0  502 -0.25272062727E+03 -0.28860602735E+03 -0.23620400660E+03  0.45050359291E+03  0.50400001928E-02 0.  1.
</event>
<event>
 5   0  0.9223454E-04  0.9051026E+03  0.7818609E-02  0.9419225E-01
        1   -1    0    0  501    0  0.00000000000E+00  0.00000000000E+00  0.11538260098E+04  0.11538260098E+04  0.50400001928E-02 0.  1.
       -1   -1    0    0    0  501  0.00000000000E+00  0.00000000000E+00 -0.17749873674E+03  0.17749873681E+03  0.50400001928E-02 0. -1.
    10030    2    1    2    0    0  0.00000000000E+00  0.00000000000E+00  0.97632727308E+03  0.13313247466E+04  0.90510255599E+03 0.  0.
        1    1    3    3  502    0 -0.31547822518E+02  0.37436773566E+03  0.85927695699E+03  0.93781840218E+03  0.50400001928E-02 0.  1.
       -1    1    3    3    0  502  0.31547822518E+02 -0.37436773566E+03  0.11705031608E+03  0.39350634446E+03  0.50400001928E-02 0. -1.
</event>
<event>
 5   0  0.9321543E-04  0.9006482E+03  0.7818609E-02  0.9424772E-01
        1   -1    0    0  501    0  0.00000000000E+00  0.00000000000E+00  0.10579668253E+04  0.10579668253E+04  0.50400001928E-02 0. -1.
       -1   -1    0    0    0  501  0.00000000000E+00  0.00000000000E+00 -0.19168066666E+03  0.19168066672E+03  0.50400001928E-02 0.  1.
    10030    2    1    2    0    0  0.00000000000E+00  0.00000000000E+00  0.86628615860E+03  0.12496474920E+04  0.90064818085E+03 0.  0.
        3    1    3    3  502    0 -0.94193083626E+02 -0.16467313941E+03 -0.13353084412E+03  0.23199154376E+03  0.10100000352E+00 0.  1.
       -3    1    3    3    0  502  0.94193083626E+02  0.16467313941E+03  0.99981700272E+03  0.10176559482E+04  0.10100000352E+00 0. -1.
</event>
<event>
 5   0  0.1630202E-03  0.9009781E+03  0.7818609E-02  0.9424360E-01
        2   -1    0    0  501    0  0.00000000000E+00  0.00000000000E+00  0.28658476627E+03  0.28658476629E+03  0.25500000920E-02 0.  1.
       -2   -1    0    0    0  501  0.00000000000E+00  0.00000000000E+00 -0.70813387750E+03  0.70813387750E+03  0.25500000920E-02 0. -1.
    10030    2    1    2    0    0  0.00000000000E+00  0.00000000000E+00 -0.42154911122E+03  0.99471864379E+03  0.90097809470E+03 0.  0.
        4    1    3    3  502    0 -0.18979109941E+03 -0.40680437956E+02 -0.65959653527E+03  0.68756436912E+03  0.12699999809E+01 0. -1.
       -4    1    3    3    0  502  0.18979109941E+03  0.40680437956E+02  0.23804742405E+03  0.30715427466E+03  0.12699999809E+01 0.  1.
</event>
<event>
 5   0  0.1641516E-03  0.8985872E+03  0.7818609E-02  0.9427349E-01
        2   -1    0    0  501    0  0.00000000000E+00  0.00000000000E+00  0.12748540710E+04  0.12748540710E+04  0.25500000920E-02 0.  1.
       -2   -1    0    0    0  501  0.00000000000E+00  0.00000000000E+00 -0.15834342361E+03  0.15834342363E+03  0.25500000920E-02 0. -1.
    10030    2    1    2    0    0  0.00000000000E+00  0.00000000000E+00  0.11165106474E+04  0.14331974947E+04  0.89858724279E+03 0.  0.
        1    1    3    3  502    0 -0.17309615842E+03 -0.12638495143E+03  0.11880655198E+04  0.12072427740E+04  0.50400001928E-02 0.  1.
       -1    1    3    3    0  502  0.17309615842E+03  0.12638495143E+03 -0.71554872365E+02  0.22595472067E+03  0.50400001928E-02 0. -1.
</event>
<event>
 5   0  0.6375625E-04  0.9009998E+03  0.7818609E-02  0.9424332E-01
        4   -1    0    0  501    0  0.00000000000E+00  0.00000000000E+00  0.44740968590E+03  0.44741148838E+03  0.12699999809E+01 0. -1.
       -4   -1    0    0    0  501  0.00000000000E+00  0.00000000000E+00 -0.45360787717E+03  0.45360965502E+03  0.12699999809E+01 0.  1.
    10030    2    1    2    0    0  0.00000000000E+00  0.00000000000E+00 -0.61981912721E+01  0.90102114340E+03  0.90099982424E+03 0.  0.
        4    1    3    3  502    0 -0.20509706256E+03 -0.25039863479E+03  0.31025202214E+03  0.44835500612E+03  0.12699999809E+01 0. -1.
       -4    1    3    3    0  502  0.20509706256E+03  0.25039863479E+03 -0.31645021341E+03  0.45266613728E+03  0.12699999809E+01 0.  1.
</event>
<event>
 5   0  0.1007561E-03  0.9006784E+03  0.7818609E-02  0.9424734E-01
        1   -1    0    0  501    0  0.00000000000E+00  0.00000000000E+00  0.64567441659E+03  0.64567441661E+03  0.50400001928E-02 0. -1.
       -1   -1    0    0    0  501  0.00000000000E+00  0.00000000000E+00 -0.31409857583E+03  0.31409857587E+03  0.50400001928E-02 0.  1.
    10030    2    1    2    0    0  0.00000000000E+00  0.00000000000E+00  0.33157584076E+03  0.95977299248E+03  0.90067844368E+03 0.  0.
        2    1    3    3  502    0  0.18961798132E+02  0.26397736571E+03 -0.22248343100E+03  0.34574915253E+03  0.25500000920E-02 0.  1.
       -2    1    3    3    0  502 -0.18961798132E+02 -0.26397736571E+03  0.55405927176E+03  0.61402383995E+03  0.25500000920E-02 0. -1.
</event>
<event>
 5   0  0.9697941E-04  0.8983838E+03  0.7818609E-02  0.9427604E-01
        1   -1    0    0  501    0  0.00000000000E+00  0.00000000000E+00  0.11910486950E+04  0.11910486950E+04  0.50400001928E-02 0.  1.
       -1   -1    0    0    0  501  0.00000000000E+00  0.00000000000E+00 -0.16940814989E+03  0.16940814997E+03  0.50400001928E-02 0. -1.
    10030    2    1    2    0    0  0.00000000000E+00  0.00000000000E+00  0.10216405451E+04  0.13604568450E+04  0.89838378417E+03 0.  0.
        5    1    3    3  502    0  0.10538617813E+03 -0.80217569451E+02  0.11607698366E+04  0.11683106644E+04  0.46999998093E+01 0.  1.
       -5    1    3    3    0  502 -0.10538617813E+03  0.80217569451E+02 -0.13912929145E+03  0.19214618062E+03  0.46999998093E+01 0. -1.
</event>
<event>
 5   0  0.1630202E-03  0.9021078E+03  0.7818609E-02  0.9422950E-01
        2   -1    0    0  501    0  0.00000000000E+00  0.00000000000E+00  0.12652868720E+04  0.12652868720E+04  0.25500000920E-02 0. -1.
       -2   -1    0    0    0  501  0.00000000000E+00  0.00000000000E+00 -0.16079327001E+03  0.16079327003E+03  0.25500000920E-02 0.  1.
    10030    2    1    2    0    0  0.00000000000E+00  0.00000000000E+00  0.11044936020E+04  0.14260801421E+04  0.90210778440E+03 0.  0.
        4    1    3    3  502    0 -0.75876824647E+02 -0.33407798669E+03  0.10160601114E+04  0.10722617015E+04  0.12699999809E+01 0. -1.
       -4    1    3    3    0  502  0.75876824647E+02  0.33407798669E+03  0.88433490670E+02  0.35381844057E+03  0.12699999809E+01 0.  1.
</event>
<event>
 5   0  0.9321543E-04  0.8769424E+03  0.7818609E-02  0.9454873E-01
        1   -1    0    0  501    0  0.00000000000E+00  0.00000000000E+00  0.31964291921E+03  0.31964291925E+03  0.50400001928E-02 0.  1.
       -1   -1    0    0    0  501  0.00000000000E+00  0.00000000000E+00 -0.60147421873E+03  0.60147421875E+03  0.50400001928E-02 0. -1.
    10030    2    1    2    0    0  0.00000000000E+00  0.00000000000E+00 -0.28183129951E+03  0.92111713800E+03  0.87694235873E+03 0.  0.
        3    1    3    3  502    0 -0.94266499212E+02 -0.36259724569E+03  0.98362207885E+02  0.38734747914E+03  0.10100000352E+00 0.  1.
       -3    1    3    3    0  502  0.94266499212E+02  0.36259724569E+03 -0.38019350740E+03  0.53376965886E+03  0.10100000352E+00 0. -1.
</event>
<event>
 5   0  0.1630202E-03  0.8947938E+03  0.7818609E-02  0.9432113E-01
        2   -1    0    0  501    0  0.00000000000E+00  0.00000000000E+00  0.90710633099E+03  0.90710633099E+03  0.25500000920E-02 0. -1.
       -2   -1    0    0    0  501  0.00000000000E+00  0.00000000000E+00 -0.22066211166E+03  0.22066211167E+03  0.25500000920E-02 0.  1.
    10030    2    1    2    0    0  0.00000000000E+00  0.00000000000E+00  0.68644421933E+03  0.11277684427E+04  0.89479382766E+03 0.  0.
        4    1    3    3  502    0  0.11508752682E+03 -0.34165457168E+03  0.67713464613E+03  0.76712836414E+03  0.12699999809E+01 0. -1.
       -4    1    3    3    0  502 -0.11508752682E+03  0.34165457168E+03  0.93095731936E+01  0.36064007852E+03  0.12699999809E+01 0.  1.
</event>
<event>
 5   0  0.9223454E-04  0.9001260E+03  0.7818609E-02  0.9425424E-01
        1   -1    0    0  501    0  0.00000000000E+00  0.00000000000E+00  0.13075503500E+04  0.13075503500E+04  0.50400001928E-02 0. -1.
       -1   -1    0    0    0  501  0.00000000000E+00  0.00000000000E+00 -0.15491312576E+03  0.15491312584E+03  0.50400001928E-02 0.  1.
    10030    2    1    2    0    0  0.00000000000E+00  0.00000000000E+00  0.11526372243E+04  0.14624634759E+04  0.90012601756E+03 0.  0.
        1    1    3    3  502    0 -0.18045640338E+03 -0.38183907606E+03  0.82902119829E+03  0.93039869990E+03  0.50400001928E-02 0. -1.
       -1    1    3    3    0  502  0.18045640338E+03  0.38183907606E+03  0.32361602596E+03  0.53206477596E+03  0.50400001928E-02 0.  1.
</event>
<event>
 5   0  0.9223454E-04  0.9015767E+03  0.7818609E-02  0.9423613E-01
        1   -1    0    0  501    0  0.00000000000E+00  0.00000000000E+00  0.13536922735E+04  0.13536922735E+04  0.50400001928E-02 0. -1.
       -1   -1    0    0    0  501  0.00000000000E+00  0.00000000000E+00 -0.15011546452E+03  0.15011546461E+03  0.50400001928E-02 0.  1.
    10030    2    1    2    0    0  0.00000000000E+00  0.00000000000E+00  0.12035768090E+04  0.15038077381E+04  0.90157671781E+03 0.  0.
        1    1    3    3  502    0  0.16264521149E+03 -0.60250192467E+02 -0.92230850423E+02  0.19644358047E+03  0.50400001928E-02 0.  1.
       -1    1    3    3    0  502 -0.16264521149E+03  0.60250192467E+02  0.12958076594E+04  0.13073641576E+04  0.50400001928E-02 0. -1.
</event>
<event>
 5   0  0.1630202E-03  0.8999887E+03  0.7818609E-02  0.9425596E-01
        2   -1    0    0  501    0  0.00000000000E+00  0.00000000000E+00  0.29520884873E+03  0.29520884874E+03  0.25500000920E-02 0. -1.
       -2   -1    0    0    0  501  0.00000000000E+00  0.00000000000E+00 -0.68593785361E+03  0.68593785361E+03  0.25500000920E-02 0.  1.
    10030    2    1    2    0    0  0.00000000000E+00  0.00000000000E+00 -0.39072900488E+03  0.98114670235E+03  0.89998872009E+03 0.  0.
        4    1    3    3  502    0 -0.10955324884E+03  0.16346450081E+03  0.24581472540E+03  0.31487942054E+03  0.12699999809E+01 0. -1.
       -4    1    3    3    0  502  0.10955324884E+03 -0.16346450081E+03 -0.63654373028E+03  0.66626728181E+03  0.12699999809E+01 0.  1.
</event>
<event>
 5   0  0.1641516E-03  0.8996692E+03  0.7818609E-02  0.9425995E-01
        2   -1    0    0  501    0  0.00000000000E+00  0.00000000000E+00  0.21312182734E+04  0.21312182734E+04  0.25500000920E-02 0. -1.
       -2   -1    0    0    0  501  0.00000000000E+00  0.00000000000E+00 -0.94946249048E+02  0.94946249083E+02  0.25500000920E-02 0.  1.
    10030    2    1    2    0    0  0.00000000000E+00  0.00000000000E+00  0.20362720244E+04  0.22261645225E+04  0.89966923034E+03 0.  0.
        1    1    3    3  502    0 -0.64443461802E+02 -0.29034138646E+03  0.18532320893E+04  0.18769443938E+04  0.50400001928E-02 0. -1.
       -1    1    3    3    0  502  0.64443461802E+02  0.29034138646E+03  0.18303993507E+03  0.34922012874E+03  0.50400001928E-02 0.  1.
</event>
<event>
 5   0  0.1536020E-03  0.9009223E+03  0.7818609E-02  0.9424429E-01
       -2   -1    0    0    0  501  0.00000000000E+00  0.00000000000E+00  0.23480691229E+03  0.23480691231E+03  0.25500000920E-02 0.  1.
        2   -1    0    0  501    0  0.00000000000E+00  0.00000000000E+00 -0.86417928174E+03  0.86417928174E+03  0.25500000920E-02 0. -1.
    10030    2    1    2    0    0  0.00000000000E+00  0.00000000000E+00 -0.62937236944E+03  0.10989861940E+04  0.90092234698E+03 0.  0.
        2    1    3    3  502    0  0.22132362228E+03 -0.31615066720E+02  0.16235240044E+03  0.27630048888E+03  0.25500000920E-02 0.  1.
       -2    1    3    3    0  502 -0.22132362228E+03  0.31615066720E+02 -0.79172476989E+03  0.82268570516E+03  0.25500000920E-02 0. -1.
</event>
<event>
 5   0  0.1630202E-03  0.9001842E+03  0.7818609E-02  0.9425351E-01
       -2   -1    0    0    0  501  0.00000000000E+00  0.00000000000E+00  0.11346390142E+03  0.11346390145E+03  0.25500000920E-02 0. -1.
        2   -1    0    0  501    0  0.00000000000E+00  0.00000000000E+00 -0.17854391086E+04  0.17854391086E+04  0.25500000920E-02 0.  1.
    10030    2    1    2    0    0  0.00000000000E+00  0.00000000000E+00 -0.16719752071E+04  0.18989030100E+04  0.90018417457E+03 0.  0.
        4    1    3    3  502    0  0.15754355003E+03 -0.57644792133E+02 -0.17170211276E+04  0.17251973968E+04  0.12699999809E+01 0.  1.
       -4    1    3    3    0  502 -0.15754355003E+03  0.57644792133E+02  0.45045920489E+02  0.17370561324E+03  0.12699999809E+01 0. -1.
</event>
<event>
 5   0  0.9223454E-04  0.8996648E+03  0.7818609E-02  0.9426001E-01
       -1   -1    0    0    0  501  0.00000000000E+00  0.00000000000E+00  0.37471365339E+03  0.37471365342E+03  0.50400001928E-02 0.  1.
        1   -1    0    0  501    0  0.00000000000E+00  0.00000000000E+00 -0.54001012396E+03  0.54001012398E+03  0.50400001928E-02 0. -1.
    10030    2    1    2    0    0  0.00000000000E+00  0.00000000000E+00 -0.16529647057E+03  0.91472377740E+03  0.89966475187E+03 0.  0.
        1    1    3    3  502    0  0.13496810128E+03 -0.37599492794E+03 -0.29289586991E+03  0.49535498870E+03  0.50400001928E-02 0. -1.
       -1    1    3    3    0  502 -0.13496810128E+03  0.37599492794E+03  0.12759939934E+03  0.41936878870E+03  0.50400001928E-02 0.  1.
</event>
<event>
 5   0  0.9321543E-04  0.9004087E+03  0.7818609E-02  0.9425071E-01
       -1   -1    0    0    0  501  0.00000000000E+00  0.00000000000E+00  0.48875384549E+03  0.48875384551E+03  0.50400001928E-02 0.  1.
        1   -1    0    0  501    0  0.00000000000E+00  0.00000000000E+00 -0.41469536402E+03  0.41469536405E+03  0.50400001928E-02 0. -1.
    10030    2    1    2    0    0  0.00000000000E+00  0.00000000000E+00  0.74058481469E+02  0.90344920956E+03  0.90040869364E+03 0.  0.
        3    1    3    3  502    0 -0.69350230478E+02  0.25833169874E+03 -0.32632511040E+03  0.42193934271E+03  0.10100000352E+00 0. -1.
       -3    1    3    3    0  502  0.69350230478E+02 -0.25833169874E+03  0.40038359187E+03  0.48150986686E+03  0.10100000352E+00 0.  1.
</event>
<event>
 5   0  0.1536020E-03  0.9003620E+03  0.7818609E-02  0.9425129E-01
        2   -1    0    0  501    0  0.00000000000E+00  0.00000000000E+00  0.82838827273E+03  0.82838827274E+03  0.25500000920E-02 0.  1.
       -2   -1    0    0    0  501  0.00000000000E+00  0.00000000000E+00 -0.24464728279E+03  0.24464728280E+03  0.25500000920E-02 0. -1.
    10030    2    1    2    0    0  0.00000000000E+00  0.00000000000E+00  0.58374098994E+03  0.10730355555E+04  0.90036201614E+03 0.  0.
        2    1    3    3  502    0 -0.80013338233E+02  0.42062035832E+03  0.45760675955E+03  0.62667979585E+03  0.25500000920E-02 0.  1.
       -2    1    3    3    0  502  0.80013338233E+02 -0.42062035832E+03  0.12613423039E+03  0.44635575969E+03  0.25500000920E-02 0. -1.
</event>
<event>
 5   0  0.6375625E-04  0.8984913E+03  0.7818609E-02  0.9427469E-01
       -3   -1    0    0    0  501  0.00000000000E+00  0.00000000000E+00  0.10100533181E+04  0.10100533231E+04  0.10100000352E+00 0.  1.
        3   -1    0    0  501    0  0.00000000000E+00  0.00000000000E+00 -0.19981284442E+03  0.19981286994E+03  0.10100000352E+00 0. -1.
    10030    2    1    2    0    0  0.00000000000E+00  0.00000000000E+00  0.81024047367E+03  0.12098661931E+04  0.89849127986E+03 0.  0.
        5    1    3    3  502    0  0.37368599396E+03 -0.83323328683E+02  0.88707323735E+02  0.39303317731E+03  0.46999998093E+01 0. -1.
       -5    1    3    3    0  502 -0.37368599396E+03  0.83323328683E+02  0.72153314994E+03  0.81683301577E+03  0.46999998093E+01 0.  1.
</event>
<event>
 5   0  0.1007561E-03  0.9000502E+03  0.7818609E-02  0.9425519E-01
       -1   -1    0    0    0  501  0.00000000000E+00  0.00000000000E+00  0.28797073814E+03  0.28797073818E+03  0.50400001928E-02 0.  1.
        1   -1    0    0  501    0  0.00000000000E+00  0.00000000000E+00 -0.70327494148E+03  0.70327494150E+03  0.50400001928E-02 0. -1.
    10030    2    1    2    0    0  0.00000000000E+00  0.00000000000E+00 -0.41530420335E+03  0.99124567968E+03  0.90005022980E+03 0.  0.
        2    1    3    3  502    0 -0.37521299440E+03 -0.81555148464E+02  0.50834137953E+02  0.38732433824E+03  0.25500000920E-02 0.  1.
       -2    1    3    3    0  502  0.37521299440E+03  0.81555148464E+02 -0.46613834130E+03  0.60392134144E+03  0.25500000920E-02 0. -1.
</event>
<event>
 5   0  0.9981885E-04  0.8993174E+03  0.7818609E-02  0.9426435E-01
        1   -1    0    0  501    0  0.00000000000E+00  0.00000000000E+00  0.10302063083E+04  0.10302063083E+04  0.50400001928E-02 0.  1.
       -1   -1    0    0    0  501  0.00000000000E+00  0.00000000000E+00 -0.19626451849E+03  0.19626451855E+03  0.50400001928E-02 0. -1.
    10030    2    1    2    0    0  0.00000000000E+00  0.00000000000E+00  0.83394178982E+03  0.12264708269E+04  0.89931739690E+03 0.  0.
        4    1    3    3  502    0  0.81180868785E+01  0.44952739261E+03  0.42666737322E+03  0.61982855720E+03  0.12699999809E+01 0. -1.
       -4    1    3    3    0  502 -0.81180868785E+01 -0.44952739261E+03  0.40727441660E+03  0.60664226968E+03  0.12699999809E+01 0.  1.
</event>
<event>
 5   0  0.9981885E-04  0.9060741E+03  0.7818609E-02  0.9418020E-01
        1   -1    0    0  501    0  0.00000000000E+00  0.00000000000E+00  0.39910091144E+03  0.39910091147E+03  0.50400001928E-02 0. -1.
       -1   -1    0    0    0  501  0.00000000000E+00  0.00000000000E+00 -0.51426238415E+03  0.51426238418E+03  0.50400001928E-02 0.  1.
    10030    2    1    2    0    0  0.00000000000E+00  0.00000000000E+00 -0.11516147271E+03  0.91336329565E+03  0.90607413882E+03 0.  0.
        4    1    3    3  502    0  0.26934858879E+03  0.11169367925E+03 -0.40709303449E+03  0.50074992950E+03  0.12699999809E+01 0.  1.
       -4    1    3    3    0  502 -0.26934858879E+03 -0.11169367925E+03  0.29193156177E+03  0.41261336615E+03  0.12699999809E+01 0. -1.
</event>
<event>
 5   0  0.1536020E-03  0.9010272E+03  0.7818609E-02  0.9424298E-01
        2   -1    0    0  501    0  0.00000000000E+00  0.00000000000E+00  0.43178910937E+03  0.43178910937E+03  0.25500000920E-02 0. -1.
       -2   -1    0    0    0  501  0.00000000000E+00  0.00000000000E+00 -0.47005011367E+03  0.47005011368E+03  0.25500000920E-02 0.  1.
    10030    2    1    2    0    0  0.00000000000E+00  0.00000000000E+00 -0.38261004304E+02  0.90183922305E+03  0.90102723587E+03 0.  0.
        2    1    3    3  502    0 -0.22146410752E+02 -0.30062080346E+02 -0.46849871409E+03  0.46998429473E+03  0.25500000920E-02 0.  1.
       -2    1    3    3    0  502  0.22146410752E+02  0.30062080346E+02  0.43023770979E+03  0.43185492832E+03  0.25500000920E-02 0. -1.
</event>
<event>
 5   0  0.9223454E-04  0.9100943E+03  0.7818609E-02  0.9413050E-01
       -1   -1    0    0    0  501  0.00000000000E+00  0.00000000000E+00  0.69962521137E+03  0.69962521138E+03  0.50400001928E-02 0.  1.
        1   -1    0    0  501    0  0.00000000000E+00  0.00000000000E+00 -0.29596976439E+03  0.29596976443E+03  0.50400001928E-02 0. -1.
    10030    2    1    2    0    0  0.00000000000E+00  0.00000000000E+00  0.40365544698E+03  0.99559497581E+03  0.91009430060E+03 0.  0.
        1    1    3    3  502    0  0.45145681347E+03 -0.55073758910E+02  0.21811011098E+03  0.50439904231E+03  0.50400001928E-02 0.  1.
       -1    1    3    3    0  502 -0.45145681347E+03  0.55073758910E+02  0.18554533600E+03  0.49119593350E+03  0.50400001928E-02 0. -1.
</event>
<event>
 5   0  0.1536020E-03  0.8991939E+03  0.7818609E-02  0.9426590E-01
        2   -1    0    0  501    0  0.00000000000E+00  0.00000000000E+00  0.25074629793E+04  0.25074629793E+04  0.25500000920E-02 0.  1.
       -2   -1    0    0    0  501  0.00000000000E+00  0.00000000000E+00 -0.80614312342E+02  0.80614312382E+02  0.25500000920E-02 0. -1.
    10030    2    1    2    0    0  0.00000000000E+00  0.00000000000E+00  0.24268486670E+04  0.25880772917E+04  0.89919386976E+03 0.  0.
        2    1    3    3  502    0  0.20050588963E+02  0.37483250350E+03  0.19256657315E+04  0.19619097689E+04  0.25500000920E-02 0.  1.
       -2    1    3    3    0  502 -0.20050588963E+02 -0.37483250350E+03  0.50118293547E+03  0.62616752281E+03  0.25500000920E-02 0. -1.
</event>
<event>
 5   0  0.1536020E-03  0.9004127E+03  0.7818609E-02  0.9425066E-01
        2   -1    0    0  501    0  0.00000000000E+00  0.00000000000E+00  0.43612156732E+03  0.43612156733E+03  0.25500000920E-02 0. -1.
       -2   -1    0    0    0  501  0.00000000000E+00  0.00000000000E+00 -0.46474598851E+03  0.46474598852E+03  0.25500000920E-02 0.  1.
    10030    2    1    2    0    0  0.00000000000E+00  0.00000000000E+00 -0.28624421194E+02  0.90086755585E+03  0.90041268077E+03 0.  0.
        2    1    3    3  502    0 -0.35228239111E+03  0.29047957721E+02 -0.29327035634E+03  0.45929747315E+03  0.25500000920E-02 0.  1.
       -2    1    3    3    0  502  0.35228239111E+03 -0.29047957721E+02  0.26464593514E+03  0.44157008269E+03  0.25500000920E-02 0. -1.
</event>
<event>
 5   0  0.1536020E-03  0.9018131E+03  0.7818609E-02  0.9423318E-01
        2   -1    0    0  501    0  0.00000000000E+00  0.00000000000E+00  0.17522464776E+04  0.17522464776E+04  0.25500000920E-02 0. -1.
       -2   -1    0    0    0  501  0.00000000000E+00  0.00000000000E+00 -0.11603203062E+03  0.11603203065E+03  0.25500000920E-02 0.  1.
    10030    2    1    2    0    0  0.00000000000E+00  0.00000000000E+00  0.16362144470E+04  0.18682785083E+04  0.90181310032E+03 0.  0.
        2    1    3    3  502    0  0.20340188019E+03  0.20210056747E+03  0.97171234019E+02  0.30275272578E+03  0.25500000920E-02 0.  1.
       -2    1    3    3    0  502 -0.20340188019E+03 -0.20210056747E+03  0.15390432130E+04  0.15655257825E+04  0.25500000920E-02 0. -1.
</event>
<event>
 5   0  0.1641516E-03  0.8981216E+03  0.7818609E-02  0.9427933E-01
       -2   -1    0    0    0  501  0.00000000000E+00  0.00000000000E+00  0.22033987562E+03  0.22033987564E+03  0.25500000920E-02 0. -1.
        2   -1    0    0  501    0  0.00000000000E+00  0.00000000000E+00 -0.91520252722E+03  0.91520252722E+03  0.25500000920E-02 0.  1.
    10030    2    1    2    0    0  0.00000000000E+00  0.00000000000E+00 -0.69486265159E+03  0.11355424029E+04  0.89812161989E+03 0.  0.
        1    1    3    3  502    0  0.15567709072E+03  0.15183012414E+03 -0.84419137094E+03  0.87174928389E+03  0.50400001928E-02 0.  1.
       -1    1    3    3    0  502 -0.15567709072E+03 -0.15183012414E+03  0.14932871935E+03  0.26379311897E+03  0.50400001928E-02 0. -1.
</event>
<event>
 5   0  0.1007561E-03  0.8980337E+03  0.7818609E-02  0.9428043E-01
        1   -1    0    0  501    0  0.00000000000E+00  0.00000000000E+00  0.60232380335E+03  0.60232380337E+03  0.50400001928E-02 0.  1.
       -1   -1    0    0    0  501  0.00000000000E+00  0.00000000000E+00 -0.33473046111E+03  0.33473046115E+03  0.50400001928E-02 0. -1.
    10030    2    1    2    0    0  0.00000000000E+00  0.00000000000E+00  0.26759334224E+03  0.93705426452E+03  0.89803368414E+03 0.  0.
        2    1    3    3  502    0  0.62158187903E+02  0.38572568748E+03 -0.97106069623E+02  0.40258854315E+03  0.25500000920E-02 0. -1.
       -2    1    3    3    0  502 -0.62158187903E+02 -0.38572568748E+03  0.36469941186E+03  0.53446572137E+03  0.25500000920E-02 0.  1.
</event>
<event>
 5   0  0.1630202E-03  0.9043164E+03  0.7818609E-02  0.9420202E-01
       -2   -1    0    0    0  501  0.00000000000E+00  0.00000000000E+00  0.21866451306E+03  0.21866451307E+03  0.25500000920E-02 0.  1.
        2   -1    0    0  501    0  0.00000000000E+00  0.00000000000E+00 -0.93498038649E+03  0.93498038649E+03  0.25500000920E-02 0. -1.
    10030    2    1    2    0    0  0.00000000000E+00  0.00000000000E+00 -0.71631587343E+03  0.11536448996E+04  0.90431638477E+03 0.  0.
        4    1    3    3  502    0 -0.81193193181E+02 -0.17969667656E+02  0.20882302254E+03  0.22477524600E+03  0.12699999809E+01 0.  1.
       -4    1    3    3    0  502  0.81193193181E+02  0.17969667656E+02 -0.92513889596E+03  0.92886965356E+03  0.12699999809E+01 0. -1.
</event>
<event>
 5   0  0.1635686E-03  0.8986159E+03  0.7818609E-02  0.9427313E-01
        2   -1    0    0  501    0  0.00000000000E+00  0.00000000000E+00  0.19127795401E+04  0.19127795401E+04  0.25500000920E-02 0. -1.
       -2   -1    0    0    0  501  0.00000000000E+00  0.00000000000E+00 -0.10554149563E+03  0.10554149566E+03  0.25500000920E-02 0.  1.
    10030    2    1    2    0    0  0.00000000000E+00  0.00000000000E+00  0.18072380444E+04  0.20183210357E+04  0.89861585453E+03 0.  0.
        5    1    3    3  502    0 -0.76208246839E+02 -0.23507309474E+03  0.60867181918E+02  0.25454657843E+03  0.46999998093E+01 0.  1.
       -5    1    3    3    0  502  0.76208246839E+02  0.23507309474E+03  0.17463708625E+04  0.17637744573E+04  0.46999998093E+01 0. -1.
</event>
<event>
 5   0  0.9321543E-04  0.8984833E+03  0.7818609E-02  0.9427479E-01
        1   -1    0    0  501    0  0.00000000000E+00  0.00000000000E+00  0.91252476415E+03  0.91252476416E+03  0.50400001928E-02 0. -1.
       -1   -1    0    0    0  501  0.00000000000E+00  0.00000000000E+00 -0.22116445412E+03  0.22116445417E+03  0.50400001928E-02 0.  1.
    10030    2    1    2    0    0  0.00000000000E+00  0.00000000000E+00  0.69136031003E+03  0.11336892183E+04  0.89848325832E+03 0.  0.
        3    1    3    3  502    0  0.31660282823E+03 -0.30174476322E+03  0.47516360433E+03  0.64580779962E+03  0.10100000352E+00 0. -1.
       -3    1    3    3    0  502 -0.31660282823E+03  0.30174476322E+03  0.21619670570E+03  0.48788141871E+03  0.10100000352E+00 0.  1.
</event>
<event>
 5   0  0.1635686E-03  0.8991442E+03  0.7818609E-02  0.9426652E-01
       -2   -1    0    0    0  501  0.00000000000E+00  0.00000000000E+00  0.12440497344E+03  0.12440497346E+03  0.25500000920E-02 0.  1.
        2   -1    0    0  501    0  0.00000000000E+00  0.00000000000E+00 -0.16246542665E+04  0.16246542665E+04  0.25500000920E-02 0. -1.
    10030    2    1    2    0    0  0.00000000000E+00  0.00000000000E+00 -0.15002492931E+04  0.17490592399E+04  0.89914419508E+03 0.  0.
        5    1    3    3  502    0 -0.34377342702E+03 -0.17435081172E+03 -0.12001234317E+04  0.12605144648E+04  0.46999998093E+01 0. -1.
       -5    1    3    3    0  502  0.34377342702E+03  0.17435081172E+03 -0.30012586135E+03  0.48854477514E+03  0.46999998093E+01 0.  1.
</event>
<event>
 5   0  0.9697941E-04  0.9005363E+03  0.7818609E-02  0.9424911E-01
        1   -1    0    0  501    0  0.00000000000E+00  0.00000000000E+00  0.15816033792E+04  0.15816033792E+04  0.50400001928E-02 0. -1.
       -1   -1    0    0    0  501  0.00000000000E+00  0.00000000000E+00 -0.12818725223E+03  0.12818725233E+03  0.50400001928E-02 0.  1.
    10030    2    1    2    0    0  0.00000000000E+00  0.00000000000E+00  0.14534161269E+04  0.17097906315E+04  0.90053626553E+03 0.  0.
        5    1    3    3  502    0  0.39653952513E+03  0.21142732587E+03  0.77953630343E+03  0.89980222687E+03  0.46999998093E+01 0. -1.
       -5    1    3    3    0  502 -0.39653952513E+03 -0.21142732587E+03  0.67387982351E+03  0.80998840464E+03  0.46999998093E+01 0.  1.
</event>
<event>
 5   0  0.1635686E-03  0.9003078E+03  0.7818609E-02  0.9425197E-01
       -2   -1    0    0    0  501  0.00000000000E+00  0.00000000000E+00  0.24912724748E+03  0.24912724749E+03  0.25500000920E-02 0.  1.
        2   -1    0    0  501    0  0.00000000000E+00  0.00000000000E+00 -0.81339368257E+03  0.81339368258E+03  0.25500000920E-02 0. -1.
    10030    2    1    2    0    0  0.00000000000E+00  0.00000000000E+00 -0.56426643510E+03  0.10625209301E+04  0.90030779018E+03 0.  0.
        5    1    3    3  502    0 -0.17049032233E+03 -0.23700627378E+03  0.12219955329E+03  0.31653395496E+03  0.46999998093E+01 0.  1.
       -5    1    3    3    0  502  0.17049032233E+03  0.23700627378E+03 -0.68646598839E+03  0.74598697511E+03  0.46999998093E+01 0. -1.
</event>
<event>
 5   0  0.1536020E-03  0.8961632E+03  0.7818609E-02  0.9430390E-01
        2   -1    0    0  501    0  0.00000000000E+00  0.00000000000E+00  0.15059726998E+04  0.15059726998E+04  0.25500000920E-02 0. -1.
       -2   -1    0    0    0  501  0.00000000000E+00  0.00000000000E+00 -0.13332054344E+03  0.13332054346E+03  0.25500000920E-02 0.  1.
    10030    2    1    2    0    0  0.00000000000E+00  0.00000000000E+00  0.13726521564E+04  0.16392932433E+04  0.89616315203E+03 0.  0.
        2    1    3    3  502    0  0.27350963929E+03 -0.16541226281E+03  0.12607419512E+04  0.13006302345E+04  0.25500000920E-02 0. -1.
       -2    1    3    3    0  502 -0.27350963929E+03  0.16541226281E+03  0.11191020520E+03  0.33866300876E+03  0.25500000920E-02 0.  1.
</event>
<event>
 5   0  0.9223454E-04  0.9002523E+03  0.7818609E-02  0.9425266E-01
        1   -1    0    0  501    0  0.00000000000E+00  0.00000000000E+00  0.26331497150E+03  0.26331497155E+03  0.50400001928E-02 0. -1.
       -1   -1    0    0    0  501  0.00000000000E+00  0.00000000000E+00 -0.76947212732E+03  0.76947212734E+03  0.50400001928E-02 0.  1.
    10030    2    1    2    0    0  0.00000000000E+00  0.00000000000E+00 -0.50615715582E+03  0.10327870989E+04  0.90025225645E+03 0.  0.
        1    1    3    3  502    0 -0.41533227650E+03  0.10878198193E+03 -0.97974173592E+02  0.44037865322E+03  0.50400001928E-02 0.  1.
       -1    1    3    3    0  502  0.41533227650E+03 -0.10878198193E+03 -0.40818298223E+03  0.59240844567E+03  0.50400001928E-02 0. -1.
</event>
<event>
 5   0  0.9223454E-04  0.9000223E+03  0.7818609E-02  0.9425553E-01
       -1   -1    0    0    0  501  0.00000000000E+00  0.00000000000E+00  0.21724405048E+03  0.21724405054E+03  0.50400001928E-02 0. -1.
        1   -1    0    0  501    0  0.00000000000E+00  0.00000000000E+00 -0.93217767995E+03  0.93217767997E+03  0.50400001928E-02 0.  1.
    10030    2    1    2    0    0  0.00000000000E+00  0.00000000000E+00 -0.71493362947E+03  0.11494217305E+04  0.90002234418E+03 0.  0.
        1    1    3    3  502    0 -0.52071056968E+02  0.61852479587E+02  0.20789198432E+03  0.22306098129E+03  0.50400001928E-02 0. -1.
       -1    1    3    3    0  502  0.52071056968E+02 -0.61852479587E+02 -0.92282561379E+03  0.92636074922E+03  0.50400001928E-02 0.  1.
</event>
<event>
 5   0  0.1630202E-03  0.9005181E+03  0.7818609E-02  0.9424934E-01
       -2   -1    0    0    0  501  0.00000000000E+00  0.00000000000E+00  0.55820468564E+03  0.55820468564E+03  0.25500000920E-02 0.  1.
        2   -1    0    0  501    0  0.00000000000E+00  0.00000000000E+00 -0.36318792237E+03  0.36318792238E+03  0.25500000920E-02 0. -1.
    10030    2    1    2    0    0  0.00000000000E+00  0.00000000000E+00  0.19501676326E+03  0.92139260802E+03  0.90051807320E+03 0.  0.
        4    1    3    3  502    0  0.38079427298E+03  0.85804620040E+02 -0.13211503508E+03  0.41209550658E+03  0.12699999809E+01 0. -1.
       -4    1    3    3    0  502 -0.38079427298E+03 -0.85804620040E+02  0.32713179834E+03  0.50929710144E+03  0.12699999809E+01 0.  1.
</event>
<event>
 5   0  0.1630202E-03  0.9054150E+03  0.7818609E-02  0.9418838E-01
       -2   -1    0    0    0  501  0.00000000000E+00  0.00000000000E+00  0.24193762695E+03  0.24193762696E+03  0.25500000920E-02 0.  1.
        2   -1    0    0  501    0  0.00000000000E+00  0.00000000000E+00 -0.84709468975E+03  0.84709468976E+03  0.25500000920E-02 0. -1.
    10030    2    1    2    0    0  0.00000000000E+00  0.00000000000E+00 -0.60515706280E+03  0.10890323167E+04  0.90541499668E+03 0.  0.
        4    1    3    3  502    0 -0.42488996425E+03 -0.11397485181E+03 -0.17403809201E+03  0.47308838385E+03  0.12699999809E+01 0.  1.
       -4    1    3    3    0  502  0.42488996425E+03  0.11397485181E+03 -0.43111897079E+03  0.61594393287E+03  0.12699999809E+01 0. -1.
</event>
<event>
 5   0  0.1641516E-03  0.8993257E+03  0.7818609E-02  0.9426425E-01
        2   -1    0    0  501    0  0.00000000000E+00  0.00000000000E+00  0.62043618115E+03  0.62043618115E+03  0.25500000920E-02 0. -1.
       -2   -1    0    0    0  501  0.00000000000E+00  0.00000000000E+00 -0.32589440779E+03  0.32589440780E+03  0.25500000920E-02 0.  1.
    10030    2    1    2    0    0  0.00000000000E+00  0.00000000000E+00  0.29454177336E+03  0.94633058895E+03  0.89932570703E+03 0.  0.
        1    1    3    3  502    0  0.24529528528E+03  0.17647474888E+03 -0.20312537677E+03  0.36410579875E+03  0.50400001928E-02 0.  1.
       -1    1    3    3    0  502 -0.24529528528E+03 -0.17647474888E+03  0.49766715013E+03  0.58222479020E+03  0.50400001928E-02 0. -1.
</event>
<event>
 5   0  0.1635686E-03  0.8986362E+03  0.7818609E-02  0.9427288E-01
       -2   -1    0    0    0  501  0.00000000000E+00  0.00000000000E+00  0.22187702460E+03  0.22187702462E+03  0.25500000920E-02 0.  1.
        2   -1    0    0  501    0  0.00000000000E+00  0.00000000000E+00 -0.90990387808E+03  0.90990387808E+03  0.25500000920E-02 0. -1.
    10030    2    1    2    0    0  0.00000000000E+00  0.00000000000E+00 -0.68802685348E+03  0.11317809027E+04  0.89863622262E+03 0.  0.
        5    1    3    3  502    0 -0.20604017746E+03 -0.35588582294E+03 -0.57196004986E+03  0.70446267632E+03  0.46999998093E+01 0. -1.
       -5    1    3    3    0  502  0.20604017746E+03  0.35588582294E+03 -0.11606680362E+03  0.42731822638E+03  0.46999998093E+01 0.  1.
</event>
<event>
 5   0  0.9321543E-04  0.8970082E+03  0.7818609E-02  0.9429329E-01
        1   -1    0    0  501    0  0.00000000000E+00  0.00000000000E+00  0.83552108426E+03  0.83552108428E+03  0.50400001928E-02 0.  1.
       -1   -1    0    0    0  501  0.00000000000E+00  0.00000000000E+00 -0.24075508059E+03  0.24075508065E+03  0.50400001928E-02 0. -1.
    10030    2    1    2    0    0  0.00000000000E+00  0.00000000000E+00  0.59476600367E+03  0.10762761649E+04  0.89700824080E+03 0.  0.
        3    1    3    3  502    0 -0.28779117993E+03  0.28229201269E+03  0.61517236090E+02  0.40779519885E+03  0.10100000352E+00 0. -1.
       -3    1    3    3    0  502  0.28779117993E+03 -0.28229201269E+03  0.53324876758E+03  0.66848096607E+03  0.10100000352E+00 0.  1.
</event>
<event>
 5   0  0.9223454E-04  0.8864945E+03  0.7818609E-02  0.9442623E-01
        1   -1    0    0  501    0  0.00000000000E+00  0.00000000000E+00  0.24489403204E+03  0.24489403209E+03  0.50400001928E-02 0.  1.
       -1   -1    0    0    0  501  0.00000000000E+00  0.00000000000E+00 -0.80225776794E+03  0.80225776796E+03  0.50400001928E-02 0. -1.
    10030    2    1    2    0    0  0.00000000000E+00  0.00000000000E+00 -0.55736373590E+03  0.10471518000E+04  0.88649453368E+03 0.  0.
        1    1    3    3  502    0 -0.28760407727E+03 -0.24474438062E+03 -0.55279850624E+03  0.66947898073E+03  0.50400001928E-02 0. -1.
       -1    1    3    3    0  502  0.28760407727E+03  0.24474438062E+03 -0.45652296567E+01  0.37767281932E+03  0.50400001928E-02 0.  1.
</event>
<event>
 5   0  0.1536020E-03  0.9048099E+03  0.7818609E-02  0.9419589E-01
        2   -1    0    0  501    0  0.00000000000E+00  0.00000000000E+00  0.19202871497E+04  0.19202871497E+04  0.25500000920E-02 0.  1.
       -2   -1    0    0    0  501  0.00000000000E+00  0.00000000000E+00 -0.10658314538E+03  0.10658314541E+03  0.25500000920E-02 0. -1.
    10030    2    1    2    0    0  0.00000000000E+00  0.00000000000E+00  0.18137040044E+04  0.20268702952E+04  0.90480991261E+03 0.  0.
        2    1    3    3  502    0  0.11992092586E+03  0.20669402634E+03  0.46328113160E+02  0.24341270110E+03  0.25500000920E-02 0. -1.
       -2    1    3    3    0  502 -0.11992092586E+03 -0.20669402634E+03  0.17673758912E+04  0.17834575940E+04  0.25500000920E-02 0.  1.
</event>
<event>
 5   0  0.9697941E-04  0.8989457E+03  0.7818609E-02  0.9426900E-01
       -1   -1    0    0    0  501  0.00000000000E+00  0.00000000000E+00  0.71246342104E+03  0.71246342106E+03  0.50400001928E-02 0.  1.
        1   -1    0    0  501    0  0.00000000000E+00  0.00000000000E+00 -0.28355958044E+03  0.28355958048E+03  0.50400001928E-02 0. -1.
    10030    2    1    2    0    0  0.00000000000E+00  0.00000000000E+00  0.42890384060E+03  0.99602300154E+03  0.89894566861E+03 0.  0.
        5    1    3    3  502    0  0.13286464342E+03  0.61121547581E+02  0.68533457069E+03  0.70078129315E+03  0.46999998093E+01 0.  1.
       -5    1    3    3    0  502 -0.13286464342E+03 -0.61121547581E+02 -0.25643073008E+03  0.29524170840E+03  0.46999998093E+01 0. -1.
</event>
<event>
 5   0  0.9223454E-04  0.9007328E+03  0.7818609E-02  0.9424666E-01
        1   -1    0    0  501    0  0.00000000000E+00  0.00000000000E+00  0.31434357422E+04  0.31434357422E+04  0.50400001928E-02 0. -1.
       -1   -1    0    0    0  501  0.00000000000E+00  0.00000000000E+00 -0.64524898779E+02  0.64524898976E+02  0.50400001928E-02 0.  1.
    10030    2    1    2    0    0  0.00000000000E+00  0.00000000000E+00  0.30789108434E+04  0.32079606411E+04  0.90073275371E+03 0.  0.
        1    1    3    3  502    0  0.12353102849E+03 -0.19260599468E+03  0.15791942340E+03  0.27802073394E+03  0.50400001928E-02 0.  1.
       -1    1    3    3    0  502 -0.12353102849E+03  0.19260599468E+03  0.29209914200E+04  0.29299399072E+04  0.50400001928E-02 0. -1.
</event>
<event>
 5   0  0.1007561E-03  0.8977653E+03  0.7818609E-02  0.9428379E-01
        1   -1    0    0  501    0  0.00000000000E+00  0.00000000000E+00  0.10797813919E+04  0.10797813919E+04  0.50400001928E-02 0. -1.
       -1   -1    0    0    0  501  0.00000000000E+00  0.00000000000E+00 -0.18660779304E+03  0.18660779311E+03  0.50400001928E-02 0.  1.
    10030    2    1    2    0    0  0.00000000000E+00  0.00000000000E+00  0.89317359882E+03  0.12663891850E+04  0.89776527569E+03 0.  0.
        2    1    3    3  502    0 -0.28774158645E+03 -0.12386114395E+03  0.90008770503E+03  0.95304495188E+03  0.25500000920E-02 0. -1.
       -2    1    3    3    0  502  0.28774158645E+03  0.12386114395E+03 -0.69141062040E+01  0.31334423311E+03  0.25500000920E-02 0.  1.
</event>
<event>
 5   0  0.1536020E-03  0.8989001E+03  0.7818609E-02  0.9426957E-01
       -2   -1    0    0    0  501  0.00000000000E+00  0.00000000000E+00  0.57610067197E+03  0.57610067198E+03  0.25500000920E-02 0.  1.
        2   -1    0    0  501    0  0.00000000000E+00  0.00000000000E+00 -0.35064246663E+03  0.35064246664E+03  0.25500000920E-02 0. -1.
    10030    2    1    2    0    0  0.00000000000E+00  0.00000000000E+00  0.22545820534E+03  0.92674313862E+03  0.89890012939E+03 0.  0.
        2    1    3    3  502    0 -0.88759774817E+02 -0.25430580516E+03  0.48367313760E+03  0.55361488799E+03  0.25500000920E-02 0.  1.
       -2    1    3    3    0  502  0.88759774817E+02  0.25430580516E+03 -0.25821493226E+03  0.37312825062E+03  0.25500000920E-02 0. -1.
</event>
<event>
 5   0  0.1704416E-03  0.8972687E+03  0.7818609E-02  0.9429002E-01
        2   -1    0    0  501    0  0.00000000000E+00  0.00000000000E+00  0.14346596695E+04  0.14346596695E+04  0.25500000920E-02 0.  1.
       -2   -1    0    0    0  501  0.00000000000E+00  0.00000000000E+00 -0.14029305898E+03  0.14029305900E+03  0.25500000920E-02 0. -1.
    10030    2    1    2    0    0  0.00000000000E+00  0.00000000000E+00  0.12943666106E+04  0.15749527285E+04  0.89726873043E+03 0.  0.
        3    1    3    3  502    0  0.19911971014E+03  0.21334068588E+03  0.49075360502E+02  0.29592449785E+03  0.10100000352E+00 0. -1.
       -3    1    3    3    0  502 -0.19911971014E+03 -0.21334068588E+03  0.12452912501E+04  0.12790282307E+04  0.10100000352E+00 0.  1.
</event>
<event>
 5   0  0.9697941E-04  0.8861339E+03  0.7818609E-02  0.9443083E-01
       -1   -1    0    0    0  501  0.00000000000E+00  0.00000000000E+00  0.35222298279E+03  0.35222298282E+03  0.50400001928E-02 0.  1.
        1   -1    0    0  501    0  0.00000000000E+00  0.00000000000E+00 -0.55734104131E+03  0.55734104134E+03  0.50400001928E-02 0. -1.
    10030    2    1    2    0    0  0.00000000000E+00  0.00000000000E+00 -0.20511805853E+03  0.90956402416E+03  0.88613390417E+03 0.  0.
        5    1    3    3  502    0 -0.10260817717E+03 -0.42458940411E+03 -0.26563343932E+02  0.43764403497E+03  0.46999998093E+01 0. -1.
       -5    1    3    3    0  502  0.10260817717E+03  0.42458940411E+03 -0.17855471459E+03  0.47191998920E+03  0.46999998093E+01 0.  1.
</event>
<event>
 5   0  0.9223454E-04  0.9107286E+03  0.7818609E-02  0.9412269E-01
        1   -1    0    0  501    0  0.00000000000E+00  0.00000000000E+00  0.40116832236E+03  0.40116832239E+03  0.50400001928E-02 0.  1.
       -1   -1    0    0    0  501  0.00000000000E+00  0.00000000000E+00 -0.51688192123E+03  0.51688192126E+03  0.50400001928E-02 0. -1.
    10030    2    1    2    0    0  0.00000000000E+00  0.00000000000E+00 -0.11571359887E+03  0.91805024365E+03  0.91072861650E+03 0.  0.
        1    1    3    3  502    0 -0.33708745613E+03  0.37553323760E+02 -0.36413896887E+03  0.49762977592E+03  0.50400001928E-02 0. -1.
       -1    1    3    3    0  502  0.33708745613E+03 -0.37553323760E+02  0.24842537000E+03  0.42042046773E+03  0.50400001928E-02 0.  1.
</event>
<event>
 5   0  0.9321543E-04  0.8996243E+03  0.7818609E-02  0.9426051E-01
       -1   -1    0    0    0  501  0.00000000000E+00  0.00000000000E+00  0.24833740855E+03  0.24833740860E+03  0.50400001928E-02 0.  1.
        1   -1    0    0  501    0  0.00000000000E+00  0.00000000000E+00 -0.81474215229E+03  0.81474215230E+03  0.50400001928E-02 0. -1.
    10030    2    1    2    0    0  0.00000000000E+00  0.00000000000E+00 -0.56640474373E+03  0.10630795609E+04  0.89962426551E+03 0.  0.
        3    1    3    3  502    0  0.18389205730E+03 -0.40596489143E+03 -0.35515148320E+03  0.56987399312E+03  0.10100000352E+00 0.  1.
       -3    1    3    3    0  502 -0.18389205730E+03  0.40596489143E+03 -0.21125326054E+03  0.49320556779E+03  0.10100000352E+00 0. -1.
</event>
<event>
 5   0  0.1635686E-03  0.9004442E+03  0.7818609E-02  0.9425026E-01
       -2   -1    0    0    0  501  0.00000000000E+00  0.00000000000E+00  0.21270925784E+03  0.21270925785E+03  0.25500000920E-02 0.  1.
        2   -1    0    0  501    0  0.00000000000E+00  0.00000000000E+00 -0.95294374386E+03  0.95294374386E+03  0.25500000920E-02 0. -1.
    10030    2    1    2    0    0  0.00000000000E+00  0.00000000000E+00 -0.74023448602E+03  0.11656530017E+04  0.90044423820E+03 0.  0.
        5    1    3    3  502    0 -0.21469905016E+03  0.83403643995E+02 -0.87086154942E+03  0.90081839359E+03  0.46999998093E+01 0. -1.
       -5    1    3    3    0  502  0.21469905016E+03 -0.83403643995E+02  0.13062706340E+03  0.26483460813E+03  0.46999998093E+01 0.  1.
</event>
<event>
 5   0  0.9697941E-04  0.9003169E+03  0.7818609E-02  0.9425185E-01
        1   -1    0    0  501    0  0.00000000000E+00  0.00000000000E+00  0.33801286496E+03  0.33801286500E+03  0.50400001928E-02 0.  1.
       -1   -1    0    0    0  501  0.00000000000E+00  0.00000000000E+00 -0.59951160916E+03  0.59951160919E+03  0.50400001928E-02 0. -1.
    10030    2    1    2    0    0  0.00000000000E+00  0.00000000000E+00 -0.26149874420E+03  0.93752447419E+03  0.90031691447E+03 0.  0.
        5    1    3    3  502    0  0.83852473045E+02  0.64743397228E+02 -0.58631972149E+03  0.59583206571E+03  0.46999998093E+01 0. -1.
       -5    1    3    3    0  502 -0.83852473045E+02 -0.64743397228E+02  0.32482097729E+03  0.34169240847E+03  0.46999998093E+01 0.  1.
</event>
<event>
 5   0  0.1536020E-03  0.9074071E+03  0.7818609E-02  0.9416369E-01
        2   -1    0    0  501    0  0.00000000000E+00  0.00000000000E+00  0.36299936728E+03  0.36299936729E+03  0.25500000920E-02 0.  1.
       -2   -1    0    0    0  501  0.00000000000E+00  0.00000000000E+00 -0.56707238730E+03  0.56707238731E+03  0.25500000920E-02 0. -1.
    10030    2    1    2    0    0  0.00000000000E+00  0.00000000000E+00 -0.20407302002E+03  0.93007175460E+03  0.90740711437E+03 0.  0.
        2    1    3    3  502    0  0.19385658935E+03 -0.25686999950E+02  0.31758716919E+03  0.37296354948E+03  0.25500000920E-02 0.  1.
       -2    1    3    3    0  502 -0.19385658935E+03  0.25686999950E+02 -0.52166018921E+03  0.55710820512E+03  0.25500000920E-02 0. -1.
</event>
<event>
 5   0  0.1536020E-03  0.8992983E+03  0.7818609E-02  0.9426459E-01
        2   -1    0    0  501    0  0.00000000000E+00  0.00000000000E+00  0.72850489990E+03  0.72850489990E+03  0.25500000920E-02 0. -1.
       -2   -1    0    0    0  501  0.00000000000E+00  0.00000000000E+00 -0.27753329583E+03  0.27753329584E+03  0.25500000920E-02 0.  1.
    10030    2    1    2    0    0  0.00000000000E+00  0.00000000000E+00  0.45097160407E+03  0.10060381957E+04  0.89929831736E+03 0.  0.
        2    1    3    3  502    0 -0.27631679090E+03  0.35404914362E+03  0.20091016776E+03  0.49200270381E+03  0.25500000920E-02 0. -1.
       -2    1    3    3    0  502  0.27631679090E+03 -0.35404914362E+03  0.25006143631E+03  0.51403549194E+03  0.25500000920E-02 0.  1.
</event>
<event>
 5   0  0.1635686E-03  0.8973648E+03  0.7818609E-02  0.9428881E-01
        2   -1    0    0  501    0  0.00000000000E+00  0.00000000000E+00  0.90731161899E+03  0.90731161899E+03  0.25500000920E-02 0.  1.
       -2   -1    0    0    0  501  0.00000000000E+00  0.00000000000E+00 -0.22188178085E+03  0.22188178086E+03  0.25500000920E-02 0. -1.
    10030    2    1    2    0    0  0.00000000000E+00  0.00000000000E+00  0.68542983814E+03  0.11291933999E+04  0.89736484847E+03 0.  0.
        5    1    3    3  502    0  0.29277784246E+03 -0.10407946840E+03 -0.64534613139E+02  0.31739282769E+03  0.46999998093E+01 0. -1.
       -5    1    3    3    0  502 -0.29277784246E+03  0.10407946840E+03  0.74996445128E+03  0.81180057216E+03  0.46999998093E+01 0.  1.
</event>
<event>
 5   0  0.1641516E-03  0.9012785E+03  0.7818609E-02  0.9423985E-01
       -2   -1    0    0    0  501  0.00000000000E+00  0.00000000000E+00  0.38033757395E+03  0.38033757396E+03  0.25500000920E-02 0.  1.
        2   -1    0    0  501    0  0.00000000000E+00  0.00000000000E+00 -0.53393544824E+03  0.53393544825E+03  0.25500000920E-02 0. -1.
    10030    2    1    2    0    0  0.00000000000E+00  0.00000000000E+00 -0.15359787429E+03  0.91427302221E+03  0.90127845428E+03 0.  0.
        1    1    3    3  502    0 -0.25794603752E+03  0.34234966564E+03  0.64260831694E+02  0.43343846893E+03  0.50400001928E-02 0.  1.
       -1    1    3    3    0  502  0.25794603752E+03 -0.34234966564E+03 -0.21785870598E+03  0.48083455328E+03  0.50400001928E-02 0. -1.
</event>
<event>
 5   0  0.1536020E-03  0.8999733E+03  0.7818609E-02  0.9425615E-01
        2   -1    0    0  501    0  0.00000000000E+00  0.00000000000E+00  0.72030513042E+03  0.72030513042E+03  0.25500000920E-02 0.  1.
       -2   -1    0    0    0  501  0.00000000000E+00  0.00000000000E+00 -0.28111416000E+03  0.28111416001E+03  0.25500000920E-02 0. -1.
    10030    2    1    2    0    0  0.00000000000E+00  0.00000000000E+00  0.43919097042E+03  0.10014192904E+04  0.89997327002E+03 0.  0.
        2    1    3    3  502    0  0.19795447076E+03 -0.22299531706E+03 -0.15540159202E+03  0.33624773418E+03  0.25500000920E-02 0.  1.
       -2    1    3    3    0  502 -0.19795447076E+03  0.22299531706E+03  0.59459256244E+03  0.66517155625E+03  0.25500000920E-02 0. -1.
</event>
<event>
 5   0  0.1641516E-03  0.9213495E+03  0.7818609E-02  0.9399280E-01
       -2   -1    0    0    0  501  0.00000000000E+00  0.00000000000E+00  0.15067783289E+03  0.15067783291E+03  0.25500000920E-02 0. -1.
        2   -1    0    0  501    0  0.00000000000E+00  0.00000000000E+00 -0.14084437032E+04  0.14084437032E+04  0.25500000920E-02 0.  1.
    10030    2    1    2    0    0  0.00000000000E+00  0.00000000000E+00 -0.12577658703E+04  0.15591215361E+04  0.92134954271E+03 0.  0.
        1    1    3    3  502    0  0.37887061325E+03  0.17503435661E+03 -0.29883038587E+03  0.51330260775E+03  0.50400001928E-02 0. -1.
       -1    1    3    3    0  502 -0.37887061325E+03 -0.17503435661E+03 -0.95893548443E+03  0.10458189284E+04  0.50400001928E-02 0.  1.
</event>
<event>
 5   0  0.9981885E-04  0.9009626E+03  0.7818609E-02  0.9424379E-01
        1   -1    0    0  501    0  0.00000000000E+00  0.00000000000E+00  0.13788553144E+04  0.13788553145E+04  0.50400001928E-02 0. -1.
       -1   -1    0    0    0  501  0.00000000000E+00  0.00000000000E+00 -0.14717527776E+03  0.14717527785E+03  0.50400001928E-02 0.  1.
    10030    2    1    2    0    0  0.00000000000E+00  0.00000000000E+00  0.12316800367E+04  0.15260305923E+04  0.90096262734E+03 0.  0.
        4    1    3    3  502    0 -0.43002827399E+03  0.12958557182E+03  0.67488134102E+03  0.81066835032E+03  0.12699999809E+01 0.  1.
       -4    1    3    3    0  502  0.43002827399E+03 -0.12958557182E+03  0.55679869567E+03  0.71536224199E+03  0.12699999809E+01 0. -1.
</event>
<event>
 5   0  0.9981885E-04  0.8994437E+03  0.7818609E-02  0.9426277E-01
       -1   -1    0    0    0  501  0.00000000000E+00  0.00000000000E+00  0.38514826146E+03  0.38514826149E+03  0.50400001928E-02 0. -1.
        1   -1    0    0  501    0  0.00000000000E+00  0.00000000000E+00 -0.52512175427E+03  0.52512175429E+03  0.50400001928E-02 0.  1.
    10030    2    1    2    0    0  0.00000000000E+00  0.00000000000E+00 -0.13997349281E+03  0.91027001578E+03  0.89944367413E+03 0.  0.
        4    1    3    3  502    0  0.14115917826E+03  0.37660334444E+03 -0.27363540372E+03  0.48645034661E+03  0.12699999809E+01 0.  1.
       -4    1    3    3    0  502 -0.14115917826E+03 -0.37660334444E+03  0.13366191091E+03  0.42381966917E+03  0.12699999809E+01 0. -1.
</event>
<event>
 5   0  0.9981885E-04  0.8965975E+03  0.7818609E-02  0.9429845E-01
       -1   -1    0    0    0  501  0.00000000000E+00  0.00000000000E+00  0.49991509649E+03  0.49991509651E+03  0.50400001928E-02 0. -1.
        1   -1    0    0  501    0  0.00000000000E+00  0.00000000000E+00 -0.40201177658E+03  0.40201177661E+03  0.50400001928E-02 0.  1.
    10030    2    1    2    0    0  0.00000000000E+00  0.00000000000E+00  0.97903319905E+02  0.90192687312E+03  0.89659747067E+03 0.  0.
        4    1    3    3  502    0  0.48259151042E+02  0.22188893829E+03  0.43778057969E+03  0.49317045273E+03  0.12699999809E+01 0. -1.
       -4    1    3    3    0  502 -0.48259151042E+02 -0.22188893829E+03 -0.33987725978E+03  0.40875642039E+03  0.12699999809E+01 0.  1.
</event>
<event>
 5   0  0.1630202E-03  0.9002455E+03  0.7818609E-02  0.9425275E-01
       -2   -1    0    0    0  501  0.00000000000E+00  0.00000000000E+00  0.17627816521E+03  0.17627816523E+03  0.25500000920E-02 0. -1.
        2   -1    0    0  501    0  0.00000000000E+00  0.00000000000E+00 -0.11493792764E+04  0.11493792764E+04  0.25500000920E-02 0.  1.
    10030    2    1    2    0    0  0.00000000000E+00  0.00000000000E+00 -0.97310111122E+03  0.13256574417E+04  0.90024545541E+03 0.  0.
        4    1    3    3  502    0 -0.38037234146E+03 -0.16568442379E+03 -0.22948846555E+03  0.47413185418E+03  0.12699999809E+01 0. -1.
       -4    1    3    3    0  502  0.38037234146E+03  0.16568442379E+03 -0.74361264568E+03  0.85152558748E+03  0.12699999809E+01 0.  1.
</event>
<event>
 5   0  0.9697941E-04  0.9059306E+03  0.7818609E-02  0.9418198E-01
       -1   -1    0    0    0  501  0.00000000000E+00  0.00000000000E+00  0.21666276986E+03  0.21666276992E+03  0.50400001928E-02 0. -1.
        1   -1    0    0  501    0  0.00000000000E+00  0.00000000000E+00 -0.94699038162E+03  0.94699038163E+03  0.50400001928E-02 0.  1.
    10030    2    1    2    0    0  0.00000000000E+00  0.00000000000E+00 -0.73032761176E+03  0.11636531515E+04  0.90593059150E+03 0.  0.
        5    1    3    3  502    0  0.26816101726E+02 -0.25806614882E+03  0.11172097926E+03  0.28252594161E+03  0.46999998093E+01 0. -1.
       -5    1    3    3    0  502 -0.26816101726E+02  0.25806614882E+03 -0.84204859101E+03  0.88112720994E+03  0.46999998093E+01 0.  1.
</event>
<event>
 5   0  0.1007561E-03  0.8986473E+03  0.7818609E-02  0.9427274E-01
        1   -1    0    0  501    0  0.00000000000E+00  0.00000000000E+00  0.12491211925E+04  0.12491211925E+04  0.50400001928E-02 0. -1.
       -1   -1    0    0    0  501  0.00000000000E+00  0.00000000000E+00 -0.16162704245E+03  0.16162704253E+03  0.50400001928E-02 0.  1.
    10030    2    1    2    0    0  0.00000000000E+00  0.00000000000E+00  0.10874941500E+04  0.14107482350E+04  0.89864734809E+03 0.  0.
        2    1    3    3  502    0  0.20136293728E+03 -0.27233235868E+03  0.80227374277E+02  0.34806375520E+03  0.25500000920E-02 0.  1.
       -2    1    3    3    0  502 -0.20136293728E+03  0.27233235868E+03  0.10072667757E+04  0.10626844798E+04  0.25500000920E-02 0. -1.
</event>
<event>
 5   0  0.9981885E-04  0.8984263E+03  0.7818609E-02  0.9427551E-01
        1   -1    0    0  501    0  0.00000000000E+00  0.00000000000E+00  0.73439796057E+03  0.73439796059E+03  0.50400001928E-02 0.  1.
       -1   -1    0    0    0  501  0.00000000000E+00  0.00000000000E+00 -0.27477263074E+03  0.27477263078E+03  0.50400001928E-02 0. -1.
    10030    2    1    2    0    0  0.00000000000E+00  0.00000000000E+00  0.45962532983E+03  0.10091705914E+04  0.89842631232E+03 0.  0.
        4    1    3    3  502    0 -0.26325921456E+03  0.13296922004E+03  0.61040654859E+03  0.67792624598E+03  0.12699999809E+01 0.  1.
       -4    1    3    3    0  502  0.26325921456E+03 -0.13296922004E+03 -0.15078121875E+03  0.33124434540E+03  0.12699999809E+01 0. -1.
</event>
<event>
 5   0  0.9981885E-04  0.9011551E+03  0.7818609E-02  0.9424139E-01
       -1   -1    0    0    0  501  0.00000000000E+00  0.00000000000E+00  0.14047870248E+03  0.14047870258E+03  0.50400001928E-02 0.  1.
        1   -1    0    0  501    0  0.00000000000E+00  0.00000000000E+00 -0.14452022543E+04  0.14452022543E+04  0.50400001928E-02 0. -1.
    10030    2    1    2    0    0  0.00000000000E+00  0.00000000000E+00 -0.13047235518E+04  0.15856809569E+04  0.90115512003E+03 0.  0.
        4    1    3    3  502    0 -0.95457336862E+02 -0.23155012520E+02 -0.14261303805E+04  0.14295096127E+04  0.12699999809E+01 0. -1.
       -4    1    3    3    0  502  0.95457336862E+02  0.23155012520E+02  0.12140682872E+03  0.15617134413E+03  0.12699999809E+01 0.  1.
</event>
<event>
 5   0  0.1704416E-03  0.8962285E+03  0.7818609E-02  0.9430308E-01
       -2   -1    0    0    0  501  0.00000000000E+00  0.00000000000E+00  0.83068066930E+03  0.83068066930E+03  0.25500000920E-02 0. -1.
        2   -1    0    0  501    0  0.00000000000E+00  0.00000000000E+00 -0.24173713545E+03  0.24173713546E+03  0.25500000920E-02 0.  1.
    10030    2    1    2    0    0  0.00000000000E+00  0.00000000000E+00  0.58894353385E+03  0.10724178048E+04  0.89622846525E+03 0.  0.
        3    1    3    3  502    0 -0.27661053561E+03 -0.38367188609E+02 -0.12488288536E+03  0.30591040328E+03  0.10100000352E+00 0.  1.
       -3    1    3    3    0  502  0.27661053561E+03  0.38367188609E+02  0.71382641921E+03  0.76650740149E+03  0.10100000352E+00 0. -1.
</event>
<event>
 5   0  0.1007561E-03  0.9006753E+03  0.7818609E-02  0.9424738E-01
        1   -1    0    0  501    0  0.00000000000E+00  0.00000000000E+00  0.12067369633E+04  0.12067369633E+04  0.50400001928E-02 0. -1.
       -1   -1    0    0    0  501  0.00000000000E+00  0.00000000000E+00 -0.16805981467E+03  0.16805981475E+03  0.50400001928E-02 0.  1.
    10030    2    1    2    0    0  0.00000000000E+00  0.00000000000E+00  0.10386771486E+04  0.13747967780E+04  0.90067528103E+03 0.  0.
        2    1    3    3  502    0 -0.47301646044E+02  0.15483229870E+03  0.11607809154E+04  0.11720165613E+04  0.25500000920E-02 0. -1.
       -2    1    3    3    0  502  0.47301646044E+02 -0.15483229870E+03 -0.12210376677E+03  0.20278021675E+03  0.25500000920E-02 0.  1.
</event>
<event>
 5   0  0.1704416E-03  0.9053210E+03  0.7818609E-02  0.9418954E-01
        2   -1    0    0  501    0  0.00000000000E+00  0.00000000000E+00  0.14038761365E+04  0.14038761365E+04  0.25500000920E-02 0.  1.
       -2   -1    0    0    0  501  0.00000000000E+00  0.00000000000E+00 -0.14595414768E+03  0.14595414771E+03  0.25500000920E-02 0. -1.
    10030    2    1    2    0    0  0.00000000000E+00  0.00000000000E+00  0.12579219888E+04  0.15498302842E+04  0.90532103691E+03 0.  0.
        3    1    3    3  502    0 -0.10906222362E+02 -0.14831472660E+03  0.13608617583E+04  0.13689634543E+04  0.10100000352E+00 0.  1.
       -3    1    3    3    0  502  0.10906222362E+02  0.14831472660E+03 -0.10293976949E+03  0.18086682990E+03  0.10100000352E+00 0. -1.
</event>
<event>
 5   0  0.9697941E-04  0.9006612E+03  0.7818609E-02  0.9424755E-01
        1   -1    0    0  501    0  0.00000000000E+00  0.00000000000E+00  0.96158118011E+03  0.96158118013E+03  0.50400001928E-02 0. -1.
       -1   -1    0    0    0  501  0.00000000000E+00  0.00000000000E+00 -0.21090020495E+03  0.21090020501E+03  0.50400001928E-02 0.  1.
    10030    2    1    2    0    0  0.00000000000E+00  0.00000000000E+00  0.75068097517E+03  0.11724813851E+04  0.90066124154E+03 0.  0.
        5    1    3    3  502    0 -0.38674425639E+03  0.20757165911E+03  0.50628936757E+03  0.67008068711E+03  0.46999998093E+01 0. -1.
       -5    1    3    3    0  502  0.38674425639E+03 -0.20757165911E+03  0.24439160759E+03  0.50240069803E+03  0.46999998093E+01 0.  1.
</event>
<event>
 5   0  0.1704416E-03  0.8984958E+03  0.7818609E-02  0.9427464E-01
       -2   -1    0    0    0  501  0.00000000000E+00  0.00000000000E+00  0.14062310078E+03  0.14062310080E+03  0.25500000920E-02 0. -1.
        2   -1    0    0  501    0  0.00000000000E+00  0.00000000000E+00 -0.14352101222E+04  0.14352101222E+04  0.25500000920E-02 0.  1.
    10030    2    1    2    0    0  0.00000000000E+00  0.00000000000E+00 -0.12945870215E+04  0.15758332230E+04  0.89849584901E+03 0.  0.
        3    1    3    3  502    0  0.16958308094E+03  0.41417584703E+03 -0.57883389046E+03  0.73167529448E+03  0.10100000352E+00 0.  1.
       -3    1    3    3    0  502 -0.16958308094E+03 -0.41417584703E+03 -0.71575313100E+03  0.84415792856E+03  0.10100000352E+00 0. -1.
</event>
<event>
 5   0  0.9321543E-04  0.9024070E+03  0.7818609E-02  0.9422578E-01
       -1   -1    0    0    0  501  0.00000000000E+00  0.00000000000E+00  0.16425575435E+03  0.16425575442E+03  0.50400001928E-02 0.  1.
        1   -1    0    0  501    0  0.00000000000E+00  0.00000000000E+00 -0.12394365694E+04  0.12394365694E+04  0.50400001928E-02 0. -1.
    10030    2    1    2    0    0  0.00000000000E+00  0.00000000000E+00 -0.10751808151E+04  0.14036923238E+04  0.90240697855E+03 0.  0.
        3    1    3    3  502    0 -0.23882946077E+03  0.24498417993E+03 -0.99514967687E+03  0.10523210771E+04  0.10100000352E+00 0. -1.
       -3    1    3    3    0  502  0.23882946077E+03 -0.24498417993E+03 -0.80031138183E+02  0.35137124673E+03  0.10100000352E+00 0.  1.
</event>
<event>
 5   0  0.9697941E-04  0.9013503E+03  0.7818609E-02  0.9423895E-01
        1   -1    0    0  501    0  0.00000000000E+00  0.00000000000E+00  0.70601945880E+03  0.70601945882E+03  0.50400001928E-02 0.  1.
       -1   -1    0    0    0  501  0.00000000000E+00  0.00000000000E+00 -0.28768058364E+03  0.28768058368E+03  0.50400001928E-02 0. -1.
    10030    2    1    2    0    0  0.00000000000E+00  0.00000000000E+00  0.41833887517E+03  0.99370004250E+03  0.90135029816E+03 0.  0.
        5    1    3    3  502    0 -0.44094559761E+03 -0.67806514227E+02  0.13896398064E+03  0.46729414862E+03  0.46999998093E+01 0. -1.
       -5    1    3    3    0  502  0.44094559761E+03  0.67806514227E+02  0.27937489453E+03  0.52640589388E+03  0.46999998093E+01 0.  1.
</event>
<event>
 5   0  0.1635686E-03  0.9009031E+03  0.7818609E-02  0.9424453E-01
       -2   -1    0    0    0  501  0.00000000000E+00  0.00000000000E+00  0.23700415584E+03  0.23700415585E+03  0.25500000920E-02 0. -1.
        2   -1    0    0  501    0  0.00000000000E+00  0.00000000000E+00 -0.85613102721E+03  0.85613102722E+03  0.25500000920E-02 0.  1.
    10030    2    1    2    0    0  0.00000000000E+00  0.00000000000E+00 -0.61912687138E+03  0.10931351831E+04  0.90090312775E+03 0.  0.
        5    1    3    3  502    0 -0.39952890927E+03  0.23856684221E+02 -0.58854863129E+02  0.40457196596E+03  0.46999998093E+01 0. -1.
       -5    1    3    3    0  502  0.39952890927E+03 -0.23856684221E+02 -0.56027200825E+03  0.68856321711E+03  0.46999998093E+01 0.  1.
</event>
<event>
 5   0  0.9223454E-04  0.9047285E+03  0.7818609E-02  0.9419690E-01
        1   -1    0    0  501    0  0.00000000000E+00  0.00000000000E+00  0.39050672242E+03  0.39050672245E+03  0.50400001928E-02 0. -1.
       -1   -1    0    0    0  501  0.00000000000E+00  0.00000000000E+00 -0.52402022733E+03  0.52402022735E+03  0.50400001928E-02 0.  1.
    10030    2    1    2    0    0  0.00000000000E+00  0.00000000000E+00 -0.13351350491E+03  0.91452694980E+03  0.90472851504E+03 0.  0.
        1    1    3    3  502    0 -0.33265174455E+03  0.30228876306E+02 -0.37512203592E+03  0.50228230108E+03  0.50400001928E-02 0.  1.
       -1    1    3    3    0  502  0.33265174455E+03 -0.30228876306E+02  0.24160853101E+03  0.41224464872E+03  0.50400001928E-02 0. -1.
</event>
<event>
 5   0  0.1007561E-03  0.8998017E+03  0.7818609E-02  0.9425829E-01
       -1   -1    0    0    0  501  0.00000000000E+00  0.00000000000E+00  0.90119408154E+03  0.90119408156E+03  0.50400001928E-02 0.  1.
        1   -1    0    0  501    0  0.00000000000E+00  0.00000000000E+00 -0.22460288337E+03  0.22460288343E+03  0.50400001928E-02 0. -1.
    10030    2    1    2    0    0  0.00000000000E+00  0.00000000000E+00  0.67659119817E+03  0.11257969650E+04  0.89980173201E+03 0.  0.
        2    1    3    3  502    0 -0.15736248826E+03 -0.39111294774E+03  0.14174579460E+03  0.44477428084E+03  0.25500000920E-02 0. -1.
       -2    1    3    3    0  502  0.15736248826E+03  0.39111294774E+03  0.53484540357E+03  0.68102268415E+03  0.25500000920E-02 0.  1.
</event>
<event>
 5   0  0.1536020E-03  0.8999894E+03  0.7818609E-02  0.9425595E-01
       -2   -1    0    0    0  501  0.00000000000E+00  0.00000000000E+00  0.15334013790E+03  0.15334013793E+03  0.25500000920E-02 0. -1.
        2   -1    0    0  501    0  0.00000000000E+00  0.00000000000E+00 -0.13205623277E+04  0.13205623277E+04  0.25500000920E-02 0.  1.
    10030    2    1    2    0    0  0.00000000000E+00  0.00000000000E+00 -0.11672221898E+04  0.14739024657E+04  0.89998935430E+03 0.  0.
        2    1    3    3  502    0  0.40018226354E+03  0.91549737094E+02 -0.88544389460E+03  0.97598057814E+03  0.25500000920E-02 0.  1.
       -2    1    3    3    0  502 -0.40018226354E+03 -0.91549737094E+02 -0.28177829524E+03  0.49792188753E+03  0.25500000920E-02 0. -1.
</event>
<event>
 5   0  0.1536020E-03  0.9000457E+03  0.7818609E-02  0.9425524E-01
       -2   -1    0    0    0  501  0.00000000000E+00  0.00000000000E+00  0.72074629690E+03  0.72074629691E+03  0.25500000920E-02 0. -1.
        2   -1    0    0  501    0  0.00000000000E+00  0.00000000000E+00 -0.28098729189E+03  0.28098729190E+03  0.25500000920E-02 0.  1.
    10030    2    1    2    0    0  0.00000000000E+00  0.00000000000E+00  0.43975900501E+03  0.10017335888E+04  0.90004566576E+03 0.  0.
        2    1    3    3  502    0 -0.27674563007E+03  0.22808975100E+03  0.52245368224E+03  0.63369624298E+03  0.25500000920E-02 0.  1.
       -2    1    3    3    0  502  0.27674563007E+03 -0.22808975100E+03 -0.82694677228E+02  0.36803734582E+03  0.25500000920E-02 0. -1.
</event>
<event>
 5   0  0.1630202E-03  0.8987107E+03  0.7818609E-02  0.9427195E-01
       -2   -1    0    0    0  501  0.00000000000E+00  0.00000000000E+00  0.18270498855E+03  0.18270498857E+03  0.25500000920E-02 0.  1.
        2   -1    0    0  501    0  0.00000000000E+00  0.00000000000E+00 -0.11051708443E+04  0.11051708443E+04  0.25500000920E-02 0. -1.
    10030    2    1    2    0    0  0.00000000000E+00  0.00000000000E+00 -0.92246585572E+03  0.12878758328E+04  0.89871069085E+03 0.  0.
        4    1    3    3  502    0 -0.17665284991E+03  0.28426217097E+03 -0.31546327405E+02  0.33616661777E+03  0.12699999809E+01 0.  1.
       -4    1    3    3    0  502  0.17665284991E+03 -0.28426217097E+03 -0.89091952832E+03  0.95170921508E+03  0.12699999809E+01 0. -1.
</event>
<event>
 5   0  0.1641516E-03  0.8998599E+03  0.7818609E-02  0.9425757E-01
       -2   -1    0    0    0  501  0.00000000000E+00  0.00000000000E+00  0.26138883099E+03  0.26138883100E+03  0.25500000920E-02 0.  1.
        2   -1    0    0  501    0  0.00000000000E+00  0.00000000000E+00 -0.77446679557E+03  0.77446679557E+03  0.25500000920E-02 0. -1.
    10030    2    1    2    0    0  0.00000000000E+00  0.00000000000E+00 -0.51307796458E+03  0.10358556266E+04  0.89985992319E+03 0.  0.
        1    1    3    3  502    0 -0.10772454266E+03 -0.29170179468E+03 -0.63086414000E+03  0.70333781163E+03  0.50400001928E-02 0. -1.
       -1    1    3    3    0  502  0.10772454266E+03  0.29170179468E+03  0.11778617542E+03  0.33251781494E+03  0.50400001928E-02 0.  1.
</event>
<event>
 5   0  0.6375625E-04  0.9006409E+03  0.7818609E-02  0.9424781E-01
        4   -1    0    0  501    0  0.00000000000E+00  0.00000000000E+00  0.19786515174E+04  0.19786519250E+04  0.12699999809E+01 0. -1.
       -4   -1    0    0    0  501  0.00000000000E+00  0.00000000000E+00 -0.10248388234E+03  0.10249175108E+03  0.12699999809E+01 0.  1.
    10030    2    1    2    0    0  0.00000000000E+00  0.00000000000E+00  0.18761676351E+04  0.20811436760E+04  0.90064088598E+03 0.  0.
        4    1    3    3  502    0 -0.38992561412E+03  0.13208349111E+03  0.51642124184E+03  0.66043966045E+03  0.12699999809E+01 0.  1.
       -4    1    3    3    0  502  0.38992561412E+03 -0.13208349111E+03  0.13597463932E+04  0.14207040156E+04  0.12699999809E+01 0. -1.
</event>
<event>
 5   0  0.1536020E-03  0.8985756E+03  0.7818609E-02  0.9427364E-01
        2   -1    0    0  501    0  0.00000000000E+00  0.00000000000E+00  0.52710369497E+03  0.52710369498E+03  0.25500000920E-02 0. -1.
       -2   -1    0    0    0  501  0.00000000000E+00  0.00000000000E+00 -0.38295984023E+03  0.38295984023E+03  0.25500000920E-02 0.  1.
    10030    2    1    2    0    0  0.00000000000E+00  0.00000000000E+00  0.14414385475E+03  0.91006353521E+03  0.89857564360E+03 0.  0.
        2    1    3    3  502    0 -0.26402947373E+03 -0.35407830134E+03 -0.11300238599E+02  0.44182655180E+03  0.25500000920E-02 0.  1.
       -2    1    3    3    0  502  0.26402947373E+03  0.35407830134E+03  0.15544409335E+03  0.46823698342E+03  0.25500000920E-02 0. -1.
</event>
<event>
 5   0  0.1641516E-03  0.9006542E+03  0.7818609E-02  0.9424764E-01
       -2   -1    0    0    0  501  0.00000000000E+00  0.00000000000E+00  0.20045789662E+03  0.20045789664E+03  0.25500000920E-02 0. -1.
        2   -1    0    0  501    0  0.00000000000E+00  0.00000000000E+00 -0.10116562193E+04  0.10116562193E+04  0.25500000920E-02 0.  1.
    10030    2    1    2    0    0  0.00000000000E+00  0.00000000000E+00 -0.81119832268E+03  0.12121141159E+04  0.90065415745E+03 0.  0.
        1    1    3    3  502    0 -0.12299928494E+03  0.37867283101E+03 -0.12242561868E+03  0.41654527866E+03  0.50400001928E-02 0. -1.
       -1    1    3    3    0  502  0.12299928494E+03 -0.37867283101E+03 -0.68877270400E+03  0.79556883728E+03  0.50400001928E-02 0.  1.
</event>
<event>
 5   0  0.6375625E-04  0.8979255E+03  0.7818609E-02  0.9428178E-01
        3   -1    0    0  501    0  0.00000000000E+00  0.00000000000E+00  0.14747993833E+04  0.14747993868E+04  0.10100000352E+00 0. -1.
       -3   -1    0    0    0  501  0.00000000000E+00  0.00000000000E+00 -0.13667453831E+03  0.13667457563E+03  0.10100000352E+00 0.  1.
    10030    2    1    2    0    0  0.00000000000E+00  0.00000000000E+00  0.13381248450E+04  0.16114739624E+04  0.89792551512E+03 0.  0.
        2    1    3    3  502    0  0.12998454157E+03  0.38411890110E+03  0.10148519242E+04  0.10928713279E+04  0.25500000920E-02 0. -1.
       -2    1    3    3    0  502 -0.12998454157E+03 -0.38411890110E+03  0.32327292084E+03  0.51860263457E+03  0.25500000920E-02 0.  1.
</event>
<event>
 5   0  0.6375625E-04  0.8999599E+03  0.7818609E-02  0.9425632E-01
       -3   -1    0    0    0  501  0.00000000000E+00  0.00000000000E+00  0.14349436455E+04  0.14349436491E+04  0.10100000352E+00 0. -1.
        3   -1    0    0  501    0  0.00000000000E+00  0.00000000000E+00 -0.14110791448E+03  0.14110795062E+03  0.10100000352E+00 0.  1.
    10030    2    1    2    0    0  0.00000000000E+00  0.00000000000E+00  0.12938357310E+04  0.15760515997E+04  0.89995985799E+03 0.  0.
        2    1    3    3  502    0  0.35689353601E+03  0.19401768355E+03  0.30794384428E+03  0.50975020236E+03  0.25500000920E-02 0. -1.
       -2    1    3    3    0  502 -0.35689353601E+03 -0.19401768355E+03  0.98589188677E+03  0.10663013973E+04  0.25500000920E-02 0.  1.
</event>
<event>
 5   0  0.9321543E-04  0.9012163E+03  0.7818609E-02  0.9424062E-01
        1   -1    0    0  501    0  0.00000000000E+00  0.00000000000E+00  0.10823406005E+04  0.10823406005E+04  0.50400001928E-02 0.  1.
       -1   -1    0    0    0  501  0.00000000000E+00  0.00000000000E+00 -0.18760055279E+03  0.18760055285E+03  0.50400001928E-02 0. -1.
    10030    2    1    2    0    0  0.00000000000E+00  0.00000000000E+00  0.89474004767E+03  0.12699411533E+04  0.90121627815E+03 0.  0.
        3    1    3    3  502    0 -0.21176779897E+02  0.23070379501E+03  0.99198992982E+03  0.10186838215E+04  0.10100000352E+00 0.  1.
       -3    1    3    3    0  502  0.21176779897E+02 -0.23070379501E+03 -0.97249882146E+02  0.25125733187E+03  0.10100000352E+00 0. -1.
</event>
<event>
 5   0  0.1635686E-03  0.9033130E+03  0.7818609E-02  0.9421449E-01
        2   -1    0    0  501    0  0.00000000000E+00  0.00000000000E+00  0.89680208003E+03  0.89680208004E+03  0.25500000920E-02 0.  1.
       -2   -1    0    0    0  501  0.00000000000E+00  0.00000000000E+00 -0.22746779162E+03  0.22746779163E+03  0.25500000920E-02 0. -1.
    10030    2    1    2    0    0  0.00000000000E+00  0.00000000000E+00  0.66933428842E+03  0.11242698717E+04  0.90331298822E+03 0.  0.
        5    1    3    3  502    0 -0.12753076994E+03  0.42791162550E+03  0.25026256426E+03  0.51188465262E+03  0.46999998093E+01 0.  1.
       -5    1    3    3    0  502  0.12753076994E+03 -0.42791162550E+03  0.41907172416E+03  0.61238521905E+03  0.46999998093E+01 0. -1.
</event>
<event>
 5   0  0.9981885E-04  0.8996411E+03  0.7818609E-02  0.9426030E-01
        1   -1    0    0  501    0  0.00000000000E+00  0.00000000000E+00  0.10741026128E+04  0.10741026128E+04  0.50400001928E-02 0. -1.
       -1   -1    0    0    0  501  0.00000000000E+00  0.00000000000E+00 -0.18837913441E+03  0.18837913447E+03  0.50400001928E-02 0.  1.
    10030    2    1    2    0    0  0.00000000000E+00  0.00000000000E+00  0.88572347837E+03  0.12624817473E+04  0.89964108512E+03 0.  0.
        4    1    3    3  502    0 -0.34752463589E+03 -0.28437782683E+03  0.47979822606E+03  0.65715452641E+03  0.12699999809E+01 0. -1.
       -4    1    3    3    0  502  0.34752463589E+03  0.28437782683E+03  0.40592525230E+03  0.60532722085E+03  0.12699999809E+01 0.  1.
</event>
<event>
 5   0  0.1641516E-03  0.8997557E+03  0.7818609E-02  0.9425887E-01
       -2   -1    0    0    0  501  0.00000000000E+00  0.00000000000E+00  0.28159008582E+04  0.28159008582E+04  0.25500000920E-02 0. -1.
        2   -1    0    0  501    0  0.00000000000E+00  0.00000000000E+00 -0.71874001762E+02  0.71874001807E+02  0.25500000920E-02 0.  1.
    10030    2    1    2    0    0  0.00000000000E+00  0.00000000000E+00  0.27440268564E+04  0.28877748600E+04  0.89975566308E+03 0.  0.
        1    1    3    3  502    0  0.13322766719E+03 -0.24658055863E+03  0.24256462642E+03  0.37066046621E+03  0.50400001928E-02 0.  1.
       -1    1    3    3    0  502 -0.13322766719E+03  0.24658055863E+03  0.25014622300E+04  0.25171143938E+04  0.50400001928E-02 0. -1.
</event>
<event>
 5   0  0.6375625E-04  0.9001041E+03  0.7818609E-02  0.9425451E-01
        3   -1    0    0  501    0  0.00000000000E+00  0.00000000000E+00  0.77612555631E+03  0.77612556289E+03  0.10100000352E+00 0.  1.
       -3   -1    0    0    0  501  0.00000000000E+00  0.00000000000E+00 -0.26097171010E+03  0.26097172964E+03  0.10100000352E+00 0. -1.
    10030    2    1    2    0    0  0.00000000000E+00  0.00000000000E+00  0.51515384622E+03  0.10370972925E+04  0.90010405448E+03 0.  0.
        1    1    3    3  502    0  0.18768765295E+03 -0.24513132381E+03 -0.11972287094E+03  0.33113378993E+03  0.50400001928E-02 0. -1.
       -1    1    3    3    0  502 -0.18768765295E+03  0.24513132381E+03  0.63487671716E+03  0.70596350260E+03  0.50400001928E-02 0.  1.
</event>
<event>
 5   0  0.1536020E-03  0.9006753E+03  0.7818609E-02  0.9424738E-01
       -2   -1    0    0    0  501  0.00000000000E+00  0.00000000000E+00  0.17424466427E+03  0.17424466428E+03  0.25500000920E-02 0. -1.
        2   -1    0    0  501    0  0.00000000000E+00  0.00000000000E+00 -0.11639035973E+04  0.11639035973E+04  0.25500000920E-02 0.  1.
    10030    2    1    2    0    0  0.00000000000E+00  0.00000000000E+00 -0.98965893306E+03  0.13381482616E+04  0.90067528348E+03 0.  0.
        2    1    3    3  502    0 -0.24580901469E+03 -0.12436370825E+02  0.65479284945E+02  0.25468465165E+03  0.25500000920E-02 0. -1.
       -2    1    3    3    0  502  0.24580901469E+03  0.12436370825E+02 -0.10551382180E+04  0.10834636100E+04  0.25500000920E-02 0.  1.
</event>
<event>
 5   0  0.9697941E-04  0.8998879E+03  0.7818609E-02  0.9425722E-01
        1   -1    0    0  501    0  0.00000000000E+00  0.00000000000E+00  0.61455800137E+03  0.61455800139E+03  0.50400001928E-02 0.  1.
       -1   -1    0    0    0  501  0.00000000000E+00  0.00000000000E+00 -0.32942305848E+03  0.32942305852E+03  0.50400001928E-02 0. -1.
    10030    2    1    2    0    0  0.00000000000E+00  0.00000000000E+00  0.28513494290E+03  0.94398105991E+03  0.89988794070E+03 0.  0.
        5    1    3    3  502    0 -0.33580959388E+03 -0.19768946722E+03 -0.93348241094E+02  0.40073082350E+03  0.46999998093E+01 0. -1.
       -5    1    3    3    0  502  0.33580959388E+03  0.19768946722E+03  0.37848318399E+03  0.54325023641E+03  0.46999998093E+01 0.  1.
</event>
<event>
 5   0  0.1536020E-03  0.9001533E+03  0.7818609E-02  0.9425390E-01
        2   -1    0    0  501    0  0.00000000000E+00  0.00000000000E+00  0.78257134009E+03  0.78257134009E+03  0.25500000920E-02 0.  1.
       -2   -1    0    0    0  501  0.00000000000E+00  0.00000000000E+00 -0.25885052677E+03  0.25885052678E+03  0.25500000920E-02 0. -1.
    10030    2    1    2    0    0  0.00000000000E+00  0.00000000000E+00  0.52372081331E+03  0.10414218669E+04  0.90015332833E+03 0.  0.
        2    1    3    3  502    0  0.26740041935E+03  0.34541823482E+03  0.13643920983E+03  0.45763784721E+03  0.25500000920E-02 0. -1.
       -2    1    3    3    0  502 -0.26740041935E+03 -0.34541823482E+03  0.38728160348E+03  0.58378401966E+03  0.25500000920E-02 0.  1.
</event>
<event>
 5   0  0.1635686E-03  0.9029168E+03  0.7818609E-02  0.9421943E-01
       -2   -1    0    0    0  501  0.00000000000E+00  0.00000000000E+00  0.34081538188E+03  0.34081538189E+03  0.25500000920E-02 0. -1.
        2   -1    0    0  501    0  0.00000000000E+00  0.00000000000E+00 -0.59802076689E+03  0.59802076690E+03  0.25500000920E-02 0.  1.
    10030    2    1    2    0    0  0.00000000000E+00  0.00000000000E+00 -0.25720538502E+03  0.93883614878E+03  0.90291677589E+03 0.  0.
        5    1    3    3  502    0  0.14821098230E+03  0.11989515878E+03 -0.55408966478E+03  0.58598531636E+03  0.46999998093E+01 0.  1.
       -5    1    3    3    0  502 -0.14821098230E+03 -0.11989515878E+03  0.29688427976E+03  0.35285083243E+03  0.46999998093E+01 0. -1.
</event>
<event>
 5   0  0.9981885E-04  0.8984729E+03  0.7818609E-02  0.9427492E-01
       -1   -1    0    0    0  501  0.00000000000E+00  0.00000000000E+00  0.21459303481E+03  0.21459303486E+03  0.50400001928E-02 0. -1.
        1   -1    0    0  501    0  0.00000000000E+00  0.00000000000E+00 -0.94044695333E+03  0.94044695334E+03  0.50400001928E-02 0.  1.
    10030    2    1    2    0    0  0.00000000000E+00  0.00000000000E+00 -0.72585391853E+03  0.11550399882E+04  0.89847285063E+03 0.  0.
        4    1    3    3  502    0  0.27430303046E+03  0.21220595026E+03  0.41631768587E+01  0.34683203830E+03  0.12699999809E+01 0. -1.
       -4    1    3    3    0  502 -0.27430303046E+03 -0.21220595026E+03 -0.73001709538E+03  0.80820794991E+03  0.12699999809E+01 0.  1.
</event>
<event>
 5   0  0.1641516E-03  0.9005031E+03  0.7818609E-02  0.9424953E-01
        2   -1    0    0  501    0  0.00000000000E+00  0.00000000000E+00  0.13219453128E+04  0.13219453128E+04  0.25500000920E-02 0. -1.
       -2   -1    0    0    0  501  0.00000000000E+00  0.00000000000E+00 -0.15335463833E+03  0.15335463835E+03  0.25500000920E-02 0.  1.
    10030    2    1    2    0    0  0.00000000000E+00  0.00000000000E+00  0.11685906745E+04  0.14752999511E+04  0.90050307129E+03 0.  0.
        1    1    3    3  502    0 -0.18458328046E+03  0.35291161054E+03  0.92837421429E+03  0.10101961562E+04  0.50400001928E-02 0. -1.
       -1    1    3    3    0  502  0.18458328046E+03 -0.35291161054E+03  0.24021646016E+03  0.46510379490E+03  0.50400001928E-02 0.  1.
</event>
<event>
 5   0  0.9697941E-04  0.8987219E+03  0.7818609E-02  0.9427181E-01
        1   -1    0    0  501    0  0.00000000000E+00  0.00000000000E+00  0.90756171743E+03  0.90756171744E+03  0.50400001928E-02 0.  1.
       -1   -1    0    0    0  501  0.00000000000E+00  0.00000000000E+00 -0.22249202794E+03  0.22249202800E+03  0.50400001928E-02 0. -1.
    10030    2    1    2    0    0  0.00000000000E+00  0.00000000000E+00  0.68506968948E+03  0.11300537454E+04  0.89872186361E+03 0.  0.
        5    1    3    3  502    0  0.36732460104E+03 -0.11123079373E+03  0.63635667018E+03  0.74314975186E+03  0.46999998093E+01 0.  1.
       -5    1    3    3    0  502 -0.36732460104E+03  0.11123079373E+03  0.48713019301E+02  0.38690399358E+03  0.46999998093E+01 0. -1.
</event>
<event>
 5   0  0.9321543E-04  0.8998678E+03  0.7818609E-02  0.9425747E-01
       -1   -1    0    0    0  501  0.00000000000E+00  0.00000000000E+00  0.16103567412E+03  0.16103567420E+03  0.50400001928E-02 0. -1.
        1   -1    0    0  501    0  0.00000000000E+00  0.00000000000E+00 -0.12571159731E+04  0.12571159731E+04  0.50400001928E-02 0.  1.
    10030    2    1    2    0    0  0.00000000000E+00  0.00000000000E+00 -0.10960802989E+04  0.14181516473E+04  0.89986780859E+03 0.  0.
        3    1    3    3  502    0 -0.11401988850E+03  0.15800428446E+03 -0.11871763294E+04  0.12030600718E+04  0.10100000352E+00 0.  1.
       -3    1    3    3    0  502  0.11401988850E+03 -0.15800428446E+03  0.91096030501E+02  0.21509157551E+03  0.10100000352E+00 0. -1.
</event>
<event>
 5   0  0.9321543E-04  0.8996033E+03  0.7818609E-02  0.9426077E-01
        1   -1    0    0  501    0  0.00000000000E+00  0.00000000000E+00  0.73322099937E+03  0.73322099939E+03  0.50400001928E-02 0. -1.
       -1   -1    0    0    0  501  0.00000000000E+00  0.00000000000E+00 -0.27593524546E+03  0.27593524550E+03  0.50400001928E-02 0.  1.
    10030    2    1    2    0    0  0.00000000000E+00  0.00000000000E+00  0.45728575391E+03  0.10091562449E+04  0.89960328249E+03 0.  0.
        3    1    3    3  502    0 -0.24377242935E+03 -0.39927928604E+02 -0.19303609967E+03  0.31349989278E+03  0.10100000352E+00 0.  1.
       -3    1    3    3    0  502  0.24377242935E+03  0.39927928604E+02  0.65032185358E+03  0.69565635212E+03  0.10100000352E+00 0. -1.
</event>
<event>
 5   0  0.9223454E-04  0.8977338E+03  0.7818609E-02  0.9428419E-01
        1   -1    0    0  501    0  0.00000000000E+00  0.00000000000E+00  0.74417532373E+03  0.74417532375E+03  0.50400001928E-02 0.  1.
       -1   -1    0    0    0  501  0.00000000000E+00  0.00000000000E+00 -0.27074463318E+03  0.27074463323E+03  0.50400001928E-02 0. -1.
    10030    2    1    2    0    0  0.00000000000E+00  0.00000000000E+00  0.47343069055E+03  0.10149199570E+04  0.89773375804E+03 0.  0.
        1    1    3    3  502    0 -0.29159807127E+03 -0.22602933401E+03  0.52574971826E+03  0.64228612104E+03  0.50400001928E-02 0.  1.
       -1    1    3    3    0  502  0.29159807127E+03  0.22602933401E+03 -0.52319027712E+02  0.37263383594E+03  0.50400001928E-02 0. -1.
</event>
<event>
 5   0  0.1704416E-03  0.9079247E+03  0.7818609E-02  0.9415729E-01
        2   -1    0    0  501    0  0.00000000000E+00  0.00000000000E+00  0.22583740586E+04  0.22583740586E+04  0.25500000920E-02 0.  1.
       -2   -1    0    0    0  501  0.00000000000E+00  0.00000000000E+00 -0.91252299717E+02  0.91252299752E+02  0.25500000920E-02 0. -1.
    10030    2    1    2    0    0  0.00000000000E+00  0.00000000000E+00  0.21671217589E+04  0.23496263584E+04  0.90792472488E+03 0.  0.
        3    1    3    3  502    0 -0.34181024023E+03  0.26789403330E+03  0.14257168988E+04  0.14903926125E+04  0.10100000352E+00 0.  1.
       -3    1    3    3    0  502  0.34181024023E+03 -0.26789403330E+03  0.74140486005E+03  0.85923374591E+03  0.10100000352E+00 0. -1.
</event>
<event>
 5   0  0.9697941E-04  0.8981842E+03  0.7818609E-02  0.9427854E-01
       -1   -1    0    0    0  501  0.00000000000E+00  0.00000000000E+00  0.73280394605E+03  0.73280394607E+03  0.50400001928E-02 0.  1.
        1   -1    0    0  501    0  0.00000000000E+00  0.00000000000E+00 -0.27522194290E+03  0.27522194294E+03  0.50400001928E-02 0. -1.
    10030    2    1    2    0    0  0.00000000000E+00  0.00000000000E+00  0.45758200316E+03  0.10080258890E+04  0.89818422571E+03 0.  0.
        5    1    3    3  502    0 -0.40130423134E+03  0.22246532943E+02  0.45359064045E+03  0.60605820960E+03  0.46999998093E+01 0.  1.
       -5    1    3    3    0  502  0.40130423134E+03 -0.22246532943E+02  0.39913627108E+01  0.40196767942E+03  0.46999998093E+01 0. -1.
</event>
<event>
 5   0  0.1704416E-03  0.8963165E+03  0.7818609E-02  0.9430198E-01
       -2   -1    0    0    0  501  0.00000000000E+00  0.00000000000E+00  0.20196032523E+03  0.20196032525E+03  0.25500000920E-02 0.  1.
        2   -1    0    0  501    0  0.00000000000E+00  0.00000000000E+00 -0.99448149638E+03  0.99448149638E+03  0.25500000920E-02 0. -1.
    10030    2    1    2    0    0  0.00000000000E+00  0.00000000000E+00 -0.79252117115E+03  0.11964418216E+04  0.89631647638E+03 0.  0.
        3    1    3    3  502    0  0.27089629904E+03 -0.80912091721E+02 -0.86042185965E+03  0.90568060496E+03  0.10100000352E+00 0. -1.
       -3    1    3    3    0  502 -0.27089629904E+03  0.80912091721E+02  0.67900688505E+02  0.29076121667E+03  0.10100000352E+00 0.  1.
</event>
<event>
 5   0  0.1635686E-03  0.9004033E+03  0.7818609E-02  0.9425077E-01
        2   -1    0    0  501    0  0.00000000000E+00  0.00000000000E+00  0.12376295503E+04  0.12376295503E+04  0.25500000920E-02 0. -1.
       -2   -1    0    0    0  501  0.00000000000E+00  0.00000000000E+00 -0.16376591148E+03  0.16376591150E+03  0.25500000920E-02 0.  1.
    10030    2    1    2    0    0  0.00000000000E+00  0.00000000000E+00  0.10738636388E+04  0.14013954618E+04  0.90040331271E+03 0.  0.
        5    1    3    3  502    0  0.19710532596E+03 -0.38703050455E+03  0.35266776148E+03  0.55949956297E+03  0.46999998093E+01 0.  1.
       -5    1    3    3    0  502 -0.19710532596E+03  0.38703050455E+03  0.72119587731E+03  0.84189589880E+03  0.46999998093E+01 0. -1.
</event>
<event>
 5   0  0.1007561E-03  0.9000944E+03  0.7818609E-02  0.9425463E-01
        1   -1    0    0  501    0  0.00000000000E+00  0.00000000000E+00  0.53618184325E+03  0.53618184327E+03  0.50400001928E-02 0.  1.
       -1   -1    0    0    0  501  0.00000000000E+00  0.00000000000E+00 -0.37774960286E+03  0.37774960290E+03  0.50400001928E-02 0. -1.
    10030    2    1    2    0    0  0.00000000000E+00  0.00000000000E+00  0.15843224038E+03  0.91393144617E+03  0.90009439144E+03 0.  0.
        2    1    3    3  502    0  0.39180789124E+03  0.91786721562E+01 -0.14541962981E+03  0.41802456913E+03  0.25500000920E-02 0. -1.
       -2    1    3    3    0  502 -0.39180789124E+03 -0.91786721562E+01  0.30385187019E+03  0.49590687703E+03  0.25500000920E-02 0.  1.
</event>
<event>
 5   0  0.9981885E-04  0.8926554E+03  0.7818609E-02  0.9434809E-01
       -1   -1    0    0    0  501  0.00000000000E+00  0.00000000000E+00  0.53957230711E+03  0.53957230713E+03  0.50400001928E-02 0. -1.
        1   -1    0    0  501    0  0.00000000000E+00  0.00000000000E+00 -0.36919689112E+03  0.36919689115E+03  0.50400001928E-02 0.  1.
    10030    2    1    2    0    0  0.00000000000E+00  0.00000000000E+00  0.17037541599E+03  0.90876919828E+03  0.89265540573E+03 0.  0.
        4    1    3    3  502    0  0.22711747865E+03  0.23764882695E+03  0.39254400803E+03  0.51200754408E+03  0.12699999809E+01 0. -1.
       -4    1    3    3    0  502 -0.22711747865E+03 -0.23764882695E+03 -0.22216859203E+03  0.39676165420E+03  0.12699999809E+01 0.  1.
</event>
<event>
 5   0  0.1536020E-03  0.8991829E+03  0.7818609E-02  0.9426603E-01
        2   -1    0    0  501    0  0.00000000000E+00  0.00000000000E+00  0.95870258505E+03  0.95870258506E+03  0.25500000920E-02 0. -1.
       -2   -1    0    0    0  501  0.00000000000E+00  0.00000000000E+00 -0.21083962422E+03  0.21083962424E+03  0.25500000920E-02 0.  1.
    10030    2    1    2    0    0  0.00000000000E+00  0.00000000000E+00  0.74786296083E+03  0.11695422093E+04  0.89918294642E+03 0.  0.
        2    1    3    3  502    0  0.10232055273E+03  0.78396095006E+02 -0.18628999509E+03  0.22653786769E+03  0.25500000920E-02 0.  1.
       -2    1    3    3    0  502 -0.10232055273E+03 -0.78396095006E+02  0.93415295592E+03  0.94300434160E+03  0.25500000920E-02 0. -1.
</event>
<event>
 5   0  0.1704416E-03  0.8988323E+03  0.7818609E-02  0.9427042E-01
        2   -1    0    0  501    0  0.00000000000E+00  0.00000000000E+00  0.97847563674E+03  0.97847563674E+03  0.25500000920E-02 0. -1.
       -2   -1    0    0    0  501  0.00000000000E+00  0.00000000000E+00 -0.20641790527E+03  0.20641790528E+03  0.25500000920E-02 0.  1.
    10030    2    1    2    0    0  0.00000000000E+00  0.00000000000E+00  0.77205773147E+03  0.11848935420E+04  0.89883233431E+03 0.  0.
        3    1    3    3  502    0  0.40724015577E+03 -0.12361011196E+03  0.57638321620E+03  0.71647862939E+03  0.10100000352E+00 0. -1.
       -3    1    3    3    0  502 -0.40724015577E+03  0.12361011196E+03  0.19567451527E+03  0.46841491264E+03  0.10100000352E+00 0.  1.
</event>
<event>
 5   0  0.9223454E-04  0.9055782E+03  0.7818609E-02  0.9418635E-01
        1   -1    0    0  501    0  0.00000000000E+00  0.00000000000E+00  0.87980345268E+03  0.87980345270E+03  0.50400001928E-02 0. -1.
       -1   -1    0    0    0  501  0.00000000000E+00  0.00000000000E+00 -0.23302701635E+03  0.23302701640E+03  0.50400001928E-02 0.  1.
    10030    2    1    2    0    0  0.00000000000E+00  0.00000000000E+00  0.64677643633E+03  0.11128304691E+04  0.90557820996E+03 0.  0.
        1    1    3    3  502    0  0.45155113140E+03  0.29550087475E+02  0.34267554068E+03  0.56762501544E+03  0.50400001928E-02 0.  1.
       -1    1    3    3    0  502 -0.45155113140E+03 -0.29550087475E+02  0.30410089565E+03  0.54520545366E+03  0.50400001928E-02 0. -1.
</event>
<event>
 5   0  0.1635686E-03  0.8993115E+03  0.7818609E-02  0.9426443E-01
       -2   -1    0    0    0  501  0.00000000000E+00  0.00000000000E+00  0.64630312875E+03  0.64630312876E+03  0.25500000920E-02 0.  1.
        2   -1    0    0  501    0  0.00000000000E+00  0.00000000000E+00 -0.31284125854E+03  0.31284125855E+03  0.25500000920E-02 0. -1.
    10030    2    1    2    0    0  0.00000000000E+00  0.00000000000E+00  0.33346187021E+03  0.95914438731E+03  0.89931147931E+03 0.  0.
        5    1    3    3  502    0 -0.20410959128E+03  0.16752331389E+03  0.55487149396E+03  0.61451546015E+03  0.46999998093E+01 0.  1.
       -5    1    3    3    0  502  0.20410959128E+03 -0.16752331389E+03 -0.22140962376E+03  0.34462892716E+03  0.46999998093E+01 0. -1.
</event>
<event>
 5   0  0.9981885E-04  0.8998280E+03  0.7818609E-02  0.9425796E-01
       -1   -1    0    0    0  501  0.00000000000E+00  0.00000000000E+00  0.96694276630E+03  0.96694276631E+03  0.50400001928E-02 0. -1.
        1   -1    0    0  501    0  0.00000000000E+00  0.00000000000E+00 -0.20934289581E+03  0.20934289587E+03  0.50400001928E-02 0.  1.
    10030    2    1    2    0    0  0.00000000000E+00  0.00000000000E+00  0.75759987049E+03  0.11762856622E+04  0.89982798095E+03 0.  0.
        4    1    3    3  502    0 -0.32996393013E+03 -0.69340940330E+02  0.76820783922E+03  0.83894532500E+03  0.12699999809E+01 0. -1.
       -4    1    3    3    0  502  0.32996393013E+03  0.69340940330E+02 -0.10607968735E+02  0.33734033719E+03  0.12699999809E+01 0.  1.
</event>
<event>
 5   0  0.9697941E-04  0.9004021E+03  0.7818609E-02  0.9425079E-01
        1   -1    0    0  501    0  0.00000000000E+00  0.00000000000E+00  0.55382613186E+03  0.55382613188E+03  0.50400001928E-02 0. -1.
       -1   -1    0    0    0  501  0.00000000000E+00  0.00000000000E+00 -0.36596499526E+03  0.36596499529E+03  0.50400001928E-02 0.  1.
    10030    2    1    2    0    0  0.00000000000E+00  0.00000000000E+00  0.18786113660E+03  0.91979112717E+03  0.90040208295E+03 0.  0.
        5    1    3    3  502    0 -0.59142147003E+02 -0.29849262902E+03  0.43283237223E+03  0.52911397220E+03  0.46999998093E+01 0. -1.
       -5    1    3    3    0  502  0.59142147003E+02  0.29849262902E+03 -0.24497123563E+03  0.39067715497E+03  0.46999998093E+01 0.  1.
</event>
<event>
 5   0  0.1536020E-03  0.9002305E+03  0.7818609E-02  0.9425293E-01
        2   -1    0    0  501    0  0.00000000000E+00  0.00000000000E+00  0.94154067146E+03  0.94154067146E+03  0.25500000920E-02 0. -1.
       -2   -1    0    0    0  501  0.00000000000E+00  0.00000000000E+00 -0.21518322081E+03  0.21518322083E+03  0.25500000920E-02 0.  1.
    10030    2    1    2    0    0  0.00000000000E+00  0.00000000000E+00  0.72635745065E+03  0.11567238923E+04  0.90023053541E+03 0.  0.
        2    1    3    3  502    0 -0.33880413269E+03  0.29587858023E+03  0.34201146732E+03  0.56507010039E+03  0.25500000920E-02 0. -1.
       -2    1    3    3    0  502  0.33880413269E+03 -0.29587858023E+03  0.38434598333E+03  0.59165379190E+03  0.25500000920E-02 0.  1.
</event>
<event>
 5   0  0.9223454E-04  0.9008451E+03  0.7818609E-02  0.9424526E-01
       -1   -1    0    0    0  501  0.00000000000E+00  0.00000000000E+00  0.26732766315E+03  0.26732766319E+03  0.50400001928E-02 0. -1.
        1   -1    0    0  501    0  0.00000000000E+00  0.00000000000E+00 -0.75892058645E+03  0.75892058647E+03  0.50400001928E-02 0.  1.
    10030    2    1    2    0    0  0.00000000000E+00  0.00000000000E+00 -0.49159292330E+03  0.10262482497E+04  0.90084508529E+03 0.  0.
        1    1    3    3  502    0 -0.11508628661E+03  0.19056710738E+02  0.24982034357E+03  0.27571401066E+03  0.50400001928E-02 0. -1.
       -1    1    3    3    0  502  0.11508628661E+03 -0.19056710738E+02 -0.74141326687E+03  0.75053423900E+03  0.50400001928E-02 0.  1.
</event>
<event>
 5   0  0.1007561E-03  0.8974885E+03  0.7818609E-02  0.9428726E-01
        1   -1    0    0  501    0  0.00000000000E+00  0.00000000000E+00  0.55876484347E+03  0.55876484349E+03  0.50400001928E-02 0. -1.
       -1   -1    0    0    0  501  0.00000000000E+00  0.00000000000E+00 -0.36038665519E+03  0.36038665523E+03  0.50400001928E-02 0.  1.
    10030    2    1    2    0    0  0.00000000000E+00  0.00000000000E+00  0.19837818827E+03  0.91915149872E+03  0.89748848016E+03 0.  0.
        2    1    3    3  502    0 -0.32345909697E+03 -0.30592557591E+03  0.41662580310E+02  0.44715994456E+03  0.25500000920E-02 0. -1.
       -2    1    3    3    0  502  0.32345909697E+03  0.30592557591E+03  0.15671560796E+03  0.47199155416E+03  0.25500000920E-02 0.  1.
</event>
<event>
 5   0  0.1635686E-03  0.9222969E+03  0.7818609E-02  0.9398131E-01
       -2   -1    0    0    0  501  0.00000000000E+00  0.00000000000E+00  0.16206500962E+03  0.16206500964E+03  0.25500000920E-02 0.  1.
        2   -1    0    0  501    0  0.00000000000E+00  0.00000000000E+00 -0.13121765253E+04  0.13121765253E+04  0.25500000920E-02 0. -1.
    10030    2    1    2    0    0  0.00000000000E+00  0.00000000000E+00 -0.11501115157E+04  0.14742415350E+04  0.92229691794E+03 0.  0.
        5    1    3    3  502    0  0.72855884902E+02 -0.21348913078E+02  0.15196832947E+03  0.16994181126E+03  0.46999998093E+01 0.  1.
       -5    1    3    3    0  502 -0.72855884902E+02  0.21348913078E+02 -0.13020798452E+04  0.13042997237E+04  0.46999998093E+01 0. -1.
</event>
<event>
 5   0  0.1630202E-03  0.8938010E+03  0.7818609E-02  0.9433364E-01
        2   -1    0    0  501    0  0.00000000000E+00  0.00000000000E+00  0.84216429602E+03  0.84216429603E+03  0.25500000920E-02 0.  1.
       -2   -1    0    0    0  501  0.00000000000E+00  0.00000000000E+00 -0.23715091785E+03  0.23715091786E+03  0.25500000920E-02 0. -1.
    10030    2    1    2    0    0  0.00000000000E+00  0.00000000000E+00  0.60501337817E+03  0.10793152139E+04  0.89380095276E+03 0.  0.
        4    1    3    3  502    0  0.20762344017E+03 -0.38596179981E+03  0.40808622029E+03  0.59884052961E+03  0.12699999809E+01 0. -1.
       -4    1    3    3    0  502 -0.20762344017E+03  0.38596179981E+03  0.19692715789E+03  0.48047468428E+03  0.12699999809E+01 0.  1.
</event>
<event>
 5   0  0.1007561E-03  0.9035361E+03  0.7818609E-02  0.9421172E-01
        1   -1    0    0  501    0  0.00000000000E+00  0.00000000000E+00  0.10907206495E+04  0.10907206495E+04  0.50400001928E-02 0. -1.
       -1   -1    0    0    0  501  0.00000000000E+00  0.00000000000E+00 -0.18711881595E+03  0.18711881602E+03  0.50400001928E-02 0.  1.
    10030    2    1    2    0    0  0.00000000000E+00  0.00000000000E+00  0.90360183355E+03  0.12778394655E+04  0.90353606794E+03 0.  0.
        2    1    3    3  502    0  0.41380068418E+03  0.15828435613E+03  0.32682106775E+03  0.55054241794E+03  0.25500000920E-02 0.  1.
       -2    1    3    3    0  502 -0.41380068418E+03 -0.15828435613E+03  0.57678076580E+03  0.72729704759E+03  0.25500000920E-02 0. -1.
</event>
<event>
 5   0  0.9321543E-04  0.8988269E+03  0.7818609E-02  0.9427049E-01
        1   -1    0    0  501    0  0.00000000000E+00  0.00000000000E+00  0.10567209645E+04  0.10567209645E+04  0.50400001928E-02 0.  1.
       -1   -1    0    0    0  501  0.00000000000E+00  0.00000000000E+00 -0.19113130663E+03  0.19113130670E+03  0.50400001928E-02 0. -1.
    10030    2    1    2    0    0  0.00000000000E+00  0.00000000000E+00  0.86558965789E+03  0.12478522712E+04  0.89882692158E+03 0.  0.
        3    1    3    3  502    0  0.14082683565E+03 -0.19664316512E+03  0.95865496455E+03  0.98869615316E+03  0.10100000352E+00 0.  1.
       -3    1    3    3    0  502 -0.14082683565E+03  0.19664316512E+03 -0.93065306657E+02  0.25915611807E+03  0.10100000352E+00 0. -1.
</event>
<event>
 5   0  0.1007561E-03  0.9003287E+03  0.7818609E-02  0.9425171E-01
        1   -1    0    0  501    0  0.00000000000E+00  0.00000000000E+00  0.38173553755E+03  0.38173553758E+03  0.50400001928E-02 0.  1.
       -1   -1    0    0    0  501  0.00000000000E+00  0.00000000000E+00 -0.53085955055E+03  0.53085955057E+03  0.50400001928E-02 0. -1.
    10030    2    1    2    0    0  0.00000000000E+00  0.00000000000E+00 -0.14912401300E+03  0.91259508815E+03  0.90032873089E+03 0.  0.
        2    1    3    3  502    0 -0.90760267102E+02 -0.11275666128E+03  0.35750415711E+03  0.38569510381E+03  0.25500000920E-02 0.  1.
       -2    1    3    3    0  502  0.90760267102E+02  0.11275666128E+03 -0.50662817011E+03  0.52689998434E+03  0.25500000920E-02 0. -1.
</event>
<event>
 5   0  0.1704416E-03  0.8955128E+03  0.7818609E-02  0.9431208E-01
        2   -1    0    0  501    0  0.00000000000E+00  0.00000000000E+00  0.92737470302E+03  0.92737470302E+03  0.25500000920E-02 0.  1.
       -2   -1    0    0    0  501  0.00000000000E+00  0.00000000000E+00 -0.21618641503E+03  0.21618641505E+03  0.25500000920E-02 0. -1.
    10030    2    1    2    0    0  0.00000000000E+00  0.00000000000E+00  0.71118828798E+03  0.11435611181E+04  0.89551284178E+03 0.  0.
        3    1    3    3  502    0 -0.29198852577E+02  0.43999949048E+03  0.25640169475E+03  0.51009211314E+03  0.10100000352E+00 0. -1.
       -3    1    3    3    0  502  0.29198852577E+02 -0.43999949048E+03  0.45478659324E+03  0.63346900493E+03  0.10100000352E+00 0.  1.
</event>
<event>
 5   0  0.9697941E-04  0.9012135E+03  0.7818609E-02  0.9424066E-01
        1   -1    0    0  501    0  0.00000000000E+00  0.00000000000E+00  0.53230598822E+03  0.53230598824E+03  0.50400001928E-02 0.  1.
       -1   -1    0    0    0  501  0.00000000000E+00  0.00000000000E+00 -0.38144682857E+03  0.38144682860E+03  0.50400001928E-02 0. -1.
    10030    2    1    2    0    0  0.00000000000E+00  0.00000000000E+00  0.15085915965E+03  0.91375281685E+03  0.90121347318E+03 0.  0.
        5    1    3    3  502    0  0.12119180170E+03  0.25571775325E+03 -0.28008470191E+03  0.39818155704E+03  0.46999998093E+01 0. -1.
       -5    1    3    3    0  502 -0.12119180170E+03 -0.25571775325E+03  0.43094386156E+03  0.51557125981E+03  0.46999998093E+01 0.  1.
</event>
<event>
 5   0  0.9981885E-04  0.8978269E+03  0.7818609E-02  0.9428302E-01
        1   -1    0    0  501    0  0.00000000000E+00  0.00000000000E+00  0.13289681642E+04  0.13289681642E+04  0.50400001928E-02 0.  1.
       -1   -1    0    0    0  501  0.00000000000E+00  0.00000000000E+00 -0.15163889819E+03  0.15163889827E+03  0.50400001928E-02 0. -1.
    10030    2    1    2    0    0  0.00000000000E+00  0.00000000000E+00  0.11773292660E+04  0.14806070625E+04  0.89782686129E+03 0.  0.
        4    1    3    3  502    0  0.38408315958E+03 -0.83890391044E+02  0.94604493636E+03  0.10244804077E+04  0.12699999809E+01 0.  1.
       -4    1    3    3    0  502 -0.38408315958E+03  0.83890391044E+02  0.23128432964E+03  0.45612665480E+03  0.12699999809E+01 0. -1.
</event>
<event>
 5   0  0.9321543E-04  0.8980045E+03  0.7818609E-02  0.9428079E-01
        1   -1    0    0  501    0  0.00000000000E+00  0.00000000000E+00  0.16805512610E+04  0.16805512610E+04  0.50400001928E-02 0.  1.
       -1   -1    0    0    0  501  0.00000000000E+00  0.00000000000E+00 -0.11996244076E+03  0.11996244087E+03  0.50400001928E-02 0. -1.
    10030    2    1    2    0    0  0.00000000000E+00  0.00000000000E+00  0.15605888203E+04  0.18005137019E+04  0.89800452382E+03 0.  0.
        3    1    3    3  502    0  0.30103638283E+03  0.51130376236E+02  0.14403249495E+04  0.14723359635E+04  0.10100000352E+00 0.  1.
       -3    1    3    3    0  502 -0.30103638283E+03 -0.51130376236E+02  0.12026387079E+03  0.32817773839E+03  0.10100000352E+00 0. -1.
</event>
<event>
 5   0  0.1641516E-03  0.9015022E+03  0.7818609E-02  0.9423706E-01
       -2   -1    0    0    0  501  0.00000000000E+00  0.00000000000E+00  0.99867865588E+02  0.99867865620E+02  0.25500000920E-02 0.  1.
        2   -1    0    0  501    0  0.00000000000E+00  0.00000000000E+00 -0.20344538722E+04  0.20344538722E+04  0.25500000920E-02 0. -1.
    10030    2    1    2    0    0  0.00000000000E+00  0.00000000000E+00 -0.19345860066E+04  0.21343217378E+04  0.90150222604E+03 0.  0.
        1    1    3    3  502    0 -0.31193082243E+03 -0.91100413991E+02 -0.17068396535E+04  0.17374986981E+04  0.50400001928E-02 0. -1.
       -1    1    3    3    0  502  0.31193082243E+03  0.91100413991E+02 -0.22774635313E+03  0.39682303965E+03  0.50400001928E-02 0.  1.
</event>
<event>
 5   0  0.9223454E-04  0.8991209E+03  0.7818609E-02  0.9426681E-01
       -1   -1    0    0    0  501  0.00000000000E+00  0.00000000000E+00  0.27940485139E+03  0.27940485144E+03  0.50400001928E-02 0.  1.
        1   -1    0    0  501    0  0.00000000000E+00  0.00000000000E+00 -0.72333963652E+03  0.72333963654E+03  0.50400001928E-02 0. -1.
    10030    2    1    2    0    0  0.00000000000E+00  0.00000000000E+00 -0.44393478513E+03  0.10027444880E+04  0.89912091218E+03 0.  0.
        1    1    3    3  502    0 -0.32930133934E+03  0.20052512263E+03  0.35881916927E+02  0.38721726316E+03  0.50400001928E-02 0.  1.
       -1    1    3    3    0  502  0.32930133934E+03 -0.20052512263E+03 -0.47981670206E+03  0.61552722482E+03  0.50400001928E-02 0. -1.
</event>
<event>
 5   0  0.1704416E-03  0.8995462E+03  0.7818609E-02  0.9426149E-01
        2   -1    0    0  501    0  0.00000000000E+00  0.00000000000E+00  0.55246064019E+03  0.55246064020E+03  0.25500000920E-02 0.  1.
       -2   -1    0    0    0  501  0.00000000000E+00  0.00000000000E+00 -0.36617238299E+03  0.36617238300E+03  0.25500000920E-02 0. -1.
    10030    2    1    2    0    0  0.00000000000E+00  0.00000000000E+00  0.18628825720E+03  0.91863302320E+03  0.89954617255E+03 0.  0.
        3    1    3    3  502    0 -0.14407198442E+03 -0.19757960817E+03  0.47864745475E+03  0.53749217148E+03  0.10100000352E+00 0.  1.
       -3    1    3    3    0  502  0.14407198442E+03  0.19757960817E+03 -0.29235919755E+03  0.38114085172E+03  0.10100000352E+00 0. -1.
</event>
<event>
 5   0  0.1704416E-03  0.8977142E+03  0.7818609E-02  0.9428443E-01
        2   -1    0    0  501    0  0.00000000000E+00  0.00000000000E+00  0.23589758867E+04  0.23589758867E+04  0.25500000920E-02 0. -1.
       -2   -1    0    0    0  501  0.00000000000E+00  0.00000000000E+00 -0.85406857979E+02  0.85406858017E+02  0.25500000920E-02 0.  1.
    10030    2    1    2    0    0  0.00000000000E+00  0.00000000000E+00  0.22735690287E+04  0.24443827447E+04  0.89771424980E+03 0.  0.
        3    1    3    3  502    0  0.31340715404E+03  0.25979318435E+03  0.16516651516E+04  0.17010920980E+04  0.10100000352E+00 0. -1.
       -3    1    3    3    0  502 -0.31340715404E+03 -0.25979318435E+03  0.62190387708E+03  0.74329064663E+03  0.10100000352E+00 0.  1.
</event>
<event>
 5   0  0.1630202E-03  0.8981554E+03  0.7818609E-02  0.9427890E-01
        2   -1    0    0  501    0  0.00000000000E+00  0.00000000000E+00  0.39616204292E+03  0.39616204293E+03  0.25500000920E-02 0. -1.
       -2   -1    0    0    0  501  0.00000000000E+00  0.00000000000E+00 -0.50906134060E+03  0.50906134060E+03  0.25500000920E-02 0.  1.
    10030    2    1    2    0    0  0.00000000000E+00  0.00000000000E+00 -0.11289929767E+03  0.90522338353E+03  0.89815540007E+03 0.  0.
        4    1    3    3  502    0  0.47411659705E+02  0.19148181076E+03  0.35015543759E+03  0.40189997848E+03  0.12699999809E+01 0. -1.
       -4    1    3    3    0  502 -0.47411659705E+02 -0.19148181076E+03 -0.46305473526E+03  0.50332340506E+03  0.12699999809E+01 0.  1.
</event>
<event>
 5   0  0.9321543E-04  0.8965231E+03  0.7818609E-02  0.9429938E-01
       -1   -1    0    0    0  501  0.00000000000E+00  0.00000000000E+00  0.31977818186E+03  0.31977818190E+03  0.50400001928E-02 0. -1.
        1   -1    0    0  501    0  0.00000000000E+00  0.00000000000E+00 -0.62836811239E+03  0.62836811241E+03  0.50400001928E-02 0.  1.
    10030    2    1    2    0    0  0.00000000000E+00  0.00000000000E+00 -0.30858993054E+03  0.94814629431E+03  0.89652308960E+03 0.  0.
        3    1    3    3  502    0 -0.25872744852E+02  0.14835945250E+03 -0.60081296221E+03  0.61939983196E+03  0.10100000352E+00 0.  1.
       -3    1    3    3    0  502  0.25872744852E+02 -0.14835945250E+03  0.29222303167E+03  0.32874646236E+03  0.10100000352E+00 0. -1.
</event>
<event>
 5   0  0.1630202E-03  0.8977064E+03  0.7818609E-02  0.9428453E-01
       -2   -1    0    0    0  501  0.00000000000E+00  0.00000000000E+00  0.78023386475E+03  0.78023386475E+03  0.25500000920E-02 0. -1.
        2   -1    0    0  501    0  0.00000000000E+00  0.00000000000E+00 -0.25821643450E+03  0.25821643451E+03  0.25500000920E-02 0.  1.
    10030    2    1    2    0    0  0.00000000000E+00  0.00000000000E+00  0.52201743025E+03  0.10384502993E+04  0.89770642560E+03 0.  0.
        4    1    3    3  502    0  0.31427880918E+03 -0.45717000607E+02  0.62792259653E+03  0.70366868210E+03  0.12699999809E+01 0. -1.
       -4    1    3    3    0  502 -0.31427880918E+03  0.45717000607E+02 -0.10590516628E+03  0.33478161716E+03  0.12699999809E+01 0.  1.
</event>
<event>
 5   0  0.9697941E-04  0.9052639E+03  0.7818609E-02  0.9419025E-01
       -1   -1    0    0    0  501  0.00000000000E+00  0.00000000000E+00  0.83652332037E+02  0.83652332189E+02  0.50400001928E-02 0.  1.
        1   -1    0    0  501    0  0.00000000000E+00  0.00000000000E+00 -0.24491329228E+04  0.24491329228E+04  0.50400001928E-02 0. -1.
    10030    2    1    2    0    0  0.00000000000E+00  0.00000000000E+00 -0.23654805908E+04  0.25327852550E+04  0.90526389669E+03 0.  0.
        5    1    3    3  502    0 -0.53812407360E+02 -0.66138259887E+02  0.60910799597E+02  0.10489165893E+03  0.46999998093E+01 0.  1.
       -5    1    3    3    0  502  0.53812407360E+02  0.66138259887E+02 -0.24263913904E+04  0.24278935961E+04  0.46999998093E+01 0. -1.
</event>
<event>
 5   0  0.1641516E-03  0.9009536E+03  0.7818609E-02  0.9424390E-01
        2   -1    0    0  501    0  0.00000000000E+00  0.00000000000E+00  0.77067575534E+03  0.77067575534E+03  0.25500000920E-02 0.  1.
       -2   -1    0    0    0  501  0.00000000000E+00  0.00000000000E+00 -0.26331353732E+03  0.26331353733E+03  0.25500000920E-02 0. -1.
    10030    2    1    2    0    0  0.00000000000E+00  0.00000000000E+00  0.50736221802E+03  0.10339892927E+04  0.90095362649E+03 0.  0.
        1    1    3    3  502    0  0.35387974593E+03  0.10511664586E+03 -0.42604353196E+02  0.37161204872E+03  0.50400001928E-02 0. -1.
       -1    1    3    3    0  502 -0.35387974593E+03 -0.10511664586E+03  0.54996657122E+03  0.66237724395E+03  0.50400001928E-02 0.  1.
</event>
<event>
 5   0  0.1007561E-03  0.9038760E+03  0.7818609E-02  0.9420749E-01
        1   -1    0    0  501    0  0.00000000000E+00  0.00000000000E+00  0.32622030216E+03  0.32622030220E+03  0.50400001928E-02 0.  1.
       -1   -1    0    0    0  501  0.00000000000E+00  0.00000000000E+00 -0.62610436151E+03  0.62610436153E+03  0.50400001928E-02 0. -1.
    10030    2    1    2    0    0  0.00000000000E+00  0.00000000000E+00 -0.29988405935E+03  0.95232466373E+03  0.90387599598E+03 0.  0.
        2    1    3    3  502    0 -0.19524332777E+03  0.10312706904E+03  0.26551998945E+03  0.34533464091E+03  0.25500000920E-02 0.  1.
       -2    1    3    3    0  502  0.19524332777E+03 -0.10312706904E+03 -0.56540404880E+03  0.60699002283E+03  0.25500000920E-02 0. -1.
</event>
<event>
 5   0  0.1635686E-03  0.9013643E+03  0.7818609E-02  0.9423878E-01
        2   -1    0    0  501    0  0.00000000000E+00  0.00000000000E+00  0.12162153904E+04  0.12162153904E+04  0.25500000920E-02 0. -1.
       -2   -1    0    0    0  501  0.00000000000E+00  0.00000000000E+00 -0.16700529834E+03  0.16700529836E+03  0.25500000920E-02 0.  1.
    10030    2    1    2    0    0  0.00000000000E+00  0.00000000000E+00  0.10492100921E+04  0.13832206888E+04  0.90136433063E+03 0.  0.
        5    1    3    3  502    0  0.15517125686E+03  0.42308680672E+03  0.52986738910E+03  0.69560197312E+03  0.46999998093E+01 0. -1.
       -5    1    3    3    0  502 -0.15517125686E+03 -0.42308680672E+03  0.51934270298E+03  0.68761871565E+03  0.46999998093E+01 0.  1.
</event>
<event>
 5   0  0.9321543E-04  0.9040284E+03  0.7818609E-02  0.9420560E-01
        1   -1    0    0  501    0  0.00000000000E+00  0.00000000000E+00  0.29930347264E+03  0.29930347268E+03  0.50400001928E-02 0. -1.
       -1   -1    0    0    0  501  0.00000000000E+00  0.00000000000E+00 -0.68264101549E+03  0.68264101550E+03  0.50400001928E-02 0.  1.
    10030    2    1    2    0    0  0.00000000000E+00  0.00000000000E+00 -0.38333754285E+03  0.98194448818E+03  0.90402837683E+03 0.  0.
        3    1    3    3  502    0 -0.30173024155E+03  0.40589903036E+01 -0.55721442381E+03  0.63367620941E+03  0.10100000352E+00 0.  1.
       -3    1    3    3    0  502  0.30173024155E+03 -0.40589903036E+01  0.17387688096E+03  0.34826827878E+03  0.10100000352E+00 0. -1.
</event>
<event>
 5   0  0.9321543E-04  0.9005453E+03  0.7818609E-02  0.9424900E-01
        1   -1    0    0  501    0  0.00000000000E+00  0.00000000000E+00  0.15487607017E+04  0.15487607017E+04  0.50400001928E-02 0.  1.
       -1   -1    0    0    0  501  0.00000000000E+00  0.00000000000E+00 -0.13090818842E+03  0.13090818851E+03  0.50400001928E-02 0. -1.
    10030    2    1    2    0    0  0.00000000000E+00  0.00000000000E+00  0.14178525133E+04  0.16796688903E+04  0.90054529668E+03 0.  0.
        3    1    3    3  502    0  0.16172114565E+03 -0.39214263757E+03  0.42719395863E+03  0.60201683170E+03  0.10100000352E+00 0. -1.
       -3    1    3    3    0  502 -0.16172114565E+03  0.39214263757E+03  0.99065855469E+03  0.10776520586E+04  0.10100000352E+00 0.  1.
</event>
<event>
 5   0  0.6375625E-04  0.9009108E+03  0.7818609E-02  0.9424444E-01
        3   -1    0    0  501    0  0.00000000000E+00  0.00000000000E+00  0.37445319040E+03  0.37445320402E+03  0.10100000352E+00 0.  1.
       -3   -1    0    0    0  501  0.00000000000E+00  0.00000000000E+00 -0.54188367502E+03  0.54188368443E+03  0.10100000352E+00 0. -1.
    10030    2    1    2    0    0  0.00000000000E+00  0.00000000000E+00 -0.16743048462E+03  0.91633688844E+03  0.90091083129E+03 0.  0.
        2    1    3    3  502    0  0.25685683116E+02  0.25881313091E+02  0.37294962836E+03  0.37472793062E+03  0.25500000920E-02 0.  1.
       -2    1    3    3    0  502 -0.25685683116E+02 -0.25881313091E+02 -0.54038011298E+03  0.54160895783E+03  0.25500000920E-02 0. -1.
</event>
<event>
 5   0  0.9223454E-04  0.8979962E+03  0.7818609E-02  0.9428090E-01
       -1   -1    0    0    0  501  0.00000000000E+00  0.00000000000E+00  0.11310935862E+03  0.11310935873E+03  0.50400001928E-02 0.  1.
        1   -1    0    0  501    0  0.00000000000E+00  0.00000000000E+00 -0.17823398194E+04  0.17823398194E+04  0.50400001928E-02 0. -1.
    10030    2    1    2    0    0  0.00000000000E+00  0.00000000000E+00 -0.16692304607E+04  0.18954491781E+04  0.89799624482E+03 0.  0.
        1    1    3    3  502    0 -0.20725532975E+03  0.37524921081E+03 -0.55274798152E+03  0.69949772911E+03  0.50400001928E-02 0. -1.
       -1    1    3    3    0  502  0.20725532975E+03 -0.37524921081E+03 -0.11164824792E+04  0.11959514490E+04  0.50400001928E-02 0.  1.
</event>
<event>
 5   0  0.1007561E-03  0.9015021E+03  0.7818609E-02  0.9423706E-01
       -1   -1    0    0    0  501  0.00000000000E+00  0.00000000000E+00  0.29306223954E+03  0.29306223958E+03  0.50400001928E-02 0.  1.
        1   -1    0    0  501    0  0.00000000000E+00  0.00000000000E+00 -0.69328792502E+03  0.69328792503E+03  0.50400001928E-02 0. -1.
    10030    2    1    2    0    0  0.00000000000E+00  0.00000000000E+00 -0.40022568548E+03  0.98635016462E+03  0.90150210645E+03 0.  0.
        2    1    3    3  502    0  0.41600914395E+02 -0.41991926611E+03 -0.37350106913E+03  0.56352983486E+03  0.25500000920E-02 0.  1.
       -2    1    3    3    0  502 -0.41600914395E+02  0.41991926611E+03 -0.26724616343E+02  0.42282032976E+03  0.25500000920E-02 0. -1.
</event>
<event>
 5   0  0.9697941E-04  0.9015352E+03  0.7818609E-02  0.9423664E-01
       -1   -1    0    0    0  501  0.00000000000E+00  0.00000000000E+00  0.25030517675E+03  0.25030517680E+03  0.50400001928E-02 0.  1.
        1   -1    0    0  501    0  0.00000000000E+00  0.00000000000E+00 -0.81177477704E+03  0.81177477706E+03  0.50400001928E-02 0. -1.
    10030    2    1    2    0    0  0.00000000000E+00  0.00000000000E+00 -0.56146960029E+03  0.10620799539E+04  0.90153519973E+03 0.  0.
        5    1    3    3  502    0 -0.37964140782E+03 -0.20218664381E+03 -0.43950170038E+03  0.61497225311E+03  0.46999998093E+01 0.  1.
       -5    1    3    3    0  502  0.37964140782E+03  0.20218664381E+03 -0.12196789991E+03  0.44710770075E+03  0.46999998093E+01 0. -1.
</event>
<event>
 5   0  0.1635686E-03  0.9016211E+03  0.7818609E-02  0.9423557E-01
        2   -1    0    0  501    0  0.00000000000E+00  0.00000000000E+00  0.11379933596E+04  0.11379933596E+04  0.25500000920E-02 0. -1.
       -2   -1    0    0    0  501  0.00000000000E+00  0.00000000000E+00 -0.17858641366E+03  0.17858641368E+03  0.25500000920E-02 0.  1.
    10030    2    1    2    0    0  0.00000000000E+00  0.00000000000E+00  0.95940694595E+03  0.13165797733E+04  0.90162110196E+03 0.  0.
        5    1    3    3  502    0  0.22400570898E+02  0.24031020941E+03 -0.76255991058E+02  0.25315577910E+03  0.46999998093E+01 0. -1.
       -5    1    3    3    0  502 -0.22400570898E+02 -0.24031020941E+03  0.10356629370E+04  0.10634239942E+04  0.46999998093E+01 0.  1.
</event>
<event>
 5   0  0.9697941E-04  0.8977576E+03  0.7818609E-02  0.9428389E-01
        1   -1    0    0  501    0  0.00000000000E+00  0.00000000000E+00  0.59428794995E+03  0.59428794997E+03  0.50400001928E-02 0.  1.
       -1   -1    0    0    0  501  0.00000000000E+00  0.00000000000E+00 -0.33904808392E+03  0.33904808396E+03  0.50400001928E-02 0. -1.
    10030    2    1    2    0    0  0.00000000000E+00  0.00000000000E+00  0.25523986603E+03  0.93333603393E+03  0.89775763045E+03 0.  0.
        5    1    3    3  502    0  0.33392979678E+03  0.14438874434E+03 -0.14569189704E+03  0.39192529586E+03  0.46999998093E+01 0. -1.
       -5    1    3    3    0  502 -0.33392979678E+03 -0.14438874434E+03  0.40093176307E+03  0.54141073808E+03  0.46999998093E+01 0.  1.
</event>
<event>
 5   0  0.1641516E-03  0.9002747E+03  0.7818609E-02  0.9425238E-01
        2   -1    0    0  501    0  0.00000000000E+00  0.00000000000E+00  0.59461320341E+03  0.59461320341E+03  0.25500000920E-02 0.  1.
       -2   -1    0    0    0  501  0.00000000000E+00  0.00000000000E+00 -0.34076541378E+03  0.34076541379E+03  0.25500000920E-02 0. -1.
    10030    2    1    2    0    0  0.00000000000E+00  0.00000000000E+00  0.25384778963E+03  0.93537861720E+03  0.90027465655E+03 0.  0.
        1    1    3    3  502    0  0.14331801931E+03  0.33079409911E+03  0.40698744782E+03  0.54369437498E+03  0.50400001928E-02 0.  1.
       -1    1    3    3    0  502 -0.14331801931E+03 -0.33079409911E+03 -0.15313965820E+03  0.39168424222E+03  0.50400001928E-02 0. -1.
</event>
<event>
 5   0  0.9223454E-04  0.9070017E+03  0.7818609E-02  0.9416871E-01
        1   -1    0    0  501    0  0.00000000000E+00  0.00000000000E+00  0.33155069126E+03  0.33155069129E+03  0.50400001928E-02 0.  1.
       -1   -1    0    0    0  501  0.00000000000E+00  0.00000000000E+00 -0.62030641928E+03  0.62030641930E+03  0.50400001928E-02 0. -1.
    10030    2    1    2    0    0  0.00000000000E+00  0.00000000000E+00 -0.28875572803E+03  0.95185711060E+03  0.90700170260E+03 0.  0.
        1    1    3    3  502    0 -0.31043303958E+03 -0.18551544501E+03  0.14279397297E+03  0.38881199974E+03  0.50400001928E-02 0.  1.
       -1    1    3    3    0  502  0.31043303958E+03  0.18551544501E+03 -0.43154970100E+03  0.56304511086E+03  0.50400001928E-02 0. -1.
</event>
<event>
 5   0  0.1630202E-03  0.9009005E+03  0.7818609E-02  0.9424457E-01
        2   -1    0    0  501    0  0.00000000000E+00  0.00000000000E+00  0.17775378771E+04  0.17775378771E+04  0.25500000920E-02 0.  1.
       -2   -1    0    0    0  501  0.00000000000E+00  0.00000000000E+00 -0.11414969489E+03  0.11414969492E+03  0.25500000920E-02 0. -1.
    10030    2    1    2    0    0  0.00000000000E+00  0.00000000000E+00  0.16633881822E+04  0.18916875720E+04  0.90090045255E+03 0.  0.
        4    1    3    3  502    0  0.42826650853E+02  0.32495015214E+03  0.14805109814E+04  0.15163578412E+04  0.12699999809E+01 0.  1.
       -4    1    3    3    0  502 -0.42826650853E+02 -0.32495015214E+03  0.18287720076E+03  0.37532973084E+03  0.12699999809E+01 0. -1.
</event>
<event>
 5   0  0.1704416E-03  0.9006683E+03  0.7818609E-02  0.9424746E-01
        2   -1    0    0  501    0  0.00000000000E+00  0.00000000000E+00  0.11753981808E+04  0.11753981808E+04  0.25500000920E-02 0. -1.
       -2   -1    0    0    0  501  0.00000000000E+00  0.00000000000E+00 -0.17253798377E+03  0.17253798379E+03  0.25500000920E-02 0.  1.
    10030    2    1    2    0    0  0.00000000000E+00  0.00000000000E+00  0.10028601970E+04  0.13479361646E+04  0.90066826802E+03 0.  0.
        3    1    3    3  502    0 -0.23073874364E+03 -0.76375208505E+02  0.10688101591E+04  0.10960970334E+04  0.10100000352E+00 0. -1.
       -3    1    3    3    0  502  0.23073874364E+03  0.76375208505E+02 -0.65949962073E+02  0.25183913117E+03  0.10100000352E+00 0.  1.
</event>
<event>
 5   0  0.9321543E-04  0.9017813E+03  0.7818609E-02  0.9423357E-01
       -1   -1    0    0    0  501  0.00000000000E+00  0.00000000000E+00  0.77802785618E+02  0.77802785781E+02  0.50400001928E-02 0.  1.
        1   -1    0    0  501    0  0.00000000000E+00  0.00000000000E+00 -0.26130475369E+04  0.26130475369E+04  0.50400001928E-02 0. -1.
    10030    2    1    2    0    0  0.00000000000E+00  0.00000000000E+00 -0.25352447513E+04  0.26908503227E+04  0.90178129843E+03 0.  0.
        3    1    3    3  502    0  0.31626241141E+03 -0.13154432294E+03 -0.21425624575E+04  0.21697695076E+04  0.10100000352E+00 0. -1.
       -3    1    3    3    0  502 -0.31626241141E+03  0.13154432294E+03 -0.39268229379E+03  0.52108081506E+03  0.10100000352E+00 0.  1.
</event>
<event>
 5   0  0.9697941E-04  0.9004744E+03  0.7818609E-02  0.9424989E-01
        1   -1    0    0  501    0  0.00000000000E+00  0.00000000000E+00  0.49169802704E+03  0.49169802707E+03  0.50400001928E-02 0.  1.
       -1   -1    0    0    0  501  0.00000000000E+00  0.00000000000E+00 -0.41227243161E+03  0.41227243164E+03  0.50400001928E-02 0. -1.
    10030    2    1    2    0    0  0.00000000000E+00  0.00000000000E+00  0.79425595432E+02  0.90397045870E+03  0.90047441107E+03 0.  0.
        5    1    3    3  502    0 -0.92163616367E+02 -0.38968311925E+03 -0.16686363827E+03  0.43383479504E+03  0.46999998093E+01 0. -1.
       -5    1    3    3    0  502  0.92163616367E+02  0.38968311925E+03  0.24628923370E+03  0.47013566366E+03  0.46999998093E+01 0.  1.
</event>
<event>
 5   0  0.6375625E-04  0.8984862E+03  0.7818609E-02  0.9427476E-01
       -3   -1    0    0    0  501  0.00000000000E+00  0.00000000000E+00  0.37306424055E+03  0.37306425422E+03  0.10100000352E+00 0. -1.
        3   -1    0    0  501    0  0.00000000000E+00  0.00000000000E+00 -0.54097748739E+03  0.54097749682E+03  0.10100000352E+00 0.  1.
    10030    2    1    2    0    0  0.00000000000E+00  0.00000000000E+00 -0.16791324684E+03  0.91404175104E+03  0.89848620701E+03 0.  0.
        4    1    3    3  502    0  0.31912355996E+03  0.29884022081E+03 -0.18905264046E+03  0.47632744815E+03  0.12699999809E+01 0. -1.
       -4    1    3    3    0  502 -0.31912355996E+03 -0.29884022081E+03  0.21139393623E+02  0.43771430289E+03  0.12699999809E+01 0.  1.
</event>
<event>
 5   0  0.1007561E-03  0.9008770E+03  0.7818609E-02  0.9424486E-01
       -1   -1    0    0    0  501  0.00000000000E+00  0.00000000000E+00  0.48025505615E+03  0.48025505618E+03  0.50400001928E-02 0.  1.
        1   -1    0    0  501    0  0.00000000000E+00  0.00000000000E+00 -0.42247307687E+03  0.42247307690E+03  0.50400001928E-02 0. -1.
    10030    2    1    2    0    0  0.00000000000E+00  0.00000000000E+00  0.57781979280E+02  0.90272813308E+03  0.90087697557E+03 0.  0.
        2    1    3    3  502    0  0.59912273070E+02 -0.38789400405E+03  0.25035098634E+03  0.46553931651E+03  0.25500000920E-02 0.  1.
       -2    1    3    3    0  502 -0.59912273070E+02  0.38789400405E+03 -0.19256900706E+03  0.43718881657E+03  0.25500000920E-02 0. -1.
</event>
<event>
 5   0  0.1704416E-03  0.8969486E+03  0.7818609E-02  0.9429404E-01
       -2   -1    0    0    0  501  0.00000000000E+00  0.00000000000E+00  0.48850651573E+03  0.48850651574E+03  0.25500000920E-02 0.  1.
        2   -1    0    0  501    0  0.00000000000E+00  0.00000000000E+00 -0.41172266032E+03  0.41172266033E+03  0.25500000920E-02 0. -1.
    10030    2    1    2    0    0  0.00000000000E+00  0.00000000000E+00  0.76783855412E+02  0.90022917607E+03  0.89694861001E+03 0.  0.
        3    1    3    3  502    0  0.42806923465E+03  0.85059994434E+01  0.17234756962E+03  0.46154015712E+03  0.10100000352E+00 0.  1.
       -3    1    3    3    0  502 -0.42806923465E+03 -0.85059994434E+01 -0.95563714205E+02  0.43868901895E+03  0.10100000352E+00 0. -1.
</event>
<event>
 5   0  0.1536020E-03  0.9015311E+03  0.7818609E-02  0.9423670E-01
       -2   -1    0    0    0  501  0.00000000000E+00  0.00000000000E+00  0.14572657863E+03  0.14572657865E+03  0.25500000920E-02 0. -1.
        2   -1    0    0  501    0  0.00000000000E+00  0.00000000000E+00 -0.13943205206E+04  0.13943205206E+04  0.25500000920E-02 0.  1.
    10030    2    1    2    0    0  0.00000000000E+00  0.00000000000E+00 -0.12485939420E+04  0.15400470993E+04  0.90153105104E+03 0.  0.
        2    1    3    3  502    0  0.44523605032E+03  0.70038115354E+02 -0.63626463820E+03  0.77972634170E+03  0.25500000920E-02 0.  1.
       -2    1    3    3    0  502 -0.44523605032E+03 -0.70038115354E+02 -0.61232930380E+03  0.76032075758E+03  0.25500000920E-02 0. -1.
</event>
<event>
 5   0  0.1704416E-03  0.8991752E+03  0.7818609E-02  0.9426613E-01
       -2   -1    0    0    0  501  0.00000000000E+00  0.00000000000E+00  0.13286711910E+03  0.13286711912E+03  0.25500000920E-02 0.  1.
        2   -1    0    0  501    0  0.00000000000E+00  0.00000000000E+00 -0.15212870758E+04  0.15212870758E+04  0.25500000920E-02 0. -1.
    10030    2    1    2    0    0  0.00000000000E+00  0.00000000000E+00 -0.13884199568E+04  0.16541541950E+04  0.89917524679E+03 0.  0.
        3    1    3    3  502    0  0.81167114013E+02 -0.29631494745E+03 -0.90376965570E+02  0.32024780184E+03  0.10100000352E+00 0.  1.
       -3    1    3    3    0  502 -0.81167114013E+02  0.29631494745E+03 -0.12980429912E+04  0.13339063931E+04  0.10100000352E+00 0. -1.
</event>
<event>
 5   0  0.1536020E-03  0.9002375E+03  0.7818609E-02  0.9425285E-01
        2   -1    0    0  501    0  0.00000000000E+00  0.00000000000E+00  0.81826277009E+03  0.81826277009E+03  0.25500000920E-02 0.  1.
       -2   -1    0    0    0  501  0.00000000000E+00  0.00000000000E+00 -0.24760611952E+03  0.24760611953E+03  0.25500000920E-02 0. -1.
    10030    2    1    2    0    0  0.00000000000E+00  0.00000000000E+00  0.57065665057E+03  0.10658688896E+04  0.90023745591E+03 0.  0.
        2    1    3    3  502    0  0.33055323279E+03 -0.29472958972E+03  0.19004942763E+03  0.48192297695E+03  0.25500000920E-02 0. -1.
       -2    1    3    3    0  502 -0.33055323279E+03  0.29472958972E+03  0.38060722294E+03  0.58394591267E+03  0.25500000920E-02 0.  1.
</event>
<event>
 5   0  0.1704416E-03  0.8993789E+03  0.7818609E-02  0.9426358E-01
        2   -1    0    0  501    0  0.00000000000E+00  0.00000000000E+00  0.52887019017E+03  0.52887019018E+03  0.25500000920E-02 0. -1.
       -2   -1    0    0    0  501  0.00000000000E+00  0.00000000000E+00 -0.38236336732E+03  0.38236336733E+03  0.25500000920E-02 0.  1.
    10030    2    1    2    0    0  0.00000000000E+00  0.00000000000E+00  0.14650682285E+03  0.91123355750E+03  0.89937886743E+03 0.  0.
        3    1    3    3  502    0  0.47263546787E+02 -0.20896551117E+03 -0.32733142540E+03  0.39121132392E+03  0.10100000352E+00 0.  1.
       -3    1    3    3    0  502 -0.47263546787E+02  0.20896551117E+03  0.47383824825E+03  0.52002223358E+03  0.10100000352E+00 0. -1.
</event>
<event>
 5   0  0.1635686E-03  0.9025233E+03  0.7818609E-02  0.9422433E-01
        2   -1    0    0  501    0  0.00000000000E+00  0.00000000000E+00  0.42984326865E+03  0.42984326866E+03  0.25500000920E-02 0. -1.
       -2   -1    0    0    0  501  0.00000000000E+00  0.00000000000E+00 -0.47374728283E+03  0.47374728284E+03  0.25500000920E-02 0.  1.
    10030    2    1    2    0    0  0.00000000000E+00  0.00000000000E+00 -0.43904014178E+02  0.90359055149E+03  0.90252330845E+03 0.  0.
        5    1    3    3  502    0  0.42958563894E+03  0.11502300374E+03 -0.98468018241E+02  0.45551306588E+03  0.46999998093E+01 0. -1.
       -5    1    3    3    0  502 -0.42958563894E+03 -0.11502300374E+03  0.54564004062E+02  0.44807748561E+03  0.46999998093E+01 0.  1.
</event>
<event>
 5   0  0.1630202E-03  0.9002824E+03  0.7818609E-02  0.9425228E-01
        2   -1    0    0  501    0  0.00000000000E+00  0.00000000000E+00  0.69607875602E+03  0.69607875603E+03  0.25500000920E-02 0. -1.
       -2   -1    0    0    0  501  0.00000000000E+00  0.00000000000E+00 -0.29109794788E+03  0.29109794789E+03  0.25500000920E-02 0.  1.
    10030    2    1    2    0    0  0.00000000000E+00  0.00000000000E+00  0.40498080815E+03  0.98717670392E+03  0.90028239447E+03 0.  0.
        4    1    3    3  502    0  0.29930856898E+03  0.15327494581E+03  0.53061654211E+03  0.62819929651E+03  0.12699999809E+01 0. -1.
       -4    1    3    3    0  502 -0.29930856898E+03 -0.15327494581E+03 -0.12563573396E+03  0.35897740740E+03  0.12699999809E+01 0.  1.
</event>
<event>
 5   0  0.1630202E-03  0.8992414E+03  0.7818609E-02  0.9426530E-01
       -2   -1    0    0    0  501  0.00000000000E+00  0.00000000000E+00  0.24024489751E+03  0.24024489752E+03  0.25500000920E-02 0.  1.
        2   -1    0    0  501    0  0.00000000000E+00  0.00000000000E+00 -0.84146961267E+03  0.84146961267E+03  0.25500000920E-02 0. -1.
    10030    2    1    2    0    0  0.00000000000E+00  0.00000000000E+00 -0.60122471516E+03  0.10817145102E+04  0.89924141555E+03 0.  0.
        4    1    3    3  502    0  0.32124428783E+03  0.31226435833E+03 -0.25480268415E+03  0.51539590869E+03  0.12699999809E+01 0. -1.
       -4    1    3    3    0  502 -0.32124428783E+03 -0.31226435833E+03 -0.34642203101E+03  0.56631860151E+03  0.12699999809E+01 0.  1.
</event>
<event>
 5   0  0.9223454E-04  0.8826177E+03  0.7818609E-02  0.9447575E-01
       -1   -1    0    0    0  501  0.00000000000E+00  0.00000000000E+00  0.26717647047E+03  0.26717647052E+03  0.50400001928E-02 0. -1.
        1   -1    0    0  501    0  0.00000000000E+00  0.00000000000E+00 -0.72893207581E+03  0.72893207583E+03  0.50400001928E-02 0.  1.
    10030    2    1    2    0    0  0.00000000000E+00  0.00000000000E+00 -0.46175560534E+03  0.99610854635E+03  0.88261769586E+03 0.  0.
        1    1    3    3  502    0  0.12883266667E+03 -0.33401568480E+03  0.60352004095E+02  0.36305192207E+03  0.50400001928E-02 0. -1.
       -1    1    3    3    0  502 -0.12883266667E+03  0.33401568480E+03 -0.52210760943E+03  0.63305662428E+03  0.50400001928E-02 0.  1.
</event>
<event>
 5   0  0.1536020E-03  0.8997174E+03  0.7818609E-02  0.9425935E-01
        2   -1    0    0  501    0  0.00000000000E+00  0.00000000000E+00  0.53938300582E+03  0.53938300582E+03  0.25500000920E-02 0. -1.
       -2   -1    0    0    0  501  0.00000000000E+00  0.00000000000E+00 -0.37519324787E+03  0.37519324787E+03  0.25500000920E-02 0.  1.
    10030    2    1    2    0    0  0.00000000000E+00  0.00000000000E+00  0.16418975795E+03  0.91457625370E+03  0.89971742631E+03 0.  0.
        2    1    3    3  502    0 -0.69690736899E+02  0.15672578854E+03  0.50483936514E+03  0.53318154151E+03  0.25500000920E-02 0. -1.
       -2    1    3    3    0  502  0.69690736899E+02 -0.15672578854E+03 -0.34064960719E+03  0.38139471219E+03  0.25500000920E-02 0.  1.
</event>
<event>
 5   0  0.9697941E-04  0.8994013E+03  0.7818609E-02  0.9426330E-01
        1   -1    0    0  501    0  0.00000000000E+00  0.00000000000E+00  0.64118926201E+03  0.64118926203E+03  0.50400001928E-02 0.  1.
       -1   -1    0    0    0  501  0.00000000000E+00  0.00000000000E+00 -0.31539938126E+03  0.31539938130E+03  0.50400001928E-02 0. -1.
    10030    2    1    2    0    0  0.00000000000E+00  0.00000000000E+00  0.32578988075E+03  0.95658864333E+03  0.89940134876E+03 0.  0.
        5    1    3    3  502    0 -0.37339953506E+02  0.39514545504E+03 -0.61907524429E+02  0.40173229188E+03  0.46999998093E+01 0. -1.
       -5    1    3    3    0  502  0.37339953506E+02 -0.39514545504E+03  0.38769740518E+03  0.55485635145E+03  0.46999998093E+01 0.  1.
</event>
<event>
 5   0  0.9981885E-04  0.8952798E+03  0.7818609E-02  0.9431501E-01
        1   -1    0    0  501    0  0.00000000000E+00  0.00000000000E+00  0.66317277796E+03  0.66317277798E+03  0.50400001928E-02 0.  1.
       -1   -1    0    0    0  501  0.00000000000E+00  0.00000000000E+00 -0.30215579022E+03  0.30215579026E+03  0.50400001928E-02 0. -1.
    10030    2    1    2    0    0  0.00000000000E+00  0.00000000000E+00  0.36101698774E+03  0.96532856824E+03  0.89527983291E+03 0.  0.
        4    1    3    3  502    0  0.40160953564E+03 -0.12531666994E+03  0.15620622122E+02  0.42099893541E+03  0.12699999809E+01 0. -1.
       -4    1    3    3    0  502 -0.40160953564E+03  0.12531666994E+03  0.34539636562E+03  0.54432963282E+03  0.12699999809E+01 0.  1.
</event>
<event>
 5   0  0.9697941E-04  0.9018157E+03  0.7818609E-02  0.9423315E-01
       -1   -1    0    0    0  501  0.00000000000E+00  0.00000000000E+00  0.23331350767E+03  0.23331350773E+03  0.50400001928E-02 0. -1.
        1   -1    0    0  501    0  0.00000000000E+00  0.00000000000E+00 -0.87143650863E+03  0.87143650865E+03  0.50400001928E-02 0.  1.
    10030    2    1    2    0    0  0.00000000000E+00  0.00000000000E+00 -0.63812300096E+03  0.11047500164E+04  0.90181574300E+03 0.  0.
        5    1    3    3  502    0  0.25717246515E+03 -0.22672260140E+03 -0.67779830832E+03  0.75958768525E+03  0.46999998093E+01 0.  1.
       -5    1    3    3    0  502 -0.25717246515E+03  0.22672260140E+03  0.39675307359E+02  0.34516233113E+03  0.46999998093E+01 0. -1.
</event>
<event>
 5   0  0.1641516E-03  0.9009009E+03  0.7818609E-02  0.9424456E-01
       -2   -1    0    0    0  501  0.00000000000E+00  0.00000000000E+00  0.25956063590E+03  0.25956063591E+03  0.25500000920E-02 0. -1.
        2   -1    0    0  501    0  0.00000000000E+00  0.00000000000E+00 -0.78172725808E+03  0.78172725809E+03  0.25500000920E-02 0.  1.
    10030    2    1    2    0    0  0.00000000000E+00  0.00000000000E+00 -0.52216662218E+03  0.10412878940E+04  0.90090093621E+03 0.  0.
        1    1    3    3  502    0  0.12934783739E+03  0.40038858215E+03 -0.44696622901E+03  0.61385722253E+03  0.50400001928E-02 0. -1.
       -1    1    3    3    0  502 -0.12934783739E+03 -0.40038858215E+03 -0.75200393177E+02  0.42743067147E+03  0.50400001928E-02 0.  1.
</event>
<event>
 5   0  0.1704416E-03  0.8995437E+03  0.7818609E-02  0.9426152E-01
        2   -1    0    0  501    0  0.00000000000E+00  0.00000000000E+00  0.74774312781E+03  0.74774312781E+03  0.25500000920E-02 0.  1.
       -2   -1    0    0    0  501  0.00000000000E+00  0.00000000000E+00 -0.27054038176E+03  0.27054038178E+03  0.25500000920E-02 0. -1.
    10030    2    1    2    0    0  0.00000000000E+00  0.00000000000E+00  0.47720274604E+03  0.10182835096E+04  0.89954368714E+03 0.  0.
        3    1    3    3  502    0  0.24688115224E+03 -0.34476608113E+03  0.40832871892E+03  0.58868183845E+03  0.10100000352E+00 0.  1.
       -3    1    3    3    0  502 -0.24688115224E+03  0.34476608113E+03  0.68874027123E+02  0.42960167114E+03  0.10100000352E+00 0. -1.
</event>
<event>
 5   0  0.1635686E-03  0.9004920E+03  0.7818609E-02  0.9424967E-01
        2   -1    0    0  501    0  0.00000000000E+00  0.00000000000E+00  0.13085166745E+04  0.13085166745E+04  0.25500000920E-02 0.  1.
       -2   -1    0    0    0  501  0.00000000000E+00  0.00000000000E+00 -0.15492461241E+03  0.15492461243E+03  0.25500000920E-02 0. -1.
    10030    2    1    2    0    0  0.00000000000E+00  0.00000000000E+00  0.11535920621E+04  0.14634412869E+04  0.90049195141E+03 0.  0.
        5    1    3    3  502    0 -0.11900444925E+03  0.37735998654E+03  0.92587113342E+03  0.10068873145E+04  0.46999998093E+01 0.  1.
       -5    1    3    3    0  502  0.11900444925E+03 -0.37735998654E+03  0.22772092864E+03  0.45655397241E+03  0.46999998093E+01 0. -1.
</event>
<event>
 5   0  0.9697941E-04  0.8991905E+03  0.7818609E-02  0.9426594E-01
       -1   -1    0    0    0  501  0.00000000000E+00  0.00000000000E+00  0.19309880854E+03  0.19309880860E+03  0.50400001928E-02 0. -1.
        1   -1    0    0  501    0  0.00000000000E+00  0.00000000000E+00 -0.10468003015E+04  0.10468003016E+04  0.50400001928E-02 0.  1.
    10030    2    1    2    0    0  0.00000000000E+00  0.00000000000E+00 -0.85370149301E+03  0.12398991102E+04  0.89919050496E+03 0.  0.
        5    1    3    3  502    0 -0.91789977775E+02 -0.37273739240E+03 -0.74951248461E+03  0.84211021743E+03  0.46999998093E+01 0.  1.
       -5    1    3    3    0  502  0.91789977775E+02  0.37273739240E+03 -0.10418900840E+03  0.39778889273E+03  0.46999998093E+01 0. -1.
</event>
<event>
 5   0  0.1704416E-03  0.9048989E+03  0.7818609E-02  0.9419478E-01
       -2   -1    0    0    0  501  0.00000000000E+00  0.00000000000E+00  0.12297752741E+03  0.12297752744E+03  0.25500000920E-02 0.  1.
        2   -1    0    0  501    0  0.00000000000E+00  0.00000000000E+00 -0.16646173424E+04  0.16646173424E+04  0.25500000920E-02 0. -1.
    10030    2    1    2    0    0  0.00000000000E+00  0.00000000000E+00 -0.15416398150E+04  0.17875948699E+04  0.90489894437E+03 0.  0.
        3    1    3    3  502    0  0.42399103446E+03  0.14691267953E+03 -0.65633191903E+03  0.79506184090E+03  0.10100000352E+00 0. -1.
       -3    1    3    3    0  502 -0.42399103446E+03 -0.14691267953E+03 -0.88530789600E+03  0.99253302899E+03  0.10100000352E+00 0.  1.
</event>
<event>
 5   0  0.1630202E-03  0.8985056E+03  0.7818609E-02  0.9427451E-01
        2   -1    0    0  501    0  0.00000000000E+00  0.00000000000E+00  0.14127647589E+04  0.14127647589E+04  0.25500000920E-02 0.  1.
       -2   -1    0    0    0  501  0.00000000000E+00  0.00000000000E+00 -0.14286034716E+03  0.14286034719E+03  0.25500000920E-02 0. -1.
    10030    2    1    2    0    0  0.00000000000E+00  0.00000000000E+00  0.12699044118E+04  0.15556251061E+04  0.89850556802E+03 0.  0.
        4    1    3    3  502    0 -0.17554927192E+03  0.26962167551E+03  0.92089797056E+02  0.33465734475E+03  0.12699999809E+01 0. -1.
       -4    1    3    3    0  502  0.17554927192E+03 -0.26962167551E+03  0.11778146147E+04  0.12209677614E+04  0.12699999809E+01 0.  1.
</event>
<event>
 5   0  0.1635686E-03  0.9014090E+03  0.7818609E-02  0.9423822E-01
       -2   -1    0    0    0  501  0.00000000000E+00  0.00000000000E+00  0.22489067675E+03  0.22489067676E+03  0.25500000920E-02 0. -1.
        2   -1    0    0  501    0  0.00000000000E+00  0.00000000000E+00 -0.90325915069E+03  0.90325915069E+03  0.25500000920E-02 0.  1.
    10030    2    1    2    0    0  0.00000000000E+00  0.00000000000E+00 -0.67836847394E+03  0.11281498275E+04  0.90140903410E+03 0.  0.
        5    1    3    3  502    0  0.68937963818E+02 -0.18099606581E+03 -0.84848653433E+03  0.87032379471E+03  0.46999998093E+01 0.  1.
       -5    1    3    3    0  502 -0.68937963818E+02  0.18099606581E+03  0.17011806039E+03  0.25782603275E+03  0.46999998093E+01 0. -1.
</event>
<event>
 5   0  0.9697941E-04  0.9064716E+03  0.7818609E-02  0.9417528E-01
        1   -1    0    0  501    0  0.00000000000E+00  0.00000000000E+00  0.75405795364E+03  0.75405795365E+03  0.50400001928E-02 0. -1.
       -1   -1    0    0    0  501  0.00000000000E+00  0.00000000000E+00 -0.27242293139E+03  0.27242293143E+03  0.50400001928E-02 0.  1.
    10030    2    1    2    0    0  0.00000000000E+00  0.00000000000E+00  0.48163502225E+03  0.10264808851E+04  0.90647157308E+03 0.  0.
        5    1    3    3  502    0  0.20014088115E+03 -0.40207442440E+03  0.30951527541E+03  0.54547411558E+03  0.46999998093E+01 0. -1.
       -5    1    3    3    0  502 -0.20014088115E+03  0.40207442440E+03  0.17211974684E+03  0.48100676951E+03  0.46999998093E+01 0.  1.
</event>
<event>
 5   0  0.1704416E-03  0.8976976E+03  0.7818609E-02  0.9428464E-01
       -2   -1    0    0    0  501  0.00000000000E+00  0.00000000000E+00  0.15403790421E+03  0.15403790423E+03  0.25500000920E-02 0. -1.
        2   -1    0    0  501    0  0.00000000000E+00  0.00000000000E+00 -0.13078938772E+04  0.13078938772E+04  0.25500000920E-02 0.  1.
    10030    2    1    2    0    0  0.00000000000E+00  0.00000000000E+00 -0.11538559730E+04  0.14619317814E+04  0.89769756999E+03 0.  0.
        3    1    3    3  502    0  0.18898207850E+03 -0.85474542598E+02  0.71312962756E+02  0.21933005331E+03  0.10100000352E+00 0. -1.
       -3    1    3    3    0  502 -0.18898207850E+03  0.85474542598E+02 -0.12251689358E+04  0.12426017281E+04  0.10100000352E+00 0.  1.
</event>
<event>
 5   0  0.1641516E-03  0.8993848E+03  0.7818609E-02  0.9426351E-01
       -2   -1    0    0    0  501  0.00000000000E+00  0.00000000000E+00  0.15787938259E+03  0.15787938261E+03  0.25500000920E-02 0.  1.
        2   -1    0    0  501    0  0.00000000000E+00  0.00000000000E+00 -0.12808717414E+04  0.12808717414E+04  0.25500000920E-02 0. -1.
    10030    2    1    2    0    0  0.00000000000E+00  0.00000000000E+00 -0.11229923588E+04  0.14387511240E+04  0.89938476689E+03 0.  0.
        1    1    3    3  502    0 -0.18786403867E+03  0.23967485309E+03 -0.32174047616E+02  0.30622230748E+03  0.50400001928E-02 0.  1.
       -1    1    3    3    0  502  0.18786403867E+03 -0.23967485309E+03 -0.10908183112E+04  0.11325288165E+04  0.50400001928E-02 0. -1.
</event>
<event>
 5   0  0.1630202E-03  0.8994933E+03  0.7818609E-02  0.9426215E-01
        2   -1    0    0  501    0  0.00000000000E+00  0.00000000000E+00  0.14909459975E+04  0.14909459975E+04  0.25500000920E-02 0.  1.
       -2   -1    0    0    0  501  0.00000000000E+00  0.00000000000E+00 -0.13566692771E+03  0.13566692774E+03  0.25500000920E-02 0. -1.
    10030    2    1    2    0    0  0.00000000000E+00  0.00000000000E+00  0.13552790698E+04  0.16266129252E+04  0.89949333047E+03 0.  0.
        4    1    3    3  502    0 -0.84374667827E+02 -0.34333030938E+03  0.11803380986E+04  0.12321503260E+04  0.12699999809E+01 0.  1.
       -4    1    3    3    0  502  0.84374667827E+02  0.34333030938E+03  0.17494097118E+03  0.39446259926E+03  0.12699999809E+01 0. -1.
</event>
<event>
 5   0  0.1641516E-03  0.9001556E+03  0.7818609E-02  0.9425387E-01
       -2   -1    0    0    0  501  0.00000000000E+00  0.00000000000E+00  0.19173477399E+03  0.19173477401E+03  0.25500000920E-02 0.  1.
        2   -1    0    0  501    0  0.00000000000E+00  0.00000000000E+00 -0.10565117508E+04  0.10565117508E+04  0.25500000920E-02 0. -1.
    10030    2    1    2    0    0  0.00000000000E+00  0.00000000000E+00 -0.86477697683E+03  0.12482465248E+04  0.90015563493E+03 0.  0.
        1    1    3    3  502    0  0.14318569539E+03 -0.11697793913E+03  0.13663900401E+03  0.22990476083E+03  0.50400001928E-02 0.  1.
       -1    1    3    3    0  502 -0.14318569539E+03  0.11697793913E+03 -0.10014159808E+04  0.10183417640E+04  0.50400001928E-02 0. -1.
</event>
<event>
 5   0  0.1704416E-03  0.9005420E+03  0.7818609E-02  0.9424904E-01
       -2   -1    0    0    0  501  0.00000000000E+00  0.00000000000E+00  0.15550809106E+03  0.15550809108E+03  0.25500000920E-02 0. -1.
        2   -1    0    0  501    0  0.00000000000E+00  0.00000000000E+00 -0.13037520584E+04  0.13037520584E+04  0.25500000920E-02 0.  1.
    10030    2    1    2    0    0  0.00000000000E+00  0.00000000000E+00 -0.11482439674E+04  0.14592601495E+04  0.90054204528E+03 0.  0.
        3    1    3    3  502    0 -0.15379380530E+03  0.42710772601E+01  0.11159362293E+03  0.19006294623E+03  0.10100000352E+00 0. -1.
       -3    1    3    3    0  502  0.15379380530E+03 -0.42710772601E+01 -0.12598375903E+04  0.12691972033E+04  0.10100000352E+00 0.  1.
</event>
<event>
 5   0  0.1536020E-03  0.9041898E+03  0.7818609E-02  0.9420359E-01
        2   -1    0    0  501    0  0.00000000000E+00  0.00000000000E+00  0.39310218888E+03  0.39310218889E+03  0.25500000920E-02 0.  1.
       -2   -1    0    0    0  501  0.00000000000E+00  0.00000000000E+00 -0.51994063430E+03  0.51994063430E+03  0.25500000920E-02 0. -1.
    10030    2    1    2    0    0  0.00000000000E+00  0.00000000000E+00 -0.12683844541E+03  0.91304282320E+03  0.90418980627E+03 0.  0.
        2    1    3    3  502    0  0.27924842212E+03 -0.33763698040E+03 -0.17591643110E+03  0.47214934346E+03  0.25500000920E-02 0. -1.
       -2    1    3    3    0  502 -0.27924842212E+03  0.33763698040E+03  0.49077985688E+02  0.44089347974E+03  0.25500000920E-02 0.  1.
</event>
<event>
 5   0  0.1641516E-03  0.8993740E+03  0.7818609E-02  0.9426364E-01
       -2   -1    0    0    0  501  0.00000000000E+00  0.00000000000E+00  0.32701325333E+03  0.32701325334E+03  0.25500000920E-02 0. -1.
        2   -1    0    0  501    0  0.00000000000E+00  0.00000000000E+00 -0.61837980019E+03  0.61837980020E+03  0.25500000920E-02 0.  1.
    10030    2    1    2    0    0  0.00000000000E+00  0.00000000000E+00 -0.29136654686E+03  0.94539305354E+03  0.89937398286E+03 0.  0.
        1    1    3    3  502    0 -0.18023032561E+03 -0.40522412539E+03 -0.67522538709E+02  0.44860768532E+03  0.50400001928E-02 0. -1.
       -1    1    3    3    0  502  0.18023032561E+03  0.40522412539E+03 -0.22384400815E+03  0.49678536822E+03  0.50400001928E-02 0.  1.
</event>
<event>
 5   0  0.1536020E-03  0.8985981E+03  0.7818609E-02  0.9427336E-01
        2   -1    0    0  501    0  0.00000000000E+00  0.00000000000E+00  0.68976897052E+03  0.68976897052E+03  0.25500000920E-02 0.  1.
       -2   -1    0    0    0  501  0.00000000000E+00  0.00000000000E+00 -0.29266266813E+03  0.29266266814E+03  0.25500000920E-02 0. -1.
    10030    2    1    2    0    0  0.00000000000E+00  0.00000000000E+00  0.39710630239E+03  0.98243163866E+03  0.89859807992E+03 0.  0.
        2    1    3    3  502    0 -0.25653616396E+03  0.11603199891E+03  0.58135492354E+03  0.64594719237E+03  0.25500000920E-02 0.  1.
       -2    1    3    3    0  502  0.25653616396E+03 -0.11603199891E+03 -0.18424862115E+03  0.33648444629E+03  0.25500000920E-02 0. -1.
</event>
<event>
 5   0  0.9223454E-04  0.8965438E+03  0.7818609E-02  0.9429912E-01
        1   -1    0    0  501    0  0.00000000000E+00  0.00000000000E+00  0.51269729102E+03  0.51269729104E+03  0.50400001928E-02 0.  1.
       -1   -1    0    0    0  501  0.00000000000E+00  0.00000000000E+00 -0.39194220753E+03  0.39194220756E+03  0.50400001928E-02 0. -1.
    10030    2    1    2    0    0  0.00000000000E+00  0.00000000000E+00  0.12075508349E+03  0.90463949860E+03  0.89654382617E+03 0.  0.
        1    1    3    3  502    0  0.29186285251E+03  0.21753301417E+02 -0.28223316336E+03  0.40658663201E+03  0.50400001928E-02 0. -1.
       -1    1    3    3    0  502 -0.29186285251E+03 -0.21753301417E+02  0.40298824685E+03  0.49805286660E+03  0.50400001928E-02 0.  1.
</event>
<event>
 5   0  0.1007561E-03  0.8949950E+03  0.7818609E-02  0.9431860E-01
       -1   -1    0    0    0  501  0.00000000000E+00  0.00000000000E+00  0.17443833458E+03  0.17443833466E+03  0.50400001928E-02 0.  1.
        1   -1    0    0  501    0  0.00000000000E+00  0.00000000000E+00 -0.11479932419E+04  0.11479932419E+04  0.50400001928E-02 0. -1.
    10030    2    1    2    0    0  0.00000000000E+00  0.00000000000E+00 -0.97355490730E+03  0.13224315766E+04  0.89499503749E+03 0.  0.
        2    1    3    3  502    0  0.10521664195E+03 -0.30418382108E+03 -0.27403573972E+02  0.32303141430E+03  0.25500000920E-02 0.  1.
       -2    1    3    3    0  502 -0.10521664195E+03  0.30418382108E+03 -0.94615133333E+03  0.99940016226E+03  0.25500000920E-02 0. -1.
</event>
<event>
 5   0  0.9981885E-04  0.8997556E+03  0.7818609E-02  0.9425887E-01
       -1   -1    0    0    0  501  0.00000000000E+00  0.00000000000E+00  0.36104539037E+03  0.36104539041E+03  0.50400001928E-02 0. -1.
        1   -1    0    0  501    0  0.00000000000E+00  0.00000000000E+00 -0.56056679075E+03  0.56056679077E+03  0.50400001928E-02 0.  1.
    10030    2    1    2    0    0  0.00000000000E+00  0.00000000000E+00 -0.19952140037E+03  0.92161218118E+03  0.89975564643E+03 0.  0.
        4    1    3    3  502    0 -0.41457543955E+03 -0.11913349981E+03  0.31103758890E+02  0.43247501959E+03  0.12699999809E+01 0. -1.
       -4    1    3    3    0  502  0.41457543955E+03  0.11913349981E+03 -0.23062515926E+03  0.48913716158E+03  0.12699999809E+01 0.  1.
</event>
<event>
 5   0  0.9697941E-04  0.8988834E+03  0.7818609E-02  0.9426978E-01
       -1   -1    0    0    0  501  0.00000000000E+00  0.00000000000E+00  0.26600078393E+03  0.26600078397E+03  0.50400001928E-02 0.  1.
        1   -1    0    0  501    0  0.00000000000E+00  0.00000000000E+00 -0.75938810998E+03  0.75938811000E+03  0.50400001928E-02 0. -1.
    10030    2    1    2    0    0  0.00000000000E+00  0.00000000000E+00 -0.49338732605E+03  0.10253888940E+04  0.89888337974E+03 0.  0.
        5    1    3    3  502    0  0.40325488496E+03  0.13396980224E+03 -0.79766355474E+02  0.43237387944E+03  0.46999998093E+01 0.  1.
       -5    1    3    3    0  502 -0.40325488496E+03 -0.13396980224E+03 -0.41362097058E+03  0.59301501453E+03  0.46999998093E+01 0. -1.
</event>
<event>
 5   0  0.1704416E-03  0.8993377E+03  0.7818609E-02  0.9426410E-01
        2   -1    0    0  501    0  0.00000000000E+00  0.00000000000E+00  0.47564179038E+03  0.47564179039E+03  0.25500000920E-02 0.  1.
       -2   -1    0    0    0  501  0.00000000000E+00  0.00000000000E+00 -0.42511423192E+03  0.42511423193E+03  0.25500000920E-02 0. -1.
    10030    2    1    2    0    0  0.00000000000E+00  0.00000000000E+00  0.50527558459E+02  0.90075602232E+03  0.89933774389E+03 0.  0.
        3    1    3    3  502    0  0.23558038239E+03 -0.10060325401E+03  0.39541791220E+03  0.47114166317E+03  0.10100000352E+00 0.  1.
       -3    1    3    3    0  502 -0.23558038239E+03  0.10060325401E+03 -0.34489035374E+03  0.42961435915E+03  0.10100000352E+00 0. -1.
</event>
<event>
 5   0  0.6375625E-04  0.8971355E+03  0.7818609E-02  0.9429169E-01
        3   -1    0    0  501    0  0.00000000000E+00  0.00000000000E+00  0.10862357472E+04  0.10862357518E+04  0.10100000352E+00 0. -1.
       -3   -1    0    0    0  501  0.00000000000E+00  0.00000000000E+00 -0.18523880876E+03  0.18523883629E+03  0.10100000352E+00 0.  1.
    10030    2    1    2    0    0  0.00000000000E+00  0.00000000000E+00  0.90099693840E+03  0.12714745881E+04  0.89713552225E+03 0.  0.
        4    1    3    3  502    0  0.14401524152E+03  0.32563063673E+03  0.63828597305E+02  0.36173388575E+03  0.12699999809E+01 0.  1.
       -4    1    3    3    0  502 -0.14401524152E+03 -0.32563063673E+03  0.83716834109E+03  0.90974070239E+03  0.12699999809E+01 0. -1.
</event>
<event>
 5   0  0.1704416E-03  0.9008195E+03  0.7818609E-02  0.9424558E-01
       -2   -1    0    0    0  501  0.00000000000E+00  0.00000000000E+00  0.47917103428E+03  0.47917103429E+03  0.25500000920E-02 0. -1.
        2   -1    0    0  501    0  0.00000000000E+00  0.00000000000E+00 -0.42337482484E+03  0.42337482484E+03  0.25500000920E-02 0.  1.
    10030    2    1    2    0    0  0.00000000000E+00  0.00000000000E+00  0.55796209444E+02  0.90254585913E+03  0.90081952180E+03 0.  0.
        3    1    3    3  502    0 -0.40151800239E+03  0.11120262653E+03 -0.14356200234E+03  0.44067310913E+03  0.10100000352E+00 0.  1.
       -3    1    3    3    0  502  0.40151800239E+03 -0.11120262653E+03  0.19935821179E+03  0.46187275001E+03  0.10100000352E+00 0. -1.
</event>
<event>
 5   0  0.9321543E-04  0.8750293E+03  0.7818609E-02  0.9457346E-01
        1   -1    0    0  501    0  0.00000000000E+00  0.00000000000E+00  0.25958711539E+03  0.25958711544E+03  0.50400001928E-02 0. -1.
       -1   -1    0    0    0  501  0.00000000000E+00  0.00000000000E+00 -0.73739822903E+03  0.73739822905E+03  0.50400001928E-02 0.  1.
    10030    2    1    2    0    0  0.00000000000E+00  0.00000000000E+00 -0.47781111364E+03  0.99698534448E+03  0.87502932339E+03 0.  0.
        3    1    3    3  502    0  0.25885562131E+03 -0.18607194310E+03  0.10250765109E+03  0.33486837627E+03  0.10100000352E+00 0. -1.
       -3    1    3    3    0  502 -0.25885562131E+03  0.18607194310E+03 -0.58031876474E+03  0.66211696821E+03  0.10100000352E+00 0.  1.
</event>
<event>
 5   0  0.9981885E-04  0.8985543E+03  0.7818609E-02  0.9427390E-01
        1   -1    0    0  501    0  0.00000000000E+00  0.00000000000E+00  0.66875046138E+03  0.66875046140E+03  0.50400001928E-02 0.  1.
       -1   -1    0    0    0  501  0.00000000000E+00  0.00000000000E+00 -0.30183148346E+03  0.30183148350E+03  0.50400001928E-02 0. -1.
    10030    2    1    2    0    0  0.00000000000E+00  0.00000000000E+00  0.36691897793E+03  0.97058194490E+03  0.89855426959E+03 0.  0.
        4    1    3    3  502    0 -0.19760285560E+03 -0.10108642907E+02 -0.25223361074E+03  0.32058147247E+03  0.12699999809E+01 0. -1.
       -4    1    3    3    0  502  0.19760285560E+03  0.10108642907E+02  0.61915258867E+03  0.65000047243E+03  0.12699999809E+01 0.  1.
</event>
<event>
 5   0  0.9697941E-04  0.8980484E+03  0.7818609E-02  0.9428024E-01
        1   -1    0    0  501    0  0.00000000000E+00  0.00000000000E+00  0.11582499413E+04  0.11582499414E+04  0.50400001928E-02 0. -1.
       -1   -1    0    0    0  501  0.00000000000E+00  0.00000000000E+00 -0.17407530937E+03  0.17407530944E+03  0.50400001928E-02 0.  1.
    10030    2    1    2    0    0  0.00000000000E+00  0.00000000000E+00  0.98417463197E+03  0.13323252508E+04  0.89804836601E+03 0.  0.
        5    1    3    3  502    0  0.21976194638E+02  0.28333386250E+02  0.11560858975E+04  0.11566513850E+04  0.46999998093E+01 0. -1.
       -5    1    3    3    0  502 -0.21976194638E+02 -0.28333386250E+02 -0.17191126556E+03  0.17567386582E+03  0.46999998093E+01 0.  1.
</event>
<event>
 5   0  0.1630202E-03  0.8806442E+03  0.7818609E-02  0.9450106E-01
       -2   -1    0    0    0  501  0.00000000000E+00  0.00000000000E+00  0.16487155065E+03  0.16487155067E+03  0.25500000920E-02 0.  1.
        2   -1    0    0  501    0  0.00000000000E+00  0.00000000000E+00 -0.11759672516E+04  0.11759672516E+04  0.25500000920E-02 0. -1.
    10030    2    1    2    0    0  0.00000000000E+00  0.00000000000E+00 -0.10110957009E+04  0.13408388022E+04  0.88064418308E+03 0.  0.
        4    1    3    3  502    0  0.55285622817E+01 -0.22415860114E+03 -0.10825265793E+04  0.11055057898E+04  0.12699999809E+01 0. -1.
       -4    1    3    3    0  502 -0.55285622817E+01  0.22415860114E+03  0.71430878385E+02  0.23533301245E+03  0.12699999809E+01 0.  1.
</event>
<event>
 5   0  0.1630202E-03  0.8922669E+03  0.7818609E-02  0.9435300E-01
       -2   -1    0    0    0  501  0.00000000000E+00  0.00000000000E+00  0.39854266978E+03  0.39854266979E+03  0.25500000920E-02 0. -1.
        2   -1    0    0  501    0  0.00000000000E+00  0.00000000000E+00 -0.49940712015E+03  0.49940712016E+03  0.25500000920E-02 0.  1.
    10030    2    1    2    0    0  0.00000000000E+00  0.00000000000E+00 -0.10086445037E+03  0.89794978995E+03  0.89226688155E+03 0.  0.
        4    1    3    3  502    0 -0.39684538351E+03 -0.20021603326E+03 -0.88894957030E+02  0.45329531728E+03  0.12699999809E+01 0. -1.
       -4    1    3    3    0  502  0.39684538351E+03  0.20021603326E+03 -0.11969493336E+02  0.44465447266E+03  0.12699999809E+01 0.  1.
</event>
<event>
 5   0  0.1704416E-03  0.9005100E+03  0.7818609E-02  0.9424944E-01
       -2   -1    0    0    0  501  0.00000000000E+00  0.00000000000E+00  0.32066420541E+03  0.32066420542E+03  0.25500000920E-02 0.  1.
        2   -1    0    0  501    0  0.00000000000E+00  0.00000000000E+00 -0.63221766919E+03  0.63221766920E+03  0.25500000920E-02 0. -1.
    10030    2    1    2    0    0  0.00000000000E+00  0.00000000000E+00 -0.31155346378E+03  0.95288187462E+03  0.90051002559E+03 0.  0.
        3    1    3    3  502    0 -0.76199010800E+02  0.41096858111E+03  0.21375799210E+02  0.41851929335E+03  0.10100000352E+00 0.  1.
       -3    1    3    3    0  502  0.76199010800E+02 -0.41096858111E+03 -0.33292926299E+03  0.53436258127E+03  0.10100000352E+00 0. -1.
</event>
<event>
 5   0  0.9223454E-04  0.9020180E+03  0.7818609E-02  0.9423062E-01
       -1   -1    0    0    0  501  0.00000000000E+00  0.00000000000E+00  0.51658075523E+03  0.51658075525E+03  0.50400001928E-02 0. -1.
        1   -1    0    0  501    0  0.00000000000E+00  0.00000000000E+00 -0.39376053611E+03  0.39376053614E+03  0.50400001928E-02 0.  1.
    10030    2    1    2    0    0  0.00000000000E+00  0.00000000000E+00  0.12282021912E+03  0.91034129139E+03  0.90201799350E+03 0.  0.
        1    1    3    3  502    0  0.67271843482E+02 -0.44320970579E+03  0.11468432958E+02  0.44843268080E+03  0.50400001928E-02 0.  1.
       -1    1    3    3    0  502 -0.67271843482E+02  0.44320970579E+03  0.11135178616E+03  0.46190861059E+03  0.50400001928E-02 0. -1.
</event>
<event>
 5   0  0.1630202E-03  0.9017451E+03  0.7818609E-02  0.9423403E-01
        2   -1    0    0  501    0  0.00000000000E+00  0.00000000000E+00  0.24820533126E+03  0.24820533127E+03  0.25500000920E-02 0.  1.
       -2   -1    0    0    0  501  0.00000000000E+00  0.00000000000E+00 -0.81902378851E+03  0.81902378851E+03  0.25500000920E-02 0. -1.
    10030    2    1    2    0    0  0.00000000000E+00  0.00000000000E+00 -0.57081845725E+03  0.10672291198E+04  0.90174513195E+03 0.  0.
        4    1    3    3  502    0 -0.22269904024E+03 -0.27539408788E+03  0.44805720248E+02  0.35699570254E+03  0.12699999809E+01 0.  1.
       -4    1    3    3    0  502  0.22269904024E+03  0.27539408788E+03 -0.61562417750E+03  0.71023341725E+03  0.12699999809E+01 0. -1.
</event>
<event>
 5   0  0.9981885E-04  0.9002316E+03  0.7818609E-02  0.9425292E-01
       -1   -1    0    0    0  501  0.00000000000E+00  0.00000000000E+00  0.34416797077E+03  0.34416797081E+03  0.50400001928E-02 0. -1.
        1   -1    0    0  501    0  0.00000000000E+00  0.00000000000E+00 -0.58867835920E+03  0.58867835922E+03  0.50400001928E-02 0.  1.
    10030    2    1    2    0    0  0.00000000000E+00  0.00000000000E+00 -0.24451038843E+03  0.93284633003E+03  0.90023160654E+03 0.  0.
        4    1    3    3  502    0 -0.32036006193E+03 -0.31612978270E+03 -0.11621168882E+03  0.46483908862E+03  0.12699999809E+01 0. -1.
       -4    1    3    3    0  502  0.32036006193E+03  0.31612978270E+03 -0.12829869961E+03  0.46800724141E+03  0.12699999809E+01 0.  1.
</event>
<event>
 5   0  0.1641516E-03  0.9003963E+03  0.7818609E-02  0.9425086E-01
       -2   -1    0    0    0  501  0.00000000000E+00  0.00000000000E+00  0.11234787052E+03  0.11234787055E+03  0.25500000920E-02 0.  1.
        2   -1    0    0  501    0  0.00000000000E+00  0.00000000000E+00 -0.18040252210E+04  0.18040252210E+04  0.25500000920E-02 0. -1.
    10030    2    1    2    0    0  0.00000000000E+00  0.00000000000E+00 -0.16916773505E+04  0.19163730916E+04  0.90039633935E+03 0.  0.
        1    1    3    3  502    0  0.17614961039E+03 -0.39293907541E+03 -0.56631207679E+03  0.71143458629E+03  0.50400001928E-02 0.  1.
       -1    1    3    3    0  502 -0.17614961039E+03  0.39293907541E+03 -0.11253652737E+04  0.12049385053E+04  0.50400001928E-02 0. -1.
</event>
<event>
 5   0  0.1635686E-03  0.8895826E+03  0.7818609E-02  0.9438698E-01
        2   -1    0    0  501    0  0.00000000000E+00  0.00000000000E+00  0.51163547251E+03  0.51163547251E+03  0.25500000920E-02 0. -1.
       -2   -1    0    0    0  501  0.00000000000E+00  0.00000000000E+00 -0.38668017880E+03  0.38668017880E+03  0.25500000920E-02 0.  1.
    10030    2    1    2    0    0  0.00000000000E+00  0.00000000000E+00  0.12495529371E+03  0.89831565132E+03  0.88958258974E+03 0.  0.
        5    1    3    3  502    0  0.30597971370E+03  0.23375145919E+03  0.28726998637E+03  0.48042633664E+03  0.46999998093E+01 0.  1.
       -5    1    3    3    0  502 -0.30597971370E+03 -0.23375145919E+03 -0.16231469266E+03  0.41788931468E+03  0.46999998093E+01 0. -1.
</event>
<event>
 5   0  0.9981885E-04  0.9023326E+03  0.7818609E-02  0.9422670E-01
        1   -1    0    0  501    0  0.00000000000E+00  0.00000000000E+00  0.77744783431E+03  0.77744783432E+03  0.50400001928E-02 0.  1.
       -1   -1    0    0    0  501  0.00000000000E+00  0.00000000000E+00 -0.26181953571E+03  0.26181953576E+03  0.50400001928E-02 0. -1.
    10030    2    1    2    0    0  0.00000000000E+00  0.00000000000E+00  0.51562829860E+03  0.10392673701E+04  0.90233260176E+03 0.  0.
        4    1    3    3  502    0 -0.47461978456E+02 -0.37490454097E+03 -0.26049683570E+02  0.37879579348E+03  0.12699999809E+01 0. -1.
       -4    1    3    3    0  502  0.47461978456E+02  0.37490454097E+03  0.54167798217E+03  0.66047157661E+03  0.12699999809E+01 0.  1.
</event>
<event>
 5   0  0.9223454E-04  0.8893664E+03  0.7818609E-02  0.9438972E-01
        1   -1    0    0  501    0  0.00000000000E+00  0.00000000000E+00  0.43997385839E+03  0.43997385842E+03  0.50400001928E-02 0. -1.
       -1   -1    0    0    0  501  0.00000000000E+00  0.00000000000E+00 -0.44944298572E+03  0.44944298575E+03  0.50400001928E-02 0.  1.
    10030    2    1    2    0    0  0.00000000000E+00  0.00000000000E+00 -0.94691273276E+01  0.88941684417E+03  0.88936643647E+03 0.  0.
        1    1    3    3  502    0 -0.17404719539E+03 -0.19782968026E+03  0.35349539263E+03  0.44089454663E+03  0.50400001928E-02 0. -1.
       -1    1    3    3    0  502  0.17404719539E+03  0.19782968026E+03 -0.36296451996E+03  0.44852229754E+03  0.50400001928E-02 0.  1.
</event>
<event>
 5   0  0.9981885E-04  0.8986900E+03  0.7818609E-02  0.9427220E-01
        1   -1    0    0  501    0  0.00000000000E+00  0.00000000000E+00  0.43685442543E+03  0.43685442546E+03  0.50400001928E-02 0. -1.
       -1   -1    0    0    0  501  0.00000000000E+00  0.00000000000E+00 -0.46219273019E+03  0.46219273021E+03  0.50400001928E-02 0.  1.
    10030    2    1    2    0    0  0.00000000000E+00  0.00000000000E+00 -0.25338304758E+02  0.89904715567E+03  0.89869002355E+03 0.  0.
        4    1    3    3  502    0 -0.38457049209E+03 -0.76523645933E+02  0.20686963355E+03  0.44333620420E+03  0.12699999809E+01 0.  1.
       -4    1    3    3    0  502  0.38457049209E+03  0.76523645933E+02 -0.23220793831E+03  0.45571095147E+03  0.12699999809E+01 0. -1.
</event>
<event>
 5   0  0.1630202E-03  0.9002386E+03  0.7818609E-02  0.9425283E-01
        2   -1    0    0  501    0  0.00000000000E+00  0.00000000000E+00  0.35880708113E+03  0.35880708114E+03  0.25500000920E-02 0.  1.
       -2   -1    0    0    0  501  0.00000000000E+00  0.00000000000E+00 -0.56466940440E+03  0.56466940440E+03  0.25500000920E-02 0. -1.
    10030    2    1    2    0    0  0.00000000000E+00  0.00000000000E+00 -0.20586232327E+03  0.92347648555E+03  0.90023859238E+03 0.  0.
        4    1    3    3  502    0 -0.16212812769E+03  0.35360003272E+03 -0.33524385625E+03  0.51352562641E+03  0.12699999809E+01 0. -1.
       -4    1    3    3    0  502  0.16212812769E+03 -0.35360003272E+03  0.12938153299E+03  0.40995085913E+03  0.12699999809E+01 0.  1.
</event>
<event>
 5   0  0.9223454E-04  0.9011515E+03  0.7818609E-02  0.9424143E-01
        1   -1    0    0  501    0  0.00000000000E+00  0.00000000000E+00  0.78287699947E+02  0.78287700109E+02  0.50400001928E-02 0. -1.
       -1   -1    0    0    0  501  0.00000000000E+00  0.00000000000E+00 -0.25932361759E+04  0.25932361759E+04  0.50400001928E-02 0.  1.
    10030    2    1    2    0    0  0.00000000000E+00  0.00000000000E+00 -0.25149484759E+04  0.26715238760E+04  0.90115147639E+03 0.  0.
        1    1    3    3  502    0  0.56747737339E+01  0.45032416656E+03 -0.12988124409E+04  0.13746773493E+04  0.50400001928E-02 0.  1.
       -1    1    3    3    0  502 -0.56747737339E+01 -0.45032416656E+03 -0.12161360351E+04  0.12968465267E+04  0.50400001928E-02 0. -1.
</event>
<event>
 5   0  0.1641516E-03  0.9004677E+03  0.7818609E-02  0.9424997E-01
       -2   -1    0    0    0  501  0.00000000000E+00  0.00000000000E+00  0.29788840052E+03  0.29788840054E+03  0.25500000920E-02 0. -1.
        2   -1    0    0  501    0  0.00000000000E+00  0.00000000000E+00 -0.68049146879E+03  0.68049146880E+03  0.25500000920E-02 0.  1.
    10030    2    1    2    0    0  0.00000000000E+00  0.00000000000E+00 -0.38260306827E+03  0.97837986933E+03  0.90046769007E+03 0.  0.
        1    1    3    3  502    0 -0.23413351183E+03  0.21923889400E+03  0.15198906234E+03  0.35494347311E+03  0.50400001928E-02 0. -1.
       -1    1    3    3    0  502  0.23413351183E+03 -0.21923889400E+03 -0.53459213061E+03  0.62343639623E+03  0.50400001928E-02 0.  1.
</event>
<event>
 5   0  0.6375625E-04  0.9004445E+03  0.7818609E-02  0.9425026E-01
       -3   -1    0    0    0  501  0.00000000000E+00  0.00000000000E+00  0.83054713823E+03  0.83054714437E+03  0.10100000352E+00 0. -1.
        3   -1    0    0  501    0  0.00000000000E+00  0.00000000000E+00 -0.24405606202E+03  0.24405608292E+03  0.10100000352E+00 0.  1.
    10030    2    1    2    0    0  0.00000000000E+00  0.00000000000E+00  0.58649107621E+03  0.10746032273E+04  0.90044450892E+03 0.  0.
        2    1    3    3  502    0  0.15954496921E+03 -0.34704125338E+03  0.88024652887E+01  0.38205982797E+03  0.25500000920E-02 0.  1.
       -2    1    3    3    0  502 -0.15954496921E+03  0.34704125338E+03  0.57768861092E+03  0.69254339932E+03  0.25500000920E-02 0. -1.
</event>
<event>
 5   0  0.9697941E-04  0.8986236E+03  0.7818609E-02  0.9427304E-01
        1   -1    0    0  501    0  0.00000000000E+00  0.00000000000E+00  0.10981633011E+04  0.10981633011E+04  0.50400001928E-02 0.  1.
       -1   -1    0    0    0  501  0.00000000000E+00  0.00000000000E+00 -0.18383521728E+03  0.18383521735E+03  0.50400001928E-02 0. -1.
    10030    2    1    2    0    0  0.00000000000E+00  0.00000000000E+00  0.91432808378E+03  0.12819985184E+04  0.89862358997E+03 0.  0.
        5    1    3    3  502    0  0.15017334436E+03 -0.24112444895E+03  0.95375640042E+03  0.99517154028E+03  0.46999998093E+01 0.  1.
       -5    1    3    3    0  502 -0.15017334436E+03  0.24112444895E+03 -0.39428316647E+02  0.28682697814E+03  0.46999998093E+01 0. -1.
</event>
<event>
 5   0  0.1704416E-03  0.9005212E+03  0.7818609E-02  0.9424930E-01
       -2   -1    0    0    0  501  0.00000000000E+00  0.00000000000E+00  0.10715913363E+03  0.10715913366E+03  0.25500000920E-02 0.  1.
        2   -1    0    0  501    0  0.00000000000E+00  0.00000000000E+00 -0.18919020585E+04  0.18919020585E+04  0.25500000920E-02 0. -1.
    10030    2    1    2    0    0  0.00000000000E+00  0.00000000000E+00 -0.17847429249E+04  0.19990611921E+04  0.90052115029E+03 0.  0.
        3    1    3    3  502    0 -0.10150154128E+03 -0.36252746699E+03 -0.14406710326E+04  0.14890472664E+04  0.10100000352E+00 0. -1.
       -3    1    3    3    0  502  0.10150154128E+03  0.36252746699E+03 -0.34407189225E+03  0.51001392573E+03  0.10100000352E+00 0.  1.
</event>
<event>
 5   0  0.9223454E-04  0.9054850E+03  0.7818609E-02  0.9418751E-01
        1   -1    0    0  501    0  0.00000000000E+00  0.00000000000E+00  0.93234419238E+03  0.93234419239E+03  0.50400001928E-02 0.  1.
       -1   -1    0    0    0  501  0.00000000000E+00  0.00000000000E+00 -0.21984988927E+03  0.21984988933E+03  0.50400001928E-02 0. -1.
    10030    2    1    2    0    0  0.00000000000E+00  0.00000000000E+00  0.71249430310E+03  0.11521940817E+04  0.90548499159E+03 0.  0.
        1    1    3    3  502    0 -0.22512870197E+03 -0.24753515304E+02 -0.14258357733E+03  0.26762986664E+03  0.50400001928E-02 0. -1.
       -1    1    3    3    0  502  0.22512870197E+03  0.24753515304E+02  0.85507788043E+03  0.88456421508E+03  0.50400001928E-02 0.  1.
</event>
<event>
 5   0  0.9697941E-04  0.8997137E+03  0.7818609E-02  0.9425939E-01
        1   -1    0    0  501    0  0.00000000000E+00  0.00000000000E+00  0.24773477807E+04  0.24773477807E+04  0.50400001928E-02 0. -1.
       -1   -1    0    0    0  501  0.00000000000E+00  0.00000000000E+00 -0.81688641260E+02  0.81688641415E+02  0.50400001928E-02 0.  1.
    10030    2    1    2    0    0  0.00000000000E+00  0.00000000000E+00  0.23956591394E+04  0.25590364221E+04  0.89971367521E+03 0.  0.
        5    1    3    3  502    0  0.56695675312E+02  0.31882758660E+03  0.30977828472E+03  0.44816303424E+03  0.46999998093E+01 0.  1.
       -5    1    3    3    0  502 -0.56695675312E+02 -0.31882758660E+03  0.20858808547E+04  0.21108733879E+04  0.46999998093E+01 0. -1.
</event>
<event>
 5   0  0.6375625E-04  0.8997656E+03  0.7818609E-02  0.9425875E-01
        3   -1    0    0  501    0  0.00000000000E+00  0.00000000000E+00  0.70525398919E+03  0.70525399642E+03  0.10100000352E+00 0.  1.
       -3   -1    0    0    0  501  0.00000000000E+00  0.00000000000E+00 -0.28698101740E+03  0.28698103518E+03  0.10100000352E+00 0. -1.
    10030    2    1    2    0    0  0.00000000000E+00  0.00000000000E+00  0.41827297178E+03  0.99223503159E+03  0.89976556891E+03 0.  0.
        1    1    3    3  502    0  0.22835399900E+03  0.97691524928E+02 -0.20452060274E+03  0.32174191501E+03  0.50400001928E-02 0. -1.
       -1    1    3    3    0  502 -0.22835399900E+03 -0.97691524928E+02  0.62279357452E+03  0.67049311659E+03  0.50400001928E-02 0.  1.
</event>
<event>
 5   0  0.1635686E-03  0.8997268E+03  0.7818609E-02  0.9425923E-01
       -2   -1    0    0    0  501  0.00000000000E+00  0.00000000000E+00  0.32033748300E+03  0.32033748301E+03  0.25500000920E-02 0. -1.
        2   -1    0    0  501    0  0.00000000000E+00  0.00000000000E+00 -0.63176204026E+03  0.63176204026E+03  0.25500000920E-02 0.  1.
    10030    2    1    2    0    0  0.00000000000E+00  0.00000000000E+00 -0.31142455726E+03  0.95209952328E+03  0.89972676262E+03 0.  0.
        5    1    3    3  502    0  0.17178107428E+03 -0.37976930430E+03  0.23314492546E+02  0.41749145803E+03  0.46999998093E+01 0. -1.
       -5    1    3    3    0  502 -0.17178107428E+03  0.37976930430E+03 -0.33473904980E+03  0.53460806525E+03  0.46999998093E+01 0.  1.
</event>
<event>
 5   0  0.9223454E-04  0.8999821E+03  0.7818609E-02  0.9425604E-01
        1   -1    0    0  501    0  0.00000000000E+00  0.00000000000E+00  0.10822969068E+04  0.10822969069E+04  0.50400001928E-02 0.  1.
       -1   -1    0    0    0  501  0.00000000000E+00  0.00000000000E+00 -0.18709464872E+03  0.18709464879E+03  0.50400001928E-02 0. -1.
    10030    2    1    2    0    0  0.00000000000E+00  0.00000000000E+00  0.89520225812E+03  0.12693915556E+04  0.89998213237E+03 0.  0.
        1    1    3    3  502    0  0.23870154226E+03  0.38103027665E+03  0.47320255346E+03  0.65275045357E+03  0.50400001928E-02 0. -1.
       -1    1    3    3    0  502 -0.23870154226E+03 -0.38103027665E+03  0.42199970466E+03  0.61664110207E+03  0.50400001928E-02 0.  1.
</event>
<event>
 5   0  0.9697941E-04  0.8993877E+03  0.7818609E-02  0.9426347E-01
        1   -1    0    0  501    0  0.00000000000E+00  0.00000000000E+00  0.11380034804E+04  0.11380034804E+04  0.50400001928E-02 0.  1.
       -1   -1    0    0    0  501  0.00000000000E+00  0.00000000000E+00 -0.17770117835E+03  0.17770117843E+03  0.50400001928E-02 0. -1.
    10030    2    1    2    0    0  0.00000000000E+00  0.00000000000E+00  0.96030230204E+03  0.13157046588E+04  0.89938770170E+03 0.  0.
        5    1    3    3  502    0 -0.20062637789E+03 -0.98746275037E+02 -0.90564511747E+02  0.24130020954E+03  0.46999998093E+01 0. -1.
       -5    1    3    3    0  502  0.20062637789E+03  0.98746275037E+02  0.10508668138E+04  0.10744044493E+04  0.46999998093E+01 0.  1.
</event>
<event>
 5   0  0.9321543E-04  0.8995192E+03  0.7818609E-02  0.9426183E-01
        1   -1    0    0  501    0  0.00000000000E+00  0.00000000000E+00  0.76285764561E+03  0.76285764563E+03  0.50400001928E-02 0. -1.
       -1   -1    0    0    0  501  0.00000000000E+00  0.00000000000E+00 -0.26516573935E+03  0.26516573940E+03  0.50400001928E-02 0.  1.
    10030    2    1    2    0    0  0.00000000000E+00  0.00000000000E+00  0.49769190626E+03  0.10280233850E+04  0.89951923082E+03 0.  0.
        3    1    3    3  502    0 -0.35915676666E+03 -0.17705509819E+03  0.14792478218E+02  0.40070053462E+03  0.10100000352E+00 0.  1.
       -3    1    3    3    0  502  0.35915676666E+03  0.17705509819E+03  0.48289942804E+03  0.62732285041E+03  0.10100000352E+00 0. -1.
</event>
<event>
 5   0  0.1630202E-03  0.8998372E+03  0.7818609E-02  0.9425785E-01
        2   -1    0    0  501    0  0.00000000000E+00  0.00000000000E+00  0.18935809005E+04  0.18935809005E+04  0.25500000920E-02 0. -1.
       -2   -1    0    0    0  501  0.00000000000E+00  0.00000000000E+00 -0.10690154589E+03  0.10690154592E+03  0.25500000920E-02 0.  1.
    10030    2    1    2    0    0  0.00000000000E+00  0.00000000000E+00  0.17866793546E+04  0.20004824464E+04  0.89983715317E+03 0.  0.
        4    1    3    3  502    0 -0.21035402657E+03  0.39429180405E+03  0.77760138856E+03  0.89687255261E+03  0.12699999809E+01 0.  1.
       -4    1    3    3    0  502  0.21035402657E+03 -0.39429180405E+03  0.10090779660E+04  0.11036098938E+04  0.12699999809E+01 0. -1.
</event>
<event>
 5   0  0.1007561E-03  0.9024708E+03  0.7818609E-02  0.9422498E-01
        1   -1    0    0  501    0  0.00000000000E+00  0.00000000000E+00  0.11759428026E+04  0.11759428026E+04  0.50400001928E-02 0. -1.
       -1   -1    0    0    0  501  0.00000000000E+00  0.00000000000E+00 -0.17314907284E+03  0.17314907291E+03  0.50400001928E-02 0.  1.
    10030    2    1    2    0    0  0.00000000000E+00  0.00000000000E+00  0.10027937298E+04  0.13490918755E+04  0.90247084394E+03 0.  0.
        2    1    3    3  502    0 -0.26737143660E+03  0.57277795854E+02 -0.35192952138E+02  0.27569326233E+03  0.25500000920E-02 0.  1.
       -2    1    3    3    0  502  0.26737143660E+03 -0.57277795854E+02  0.10379866819E+04  0.10733986132E+04  0.25500000920E-02 0. -1.
</event>
<event>
 5   0  0.9697941E-04  0.8985475E+03  0.7818609E-02  0.9427399E-01
        1   -1    0    0  501    0  0.00000000000E+00  0.00000000000E+00  0.63157721424E+03  0.63157721426E+03  0.50400001928E-02 0.  1.
       -1   -1    0    0    0  501  0.00000000000E+00  0.00000000000E+00 -0.31959179815E+03  0.31959179819E+03  0.50400001928E-02 0. -1.
    10030    2    1    2    0    0  0.00000000000E+00  0.00000000000E+00  0.31198541609E+03  0.95116901245E+03  0.89854748923E+03 0.  0.
        5    1    3    3  502    0  0.13108136004E+03 -0.26824295131E+03 -0.19935693730E+03  0.35902908284E+03  0.46999998093E+01 0. -1.
       -5    1    3    3    0  502 -0.13108136004E+03  0.26824295131E+03  0.51134235338E+03  0.59213992961E+03  0.46999998093E+01 0.  1.
</event>
<event>
 5   0  0.1641516E-03  0.8998377E+03  0.7818609E-02  0.9425784E-01
       -2   -1    0    0    0  501  0.00000000000E+00  0.00000000000E+00  0.26188452194E+03  0.26188452195E+03  0.25500000920E-02 0.  1.
        2   -1    0    0  501    0  0.00000000000E+00  0.00000000000E+00 -0.77296267713E+03  0.77296267713E+03  0.25500000920E-02 0. -1.
    10030    2    1    2    0    0  0.00000000000E+00  0.00000000000E+00 -0.51107815519E+03  0.10348471991E+04  0.89983767688E+03 0.  0.
        1    1    3    3  502    0  0.16617654926E+03 -0.21755528651E+03  0.15507753060E+03  0.31463310178E+03  0.50400001928E-02 0.  1.
       -1    1    3    3    0  502 -0.16617654926E+03  0.21755528651E+03 -0.66615568580E+03  0.72021409730E+03  0.50400001928E-02 0. -1.
</event>
<event>
 5   0  0.1630202E-03  0.9008551E+03  0.7818609E-02  0.9424513E-01
        2   -1    0    0  501    0  0.00000000000E+00  0.00000000000E+00  0.11588137175E+04  0.11588137175E+04  0.25500000920E-02 0. -1.
       -2   -1    0    0    0  501  0.00000000000E+00  0.00000000000E+00 -0.17507988766E+03  0.17507988768E+03  0.25500000920E-02 0.  1.
    10030    2    1    2    0    0  0.00000000000E+00  0.00000000000E+00  0.98373382980E+03  0.13338936051E+04  0.90085509487E+03 0.  0.
        4    1    3    3  502    0  0.12052205564E+03  0.28892657164E+03  0.12342192593E+02  0.31330188686E+03  0.12699999809E+01 0.  1.
       -4    1    3    3    0  502 -0.12052205564E+03 -0.28892657164E+03  0.97139163721E+03  0.10205917183E+04  0.12699999809E+01 0. -1.
</event>
<event>
 5   0  0.1630202E-03  0.9008204E+03  0.7818609E-02  0.9424557E-01
        2   -1    0    0  501    0  0.00000000000E+00  0.00000000000E+00  0.22259332710E+04  0.22259332710E+04  0.25500000920E-02 0.  1.
       -2   -1    0    0    0  501  0.00000000000E+00  0.00000000000E+00 -0.91139000025E+02  0.91139000060E+02  0.25500000920E-02 0. -1.
    10030    2    1    2    0    0  0.00000000000E+00  0.00000000000E+00  0.21347942710E+04  0.23170722711E+04  0.90082036497E+03 0.  0.
        4    1    3    3  502    0  0.41351154001E+03 -0.67095432093E+02  0.14929676573E+04  0.15506281402E+04  0.12699999809E+01 0.  1.
       -4    1    3    3    0  502 -0.41351154001E+03  0.67095432093E+02  0.64182661374E+03  0.76644413086E+03  0.12699999809E+01 0. -1.
</event>
<event>
 5   0  0.1536020E-03  0.8999039E+03  0.7818609E-02  0.9425702E-01
       -2   -1    0    0    0  501  0.00000000000E+00  0.00000000000E+00  0.24236762372E+03  0.24236762373E+03  0.25500000920E-02 0.  1.
        2   -1    0    0  501    0  0.00000000000E+00  0.00000000000E+00 -0.83532919163E+03  0.83532919163E+03  0.25500000920E-02 0. -1.
    10030    2    1    2    0    0  0.00000000000E+00  0.00000000000E+00 -0.59296156791E+03  0.10776968154E+04  0.89990388644E+03 0.  0.
        2    1    3    3  502    0 -0.42382925579E+03 -0.14944183527E+03 -0.32306171323E+03  0.55347355019E+03  0.25500000920E-02 0.  1.
       -2    1    3    3    0  502  0.42382925579E+03  0.14944183527E+03 -0.26989985468E+03  0.52422326518E+03  0.25500000920E-02 0. -1.
</event>
<event>
 5   0  0.1704416E-03  0.8981777E+03  0.7818609E-02  0.9427862E-01
       -2   -1    0    0    0  501  0.00000000000E+00  0.00000000000E+00  0.23745119298E+03  0.23745119300E+03  0.25500000920E-02 0. -1.
        2   -1    0    0  501    0  0.00000000000E+00  0.00000000000E+00 -0.84935686733E+03  0.84935686734E+03  0.25500000920E-02 0.  1.
    10030    2    1    2    0    0  0.00000000000E+00  0.00000000000E+00 -0.61190567435E+03  0.10868080603E+04  0.89817771388E+03 0.  0.
        3    1    3    3  502    0  0.39805547408E+03 -0.16639863874E+03 -0.45681269678E+03  0.62834267526E+03  0.10100000352E+00 0. -1.
       -3    1    3    3    0  502 -0.39805547408E+03  0.16639863874E+03 -0.15509297757E+03  0.45846538507E+03  0.10100000352E+00 0.  1.
</event>
<event>
 5   0  0.9321543E-04  0.8993135E+03  0.7818609E-02  0.9426440E-01
       -1   -1    0    0    0  501  0.00000000000E+00  0.00000000000E+00  0.16192503643E+03  0.16192503651E+03  0.50400001928E-02 0. -1.
        1   -1    0    0  501    0  0.00000000000E+00  0.00000000000E+00 -0.12486717174E+04  0.12486717174E+04  0.50400001928E-02 0.  1.
    10030    2    1    2    0    0  0.00000000000E+00  0.00000000000E+00 -0.10867466810E+04  0.14105967540E+04  0.89931354576E+03 0.  0.
        3    1    3    3  502    0  0.43657830400E+03 -0.65810180284E+02 -0.67701698975E+03  0.80825961792E+03  0.10100000352E+00 0.  1.
       -3    1    3    3    0  502 -0.43657830400E+03  0.65810180284E+02 -0.40972969126E+03  0.60233713603E+03  0.10100000352E+00 0. -1.
</event>
<event>
 5   0  0.9981885E-04  0.9227831E+03  0.7818609E-02  0.9397541E-01
       -1   -1    0    0    0  501  0.00000000000E+00  0.00000000000E+00  0.53196820552E+03  0.53196820555E+03  0.50400001928E-02 0.  1.
        1   -1    0    0  501    0  0.00000000000E+00  0.00000000000E+00 -0.40017836029E+03  0.40017836032E+03  0.50400001928E-02 0. -1.
    10030    2    1    2    0    0  0.00000000000E+00  0.00000000000E+00  0.13178984523E+03  0.93214656587E+03  0.92278310396E+03 0.  0.
        4    1    3    3  502    0  0.31421939811E+03 -0.11738782989E+03  0.38591678549E+03  0.51131899141E+03  0.12699999809E+01 0.  1.
       -4    1    3    3    0  502 -0.31421939811E+03  0.11738782989E+03 -0.25412694026E+03  0.42082757446E+03  0.12699999809E+01 0. -1.
</event>
<event>
 5   0  0.1704416E-03  0.9002031E+03  0.7818609E-02  0.9425328E-01
       -2   -1    0    0    0  501  0.00000000000E+00  0.00000000000E+00  0.34973239214E+03  0.34973239215E+03  0.25500000920E-02 0.  1.
        2   -1    0    0  501    0  0.00000000000E+00  0.00000000000E+00 -0.57927544835E+03  0.57927544835E+03  0.25500000920E-02 0. -1.
    10030    2    1    2    0    0  0.00000000000E+00  0.00000000000E+00 -0.22954305620E+03  0.92900784050E+03  0.90020306213E+03 0.  0.
        3    1    3    3  502    0 -0.41340928733E+03  0.14240475417E+03 -0.45600014779E+01  0.43727240557E+03  0.10100000352E+00 0.  1.
       -3    1    3    3    0  502  0.41340928733E+03 -0.14240475417E+03 -0.22498305472E+03  0.49173543494E+03  0.10100000352E+00 0. -1.
</event>
<event>
 5   0  0.1536020E-03  0.8994366E+03  0.7818609E-02  0.9426286E-01
        2   -1    0    0  501    0  0.00000000000E+00  0.00000000000E+00  0.84772865131E+03  0.84772865132E+03  0.25500000920E-02 0.  1.
       -2   -1    0    0    0  501  0.00000000000E+00  0.00000000000E+00 -0.23857463484E+03  0.23857463486E+03  0.25500000920E-02 0. -1.
    10030    2    1    2    0    0  0.00000000000E+00  0.00000000000E+00  0.60915401647E+03  0.10863032862E+04  0.89943660909E+03 0.  0.
        2    1    3    3  502    0 -0.44111459567E+03  0.40542432181E+02  0.21086249706E+03  0.49060041581E+03  0.25500000920E-02 0.  1.
       -2    1    3    3    0  502  0.44111459567E+03 -0.40542432181E+02  0.39829151941E+03  0.59570287036E+03  0.25500000920E-02 0. -1.
</event>
<event>
 5   0  0.9223454E-04  0.8980569E+03  0.7818609E-02  0.9428014E-01
       -1   -1    0    0    0  501  0.00000000000E+00  0.00000000000E+00  0.50414748021E+03  0.50414748023E+03  0.50400001928E-02 0.  1.
        1   -1    0    0  501    0  0.00000000000E+00  0.00000000000E+00 -0.39993567595E+03  0.39993567598E+03  0.50400001928E-02 0. -1.
    10030    2    1    2    0    0  0.00000000000E+00  0.00000000000E+00  0.10421180426E+03  0.90408315622E+03  0.89805693205E+03 0.  0.
        1    1    3    3  502    0 -0.12468322988E+03 -0.22253014600E+03 -0.31991542368E+03  0.40915944573E+03  0.50400001928E-02 0. -1.
       -1    1    3    3    0  502  0.12468322988E+03  0.22253014600E+03  0.42412722794E+03  0.49492371049E+03  0.50400001928E-02 0.  1.
</event>
<event>
 5   0  0.1641516E-03  0.8998214E+03  0.7818609E-02  0.9425805E-01
       -2   -1    0    0    0  501  0.00000000000E+00  0.00000000000E+00  0.30658540711E+03  0.30658540712E+03  0.25500000920E-02 0.  1.
        2   -1    0    0  501    0  0.00000000000E+00  0.00000000000E+00 -0.66023898721E+03  0.66023898721E+03  0.25500000920E-02 0. -1.
    10030    2    1    2    0    0  0.00000000000E+00  0.00000000000E+00 -0.35365358009E+03  0.96682439433E+03  0.89982140159E+03 0.  0.
        1    1    3    3  502    0 -0.44211922018E+03  0.51286196904E+02 -0.24744734651E+03  0.50924440906E+03  0.50400001928E-02 0. -1.
       -1    1    3    3    0  502  0.44211922018E+03 -0.51286196904E+02 -0.10620623358E+03  0.45757998527E+03  0.50400001928E-02 0.  1.
</event>
<event>
 5   0  0.1007561E-03  0.8982688E+03  0.7818609E-02  0.9427748E-01
        1   -1    0    0  501    0  0.00000000000E+00  0.00000000000E+00  0.17974191183E+04  0.17974191183E+04  0.50400001928E-02 0.  1.
       -1   -1    0    0    0  501  0.00000000000E+00  0.00000000000E+00 -0.11222852781E+03  0.11222852793E+03  0.50400001928E-02 0. -1.
    10030    2    1    2    0    0  0.00000000000E+00  0.00000000000E+00  0.16851905905E+04  0.19096476462E+04  0.89826878299E+03 0.  0.
        2    1    3    3  502    0 -0.89394081634E+02 -0.16835960161E+03  0.17071561681E+04  0.17177655369E+04  0.25500000920E-02 0.  1.
       -2    1    3    3    0  502  0.89394081634E+02  0.16835960161E+03 -0.21965577643E+02  0.19188210936E+03  0.25500000920E-02 0. -1.
</event>
<event>
 5   0  0.1635686E-03  0.9035748E+03  0.7818609E-02  0.9421124E-01
        2   -1    0    0  501    0  0.00000000000E+00  0.00000000000E+00  0.11410953377E+04  0.11410953377E+04  0.25500000920E-02 0.  1.
       -2   -1    0    0    0  501  0.00000000000E+00  0.00000000000E+00 -0.17887363773E+03  0.17887363774E+03  0.25500000920E-02 0. -1.
    10030    2    1    2    0    0  0.00000000000E+00  0.00000000000E+00  0.96222169998E+03  0.13199689755E+04  0.90357484264E+03 0.  0.
        5    1    3    3  502    0  0.44292471443E+03  0.67843696792E+02  0.39713265274E+03  0.59876665214E+03  0.46999998093E+01 0. -1.
       -5    1    3    3    0  502 -0.44292471443E+03 -0.67843696792E+02  0.56508904724E+03  0.72120232331E+03  0.46999998093E+01 0.  1.
</event>
<event>
 5   0  0.1007561E-03  0.9020698E+03  0.7818609E-02  0.9422998E-01
        1   -1    0    0  501    0  0.00000000000E+00  0.00000000000E+00  0.32137919404E+03  0.32137919408E+03  0.50400001928E-02 0.  1.
       -1   -1    0    0    0  501  0.00000000000E+00  0.00000000000E+00 -0.63299836164E+03  0.63299836166E+03  0.50400001928E-02 0. -1.
    10030    2    1    2    0    0  0.00000000000E+00  0.00000000000E+00 -0.31161916760E+03  0.95437755573E+03  0.90206984944E+03 0.  0.
        2    1    3    3  502    0 -0.12641441029E+03 -0.36765652914E+03  0.86098418564E+02  0.39820203946E+03  0.25500000920E-02 0.  1.
       -2    1    3    3    0  502  0.12641441029E+03  0.36765652914E+03 -0.39771758616E+03  0.55617551627E+03  0.25500000920E-02 0. -1.
</event>
<event>
 5   0  0.9321543E-04  0.8996005E+03  0.7818609E-02  0.9426081E-01
        1   -1    0    0  501    0  0.00000000000E+00  0.00000000000E+00  0.79349447897E+03  0.79349447898E+03  0.50400001928E-02 0.  1.
       -1   -1    0    0    0  501  0.00000000000E+00  0.00000000000E+00 -0.25497374275E+03  0.25497374280E+03  0.50400001928E-02 0. -1.
    10030    2    1    2    0    0  0.00000000000E+00  0.00000000000E+00  0.53852073621E+03  0.10484682218E+04  0.89960048286E+03 0.  0.
        3    1    3    3  502    0 -0.86303297540E+02  0.18134248844E+03 -0.19981812934E+03  0.28330311028E+03  0.10100000352E+00 0. -1.
       -3    1    3    3    0  502  0.86303297540E+02 -0.18134248844E+03  0.73833886555E+03  0.76516511151E+03  0.10100000352E+00 0.  1.
</event>
<event>
 5   0  0.9697941E-04  0.9001768E+03  0.7818609E-02  0.9425360E-01
       -1   -1    0    0    0  501  0.00000000000E+00  0.00000000000E+00  0.32644896186E+03  0.32644896190E+03  0.50400001928E-02 0.  1.
        1   -1    0    0  501    0  0.00000000000E+00  0.00000000000E+00 -0.62055506770E+03  0.62055506772E+03  0.50400001928E-02 0. -1.
    10030    2    1    2    0    0  0.00000000000E+00  0.00000000000E+00 -0.29410610584E+03  0.94700402962E+03  0.90017677743E+03 0.  0.
        5    1    3    3  502    0 -0.33722680469E+03  0.14141252099E+03 -0.42307162060E+03  0.55922366281E+03  0.46999998093E+01 0. -1.
       -5    1    3    3    0  502  0.33722680469E+03 -0.14141252099E+03  0.12896551476E+03  0.38778036681E+03  0.46999998093E+01 0.  1.
</event>
<event>
 5   0  0.1641516E-03  0.8984174E+03  0.7818609E-02  0.9427562E-01
       -2   -1    0    0    0  501  0.00000000000E+00  0.00000000000E+00  0.25848192694E+03  0.25848192695E+03  0.25500000920E-02 0.  1.
        2   -1    0    0  501    0  0.00000000000E+00  0.00000000000E+00 -0.78066757439E+03  0.78066757439E+03  0.25500000920E-02 0. -1.
    10030    2    1    2    0    0  0.00000000000E+00  0.00000000000E+00 -0.52218564746E+03  0.10391495013E+04  0.89841740618E+03 0.  0.
        1    1    3    3  502    0  0.28528053288E+02 -0.35384722856E+03 -0.57946800075E+03  0.67956226713E+03  0.50400001928E-02 0. -1.
       -1    1    3    3    0  502 -0.28528053288E+02  0.35384722856E+03  0.57282353296E+02  0.35958723421E+03  0.50400001928E-02 0.  1.
</event>
<event>
 5   0  0.9321543E-04  0.8998158E+03  0.7818609E-02  0.9425812E-01
       -1   -1    0    0    0  501  0.00000000000E+00  0.00000000000E+00  0.37246738385E+03  0.37246738388E+03  0.50400001928E-02 0. -1.
        1   -1    0    0  501    0  0.00000000000E+00  0.00000000000E+00 -0.54344922238E+03  0.54344922240E+03  0.50400001928E-02 0.  1.
    10030    2    1    2    0    0  0.00000000000E+00  0.00000000000E+00 -0.17098183853E+03  0.91591660628E+03  0.89981578145E+03 0.  0.
        3    1    3    3  502    0  0.14842005482E+03 -0.39763242420E+03  0.66434727547E+02  0.42959706781E+03  0.10100000352E+00 0. -1.
       -3    1    3    3    0  502 -0.14842005482E+03  0.39763242420E+03 -0.23741656608E+03  0.48631953847E+03  0.10100000352E+00 0.  1.
</event>
<event>
 5   0  0.1536020E-03  0.8982377E+03  0.7818609E-02  0.9427787E-01
        2   -1    0    0  501    0  0.00000000000E+00  0.00000000000E+00  0.14537184822E+04  0.14537184822E+04  0.25500000920E-02 0. -1.
       -2   -1    0    0    0  501  0.00000000000E+00  0.00000000000E+00 -0.13875297275E+03  0.13875297278E+03  0.25500000920E-02 0.  1.
    10030    2    1    2    0    0  0.00000000000E+00  0.00000000000E+00  0.13149655095E+04  0.15924714550E+04  0.89823774353E+03 0.  0.
        2    1    3    3  502    0  0.44834477964E+03  0.10244112510E+01  0.61078920950E+03  0.75767905428E+03  0.25500000920E-02 0.  1.
       -2    1    3    3    0  502 -0.44834477964E+03 -0.10244112510E+01  0.70417629998E+03  0.83479240073E+03  0.25500000920E-02 0. -1.
</event>
<event>
 5   0  0.9981885E-04  0.9009525E+03  0.7818609E-02  0.9424392E-01
       -1   -1    0    0    0  501  0.00000000000E+00  0.00000000000E+00  0.78918251633E+03  0.78918251635E+03  0.50400001928E-02 0.  1.
        1   -1    0    0  501    0  0.00000000000E+00  0.00000000000E+00 -0.25713805295E+03  0.25713805300E+03  0.50400001928E-02 0. -1.
    10030    2    1    2    0    0  0.00000000000E+00  0.00000000000E+00  0.53204446338E+03  0.10463205694E+04  0.90095250865E+03 0.  0.
        4    1    3    3  502    0 -0.34325489197E+03 -0.22514787426E+03  0.50587219399E+02  0.41361354645E+03  0.12699999809E+01 0. -1.
       -4    1    3    3    0  502  0.34325489197E+03  0.22514787426E+03  0.48145724398E+03  0.63270702290E+03  0.12699999809E+01 0.  1.
</event>
<event>
 5   0  0.9697941E-04  0.8989897E+03  0.7818609E-02  0.9426845E-01
        1   -1    0    0  501    0  0.00000000000E+00  0.00000000000E+00  0.33609678326E+03  0.33609678330E+03  0.50400001928E-02 0. -1.
       -1   -1    0    0    0  501  0.00000000000E+00  0.00000000000E+00 -0.60115311160E+03  0.60115311163E+03  0.50400001928E-02 0.  1.
    10030    2    1    2    0    0  0.00000000000E+00  0.00000000000E+00 -0.26505632834E+03  0.93724989493E+03  0.89898971537E+03 0.  0.
        5    1    3    3  502    0  0.58592778923E+01 -0.35319535133E+03 -0.42228129302E+03  0.55056776856E+03  0.46999998093E+01 0.  1.
       -5    1    3    3    0  502 -0.58592778923E+01  0.35319535133E+03  0.15722496468E+03  0.38668212637E+03  0.46999998093E+01 0. -1.
</event>
<event>
 5   0  0.1635686E-03  0.8994337E+03  0.7818609E-02  0.9426290E-01
        2   -1    0    0  501    0  0.00000000000E+00  0.00000000000E+00  0.10822028979E+04  0.10822028979E+04  0.25500000920E-02 0.  1.
       -2   -1    0    0    0  501  0.00000000000E+00  0.00000000000E+00 -0.18688290717E+03  0.18688290718E+03  0.25500000920E-02 0. -1.
    10030    2    1    2    0    0  0.00000000000E+00  0.00000000000E+00  0.89531999074E+03  0.12690858051E+04  0.89943365229E+03 0.  0.
        5    1    3    3  502    0 -0.16760449960E+03 -0.23592697796E+02 -0.14018896384E+03  0.21982474669E+03  0.46999998093E+01 0. -1.
       -5    1    3    3    0  502  0.16760449960E+03  0.23592697796E+02  0.10355089546E+04  0.10492610584E+04  0.46999998093E+01 0.  1.
</event>
<event>
 5   0  0.9697941E-04  0.9000029E+03  0.7818609E-02  0.9425578E-01
        1   -1    0    0  501    0  0.00000000000E+00  0.00000000000E+00  0.11267606189E+04  0.11267606189E+04  0.50400001928E-02 0.  1.
       -1   -1    0    0    0  501  0.00000000000E+00  0.00000000000E+00 -0.17971989849E+03  0.17971989856E+03  0.50400001928E-02 0. -1.
    10030    2    1    2    0    0  0.00000000000E+00  0.00000000000E+00  0.94704072041E+03  0.13064805175E+04  0.90000289799E+03 0.  0.
        5    1    3    3  502    0  0.29227478155E+03  0.33301677549E+03  0.35963833397E+03  0.57068953201E+03  0.46999998093E+01 0. -1.
       -5    1    3    3    0  502 -0.29227478155E+03 -0.33301677549E+03  0.58740238643E+03  0.73579098545E+03  0.46999998093E+01 0.  1.
</event>
<event>
 5   0  0.1007561E-03  0.8994450E+03  0.7818609E-02  0.9426275E-01
        1   -1    0    0  501    0  0.00000000000E+00  0.00000000000E+00  0.14772819113E+04  0.14772819113E+04  0.50400001928E-02 0. -1.
       -1   -1    0    0    0  501  0.00000000000E+00  0.00000000000E+00 -0.13690706238E+03  0.13690706248E+03  0.50400001928E-02 0.  1.
    10030    2    1    2    0    0  0.00000000000E+00  0.00000000000E+00  0.13403748490E+04  0.16141889738E+04  0.89944499971E+03 0.  0.
        2    1    3    3  502    0  0.35412192416E+03 -0.25043159484E+03  0.88353203256E+03  0.98424954835E+03  0.25500000920E-02 0. -1.
       -2    1    3    3    0  502 -0.35412192416E+03  0.25043159484E+03  0.45684281639E+03  0.62993942547E+03  0.25500000920E-02 0.  1.
</event>
<event>
 5   0  0.1641516E-03  0.8989219E+03  0.7818609E-02  0.9426930E-01
       -2   -1    0    0    0  501  0.00000000000E+00  0.00000000000E+00  0.45005144516E+03  0.45005144517E+03  0.25500000920E-02 0. -1.
        2   -1    0    0  501    0  0.00000000000E+00  0.00000000000E+00 -0.44887125904E+03  0.44887125905E+03  0.25500000920E-02 0.  1.
    10030    2    1    2    0    0  0.00000000000E+00  0.00000000000E+00  0.11801861211E+01  0.89892270422E+03  0.89892192950E+03 0.  0.
        1    1    3    3  502    0  0.37499492640E+03  0.22769046524E+03 -0.97139290868E+02  0.44933304424E+03  0.50400001928E-02 0. -1.
       -1    1    3    3    0  502 -0.37499492640E+03 -0.22769046524E+03  0.98319476990E+02  0.44958965999E+03  0.50400001928E-02 0.  1.
</event>
<event>
 5   0  0.9981885E-04  0.9117999E+03  0.7818609E-02  0.9410950E-01
        1   -1    0    0  501    0  0.00000000000E+00  0.00000000000E+00  0.28476323347E+03  0.28476323352E+03  0.50400001928E-02 0.  1.
       -1   -1    0    0    0  501  0.00000000000E+00  0.00000000000E+00 -0.72988624754E+03  0.72988624756E+03  0.50400001928E-02 0. -1.
    10030    2    1    2    0    0  0.00000000000E+00  0.00000000000E+00 -0.44512301406E+03  0.10146494811E+04  0.91179990776E+03 0.  0.
        4    1    3    3  502    0  0.21293498789E+03  0.35967426489E+03 -0.19994692690E+02  0.41845942041E+03  0.12699999809E+01 0.  1.
       -4    1    3    3    0  502 -0.21293498789E+03 -0.35967426489E+03 -0.42512832137E+03  0.59619006066E+03  0.12699999809E+01 0. -1.
</event>
<event>
 5   0  0.1641516E-03  0.8999902E+03  0.7818609E-02  0.9425594E-01
        2   -1    0    0  501    0  0.00000000000E+00  0.00000000000E+00  0.12713803582E+04  0.12713803582E+04  0.25500000920E-02 0. -1.
       -2   -1    0    0    0  501  0.00000000000E+00  0.00000000000E+00 -0.15927222465E+03  0.15927222467E+03  0.25500000920E-02 0.  1.
    10030    2    1    2    0    0  0.00000000000E+00  0.00000000000E+00  0.11121081335E+04  0.14306525828E+04  0.89999017336E+03 0.  0.
        1    1    3    3  502    0 -0.76271932844E+02  0.16556655846E+03 -0.97951031413E+02  0.20693984054E+03  0.50400001928E-02 0.  1.
       -1    1    3    3    0  502  0.76271932844E+02 -0.16556655846E+03  0.12100591649E+04  0.12237127423E+04  0.50400001928E-02 0. -1.
</event>
<event>
 5   0  0.1641516E-03  0.8998366E+03  0.7818609E-02  0.9425786E-01
        2   -1    0    0  501    0  0.00000000000E+00  0.00000000000E+00  0.31998098050E+03  0.31998098051E+03  0.25500000920E-02 0.  1.
       -2   -1    0    0    0  501  0.00000000000E+00  0.00000000000E+00 -0.63262036169E+03  0.63262036170E+03  0.25500000920E-02 0. -1.
    10030    2    1    2    0    0  0.00000000000E+00  0.00000000000E+00 -0.31263938119E+03  0.95260134221E+03  0.89983661545E+03 0.  0.
        1    1    3    3  502    0  0.57095530755E+02  0.16047072014E+01  0.31612715932E+03  0.32124578690E+03  0.50400001928E-02 0.  1.
       -1    1    3    3    0  502 -0.57095530755E+02 -0.16047072014E+01 -0.62876654051E+03  0.63135555530E+03  0.50400001928E-02 0. -1.
</event>
<event>
 5   0  0.9981885E-04  0.8999189E+03  0.7818609E-02  0.9425683E-01
       -1   -1    0    0    0  501  0.00000000000E+00  0.00000000000E+00  0.39638110344E+03  0.39638110347E+03  0.50400001928E-02 0.  1.
        1   -1    0    0  501    0  0.00000000000E+00  0.00000000000E+00 -0.51077989977E+03  0.51077989980E+03  0.50400001928E-02 0. -1.
    10030    2    1    2    0    0  0.00000000000E+00  0.00000000000E+00 -0.11439879634E+03  0.90716100327E+03  0.89991888592E+03 0.  0.
        4    1    3    3  502    0 -0.25710343902E+02 -0.27324556505E+03 -0.41663262976E+03  0.49890732775E+03  0.12699999809E+01 0. -1.
       -4    1    3    3    0  502  0.25710343902E+02  0.27324556505E+03  0.30223383342E+03  0.40825367551E+03  0.12699999809E+01 0.  1.
</event>
<event>
 5   0  0.9321543E-04  0.8980526E+03  0.7818609E-02  0.9428019E-01
       -1   -1    0    0    0  501  0.00000000000E+00  0.00000000000E+00  0.23018182494E+03  0.23018182500E+03  0.50400001928E-02 0. -1.
        1   -1    0    0  501    0  0.00000000000E+00  0.00000000000E+00 -0.87593629170E+03  0.87593629171E+03  0.50400001928E-02 0.  1.
    10030    2    1    2    0    0  0.00000000000E+00  0.00000000000E+00 -0.64575446676E+03  0.11061181167E+04  0.89805259132E+03 0.  0.
        3    1    3    3  502    0 -0.20356205900E+03  0.17499226306E+03 -0.76622369805E+03  0.81188581072E+03  0.10100000352E+00 0.  1.
       -3    1    3    3    0  502  0.20356205900E+03 -0.17499226306E+03  0.12046923129E+03  0.29423230599E+03  0.10100000352E+00 0. -1.
</event>
<event>
 5   0  0.6375625E-04  0.9015139E+03  0.7818609E-02  0.9423691E-01
       -3   -1    0    0    0  501  0.00000000000E+00  0.00000000000E+00  0.11371619425E+04  0.11371619470E+04  0.10100000352E+00 0.  1.
        3   -1    0    0  501    0  0.00000000000E+00  0.00000000000E+00 -0.17867447819E+03  0.17867450674E+03  0.10100000352E+00 0. -1.
    10030    2    1    2    0    0  0.00000000000E+00  0.00000000000E+00  0.95848746427E+03  0.13158364537E+04  0.90151392318E+03 0.  0.
        3    1    3    3  502    0  0.66350512022E+02 -0.58642343622E+02 -0.16585418207E+03  0.18801312407E+03  0.10100000352E+00 0. -1.
       -3    1    3    3    0  502 -0.66350512022E+02  0.58642343622E+02  0.11243416463E+04  0.11278233296E+04  0.10100000352E+00 0.  1.
</event>
<event>
 5   0  0.1630202E-03  0.9004012E+03  0.7818609E-02  0.9425080E-01
       -2   -1    0    0    0  501  0.00000000000E+00  0.00000000000E+00  0.24572831309E+03  0.24572831311E+03  0.25500000920E-02 0. -1.
        2   -1    0    0  501    0  0.00000000000E+00  0.00000000000E+00 -0.82481577849E+03  0.82481577850E+03  0.25500000920E-02 0.  1.
    10030    2    1    2    0    0  0.00000000000E+00  0.00000000000E+00 -0.57908746540E+03  0.10705440916E+04  0.90040122139E+03 0.  0.
        4    1    3    3  502    0  0.38367911636E+02 -0.21459476444E+03 -0.75787453800E+03  0.78860537522E+03  0.12699999809E+01 0.  1.
       -4    1    3    3    0  502 -0.38367911636E+02  0.21459476444E+03  0.17878707260E+03  0.28193871639E+03  0.12699999809E+01 0. -1.
</event>
<event>
 5   0  0.9981885E-04  0.8985875E+03  0.7818609E-02  0.9427349E-01
       -1   -1    0    0    0  501  0.00000000000E+00  0.00000000000E+00  0.18064886720E+03  0.18064886727E+03  0.50400001928E-02 0. -1.
        1   -1    0    0  501    0  0.00000000000E+00  0.00000000000E+00 -0.11174432990E+04  0.11174432990E+04  0.50400001928E-02 0.  1.
    10030    2    1    2    0    0  0.00000000000E+00  0.00000000000E+00 -0.93679443177E+03  0.12980921663E+04  0.89858748306E+03 0.  0.
        4    1    3    3  502    0 -0.14769596541E+03 -0.11967206570E+03 -0.10564858470E+04  0.10734521225E+04  0.12699999809E+01 0.  1.
       -4    1    3    3    0  502  0.14769596541E+03  0.11967206570E+03  0.11969141519E+03  0.22464004379E+03  0.12699999809E+01 0. -1.
</event>
<event>
 5   0  0.9223454E-04  0.9004998E+03  0.7818609E-02  0.9424957E-01
        1   -1    0    0  501    0  0.00000000000E+00  0.00000000000E+00  0.14304552435E+04  0.14304552435E+04  0.50400001928E-02 0.  1.
       -1   -1    0    0    0  501  0.00000000000E+00  0.00000000000E+00 -0.14172058333E+03  0.14172058342E+03  0.50400001928E-02 0. -1.
    10030    2    1    2    0    0  0.00000000000E+00  0.00000000000E+00  0.12887346602E+04  0.15721758269E+04  0.90049975371E+03 0.  0.
        1    1    3    3  502    0  0.12419983873E+03  0.46182229403E+02  0.13956420711E+04  0.14019183960E+04  0.50400001928E-02 0.  1.
       -1    1    3    3    0  502 -0.12419983873E+03 -0.46182229403E+02 -0.10690741095E+03  0.17025743095E+03  0.50400001928E-02 0. -1.
</event>
<event>
 5   0  0.9697941E-04  0.8996194E+03  0.7818609E-02  0.9426057E-01
       -1   -1    0    0    0  501  0.00000000000E+00  0.00000000000E+00  0.21242634322E+04  0.21242634323E+04  0.50400001928E-02 0. -1.
        1   -1    0    0  501    0  0.00000000000E+00  0.00000000000E+00 -0.95246554706E+02  0.95246554839E+02  0.50400001928E-02 0.  1.
    10030    2    1    2    0    0  0.00000000000E+00  0.00000000000E+00  0.20290168775E+04  0.22195099871E+04  0.89961941590E+03 0.  0.
        5    1    3    3  502    0 -0.21641603455E+03  0.39077084933E+03  0.88468473028E+03  0.99107361921E+03  0.46999998093E+01 0. -1.
       -5    1    3    3    0  502  0.21641603455E+03 -0.39077084933E+03  0.11443321473E+04  0.12284363679E+04  0.46999998093E+01 0.  1.
</event>
<event>
 5   0  0.1630202E-03  0.8975863E+03  0.7818609E-02  0.9428604E-01
        2   -1    0    0  501    0  0.00000000000E+00  0.00000000000E+00  0.10301191845E+04  0.10301191845E+04  0.25500000920E-02 0.  1.
       -2   -1    0    0    0  501  0.00000000000E+00  0.00000000000E+00 -0.19552622344E+03  0.19552622345E+03  0.25500000920E-02 0. -1.
    10030    2    1    2    0    0  0.00000000000E+00  0.00000000000E+00  0.83459296102E+03  0.12256454079E+04  0.89758634980E+03 0.  0.
        4    1    3    3  502    0 -0.59121462848E+02  0.36081793028E+03  0.61931021620E+02  0.37083957518E+03  0.12699999809E+01 0. -1.
       -4    1    3    3    0  502  0.59121462848E+02 -0.36081793028E+03  0.77266193940E+03  0.85480583273E+03  0.12699999809E+01 0.  1.
</event>
<event>
 5   0  0.1536020E-03  0.9007508E+03  0.7818609E-02  0.9424643E-01
       -2   -1    0    0    0  501  0.00000000000E+00  0.00000000000E+00  0.83607807197E+03  0.83607807197E+03  0.25500000920E-02 0. -1.
        2   -1    0    0  501    0  0.00000000000E+00  0.00000000000E+00 -0.24260650881E+03  0.24260650883E+03  0.25500000920E-02 0.  1.
    10030    2    1    2    0    0  0.00000000000E+00  0.00000000000E+00  0.59347156315E+03  0.10786845808E+04  0.90075075830E+03 0.  0.
        2    1    3    3  502    0 -0.26754258002E+03 -0.26762531210E+03  0.42917347019E+01  0.37844518598E+03  0.25500000920E-02 0.  1.
       -2    1    3    3    0  502  0.26754258002E+03  0.26762531210E+03  0.58917982845E+03  0.70023939482E+03  0.25500000920E-02 0. -1.
</event>
<event>
 5   0  0.9697941E-04  0.8989586E+03  0.7818609E-02  0.9426884E-01
        1   -1    0    0  501    0  0.00000000000E+00  0.00000000000E+00  0.14449904615E+04  0.14449904615E+04  0.50400001928E-02 0.  1.
       -1   -1    0    0    0  501  0.00000000000E+00  0.00000000000E+00 -0.13981519296E+03  0.13981519305E+03  0.50400001928E-02 0. -1.
    10030    2    1    2    0    0  0.00000000000E+00  0.00000000000E+00  0.13051752685E+04  0.15848056545E+04  0.89895855360E+03 0.  0.
        5    1    3    3  502    0  0.10126825314E+03 -0.43447080616E+03  0.74897666556E+03  0.87178453534E+03  0.46999998093E+01 0.  1.
       -5    1    3    3    0  502 -0.10126825314E+03  0.43447080616E+03  0.55619860296E+03  0.71302111920E+03  0.46999998093E+01 0. -1.
</event>
<event>
 5   0  0.9223454E-04  0.9030154E+03  0.7818609E-02  0.9421820E-01
       -1   -1    0    0    0  501  0.00000000000E+00  0.00000000000E+00  0.77959211171E+03  0.77959211172E+03  0.50400001928E-02 0.  1.
        1   -1    0    0  501    0  0.00000000000E+00  0.00000000000E+00 -0.26149469444E+03  0.26149469449E+03  0.50400001928E-02 0. -1.
    10030    2    1    2    0    0  0.00000000000E+00  0.00000000000E+00  0.51809741727E+03  0.10410868062E+04  0.90301539537E+03 0.  0.
        1    1    3    3  502    0  0.12294971741E+03 -0.42416537478E+03  0.36736186232E+03  0.57444550314E+03  0.50400001928E-02 0. -1.
       -1    1    3    3    0  502 -0.12294971741E+03  0.42416537478E+03  0.15073555495E+03  0.46664130306E+03  0.50400001928E-02 0.  1.
</event>
<event>
 5   0  0.1704416E-03  0.8998823E+03  0.7818609E-02  0.9425729E-01
       -2   -1    0    0    0  501  0.00000000000E+00  0.00000000000E+00  0.33927374310E+03  0.33927374311E+03  0.25500000920E-02 0.  1.
        2   -1    0    0  501    0  0.00000000000E+00  0.00000000000E+00 -0.59670711380E+03  0.59670711381E+03  0.25500000920E-02 0. -1.
    10030    2    1    2    0    0  0.00000000000E+00  0.00000000000E+00 -0.25743337070E+03  0.93598085692E+03  0.89988233907E+03 0.  0.
        3    1    3    3  502    0 -0.15837057343E+03  0.12652622340E+03  0.28908966676E+03  0.35307643558E+03  0.10100000352E+00 0.  1.
       -3    1    3    3    0  502  0.15837057343E+03 -0.12652622340E+03 -0.54652303746E+03  0.58290442134E+03  0.10100000352E+00 0. -1.
</event>
<event>
 5   0  0.1630202E-03  0.9005218E+03  0.7818609E-02  0.9424929E-01
        2   -1    0    0  501    0  0.00000000000E+00  0.00000000000E+00  0.37482633322E+03  0.37482633322E+03  0.25500000920E-02 0. -1.
       -2   -1    0    0    0  501  0.00000000000E+00  0.00000000000E+00 -0.54087685116E+03  0.54087685117E+03  0.25500000920E-02 0.  1.
    10030    2    1    2    0    0  0.00000000000E+00  0.00000000000E+00 -0.16605051795E+03  0.91570318439E+03  0.90052181950E+03 0.  0.
        4    1    3    3  502    0 -0.33901393957E+03 -0.14162217858E+03 -0.34769375720E+03  0.50584568238E+03  0.12699999809E+01 0.  1.
       -4    1    3    3    0  502  0.33901393957E+03  0.14162217858E+03  0.18164323926E+03  0.40985750201E+03  0.12699999809E+01 0. -1.
</event>
<event>
 5   0  0.1630202E-03  0.8996018E+03  0.7818609E-02  0.9426079E-01
       -2   -1    0    0    0  501  0.00000000000E+00  0.00000000000E+00  0.75737082721E+03  0.75737082721E+03  0.25500000920E-02 0. -1.
        2   -1    0    0  501    0  0.00000000000E+00  0.00000000000E+00 -0.26713580212E+03  0.26713580213E+03  0.25500000920E-02 0.  1.
    10030    2    1    2    0    0  0.00000000000E+00  0.00000000000E+00  0.49023502509E+03  0.10245066293E+04  0.89960183067E+03 0.  0.
        4    1    3    3  502    0 -0.44963546834E+02 -0.43828474749E+03  0.34826948475E+03  0.56161239955E+03  0.12699999809E+01 0.  1.
       -4    1    3    3    0  502  0.44963546834E+02  0.43828474749E+03  0.14196554034E+03  0.46289422979E+03  0.12699999809E+01 0. -1.
</event>
<event>
 5   0  0.9321543E-04  0.8978397E+03  0.7818609E-02  0.9428286E-01
       -1   -1    0    0    0  501  0.00000000000E+00  0.00000000000E+00  0.26148102192E+03  0.26148102197E+03  0.50400001928E-02 0. -1.
        1   -1    0    0  501    0  0.00000000000E+00  0.00000000000E+00 -0.77072136356E+03  0.77072136358E+03  0.50400001928E-02 0.  1.
    10030    2    1    2    0    0  0.00000000000E+00  0.00000000000E+00 -0.50924034164E+03  0.10322023855E+04  0.89783965115E+03 0.  0.
        3    1    3    3  502    0  0.10689268362E+03 -0.14902719262E+03  0.21644768554E+03  0.28369836222E+03  0.10100000352E+00 0. -1.
       -3    1    3    3    0  502 -0.10689268362E+03  0.14902719262E+03 -0.72568802718E+03  0.74850402333E+03  0.10100000352E+00 0.  1.
</event>
<event>
 5   0  0.9321543E-04  0.9002517E+03  0.7818609E-02  0.9425267E-01
       -1   -1    0    0    0  501  0.00000000000E+00  0.00000000000E+00  0.68022935902E+03  0.68022935904E+03  0.50400001928E-02 0. -1.
        1   -1    0    0  501    0  0.00000000000E+00  0.00000000000E+00 -0.29786026323E+03  0.29786026327E+03  0.50400001928E-02 0.  1.
    10030    2    1    2    0    0  0.00000000000E+00  0.00000000000E+00  0.38236909580E+03  0.97808962231E+03  0.90025173360E+03 0.  0.
        3    1    3    3  502    0  0.34352979727E+03  0.28535489174E+03  0.25238575382E+03  0.51297048140E+03  0.10100000352E+00 0.  1.
       -3    1    3    3    0  502 -0.34352979727E+03 -0.28535489174E+03  0.12998334197E+03  0.46511914091E+03  0.10100000352E+00 0. -1.
</event>
<event>
 5   0  0.9223454E-04  0.9013897E+03  0.7818609E-02  0.9423846E-01
        1   -1    0    0  501    0  0.00000000000E+00  0.00000000000E+00  0.42349261587E+03  0.42349261590E+03  0.50400001928E-02 0. -1.
       -1   -1    0    0    0  501  0.00000000000E+00  0.00000000000E+00 -0.47964437510E+03  0.47964437513E+03  0.50400001928E-02 0.  1.
    10030    2    1    2    0    0  0.00000000000E+00  0.00000000000E+00 -0.56151759231E+02  0.90313699102E+03  0.90138970734E+03 0.  0.
        1    1    3    3  502    0 -0.39542948663E+00 -0.30483369118E+03 -0.36068641524E+03  0.47224826713E+03  0.50400001928E-02 0. -1.
       -1    1    3    3    0  502  0.39542948663E+00  0.30483369118E+03  0.30453465601E+03  0.43088872389E+03  0.50400001928E-02 0.  1.
</event>
<event>
 5   0  0.6375625E-04  0.9031877E+03  0.7818609E-02  0.9421605E-01
        4   -1    0    0  501    0  0.00000000000E+00  0.00000000000E+00  0.75318331273E+03  0.75318438345E+03  0.12699999809E+01 0.  1.
       -4   -1    0    0    0  501  0.00000000000E+00  0.00000000000E+00 -0.27076403712E+03  0.27076701553E+03  0.12699999809E+01 0. -1.
    10030    2    1    2    0    0  0.00000000000E+00  0.00000000000E+00  0.48241927561E+03  0.10239513990E+04  0.90318774903E+03 0.  0.
        5    1    3    3  502    0 -0.16370444831E+02  0.34568456772E+03 -0.87661764040E+02  0.35703289302E+03  0.46999998093E+01 0. -1.
       -5    1    3    3    0  502  0.16370444831E+02 -0.34568456772E+03  0.57008103965E+03  0.66691850596E+03  0.46999998093E+01 0.  1.
</event>
<event>
 5   0  0.1704416E-03  0.8992720E+03  0.7818609E-02  0.9426492E-01
       -2   -1    0    0    0  501  0.00000000000E+00  0.00000000000E+00  0.47315149634E+03  0.47315149635E+03  0.25500000920E-02 0.  1.
        2   -1    0    0  501    0  0.00000000000E+00  0.00000000000E+00 -0.42728921950E+03  0.42728921950E+03  0.25500000920E-02 0. -1.
    10030    2    1    2    0    0  0.00000000000E+00  0.00000000000E+00  0.45862276841E+02  0.90044071585E+03  0.89927200241E+03 0.  0.
        3    1    3    3  502    0 -0.37690059185E+02 -0.42179239832E+03 -0.12840480920E+03  0.44251234228E+03  0.10100000352E+00 0. -1.
       -3    1    3    3    0  502  0.37690059185E+02  0.42179239832E+03  0.17426708604E+03  0.45792837357E+03  0.10100000352E+00 0.  1.
</event>
<event>
 5   0  0.1704416E-03  0.8943909E+03  0.7818609E-02  0.9432620E-01
        2   -1    0    0  501    0  0.00000000000E+00  0.00000000000E+00  0.16281119564E+04  0.16281119564E+04  0.25500000920E-02 0.  1.
       -2   -1    0    0    0  501  0.00000000000E+00  0.00000000000E+00 -0.12283170432E+03  0.12283170435E+03  0.25500000920E-02 0. -1.
    10030    2    1    2    0    0  0.00000000000E+00  0.00000000000E+00  0.15052802521E+04  0.17509436608E+04  0.89439089096E+03 0.  0.
        3    1    3    3  502    0 -0.58635092274E+02 -0.39021793359E+03  0.11645737671E+04  0.12296097669E+04  0.10100000352E+00 0.  1.
       -3    1    3    3    0  502  0.58635092274E+02  0.39021793359E+03  0.34070648502E+03  0.52133389385E+03  0.10100000352E+00 0. -1.
</event>
<event>
 5   0  0.6375625E-04  0.9002144E+03  0.7818609E-02  0.9425313E-01
        3   -1    0    0  501    0  0.00000000000E+00  0.00000000000E+00  0.65421294922E+03  0.65421295701E+03  0.10100000352E+00 0.  1.
       -3   -1    0    0    0  501  0.00000000000E+00  0.00000000000E+00 -0.30967970143E+03  0.30967971790E+03  0.10100000352E+00 0. -1.
    10030    2    1    2    0    0  0.00000000000E+00  0.00000000000E+00  0.34453324779E+03  0.96389267491E+03  0.90021437998E+03 0.  0.
        5    1    3    3  502    0  0.82645235943E+02  0.12988285955E+03 -0.28058619131E+03  0.32007888556E+03  0.46999998093E+01 0. -1.
       -5    1    3    3    0  502 -0.82645235943E+02 -0.12988285955E+03  0.62511943910E+03  0.64381378935E+03  0.46999998093E+01 0.  1.
</event>
<event>
 5   0  0.9321543E-04  0.9000671E+03  0.7818609E-02  0.9425498E-01
       -1   -1    0    0    0  501  0.00000000000E+00  0.00000000000E+00  0.39713792589E+03  0.39713792592E+03  0.50400001928E-02 0. -1.
        1   -1    0    0  501    0  0.00000000000E+00  0.00000000000E+00 -0.50997443831E+03  0.50997443833E+03  0.50400001928E-02 0.  1.
    10030    2    1    2    0    0  0.00000000000E+00  0.00000000000E+00 -0.11283651241E+03  0.90711236426E+03  0.90006708797E+03 0.  0.
        3    1    3    3  502    0  0.72908941234E+02  0.39848888991E+03  0.14112897218E+03  0.42898310699E+03  0.10100000352E+00 0. -1.
       -3    1    3    3    0  502 -0.72908941234E+02 -0.39848888991E+03 -0.25396548459E+03  0.47812925727E+03  0.10100000352E+00 0.  1.
</event>
<event>
 5   0  0.1536020E-03  0.9050403E+03  0.7818609E-02  0.9419303E-01
       -2   -1    0    0    0  501  0.00000000000E+00  0.00000000000E+00  0.25486447688E+03  0.25486447689E+03  0.25500000920E-02 0. -1.
        2   -1    0    0  501    0  0.00000000000E+00  0.00000000000E+00 -0.80346425510E+03  0.80346425510E+03  0.25500000920E-02 0.  1.
    10030    2    1    2    0    0  0.00000000000E+00  0.00000000000E+00 -0.54859977822E+03  0.10583287320E+04  0.90504032413E+03 0.  0.
        2    1    3    3  502    0  0.10889986899E+03  0.16632406122E+02  0.23894472707E+03  0.26311670604E+03  0.25500000920E-02 0. -1.
       -2    1    3    3    0  502 -0.10889986899E+03 -0.16632406122E+02 -0.78754450529E+03  0.79521202595E+03  0.25500000920E-02 0.  1.
</event>
<event>
 5   0  0.1641516E-03  0.9002933E+03  0.7818609E-02  0.9425215E-01
        2   -1    0    0  501    0  0.00000000000E+00  0.00000000000E+00  0.49863403496E+03  0.49863403497E+03  0.25500000920E-02 0. -1.
       -2   -1    0    0    0  501  0.00000000000E+00  0.00000000000E+00 -0.40637416760E+03  0.40637416761E+03  0.25500000920E-02 0.  1.
    10030    2    1    2    0    0  0.00000000000E+00  0.00000000000E+00  0.92259867363E+02  0.90500820258E+03  0.90029326533E+03 0.  0.
        1    1    3    3  502    0  0.26888179084E+03  0.35133102823E+03 -0.37377879127E+02  0.44399100747E+03  0.50400001928E-02 0. -1.
       -1    1    3    3    0  502 -0.26888179084E+03 -0.35133102823E+03  0.12963774649E+03  0.46101719511E+03  0.50400001928E-02 0.  1.
</event>
<event>
 5   0  0.1630202E-03  0.8980759E+03  0.7818609E-02  0.9427990E-01
        2   -1    0    0  501    0  0.00000000000E+00  0.00000000000E+00  0.10329542231E+04  0.10329542231E+04  0.25500000920E-02 0. -1.
       -2   -1    0    0    0  501  0.00000000000E+00  0.00000000000E+00 -0.19520232181E+03  0.19520232182E+03  0.25500000920E-02 0.  1.
    10030    2    1    2    0    0  0.00000000000E+00  0.00000000000E+00  0.83775190134E+03  0.12281565450E+04  0.89807586025E+03 0.  0.
        4    1    3    3  502    0 -0.19459665402E+03  0.37300196649E+03  0.20423227868E+03  0.46766522355E+03  0.12699999809E+01 0.  1.
       -4    1    3    3    0  502  0.19459665402E+03 -0.37300196649E+03  0.63351962266E+03  0.76049132142E+03  0.12699999809E+01 0. -1.
</event>
<event>
 5   0  0.9697941E-04  0.9087202E+03  0.7818609E-02  0.9414746E-01
       -1   -1    0    0    0  501  0.00000000000E+00  0.00000000000E+00  0.21486180027E+03  0.21486180033E+03  0.50400001928E-02 0.  1.
        1   -1    0    0  501    0  0.00000000000E+00  0.00000000000E+00 -0.96081806578E+03  0.96081806580E+03  0.50400001928E-02 0. -1.
    10030    2    1    2    0    0  0.00000000000E+00  0.00000000000E+00 -0.74595626551E+03  0.11756798661E+04  0.90872019761E+03 0.  0.
        5    1    3    3  502    0  0.23291223497E+03 -0.31975357293E+03 -0.66207413558E+03  0.77126824621E+03  0.46999998093E+01 0. -1.
       -5    1    3    3    0  502 -0.23291223497E+03  0.31975357293E+03 -0.83882129933E+02  0.40441161992E+03  0.46999998093E+01 0.  1.
</event>
<event>
 5   0  0.1641516E-03  0.9000838E+03  0.7818609E-02  0.9425477E-01
       -2   -1    0    0    0  501  0.00000000000E+00  0.00000000000E+00  0.18960267399E+03  0.18960267401E+03  0.25500000920E-02 0.  1.
        2   -1    0    0  501    0  0.00000000000E+00  0.00000000000E+00 -0.10682218977E+04  0.10682218977E+04  0.25500000920E-02 0. -1.
    10030    2    1    2    0    0  0.00000000000E+00  0.00000000000E+00 -0.87861922368E+03  0.12578245717E+04  0.90008383659E+03 0.  0.
        1    1    3    3  502    0 -0.10018249208E+03 -0.11382370772E+03 -0.10314493464E+04  0.10425354298E+04  0.50400001928E-02 0. -1.
       -1    1    3    3    0  502  0.10018249208E+03  0.11382370772E+03  0.15283012275E+03  0.21528914186E+03  0.50400001928E-02 0.  1.
</event>
<event>
 5   0  0.1704416E-03  0.9000111E+03  0.7818609E-02  0.9425568E-01
        2   -1    0    0  501    0  0.00000000000E+00  0.00000000000E+00  0.10735961538E+04  0.10735961538E+04  0.25500000920E-02 0. -1.
       -2   -1    0    0    0  501  0.00000000000E+00  0.00000000000E+00 -0.18862305225E+03  0.18862305227E+03  0.25500000920E-02 0.  1.
    10030    2    1    2    0    0  0.00000000000E+00  0.00000000000E+00  0.88497310158E+03  0.12622192061E+04  0.90001107423E+03 0.  0.
        3    1    3    3  502    0  0.64012523380E+02  0.40959383426E+03  0.68797618641E+03  0.80322845784E+03  0.10100000352E+00 0.  1.
       -3    1    3    3    0  502 -0.64012523380E+02 -0.40959383426E+03  0.19699691517E+03  0.45899074827E+03  0.10100000352E+00 0. -1.
</event>
<event>
 5   0  0.9981885E-04  0.8999184E+03  0.7818609E-02  0.9425683E-01
       -1   -1    0    0    0  501  0.00000000000E+00  0.00000000000E+00  0.22743573035E+03  0.22743573040E+03  0.50400001928E-02 0. -1.
        1   -1    0    0  501    0  0.00000000000E+00  0.00000000000E+00 -0.89020000816E+03  0.89020000817E+03  0.50400001928E-02 0.  1.
    10030    2    1    2    0    0  0.00000000000E+00  0.00000000000E+00 -0.66276427781E+03  0.11176357386E+04  0.89991841641E+03 0.  0.
        4    1    3    3  502    0  0.19259853678E+03  0.27861188183E+02 -0.83523124433E+03  0.85760322211E+03  0.12699999809E+01 0.  1.
       -4    1    3    3    0  502 -0.19259853678E+03 -0.27861188183E+02  0.17246696652E+03  0.26003251646E+03  0.12699999809E+01 0. -1.
</event>
<event>
 5   0  0.1635686E-03  0.8996399E+03  0.7818609E-02  0.9426032E-01
       -2   -1    0    0    0  501  0.00000000000E+00  0.00000000000E+00  0.19092066849E+03  0.19092066850E+03  0.25500000920E-02 0. -1.
        2   -1    0    0  501    0  0.00000000000E+00  0.00000000000E+00 -0.10598012621E+04  0.10598012621E+04  0.25500000920E-02 0.  1.
    10030    2    1    2    0    0  0.00000000000E+00  0.00000000000E+00 -0.86888059364E+03  0.12507219306E+04  0.89963985114E+03 0.  0.
        5    1    3    3  502    0  0.18875220947E+03  0.71946922671E+02 -0.99316083717E+03  0.10135059421E+04  0.46999998093E+01 0.  1.
       -5    1    3    3    0  502 -0.18875220947E+03 -0.71946922671E+02  0.12428024354E+03  0.23721598849E+03  0.46999998093E+01 0. -1.
</event>
<event>
 5   0  0.1536020E-03  0.9005436E+03  0.7818609E-02  0.9424902E-01
        2   -1    0    0  501    0  0.00000000000E+00  0.00000000000E+00  0.82947382682E+03  0.82947382683E+03  0.25500000920E-02 0.  1.
       -2   -1    0    0    0  501  0.00000000000E+00  0.00000000000E+00 -0.24442569147E+03  0.24442569148E+03  0.25500000920E-02 0. -1.
    10030    2    1    2    0    0  0.00000000000E+00  0.00000000000E+00  0.58504813536E+03  0.10738995183E+04  0.90054364399E+03 0.  0.
        2    1    3    3  502    0  0.37327151559E+03  0.24503388526E+03  0.22328209064E+03  0.49922752456E+03  0.25500000920E-02 0.  1.
       -2    1    3    3    0  502 -0.37327151559E+03 -0.24503388526E+03  0.36176604472E+03  0.57467199374E+03  0.25500000920E-02 0. -1.
</event>
<event>
 5   0  0.1536020E-03  0.8993507E+03  0.7818609E-02  0.9426393E-01
        2   -1    0    0  501    0  0.00000000000E+00  0.00000000000E+00  0.71324121077E+03  0.71324121078E+03  0.25500000920E-02 0. -1.
       -2   -1    0    0    0  501  0.00000000000E+00  0.00000000000E+00 -0.28350563916E+03  0.28350563917E+03  0.25500000920E-02 0.  1.
    10030    2    1    2    0    0  0.00000000000E+00  0.00000000000E+00  0.42973557161E+03  0.99674684995E+03  0.89935066653E+03 0.  0.
        2    1    3    3  502    0 -0.27585083657E+03 -0.26953497935E+03 -0.41398260444E+02  0.38788736136E+03  0.25500000920E-02 0.  1.
       -2    1    3    3    0  502  0.27585083657E+03  0.26953497935E+03  0.47113383205E+03  0.60885948859E+03  0.25500000920E-02 0. -1.
</event>
<event>
 5   0  0.9321543E-04  0.9001066E+03  0.7818609E-02  0.9425448E-01
       -1   -1    0    0    0  501  0.00000000000E+00  0.00000000000E+00  0.25399629053E+03  0.25399629058E+03  0.50400001928E-02 0.  1.
        1   -1    0    0  501    0  0.00000000000E+00  0.00000000000E+00 -0.79744453867E+03  0.79744453869E+03  0.50400001928E-02 0. -1.
    10030    2    1    2    0    0  0.00000000000E+00  0.00000000000E+00 -0.54344824814E+03  0.10514408293E+04  0.90010655983E+03 0.  0.
        3    1    3    3  502    0 -0.33089751889E+02  0.19703980139E+03 -0.74279798993E+03  0.76919989538E+03  0.10100000352E+00 0. -1.
       -3    1    3    3    0  502  0.33089751889E+02 -0.19703980139E+03  0.19934974179E+03  0.28224093389E+03  0.10100000352E+00 0.  1.
</event>
<event>
 5   0  0.1007561E-03  0.8928943E+03  0.7818609E-02  0.9434508E-01
       -1   -1    0    0    0  501  0.00000000000E+00  0.00000000000E+00  0.18940379873E+03  0.18940379880E+03  0.50400001928E-02 0.  1.
        1   -1    0    0  501    0  0.00000000000E+00  0.00000000000E+00 -0.10523286930E+04  0.10523286930E+04  0.50400001928E-02 0. -1.
    10030    2    1    2    0    0  0.00000000000E+00  0.00000000000E+00 -0.86292489424E+03  0.12417324918E+04  0.89289428716E+03 0.  0.
        2    1    3    3  502    0  0.20213483489E+03  0.17304147636E+03  0.67079704034E+02  0.27441124378E+03  0.25500000920E-02 0.  1.
       -2    1    3    3    0  502 -0.20213483489E+03 -0.17304147636E+03 -0.93000459827E+03  0.96732124800E+03  0.25500000920E-02 0. -1.
</event>
<event>
 5   0  0.1641516E-03  0.9042764E+03  0.7818609E-02  0.9420251E-01
        2   -1    0    0  501    0  0.00000000000E+00  0.00000000000E+00  0.90690726446E+03  0.90690726446E+03  0.25500000920E-02 0.  1.
       -2   -1    0    0    0  501  0.00000000000E+00  0.00000000000E+00 -0.22541331355E+03  0.22541331357E+03  0.25500000920E-02 0. -1.
    10030    2    1    2    0    0  0.00000000000E+00  0.00000000000E+00  0.68149395090E+03  0.11323205780E+04  0.90427644352E+03 0.  0.
        1    1    3    3  502    0 -0.39128448590E+03  0.17314355169E+03  0.52369759855E+03  0.67627022199E+03  0.50400001928E-02 0.  1.
       -1    1    3    3    0  502  0.39128448590E+03 -0.17314355169E+03  0.15779635235E+03  0.45605035603E+03  0.50400001928E-02 0. -1.
</event>
<event>
 5   0  0.6375625E-04  0.8969177E+03  0.7818609E-02  0.9429443E-01
       -4   -1    0    0    0  501  0.00000000000E+00  0.00000000000E+00  0.58644168690E+03  0.58644306206E+03  0.12699999809E+01 0.  1.
        4   -1    0    0  501    0  0.00000000000E+00  0.00000000000E+00 -0.34293883302E+03  0.34294118460E+03  0.12699999809E+01 0. -1.
    10030    2    1    2    0    0  0.00000000000E+00  0.00000000000E+00  0.24350285388E+03  0.92938424666E+03  0.89691774322E+03 0.  0.
        3    1    3    3  502    0 -0.20221857224E+03  0.23555776223E+03  0.45709479920E+03  0.55255359556E+03  0.10100000352E+00 0.  1.
       -3    1    3    3    0  502  0.20221857224E+03 -0.23555776223E+03 -0.21359194532E+03  0.37683065111E+03  0.10100000352E+00 0. -1.
</event>
<event>
 5   0  0.9697941E-04  0.9002664E+03  0.7818609E-02  0.9425248E-01
       -1   -1    0    0    0  501  0.00000000000E+00  0.00000000000E+00  0.53835618014E+03  0.53835618017E+03  0.50400001928E-02 0. -1.
        1   -1    0    0  501    0  0.00000000000E+00  0.00000000000E+00 -0.37636773417E+03  0.37636773420E+03  0.50400001928E-02 0.  1.
    10030    2    1    2    0    0  0.00000000000E+00  0.00000000000E+00  0.16198844597E+03  0.91472391437E+03  0.90026639551E+03 0.  0.
        5    1    3    3  502    0 -0.16628877246E+03  0.40489395594E+03  0.18759202155E+03  0.47623935993E+03  0.46999998093E+01 0.  1.
       -5    1    3    3    0  502  0.16628877246E+03 -0.40489395594E+03 -0.25603575579E+02  0.43848455444E+03  0.46999998093E+01 0. -1.
</event>
<event>
 5   0  0.1635686E-03  0.8998299E+03  0.7818609E-02  0.9425794E-01
        2   -1    0    0  501    0  0.00000000000E+00  0.00000000000E+00  0.66287169565E+03  0.66287169565E+03  0.25500000920E-02 0. -1.
       -2   -1    0    0    0  501  0.00000000000E+00  0.00000000000E+00 -0.30537349575E+03  0.30537349576E+03  0.25500000920E-02 0.  1.
    10030    2    1    2    0    0  0.00000000000E+00  0.00000000000E+00  0.35749819990E+03  0.96824519141E+03  0.89982986601E+03 0.  0.
        5    1    3    3  502    0 -0.19612873830E+03  0.14748604851E+03  0.58448962374E+03  0.63393124766E+03  0.46999998093E+01 0. -1.
       -5    1    3    3    0  502  0.19612873830E+03 -0.14748604851E+03 -0.22699142384E+03  0.33431394375E+03  0.46999998093E+01 0.  1.
</event>
<event>
 5   0  0.6375625E-04  0.9025500E+03  0.7818609E-02  0.9422399E-01
        4   -1    0    0  501    0  0.00000000000E+00  0.00000000000E+00  0.66368927286E+03  0.66369048796E+03  0.12699999809E+01 0. -1.
       -4   -1    0    0    0  501  0.00000000000E+00  0.00000000000E+00 -0.30684127912E+03  0.30684390734E+03  0.12699999809E+01 0.  1.
    10030    2    1    2    0    0  0.00000000000E+00  0.00000000000E+00  0.35684799374E+03  0.97053439529E+03  0.90255001070E+03 0.  0.
        5    1    3    3  502    0 -0.41348865962E+03  0.70474676917E+02  0.35735328698E+03  0.55105627066E+03  0.46999998093E+01 0. -1.
       -5    1    3    3    0  502  0.41348865962E+03 -0.70474676917E+02 -0.50529324427E+00  0.41947812463E+03  0.46999998093E+01 0.  1.
</event>
<event>
 5   0  0.9321543E-04  0.8991798E+03  0.7818609E-02  0.9426607E-01
        1   -1    0    0  501    0  0.00000000000E+00  0.00000000000E+00  0.27667478096E+03  0.27667478100E+03  0.50400001928E-02 0. -1.
       -1   -1    0    0    0  501  0.00000000000E+00  0.00000000000E+00 -0.73057281774E+03  0.73057281776E+03  0.50400001928E-02 0.  1.
    10030    2    1    2    0    0  0.00000000000E+00  0.00000000000E+00 -0.45389803678E+03  0.10072475988E+04  0.89917979148E+03 0.  0.
        3    1    3    3  502    0  0.13788421645E+03  0.10176295531E+03 -0.69255168438E+03  0.71343927700E+03  0.10100000352E+00 0.  1.
       -3    1    3    3    0  502 -0.13788421645E+03 -0.10176295531E+03  0.23865364760E+03  0.29380832176E+03  0.10100000352E+00 0. -1.
</event>
<event>
 5   0  0.9321543E-04  0.9090376E+03  0.7818609E-02  0.9414354E-01
        1   -1    0    0  501    0  0.00000000000E+00  0.00000000000E+00  0.13954895724E+04  0.13954895724E+04  0.50400001928E-02 0. -1.
       -1   -1    0    0    0  501  0.00000000000E+00  0.00000000000E+00 -0.14803931397E+03  0.14803931405E+03  0.50400001928E-02 0.  1.
    10030    2    1    2    0    0  0.00000000000E+00  0.00000000000E+00  0.12474502584E+04  0.15435288865E+04  0.90903755482E+03 0.  0.
        3    1    3    3  502    0 -0.37697399811E+03 -0.54738224478E+02  0.20270228665E+03  0.43150190693E+03  0.10100000352E+00 0. -1.
       -3    1    3    3    0  502  0.37697399811E+03  0.54738224478E+02  0.10447479718E+04  0.11120269795E+04  0.10100000352E+00 0.  1.
</event>
<event>
 5   0  0.1536020E-03  0.9008881E+03  0.7818609E-02  0.9424472E-01
        2   -1    0    0  501    0  0.00000000000E+00  0.00000000000E+00  0.49156805022E+03  0.49156805023E+03  0.25500000920E-02 0.  1.
       -2   -1    0    0    0  501  0.00000000000E+00  0.00000000000E+00 -0.41276043446E+03  0.41276043446E+03  0.25500000920E-02 0. -1.
    10030    2    1    2    0    0  0.00000000000E+00  0.00000000000E+00  0.78807615766E+02  0.90432848469E+03  0.90088809956E+03 0.  0.
        2    1    3    3  502    0 -0.19719567024E+03  0.95804704981E+02 -0.35558988904E+03  0.41774255595E+03  0.25500000920E-02 0. -1.
       -2    1    3    3    0  502  0.19719567024E+03 -0.95804704981E+02  0.43439750481E+03  0.48658592874E+03  0.25500000920E-02 0.  1.
</event>
<event>
 5   0  0.1641516E-03  0.9009706E+03  0.7818609E-02  0.9424369E-01
       -2   -1    0    0    0  501  0.00000000000E+00  0.00000000000E+00  0.55679840167E+03  0.55679840168E+03  0.25500000920E-02 0. -1.
        2   -1    0    0  501    0  0.00000000000E+00  0.00000000000E+00 -0.36447123211E+03  0.36447123212E+03  0.25500000920E-02 0.  1.
    10030    2    1    2    0    0  0.00000000000E+00  0.00000000000E+00  0.19232716957E+03  0.92126963380E+03  0.90097058665E+03 0.  0.
        1    1    3    3  502    0  0.44521559154E+03  0.51440115122E+02  0.49596442653E+02  0.45091331267E+03  0.50400001928E-02 0.  1.
       -1    1    3    3    0  502 -0.44521559154E+03 -0.51440115122E+02  0.14273072691E+03  0.47035632113E+03  0.50400001928E-02 0. -1.
</event>
<event>
 5   0  0.9223454E-04  0.8970711E+03  0.7818609E-02  0.9429250E-01
       -1   -1    0    0    0  501  0.00000000000E+00  0.00000000000E+00  0.12146683294E+04  0.12146683294E+04  0.50400001928E-02 0. -1.
        1   -1    0    0  501    0  0.00000000000E+00  0.00000000000E+00 -0.16562886273E+03  0.16562886281E+03  0.50400001928E-02 0.  1.
    10030    2    1    2    0    0  0.00000000000E+00  0.00000000000E+00  0.10490394667E+04  0.13802971922E+04  0.89707108762E+03 0.  0.
        1    1    3    3  502    0 -0.24933344707E+03  0.30474524527E+03  0.19398363150E+03  0.43893790183E+03  0.50400001928E-02 0.  1.
       -1    1    3    3    0  502  0.24933344707E+03 -0.30474524527E+03  0.85505583519E+03  0.94135929042E+03  0.50400001928E-02 0. -1.
</event>
<event>
 5   0  0.1641516E-03  0.9012620E+03  0.7818609E-02  0.9424005E-01
        2   -1    0    0  501    0  0.00000000000E+00  0.00000000000E+00  0.10953342093E+04  0.10953342093E+04  0.25500000920E-02 0.  1.
       -2   -1    0    0    0  501  0.00000000000E+00  0.00000000000E+00 -0.18539390928E+03  0.18539390930E+03  0.25500000920E-02 0. -1.
    10030    2    1    2    0    0  0.00000000000E+00  0.00000000000E+00  0.90994030001E+03  0.12807281186E+04  0.90126198421E+03 0.  0.
        1    1    3    3  502    0 -0.36418175665E+03 -0.22915318745E+03  0.64524481600E+03  0.77555167964E+03  0.50400001928E-02 0.  1.
       -1    1    3    3    0  502  0.36418175665E+03  0.22915318745E+03  0.26469548402E+03  0.50517643896E+03  0.50400001928E-02 0. -1.
</event>
<event>
 5   0  0.1641516E-03  0.8958472E+03  0.7818609E-02  0.9430788E-01
        2   -1    0    0  501    0  0.00000000000E+00  0.00000000000E+00  0.58023243760E+03  0.58023243761E+03  0.25500000920E-02 0.  1.
       -2   -1    0    0    0  501  0.00000000000E+00  0.00000000000E+00 -0.34578482579E+03  0.34578482580E+03  0.25500000920E-02 0. -1.
    10030    2    1    2    0    0  0.00000000000E+00  0.00000000000E+00  0.23444761181E+03  0.92601726341E+03  0.89584724672E+03 0.  0.
        1    1    3    3  502    0  0.93878911437E+02  0.42451282201E+03  0.22860796131E+03  0.49120869909E+03  0.50400001928E-02 0. -1.
       -1    1    3    3    0  502 -0.93878911437E+02 -0.42451282201E+03  0.58396505049E+01  0.43480856432E+03  0.50400001928E-02 0.  1.
</event>
<event>
 5   0  0.1635686E-03  0.8988408E+03  0.7818609E-02  0.9427032E-01
       -2   -1    0    0    0  501  0.00000000000E+00  0.00000000000E+00  0.34418346649E+03  0.34418346650E+03  0.25500000920E-02 0. -1.
        2   -1    0    0  501    0  0.00000000000E+00  0.00000000000E+00 -0.58683444489E+03  0.58683444490E+03  0.25500000920E-02 0.  1.
    10030    2    1    2    0    0  0.00000000000E+00  0.00000000000E+00 -0.24265097840E+03  0.93101791140E+03  0.89884083909E+03 0.  0.
        5    1    3    3  502    0  0.15774038717E+03  0.37121965778E+03 -0.32658759680E+03  0.51900637033E+03  0.46999998093E+01 0.  1.
       -5    1    3    3    0  502 -0.15774038717E+03 -0.37121965778E+03  0.83936618400E+02  0.41201154106E+03  0.46999998093E+01 0. -1.
</event>
<event>
 5   0  0.1641516E-03  0.9023795E+03  0.7818609E-02  0.9422612E-01
        2   -1    0    0  501    0  0.00000000000E+00  0.00000000000E+00  0.14267497939E+04  0.14267497939E+04  0.25500000920E-02 0.  1.
       -2   -1    0    0    0  501  0.00000000000E+00  0.00000000000E+00 -0.14268247103E+03  0.14268247105E+03  0.25500000920E-02 0. -1.
    10030    2    1    2    0    0  0.00000000000E+00  0.00000000000E+00  0.12840673229E+04  0.15694322650E+04  0.90237949035E+03 0.  0.
        1    1    3    3  502    0 -0.37052344475E+03  0.20803059505E+03  0.37822367380E+03  0.56887388676E+03  0.50400001928E-02 0.  1.
       -1    1    3    3    0  502  0.37052344475E+03 -0.20803059505E+03  0.90584364907E+03  0.10005583782E+04  0.50400001928E-02 0. -1.
</event>
<event>
 5   0  0.9223454E-04  0.8945917E+03  0.7818609E-02  0.9432367E-01
        1   -1    0    0  501    0  0.00000000000E+00  0.00000000000E+00  0.47935967176E+03  0.47935967179E+03  0.50400001928E-02 0. -1.
       -1   -1    0    0    0  501  0.00000000000E+00  0.00000000000E+00 -0.41737676375E+03  0.41737676378E+03  0.50400001928E-02 0.  1.
    10030    2    1    2    0    0  0.00000000000E+00  0.00000000000E+00  0.61982908008E+02  0.89673643557E+03  0.89459172475E+03 0.  0.
        1    1    3    3  502    0 -0.35690594161E+03 -0.26548885891E+03 -0.16104192739E+02  0.44511294118E+03  0.50400001928E-02 0.  1.
       -1    1    3    3    0  502  0.35690594161E+03  0.26548885891E+03  0.78087100747E+02  0.45162349439E+03  0.50400001928E-02 0. -1.
</event>
<event>
 5   0  0.9223454E-04  0.9166052E+03  0.7818609E-02  0.9405059E-01
        1   -1    0    0  501    0  0.00000000000E+00  0.00000000000E+00  0.11710783358E+04  0.11710783358E+04  0.50400001928E-02 0.  1.
       -1   -1    0    0    0  501  0.00000000000E+00  0.00000000000E+00 -0.17935716628E+03  0.17935716635E+03  0.50400001928E-02 0. -1.
    10030    2    1    2    0    0  0.00000000000E+00  0.00000000000E+00  0.99172116955E+03  0.13504355022E+04  0.91660524079E+03 0.  0.
        1    1    3    3  502    0 -0.37927724988E+03 -0.20014046762E+03  0.25768719878E+03  0.50031003538E+03  0.50400001928E-02 0. -1.
       -1    1    3    3    0  502  0.37927724988E+03  0.20014046762E+03  0.73403397076E+03  0.85012546681E+03  0.50400001928E-02 0.  1.
</event>
<event>
 5   0  0.9223454E-04  0.9027455E+03  0.7818609E-02  0.9422156E-01
       -1   -1    0    0    0  501  0.00000000000E+00  0.00000000000E+00  0.90929250037E+02  0.90929250177E+02  0.50400001928E-02 0. -1.
        1   -1    0    0  501    0  0.00000000000E+00  0.00000000000E+00 -0.22406142640E+04  0.22406142640E+04  0.50400001928E-02 0.  1.
    10030    2    1    2    0    0  0.00000000000E+00  0.00000000000E+00 -0.21496850140E+04  0.23315435142E+04  0.90274553407E+03 0.  0.
        1    1    3    3  502    0  0.41276875247E+03 -0.16449506526E+03 -0.12798514278E+04  0.13547901487E+04  0.50400001928E-02 0.  1.
       -1    1    3    3    0  502 -0.41276875247E+03  0.16449506526E+03 -0.86983358616E+03  0.97675336557E+03  0.50400001928E-02 0. -1.
</event>
<event>
 5   0  0.1635686E-03  0.9028678E+03  0.7818609E-02  0.9422004E-01
        2   -1    0    0  501    0  0.00000000000E+00  0.00000000000E+00  0.19604950004E+03  0.19604950005E+03  0.25500000920E-02 0.  1.
       -2   -1    0    0    0  501  0.00000000000E+00  0.00000000000E+00 -0.10394955542E+04  0.10394955542E+04  0.25500000920E-02 0. -1.
    10030    2    1    2    0    0  0.00000000000E+00  0.00000000000E+00 -0.84344605417E+03  0.12355450543E+04  0.90286783907E+03 0.  0.
        5    1    3    3  502    0 -0.32645613894E+03  0.14844908965E+03 -0.46553920466E+02  0.36166296518E+03  0.46999998093E+01 0.  1.
       -5    1    3    3    0  502  0.32645613894E+03 -0.14844908965E+03 -0.79689213371E+03  0.87388208909E+03  0.46999998093E+01 0. -1.
</event>
<event>
 5   0  0.1641516E-03  0.8995227E+03  0.7818609E-02  0.9426178E-01
       -2   -1    0    0    0  501  0.00000000000E+00  0.00000000000E+00  0.40679253553E+03  0.40679253554E+03  0.25500000920E-02 0. -1.
        2   -1    0    0  501    0  0.00000000000E+00  0.00000000000E+00 -0.49726892238E+03  0.49726892239E+03  0.25500000920E-02 0.  1.
    10030    2    1    2    0    0  0.00000000000E+00  0.00000000000E+00 -0.90476386853E+02  0.90406145793E+03  0.89952273075E+03 0.  0.
        1    1    3    3  502    0 -0.22464138037E+03 -0.17814310760E+03  0.30304541160E+03  0.41717530857E+03  0.50400001928E-02 0. -1.
       -1    1    3    3    0  502  0.22464138037E+03  0.17814310760E+03 -0.39352179845E+03  0.48688614936E+03  0.50400001928E-02 0.  1.
</event>
<event>
 5   0  0.9321543E-04  0.9015707E+03  0.7818609E-02  0.9423620E-01
        1   -1    0    0  501    0  0.00000000000E+00  0.00000000000E+00  0.12725249716E+04  0.12725249716E+04  0.50400001928E-02 0.  1.
       -1   -1    0    0    0  501  0.00000000000E+00  0.00000000000E+00 -0.15968838197E+03  0.15968838205E+03  0.50400001928E-02 0. -1.
    10030    2    1    2    0    0  0.00000000000E+00  0.00000000000E+00  0.11128365896E+04  0.14322133536E+04  0.90157074883E+03 0.  0.
        3    1    3    3  502    0  0.39420045715E+03  0.21752750408E+03  0.59177001587E+03  0.74357513227E+03  0.10100000352E+00 0.  1.
       -3    1    3    3    0  502 -0.39420045715E+03 -0.21752750408E+03  0.52106657374E+03  0.68863822136E+03  0.10100000352E+00 0. -1.
</event>
<event>
 5   0  0.9321543E-04  0.9018510E+03  0.7818609E-02  0.9423271E-01
        1   -1    0    0  501    0  0.00000000000E+00  0.00000000000E+00  0.93677798970E+03  0.93677798971E+03  0.50400001928E-02 0.  1.
       -1   -1    0    0    0  501  0.00000000000E+00  0.00000000000E+00 -0.21705655506E+03  0.21705655512E+03  0.50400001928E-02 0. -1.
    10030    2    1    2    0    0  0.00000000000E+00  0.00000000000E+00  0.71972143464E+03  0.11538345448E+04  0.90185099289E+03 0.  0.
        3    1    3    3  502    0 -0.32559858298E+03 -0.39556757137E+02 -0.36042121146E+02  0.32996699679E+03  0.10100000352E+00 0. -1.
       -3    1    3    3    0  502  0.32559858298E+03  0.39556757137E+02  0.75576355578E+03  0.82386754804E+03  0.10100000352E+00 0.  1.
</event>
<event>
 5   0  0.1641516E-03  0.8997247E+03  0.7818609E-02  0.9425926E-01
        2   -1    0    0  501    0  0.00000000000E+00  0.00000000000E+00  0.42133619793E+03  0.42133619794E+03  0.25500000920E-02 0. -1.
       -2   -1    0    0    0  501  0.00000000000E+00  0.00000000000E+00 -0.48031982886E+03  0.48031982887E+03  0.25500000920E-02 0.  1.
    10030    2    1    2    0    0  0.00000000000E+00  0.00000000000E+00 -0.58983630934E+02  0.90165602681E+03  0.89972469231E+03 0.  0.
        1    1    3    3  502    0  0.10956631581E+02  0.32456013342E+03  0.28249108333E+03  0.43041902859E+03  0.50400001928E-02 0. -1.
       -1    1    3    3    0  502 -0.10956631581E+02 -0.32456013342E+03 -0.34147471427E+03  0.47123699822E+03  0.50400001928E-02 0.  1.
</event>
<event>
 5   0  0.9223454E-04  0.9002870E+03  0.7818609E-02  0.9425223E-01
        1   -1    0    0  501    0  0.00000000000E+00  0.00000000000E+00  0.46764568613E+03  0.46764568615E+03  0.50400001928E-02 0. -1.
       -1   -1    0    0    0  501  0.00000000000E+00  0.00000000000E+00 -0.43329639601E+03  0.43329639604E+03  0.50400001928E-02 0.  1.
    10030    2    1    2    0    0  0.00000000000E+00  0.00000000000E+00  0.34349290112E+02  0.90094208220E+03  0.90028704408E+03 0.  0.
        1    1    3    3  502    0 -0.18597067034E+03 -0.21060112623E+03 -0.33477893693E+03  0.43705246966E+03  0.50400001928E-02 0.  1.
       -1    1    3    3    0  502  0.18597067034E+03  0.21060112623E+03  0.36912822705E+03  0.46388961254E+03  0.50400001928E-02 0. -1.
</event>
<event>
 5   0  0.1007561E-03  0.8997844E+03  0.7818609E-02  0.9425851E-01
        1   -1    0    0  501    0  0.00000000000E+00  0.00000000000E+00  0.44920361161E+03  0.44920361164E+03  0.50400001928E-02 0. -1.
       -1   -1    0    0    0  501  0.00000000000E+00  0.00000000000E+00 -0.45058187943E+03  0.45058187946E+03  0.50400001928E-02 0.  1.
    10030    2    1    2    0    0  0.00000000000E+00  0.00000000000E+00 -0.13782678205E+01  0.89978549110E+03  0.89978443550E+03 0.  0.
        2    1    3    3  502    0 -0.30912706538E+03 -0.95216708129E+02 -0.31338303047E+03  0.45037172186E+03  0.25500000920E-02 0.  1.
       -2    1    3    3    0  502  0.30912706538E+03  0.95216708129E+02  0.31200476265E+03  0.44941376924E+03  0.25500000920E-02 0. -1.
</event>
<event>
 5   0  0.9981885E-04  0.9000966E+03  0.7818609E-02  0.9425461E-01
       -1   -1    0    0    0  501  0.00000000000E+00  0.00000000000E+00  0.12749553927E+03  0.12749553937E+03  0.50400001928E-02 0.  1.
        1   -1    0    0  501    0  0.00000000000E+00  0.00000000000E+00 -0.15886319001E+04  0.15886319001E+04  0.50400001928E-02 0. -1.
    10030    2    1    2    0    0  0.00000000000E+00  0.00000000000E+00 -0.14611363608E+04  0.17161274395E+04  0.90009661901E+03 0.  0.
        4    1    3    3  502    0 -0.12639887199E+03  0.31658352859E+03 -0.12907984683E+04  0.13350520979E+04  0.12699999809E+01 0. -1.
       -4    1    3    3    0  502  0.12639887199E+03 -0.31658352859E+03 -0.17033789250E+03  0.38107534155E+03  0.12699999809E+01 0.  1.
</event>
<event>
 5   0  0.9981885E-04  0.8999186E+03  0.7818609E-02  0.9425683E-01
        1   -1    0    0  501    0  0.00000000000E+00  0.00000000000E+00  0.47800211854E+03  0.47800211856E+03  0.50400001928E-02 0.  1.
       -1   -1    0    0    0  501  0.00000000000E+00  0.00000000000E+00 -0.42356170312E+03  0.42356170315E+03  0.50400001928E-02 0. -1.
    10030    2    1    2    0    0  0.00000000000E+00  0.00000000000E+00  0.54440415419E+02  0.90156382171E+03  0.89991864398E+03 0.  0.
        4    1    3    3  502    0 -0.23928290943E+03  0.12200247341E+03  0.38887997812E+03  0.47262052912E+03  0.12699999809E+01 0.  1.
       -4    1    3    3    0  502  0.23928290943E+03 -0.12200247341E+03 -0.33443956270E+03  0.42894329259E+03  0.12699999809E+01 0. -1.
</event>
<event>
 5   0  0.9223454E-04  0.8992879E+03  0.7818609E-02  0.9426472E-01
       -1   -1    0    0    0  501  0.00000000000E+00  0.00000000000E+00  0.16114121612E+04  0.16114121612E+04  0.50400001928E-02 0. -1.
        1   -1    0    0  501    0  0.00000000000E+00  0.00000000000E+00 -0.12546739249E+03  0.12546739259E+03  0.50400001928E-02 0.  1.
    10030    2    1    2    0    0  0.00000000000E+00  0.00000000000E+00  0.14859447687E+04  0.17368795538E+04  0.89928790091E+03 0.  0.
        1    1    3    3  502    0 -0.23975279277E+03 -0.72757280081E+02  0.21848971499E+02  0.25150030025E+03  0.50400001928E-02 0.  1.
       -1    1    3    3    0  502  0.23975279277E+03  0.72757280081E+02  0.14640957972E+04  0.14853792535E+04  0.50400001928E-02 0. -1.
</event>
<event>
 5   0  0.9321543E-04  0.8996374E+03  0.7818609E-02  0.9426035E-01
       -1   -1    0    0    0  501  0.00000000000E+00  0.00000000000E+00  0.42677844837E+03  0.42677844840E+03  0.50400001928E-02 0. -1.
        1   -1    0    0  501    0  0.00000000000E+00  0.00000000000E+00 -0.47410282734E+03  0.47410282737E+03  0.50400001928E-02 0.  1.
    10030    2    1    2    0    0  0.00000000000E+00  0.00000000000E+00 -0.47324378969E+02  0.90088127577E+03  0.89963741373E+03 0.  0.
        3    1    3    3  502    0  0.52224420344E+02  0.14724671111E+03 -0.44606037883E+03  0.47262972376E+03  0.10100000352E+00 0.  1.
       -3    1    3    3    0  502 -0.52224420344E+02 -0.14724671111E+03  0.39873599986E+03  0.42825155201E+03  0.10100000352E+00 0. -1.
</event>
<event>
 5   0  0.9981885E-04  0.8941960E+03  0.7818609E-02  0.9432866E-01
        1   -1    0    0  501    0  0.00000000000E+00  0.00000000000E+00  0.90218995780E+03  0.90218995781E+03  0.50400001928E-02 0.  1.
       -1   -1    0    0    0  501  0.00000000000E+00  0.00000000000E+00 -0.22156823832E+03  0.22156823838E+03  0.50400001928E-02 0. -1.
    10030    2    1    2    0    0  0.00000000000E+00  0.00000000000E+00  0.68062171948E+03  0.11237581962E+04  0.89419604029E+03 0.  0.
        4    1    3    3  502    0  0.41862865775E+03 -0.15694936486E+03  0.33596279289E+03  0.55924562343E+03  0.12699999809E+01 0. -1.
       -4    1    3    3    0  502 -0.41862865775E+03  0.15694936486E+03  0.34465892659E+03  0.56451257276E+03  0.12699999809E+01 0.  1.
</event>
<event>
 5   0  0.1704416E-03  0.9049177E+03  0.7818609E-02  0.9419455E-01
        2   -1    0    0  501    0  0.00000000000E+00  0.00000000000E+00  0.74577988622E+03  0.74577988623E+03  0.25500000920E-02 0.  1.
       -2   -1    0    0    0  501  0.00000000000E+00  0.00000000000E+00 -0.27450326233E+03  0.27450326234E+03  0.25500000920E-02 0. -1.
    10030    2    1    2    0    0  0.00000000000E+00  0.00000000000E+00  0.47127662390E+03  0.10202831486E+04  0.90491770179E+03 0.  0.
        3    1    3    3  502    0 -0.29800537009E+03  0.14493606863E+03  0.58298002959E+03  0.67058138186E+03  0.10100000352E+00 0.  1.
       -3    1    3    3    0  502  0.29800537009E+03 -0.14493606863E+03 -0.11170340569E+03  0.34970176671E+03  0.10100000352E+00 0. -1.
</event>
<event>
 5   0  0.1007561E-03  0.9015785E+03  0.7818609E-02  0.9423610E-01
       -1   -1    0    0    0  501  0.00000000000E+00  0.00000000000E+00  0.12673306444E+03  0.12673306454E+03  0.50400001928E-02 0.  1.
        1   -1    0    0  501    0  0.00000000000E+00  0.00000000000E+00 -0.16034562988E+04  0.16034562988E+04  0.50400001928E-02 0. -1.
    10030    2    1    2    0    0  0.00000000000E+00  0.00000000000E+00 -0.14767232343E+04  0.17301893633E+04  0.90157846144E+03 0.  0.
        2    1    3    3  502    0 -0.99310652340E+01  0.13510734844E+03 -0.15634673368E+04  0.15693255669E+04  0.25500000920E-02 0. -1.
       -2    1    3    3    0  502  0.99310652340E+01 -0.13510734844E+03  0.86744102513E+02  0.16086379639E+03  0.25500000920E-02 0.  1.
</event>
<event>
 5   0  0.9321543E-04  0.8989316E+03  0.7818609E-02  0.9426918E-01
        1   -1    0    0  501    0  0.00000000000E+00  0.00000000000E+00  0.97148126738E+03  0.97148126739E+03  0.50400001928E-02 0. -1.
       -1   -1    0    0    0  501  0.00000000000E+00  0.00000000000E+00 -0.20794996290E+03  0.20794996296E+03  0.50400001928E-02 0.  1.
    10030    2    1    2    0    0  0.00000000000E+00  0.00000000000E+00  0.76353130448E+03  0.11794312304E+04  0.89893157371E+03 0.  0.
        3    1    3    3  502    0  0.58398238868E+02  0.12508616055E+03 -0.17944657989E+03  0.22640226832E+03  0.10100000352E+00 0.  1.
       -3    1    3    3    0  502 -0.58398238868E+02 -0.12508616055E+03  0.94297788437E+03  0.95302896204E+03  0.10100000352E+00 0. -1.
</event>
<event>
 5   0  0.6375625E-04  0.8996705E+03  0.7818609E-02  0.9425993E-01
        4   -1    0    0  501    0  0.00000000000E+00  0.00000000000E+00  0.60508633443E+03  0.60508766721E+03  0.12699999809E+01 0.  1.
       -4   -1    0    0    0  501  0.00000000000E+00  0.00000000000E+00 -0.33441507535E+03  0.33441748687E+03  0.12699999809E+01 0. -1.
    10030    2    1    2    0    0  0.00000000000E+00  0.00000000000E+00  0.27067125908E+03  0.93950515408E+03  0.89967049749E+03 0.  0.
        5    1    3    3  502    0 -0.13603798463E+02  0.35907503916E+03  0.41788870764E+03  0.55115606597E+03  0.46999998093E+01 0.  1.
       -5    1    3    3    0  502  0.13603798463E+02 -0.35907503916E+03 -0.14721744857E+03  0.38834908812E+03  0.46999998093E+01 0. -1.
</event>
<event>
 5   0  0.1641516E-03  0.8998735E+03  0.7818609E-02  0.9425740E-01
        2   -1    0    0  501    0  0.00000000000E+00  0.00000000000E+00  0.92739591415E+03  0.92739591415E+03  0.25500000920E-02 0. -1.
       -2   -1    0    0    0  501  0.00000000000E+00  0.00000000000E+00 -0.21829199069E+03  0.21829199071E+03  0.25500000920E-02 0.  1.
    10030    2    1    2    0    0  0.00000000000E+00  0.00000000000E+00  0.70910392345E+03  0.11456879049E+04  0.89987354727E+03 0.  0.
        1    1    3    3  502    0 -0.29330314811E+02 -0.43482136141E+03  0.21213250565E+03  0.48469586720E+03  0.50400001928E-02 0.  1.
       -1    1    3    3    0  502  0.29330314811E+02  0.43482136141E+03  0.49697141780E+03  0.66099203765E+03  0.50400001928E-02 0. -1.
</event>
<event>
 5   0  0.6375625E-04  0.9020445E+03  0.7818609E-02  0.9423029E-01
       -3   -1    0    0    0  501  0.00000000000E+00  0.00000000000E+00  0.42148516872E+03  0.42148518082E+03  0.10100000352E+00 0. -1.
        3   -1    0    0  501    0  0.00000000000E+00  0.00000000000E+00 -0.48262920871E+03  0.48262921928E+03  0.10100000352E+00 0.  1.
    10030    2    1    2    0    0  0.00000000000E+00  0.00000000000E+00 -0.61144039994E+02  0.90411440010E+03  0.90204448607E+03 0.  0.
        5    1    3    3  502    0  0.48101300326E+02 -0.12587407613E+03  0.40081188416E+03  0.42288328723E+03  0.46999998093E+01 0. -1.
       -5    1    3    3    0  502 -0.48101300326E+02  0.12587407613E+03 -0.46195592415E+03  0.48123111287E+03  0.46999998093E+01 0.  1.
</event>
<event>
 5   0  0.9223454E-04  0.8779873E+03  0.7818609E-02  0.9453525E-01
        1   -1    0    0  501    0  0.00000000000E+00  0.00000000000E+00  0.27635283587E+03  0.27635283592E+03  0.50400001928E-02 0. -1.
       -1   -1    0    0    0  501  0.00000000000E+00  0.00000000000E+00 -0.69735284203E+03  0.69735284205E+03  0.50400001928E-02 0.  1.
    10030    2    1    2    0    0  0.00000000000E+00  0.00000000000E+00 -0.42100000616E+03  0.97370567797E+03  0.87798732458E+03 0.  0.
        1    1    3    3  502    0 -0.47815928236E+02 -0.43524184093E+03 -0.17554189169E+03  0.47173804049E+03  0.50400001928E-02 0. -1.
       -1    1    3    3    0  502  0.47815928236E+02  0.43524184093E+03 -0.24545811447E+03  0.50196763747E+03  0.50400001928E-02 0.  1.
</event>
<event>
 5   0  0.1536020E-03  0.8955639E+03  0.7818609E-02  0.9431144E-01
        2   -1    0    0  501    0  0.00000000000E+00  0.00000000000E+00  0.78767522822E+03  0.78767522823E+03  0.25500000920E-02 0. -1.
       -2   -1    0    0    0  501  0.00000000000E+00  0.00000000000E+00 -0.25455754805E+03  0.25455754806E+03  0.25500000920E-02 0.  1.
    10030    2    1    2    0    0  0.00000000000E+00  0.00000000000E+00  0.53311768018E+03  0.10422327763E+04  0.89556390004E+03 0.  0.
        2    1    3    3  502    0 -0.84309807987E+02  0.37950974590E+03  0.52514923839E+03  0.65338925117E+03  0.25500000920E-02 0. -1.
       -2    1    3    3    0  502  0.84309807987E+02 -0.37950974590E+03  0.79684417831E+01  0.38884352512E+03  0.25500000920E-02 0.  1.
</event>
<event>
 5   0  0.9697941E-04  0.8884859E+03  0.7818609E-02  0.9440090E-01
       -1   -1    0    0    0  501  0.00000000000E+00  0.00000000000E+00  0.43018196757E+03  0.43018196760E+03  0.50400001928E-02 0.  1.
        1   -1    0    0  501    0  0.00000000000E+00  0.00000000000E+00 -0.45876350048E+03  0.45876350051E+03  0.50400001928E-02 0. -1.
    10030    2    1    2    0    0  0.00000000000E+00  0.00000000000E+00 -0.28581532912E+02  0.88894546811E+03  0.88848587003E+03 0.  0.
        5    1    3    3  502    0 -0.15900456102E+03 -0.22156860301E+03 -0.36512097673E+03  0.45575268942E+03  0.46999998093E+01 0. -1.
       -5    1    3    3    0  502  0.15900456102E+03  0.22156860301E+03  0.33653944382E+03  0.43319277869E+03  0.46999998093E+01 0.  1.
</event>
<event>
 5   0  0.9981885E-04  0.9020874E+03  0.7818609E-02  0.9422976E-01
        1   -1    0    0  501    0  0.00000000000E+00  0.00000000000E+00  0.70831711068E+03  0.70831711070E+03  0.50400001928E-02 0. -1.
       -1   -1    0    0    0  501  0.00000000000E+00  0.00000000000E+00 -0.28721655108E+03  0.28721655112E+03  0.50400001928E-02 0.  1.
    10030    2    1    2    0    0  0.00000000000E+00  0.00000000000E+00  0.42110055960E+03  0.99553366182E+03  0.90208735194E+03 0.  0.
        4    1    3    3  502    0 -0.27042290999E+03 -0.35628499540E+03  0.27462724997E+03  0.52487073410E+03  0.12699999809E+01 0. -1.
       -4    1    3    3    0  502  0.27042290999E+03  0.35628499540E+03  0.14647330963E+03  0.47066292772E+03  0.12699999809E+01 0.  1.
</event>
<event>
 5   0  0.9321543E-04  0.9005513E+03  0.7818609E-02  0.9424893E-01
       -1   -1    0    0    0  501  0.00000000000E+00  0.00000000000E+00  0.21571834032E+03  0.21571834037E+03  0.50400001928E-02 0.  1.
        1   -1    0    0  501    0  0.00000000000E+00  0.00000000000E+00 -0.93987440412E+03  0.93987440413E+03  0.50400001928E-02 0. -1.
    10030    2    1    2    0    0  0.00000000000E+00  0.00000000000E+00 -0.72415606380E+03  0.11555927445E+04  0.90055126806E+03 0.  0.
        3    1    3    3  502    0 -0.21705706098E+03  0.30870889567E+03 -0.67726953088E+03  0.77531218077E+03  0.10100000352E+00 0. -1.
       -3    1    3    3    0  502  0.21705706098E+03 -0.30870889567E+03 -0.46886532922E+02  0.38028056374E+03  0.10100000352E+00 0.  1.
</event>
<event>
 5   0  0.6375625E-04  0.9004872E+03  0.7818609E-02  0.9424973E-01
        3   -1    0    0  501    0  0.00000000000E+00  0.00000000000E+00  0.32493892758E+03  0.32493894328E+03  0.10100000352E+00 0. -1.
       -3   -1    0    0    0  501  0.00000000000E+00  0.00000000000E+00 -0.62386884982E+03  0.62386885799E+03  0.10100000352E+00 0.  1.
    10030    2    1    2    0    0  0.00000000000E+00  0.00000000000E+00 -0.29892992223E+03  0.94880780128E+03  0.90048717112E+03 0.  0.
        4    1    3    3  502    0  0.17562992734E+03 -0.38085843315E+03 -0.32201665278E+03  0.52876777043E+03  0.12699999809E+01 0.  1.
       -4    1    3    3    0  502 -0.17562992734E+03  0.38085843315E+03  0.23086730543E+02  0.42004003084E+03  0.12699999809E+01 0. -1.
</event>
<event>
 5   0  0.1704416E-03  0.9069158E+03  0.7818609E-02  0.9416977E-01
        2   -1    0    0  501    0  0.00000000000E+00  0.00000000000E+00  0.17939020578E+04  0.17939020578E+04  0.25500000920E-02 0. -1.
       -2   -1    0    0    0  501  0.00000000000E+00  0.00000000000E+00 -0.11462390793E+03  0.11462390795E+03  0.25500000920E-02 0.  1.
    10030    2    1    2    0    0  0.00000000000E+00  0.00000000000E+00  0.16792781498E+04  0.19085259657E+04  0.90691579395E+03 0.  0.
        3    1    3    3  502    0  0.38100005773E+03  0.24352261508E+03  0.91130497584E+03  0.10173205381E+04  0.10100000352E+00 0.  1.
       -3    1    3    3    0  502 -0.38100005773E+03 -0.24352261508E+03  0.76797317400E+03  0.89120542762E+03  0.10100000352E+00 0. -1.
</event>
<event>
 5   0  0.1630202E-03  0.8995565E+03  0.7818609E-02  0.9426136E-01
        2   -1    0    0  501    0  0.00000000000E+00  0.00000000000E+00  0.85694251193E+03  0.85694251194E+03  0.25500000920E-02 0.  1.
       -2   -1    0    0    0  501  0.00000000000E+00  0.00000000000E+00 -0.23607237977E+03  0.23607237979E+03  0.25500000920E-02 0. -1.
    10030    2    1    2    0    0  0.00000000000E+00  0.00000000000E+00  0.62087013216E+03  0.10930148917E+04  0.89955646433E+03 0.  0.
        4    1    3    3  502    0  0.24571892461E+03  0.37248401084E+03  0.37891871831E+03  0.58540852080E+03  0.12699999809E+01 0.  1.
       -4    1    3    3    0  502 -0.24571892461E+03 -0.37248401084E+03  0.24195141385E+03  0.50760637092E+03  0.12699999809E+01 0. -1.
</event>
<event>
 5   0  0.9223454E-04  0.8926596E+03  0.7818609E-02  0.9434804E-01
        1   -1    0    0  501    0  0.00000000000E+00  0.00000000000E+00  0.23750684867E+03  0.23750684872E+03  0.50400001928E-02 0. -1.
       -1   -1    0    0    0  501  0.00000000000E+00  0.00000000000E+00 -0.83875606631E+03  0.83875606633E+03  0.50400001928E-02 0.  1.
    10030    2    1    2    0    0  0.00000000000E+00  0.00000000000E+00 -0.60124921764E+03  0.10762629150E+04  0.89265964432E+03 0.  0.
        1    1    3    3  502    0 -0.38041787724E+03 -0.16594444374E+03 -0.10267617718E+03  0.42754849680E+03  0.50400001928E-02 0. -1.
       -1    1    3    3    0  502  0.38041787724E+03  0.16594444374E+03 -0.49857304047E+03  0.64871441825E+03  0.50400001928E-02 0.  1.
</event>
<event>
 5   0  0.9697941E-04  0.9021202E+03  0.7818609E-02  0.9422935E-01
       -1   -1    0    0    0  501  0.00000000000E+00  0.00000000000E+00  0.24218848764E+03  0.24218848769E+03  0.50400001928E-02 0.  1.
        1   -1    0    0  501    0  0.00000000000E+00  0.00000000000E+00 -0.84006963419E+03  0.84006963421E+03  0.50400001928E-02 0. -1.
    10030    2    1    2    0    0  0.00000000000E+00  0.00000000000E+00 -0.59788114655E+03  0.10822581219E+04  0.90212015664E+03 0.  0.
        5    1    3    3  502    0  0.74850453456E+02 -0.15578537624E+03  0.20085577358E+03  0.26502227380E+03  0.46999998093E+01 0.  1.
       -5    1    3    3    0  502 -0.74850453456E+02  0.15578537624E+03 -0.79873692013E+03  0.81723584810E+03  0.46999998093E+01 0. -1.
</event>
<event>
 5   0  0.1704416E-03  0.8995661E+03  0.7818609E-02  0.9426124E-01
       -2   -1    0    0    0  501  0.00000000000E+00  0.00000000000E+00  0.66731412606E+03  0.66731412607E+03  0.25500000920E-02 0. -1.
        2   -1    0    0  501    0  0.00000000000E+00  0.00000000000E+00 -0.30316274926E+03  0.30316274927E+03  0.25500000920E-02 0.  1.
    10030    2    1    2    0    0  0.00000000000E+00  0.00000000000E+00  0.36415137680E+03  0.97047687533E+03  0.89956608447E+03 0.  0.
        3    1    3    3  502    0  0.76878146824E+02  0.37088612096E+03 -0.79610685051E+02  0.38704603803E+03  0.10100000352E+00 0.  1.
       -3    1    3    3    0  502 -0.76878146824E+02 -0.37088612096E+03  0.44376206185E+03  0.58343083731E+03  0.10100000352E+00 0. -1.
</event>
<event>
 5   0  0.9981885E-04  0.9112756E+03  0.7818609E-02  0.9411595E-01
        1   -1    0    0  501    0  0.00000000000E+00  0.00000000000E+00  0.14737772421E+04  0.14737772421E+04  0.50400001928E-02 0.  1.
       -1   -1    0    0    0  501  0.00000000000E+00  0.00000000000E+00 -0.14086646276E+03  0.14086646285E+03  0.50400001928E-02 0. -1.
    10030    2    1    2    0    0  0.00000000000E+00  0.00000000000E+00  0.13329107794E+04  0.16146437050E+04  0.91127556111E+03 0.  0.
        4    1    3    3  502    0  0.16898794845E+03  0.11337828351E+03 -0.55869928404E+02  0.21103228116E+03  0.12699999809E+01 0. -1.
       -4    1    3    3    0  502 -0.16898794845E+03 -0.11337828351E+03  0.13887807078E+04  0.14036114238E+04  0.12699999809E+01 0.  1.
</event>
<event>
 5   0  0.1704416E-03  0.8997121E+03  0.7818609E-02  0.9425941E-01
        2   -1    0    0  501    0  0.00000000000E+00  0.00000000000E+00  0.10227732746E+04  0.10227732746E+04  0.25500000920E-02 0.  1.
       -2   -1    0    0    0  501  0.00000000000E+00  0.00000000000E+00 -0.19786442266E+03  0.19786442268E+03  0.25500000920E-02 0. -1.
    10030    2    1    2    0    0  0.00000000000E+00  0.00000000000E+00  0.82490885191E+03  0.12206376973E+04  0.89971205060E+03 0.  0.
        3    1    3    3  502    0 -0.19234269060E+03  0.40122903907E+03  0.50234508301E+03  0.67106709430E+03  0.10100000352E+00 0.  1.
       -3    1    3    3    0  502  0.19234269060E+03 -0.40122903907E+03  0.32256376890E+03  0.54957060296E+03  0.10100000352E+00 0. -1.
</event>
<event>
 5   0  0.9697941E-04  0.8993355E+03  0.7818609E-02  0.9426412E-01
       -1   -1    0    0    0  501  0.00000000000E+00  0.00000000000E+00  0.65471785276E+03  0.65471785278E+03  0.50400001928E-02 0.  1.
        1   -1    0    0  501    0  0.00000000000E+00  0.00000000000E+00 -0.30883699133E+03  0.30883699137E+03  0.50400001928E-02 0. -1.
    10030    2    1    2    0    0  0.00000000000E+00  0.00000000000E+00  0.34588086143E+03  0.96355484415E+03  0.89933551435E+03 0.  0.
        5    1    3    3  502    0  0.23662512494E+03 -0.22238241901E+02 -0.23601318961E+03  0.33497806619E+03  0.46999998093E+01 0. -1.
       -5    1    3    3    0  502 -0.23662512494E+03  0.22238241901E+02  0.58189405104E+03  0.62857677796E+03  0.46999998093E+01 0.  1.
</event>
<event>
 5   0  0.1007561E-03  0.9019477E+03  0.7818609E-02  0.9423150E-01
       -1   -1    0    0    0  501  0.00000000000E+00  0.00000000000E+00  0.50459354596E+03  0.50459354598E+03  0.50400001928E-02 0.  1.
        1   -1    0    0  501    0  0.00000000000E+00  0.00000000000E+00 -0.40305192123E+03  0.40305192126E+03  0.50400001928E-02 0. -1.
    10030    2    1    2    0    0  0.00000000000E+00  0.00000000000E+00  0.10154162473E+03  0.90764546724E+03  0.90194766625E+03 0.  0.
        2    1    3    3  502    0 -0.13104803689E+03  0.10392400674E+03 -0.37068705855E+03  0.40667269706E+03  0.25500000920E-02 0. -1.
       -2    1    3    3    0  502  0.13104803689E+03 -0.10392400674E+03  0.47222868328E+03  0.50097277019E+03  0.25500000920E-02 0.  1.
</event>
<event>
 5   0  0.1635686E-03  0.8995373E+03  0.7818609E-02  0.9426160E-01
        2   -1    0    0  501    0  0.00000000000E+00  0.00000000000E+00  0.42769845431E+03  0.42769845432E+03  0.25500000920E-02 0. -1.
       -2   -1    0    0    0  501  0.00000000000E+00  0.00000000000E+00 -0.47297769907E+03  0.47297769908E+03  0.25500000920E-02 0.  1.
    10030    2    1    2    0    0  0.00000000000E+00  0.00000000000E+00 -0.45279244760E+02  0.90067615340E+03  0.89953728288E+03 0.  0.
        5    1    3    3  502    0  0.30300051252E+03 -0.20666929994E+03 -0.28325406231E+03  0.46343981695E+03  0.46999998093E+01 0.  1.
       -5    1    3    3    0  502 -0.30300051252E+03  0.20666929994E+03  0.23797481755E+03  0.43723633645E+03  0.46999998093E+01 0. -1.
</event>
<event>
 5   0  0.9223454E-04  0.9062513E+03  0.7818609E-02  0.9417801E-01
        1   -1    0    0  501    0  0.00000000000E+00  0.00000000000E+00  0.11607058238E+04  0.11607058238E+04  0.50400001928E-02 0.  1.
       -1   -1    0    0    0  501  0.00000000000E+00  0.00000000000E+00 -0.17689481962E+03  0.17689481969E+03  0.50400001928E-02 0. -1.
    10030    2    1    2    0    0  0.00000000000E+00  0.00000000000E+00  0.98381100414E+03  0.13376006435E+04  0.90625128387E+03 0.  0.
        1    1    3    3  502    0 -0.89487577111E+02 -0.29952289369E+03  0.97606192698E+03  0.10248994466E+04  0.50400001928E-02 0.  1.
       -1    1    3    3    0  502  0.89487577111E+02  0.29952289369E+03  0.77490771622E+01  0.31270119687E+03  0.50400001928E-02 0. -1.
</event>
<event>
 5   0  0.9223454E-04  0.8984888E+03  0.7818609E-02  0.9427472E-01
        1   -1    0    0  501    0  0.00000000000E+00  0.00000000000E+00  0.46776795811E+03  0.46776795814E+03  0.50400001928E-02 0.  1.
       -1   -1    0    0    0  501  0.00000000000E+00  0.00000000000E+00 -0.43145436302E+03  0.43145436305E+03  0.50400001928E-02 0. -1.
    10030    2    1    2    0    0  0.00000000000E+00  0.00000000000E+00  0.36313595093E+02  0.89922232119E+03  0.89848878999E+03 0.  0.
        1    1    3    3  502    0  0.35479204864E+03 -0.22132732812E+03 -0.14616415874E+03  0.44297533258E+03  0.50400001928E-02 0. -1.
       -1    1    3    3    0  502 -0.35479204864E+03  0.22132732812E+03  0.18247775383E+03  0.45624698861E+03  0.50400001928E-02 0.  1.
</event>
<event>
 5   0  0.1704416E-03  0.9009749E+03  0.7818609E-02  0.9424364E-01
       -2   -1    0    0    0  501  0.00000000000E+00  0.00000000000E+00  0.34732257301E+03  0.34732257302E+03  0.25500000920E-02 0. -1.
        2   -1    0    0  501    0  0.00000000000E+00  0.00000000000E+00 -0.58429525323E+03  0.58429525323E+03  0.25500000920E-02 0.  1.
    10030    2    1    2    0    0  0.00000000000E+00  0.00000000000E+00 -0.23697268021E+03  0.93161782625E+03  0.90097487369E+03 0.  0.
        3    1    3    3  502    0  0.91506366356E+02 -0.41522099918E+03 -0.27240130831E+03  0.50495977683E+03  0.10100000352E+00 0. -1.
       -3    1    3    3    0  502 -0.91506366356E+02  0.41522099918E+03  0.35428628095E+02  0.42665804942E+03  0.10100000352E+00 0.  1.
</event>
<event>
 5   0  0.9981885E-04  0.9166598E+03  0.7818609E-02  0.9404992E-01
       -1   -1    0    0    0  501  0.00000000000E+00  0.00000000000E+00  0.16744196329E+03  0.16744196337E+03  0.50400001928E-02 0. -1.
        1   -1    0    0  501    0  0.00000000000E+00  0.00000000000E+00 -0.12545617824E+04  0.12545617824E+04  0.50400001928E-02 0.  1.
    10030    2    1    2    0    0  0.00000000000E+00  0.00000000000E+00 -0.10871198191E+04  0.14220037458E+04  0.91665977979E+03 0.  0.
        4    1    3    3  502    0  0.23166884873E+03 -0.39534413544E+03 -0.55885676012E+03  0.72269629315E+03  0.12699999809E+01 0. -1.
       -4    1    3    3    0  502 -0.23166884873E+03  0.39534413544E+03 -0.52826305898E+03  0.69930745261E+03  0.12699999809E+01 0.  1.
</event>
<event>
 5   0  0.9223454E-04  0.9007774E+03  0.7818609E-02  0.9424610E-01
       -1   -1    0    0    0  501  0.00000000000E+00  0.00000000000E+00  0.87693194061E+02  0.87693194206E+02  0.50400001928E-02 0. -1.
        1   -1    0    0  501    0  0.00000000000E+00  0.00000000000E+00 -0.23131780203E+04  0.23131780203E+04  0.50400001928E-02 0.  1.
    10030    2    1    2    0    0  0.00000000000E+00  0.00000000000E+00 -0.22254848263E+04  0.24008712146E+04  0.90077737364E+03 0.  0.
        1    1    3    3  502    0 -0.13523567242E+03 -0.36350927385E+03 -0.17229946639E+04  0.17661082331E+04  0.50400001928E-02 0.  1.
       -1    1    3    3    0  502  0.13523567242E+03  0.36350927385E+03 -0.50249016237E+03  0.63476298141E+03  0.50400001928E-02 0. -1.
</event>
<event>
 5   0  0.1635686E-03  0.9009218E+03  0.7818609E-02  0.9424430E-01
        2   -1    0    0  501    0  0.00000000000E+00  0.00000000000E+00  0.96190006604E+03  0.96190006604E+03  0.25500000920E-02 0.  1.
       -2   -1    0    0    0  501  0.00000000000E+00  0.00000000000E+00 -0.21095230656E+03  0.21095230658E+03  0.25500000920E-02 0. -1.
    10030    2    1    2    0    0  0.00000000000E+00  0.00000000000E+00  0.75094775948E+03  0.11728523726E+04  0.90092183374E+03 0.  0.
        5    1    3    3  502    0 -0.32276295337E+02 -0.25190133879E+03 -0.10883164790E+03  0.27633758576E+03  0.46999998093E+01 0. -1.
       -5    1    3    3    0  502  0.32276295337E+02  0.25190133879E+03  0.85977940737E+03  0.89651478686E+03  0.46999998093E+01 0.  1.
</event>
<event>
 5   0  0.9697941E-04  0.9057785E+03  0.7818609E-02  0.9418387E-01
       -1   -1    0    0    0  501  0.00000000000E+00  0.00000000000E+00  0.40714118071E+03  0.40714118074E+03  0.50400001928E-02 0.  1.
        1   -1    0    0  501    0  0.00000000000E+00  0.00000000000E+00 -0.50377774970E+03  0.50377774972E+03  0.50400001928E-02 0. -1.
    10030    2    1    2    0    0  0.00000000000E+00  0.00000000000E+00 -0.96636568990E+02  0.91091893046E+03  0.90577848915E+03 0.  0.
        5    1    3    3  502    0  0.27494881936E+03  0.95725481292E+02  0.30053121859E+03  0.41845110154E+03  0.46999998093E+01 0.  1.
       -5    1    3    3    0  502 -0.27494881936E+03 -0.95725481292E+02 -0.39716778758E+03  0.49246782892E+03  0.46999998093E+01 0. -1.
</event>
<event>
 5   0  0.1704416E-03  0.9001304E+03  0.7818609E-02  0.9425418E-01
        2   -1    0    0  501    0  0.00000000000E+00  0.00000000000E+00  0.76593925982E+03  0.76593925983E+03  0.25500000920E-02 0. -1.
       -2   -1    0    0    0  501  0.00000000000E+00  0.00000000000E+00 -0.26445787022E+03  0.26445787023E+03  0.25500000920E-02 0.  1.
    10030    2    1    2    0    0  0.00000000000E+00  0.00000000000E+00  0.50148138960E+03  0.10303971301E+04  0.90013035807E+03 0.  0.
        3    1    3    3  502    0 -0.96631380479E+02 -0.51452531289E+02 -0.24898384690E+03  0.27198888376E+03  0.10100000352E+00 0.  1.
       -3    1    3    3    0  502  0.96631380479E+02  0.51452531289E+02  0.75046523650E+03  0.75840824631E+03  0.10100000352E+00 0. -1.
</event>
<event>
 5   0  0.1007561E-03  0.8985345E+03  0.7818609E-02  0.9427415E-01
        1   -1    0    0  501    0  0.00000000000E+00  0.00000000000E+00  0.94393945712E+03  0.94393945713E+03  0.50400001928E-02 0.  1.
       -1   -1    0    0    0  501  0.00000000000E+00  0.00000000000E+00 -0.21382838040E+03  0.21382838046E+03  0.50400001928E-02 0. -1.
    10030    2    1    2    0    0  0.00000000000E+00  0.00000000000E+00  0.73011107672E+03  0.11577678376E+04  0.89853446312E+03 0.  0.
        2    1    3    3  502    0  0.10228309641E+03  0.52271982266E+02  0.92469911648E+03  0.93180612144E+03  0.25500000920E-02 0.  1.
       -2    1    3    3    0  502 -0.10228309641E+03 -0.52271982266E+02 -0.19458803976E+03  0.22596171615E+03  0.25500000920E-02 0. -1.
</event>
<event>
 5   0  0.9981885E-04  0.8980026E+03  0.7818609E-02  0.9428082E-01
       -1   -1    0    0    0  501  0.00000000000E+00  0.00000000000E+00  0.46424228368E+03  0.46424228371E+03  0.50400001928E-02 0.  1.
        1   -1    0    0  501    0  0.00000000000E+00  0.00000000000E+00 -0.43426064705E+03  0.43426064708E+03  0.50400001928E-02 0. -1.
    10030    2    1    2    0    0  0.00000000000E+00  0.00000000000E+00  0.29981636630E+02  0.89850293080E+03  0.89800257133E+03 0.  0.
        4    1    3    3  502    0  0.66512615365E+02 -0.44263107470E+03 -0.20445653716E+02  0.44806900578E+03  0.12699999809E+01 0. -1.
       -4    1    3    3    0  502 -0.66512615365E+02  0.44263107470E+03  0.50427290346E+02  0.45043392501E+03  0.12699999809E+01 0.  1.
</event>
<event>
 5   0  0.9223454E-04  0.8823782E+03  0.7818609E-02  0.9447882E-01
        1   -1    0    0  501    0  0.00000000000E+00  0.00000000000E+00  0.76515556049E+03  0.76515556051E+03  0.50400001928E-02 0. -1.
       -1   -1    0    0    0  501  0.00000000000E+00  0.00000000000E+00 -0.25438985171E+03  0.25438985176E+03  0.50400001928E-02 0.  1.
    10030    2    1    2    0    0  0.00000000000E+00  0.00000000000E+00  0.51076570878E+03  0.10195454123E+04  0.88237817200E+03 0.  0.
        1    1    3    3  502    0 -0.36449657536E+03  0.14253543990E+01 -0.31830066480E+02  0.36588651006E+03  0.50400001928E-02 0.  1.
       -1    1    3    3    0  502  0.36449657536E+03 -0.14253543990E+01  0.54259577526E+03  0.65365890221E+03  0.50400001928E-02 0. -1.
</event>
<event>
 5   0  0.9981885E-04  0.8940535E+03  0.7818609E-02  0.9433046E-01
        1   -1    0    0  501    0  0.00000000000E+00  0.00000000000E+00  0.15123210470E+03  0.15123210478E+03  0.50400001928E-02 0.  1.
       -1   -1    0    0    0  501  0.00000000000E+00  0.00000000000E+00 -0.13213657104E+04  0.13213657104E+04  0.50400001928E-02 0. -1.
    10030    2    1    2    0    0  0.00000000000E+00  0.00000000000E+00 -0.11701336057E+04  0.14725978152E+04  0.89405350516E+03 0.  0.
        4    1    3    3  502    0  0.25033158434E+03  0.29886474865E+03 -0.22478682977E+03  0.45001863499E+03  0.12699999809E+01 0. -1.
       -4    1    3    3    0  502 -0.25033158434E+03 -0.29886474865E+03 -0.94534677590E+03  0.10225791802E+04  0.12699999809E+01 0.  1.
</event>
<event>
 5   0  0.1536020E-03  0.8977258E+03  0.7818609E-02  0.9428429E-01
        2   -1    0    0  501    0  0.00000000000E+00  0.00000000000E+00  0.10932635188E+04  0.10932635188E+04  0.25500000920E-02 0. -1.
       -2   -1    0    0    0  501  0.00000000000E+00  0.00000000000E+00 -0.18429034923E+03  0.18429034924E+03  0.25500000920E-02 0.  1.
    10030    2    1    2    0    0  0.00000000000E+00  0.00000000000E+00  0.90897316961E+03  0.12775538681E+04  0.89772582829E+03 0.  0.
        2    1    3    3  502    0 -0.20988526309E+03 -0.47009410035E+02  0.10151523451E+04  0.10376878105E+04  0.25500000920E-02 0. -1.
       -2    1    3    3    0  502  0.20988526309E+03  0.47009410035E+02 -0.10617917545E+03  0.23986605762E+03  0.25500000920E-02 0.  1.
</event>
<event>
 5   0  0.1641516E-03  0.9005992E+03  0.7818609E-02  0.9424833E-01
       -2   -1    0    0    0  501  0.00000000000E+00  0.00000000000E+00  0.46534601688E+03  0.46534601688E+03  0.25500000920E-02 0. -1.
        2   -1    0    0  501    0  0.00000000000E+00  0.00000000000E+00 -0.43573968620E+03  0.43573968620E+03  0.25500000920E-02 0.  1.
    10030    2    1    2    0    0  0.00000000000E+00  0.00000000000E+00  0.29606330680E+02  0.90108570309E+03  0.90059919470E+03 0.  0.
        1    1    3    3  502    0 -0.32996660391E+01  0.15341256966E+03  0.43837973479E+03  0.46446000497E+03  0.50400001928E-02 0. -1.
       -1    1    3    3    0  502  0.32996660391E+01 -0.15341256966E+03 -0.40877340411E+03  0.43662569811E+03  0.50400001928E-02 0.  1.
</event>
<event>
 5   0  0.1704416E-03  0.8985280E+03  0.7818609E-02  0.9427423E-01
        2   -1    0    0  501    0  0.00000000000E+00  0.00000000000E+00  0.97091055360E+03  0.97091055360E+03  0.25500000920E-02 0. -1.
       -2   -1    0    0    0  501  0.00000000000E+00  0.00000000000E+00 -0.20788542656E+03  0.20788542657E+03  0.25500000920E-02 0.  1.
    10030    2    1    2    0    0  0.00000000000E+00  0.00000000000E+00  0.76302512704E+03  0.11787959802E+04  0.89852802871E+03 0.  0.
        3    1    3    3  502    0  0.34536088970E+01 -0.34663619782E+03  0.75643129067E+03  0.83207985720E+03  0.10100000352E+00 0. -1.
       -3    1    3    3    0  502 -0.34536088970E+01  0.34663619782E+03  0.65938363734E+01  0.34671612298E+03  0.10100000352E+00 0.  1.
</event>
<event>
 5   0  0.1641516E-03  0.9015458E+03  0.7818609E-02  0.9423651E-01
        2   -1    0    0  501    0  0.00000000000E+00  0.00000000000E+00  0.12705138270E+04  0.12705138270E+04  0.25500000920E-02 0.  1.
       -2   -1    0    0    0  501  0.00000000000E+00  0.00000000000E+00 -0.15993232174E+03  0.15993232176E+03  0.25500000920E-02 0. -1.
    10030    2    1    2    0    0  0.00000000000E+00  0.00000000000E+00  0.11105815053E+04  0.14304461487E+04  0.90154584168E+03 0.  0.
        1    1    3    3  502    0  0.16619105457E+03  0.86479931894E+01 -0.10940774665E+03  0.19915900547E+03  0.50400001928E-02 0. -1.
       -1    1    3    3    0  502 -0.16619105457E+03 -0.86479931894E+01  0.12199892519E+04  0.12312871433E+04  0.50400001928E-02 0.  1.
</event>
<event>
 5   0  0.1630202E-03  0.8927852E+03  0.7818609E-02  0.9434645E-01
        2   -1    0    0  501    0  0.00000000000E+00  0.00000000000E+00  0.92468979893E+03  0.92468979893E+03  0.25500000920E-02 0.  1.
       -2   -1    0    0    0  501  0.00000000000E+00  0.00000000000E+00 -0.21549536777E+03  0.21549536779E+03  0.25500000920E-02 0. -1.
    10030    2    1    2    0    0  0.00000000000E+00  0.00000000000E+00  0.70919443116E+03  0.11401851667E+04  0.89278523354E+03 0.  0.
        4    1    3    3  502    0 -0.26200212097E+03 -0.44081782535E+02  0.81271579730E+03  0.85504204284E+03  0.12699999809E+01 0.  1.
       -4    1    3    3    0  502  0.26200212097E+03  0.44081782535E+02 -0.10352136615E+03  0.28514312388E+03  0.12699999809E+01 0. -1.
</event>
<event>
 5   0  0.9321543E-04  0.9001895E+03  0.7818609E-02  0.9425345E-01
       -1   -1    0    0    0  501  0.00000000000E+00  0.00000000000E+00  0.26026233731E+03  0.26026233736E+03  0.50400001928E-02 0.  1.
        1   -1    0    0  501    0  0.00000000000E+00  0.00000000000E+00 -0.77838876680E+03  0.77838876681E+03  0.50400001928E-02 0. -1.
    10030    2    1    2    0    0  0.00000000000E+00  0.00000000000E+00 -0.51812642948E+03  0.10386511042E+04  0.90018949076E+03 0.  0.
        3    1    3    3  502    0  0.17474780655E+03  0.55027750644E+02  0.21529381111E+03  0.28269468431E+03  0.10100000352E+00 0.  1.
       -3    1    3    3    0  502 -0.17474780655E+03 -0.55027750644E+02 -0.73342024059E+03  0.75595641987E+03  0.10100000352E+00 0. -1.
</event>
<event>
 5   0  0.9223454E-04  0.8998297E+03  0.7818609E-02  0.9425794E-01
       -1   -1    0    0    0  501  0.00000000000E+00  0.00000000000E+00  0.64459824053E+03  0.64459824055E+03  0.50400001928E-02 0.  1.
        1   -1    0    0  501    0  0.00000000000E+00  0.00000000000E+00 -0.31403026056E+03  0.31403026060E+03  0.50400001928E-02 0. -1.
    10030    2    1    2    0    0  0.00000000000E+00  0.00000000000E+00  0.33056797998E+03  0.95862850115E+03  0.89982965823E+03 0.  0.
        1    1    3    3  502    0 -0.24444779455E+03  0.18325527022E+03  0.51714797029E+03  0.60064901691E+03  0.50400001928E-02 0.  1.
       -1    1    3    3    0  502  0.24444779455E+03 -0.18325527022E+03 -0.18657999031E+03  0.35797948423E+03  0.50400001928E-02 0. -1.
</event>
<event>
 5   0  0.9697941E-04  0.9003477E+03  0.7818609E-02  0.9425147E-01
        1   -1    0    0  501    0  0.00000000000E+00  0.00000000000E+00  0.11806024602E+04  0.11806024602E+04  0.50400001928E-02 0.  1.
       -1   -1    0    0    0  501  0.00000000000E+00  0.00000000000E+00 -0.17165513842E+03  0.17165513849E+03  0.50400001928E-02 0. -1.
    10030    2    1    2    0    0  0.00000000000E+00  0.00000000000E+00  0.10089473218E+04  0.13522575987E+04  0.90034766346E+03 0.  0.
        5    1    3    3  502    0  0.93625090975E+02 -0.36559203264E+03  0.13593095644E+03  0.40115147626E+03  0.46999998093E+01 0. -1.
       -5    1    3    3    0  502 -0.93625090975E+02  0.36559203264E+03  0.87301636533E+03  0.95110612243E+03  0.46999998093E+01 0.  1.
</event>
<event>
 5   0  0.9223454E-04  0.8998163E+03  0.7818609E-02  0.9425811E-01
       -1   -1    0    0    0  501  0.00000000000E+00  0.00000000000E+00  0.41016498328E+03  0.41016498331E+03  0.50400001928E-02 0.  1.
        1   -1    0    0  501    0  0.00000000000E+00  0.00000000000E+00 -0.49350223181E+03  0.49350223184E+03  0.50400001928E-02 0. -1.
    10030    2    1    2    0    0  0.00000000000E+00  0.00000000000E+00 -0.83337248532E+02  0.90366721515E+03  0.89981628055E+03 0.  0.
        1    1    3    3  502    0  0.43080565509E+03  0.81270902716E+01 -0.17167445365E+03  0.46382289736E+03  0.50400001928E-02 0. -1.
       -1    1    3    3    0  502 -0.43080565509E+03 -0.81270902716E+01  0.88337205113E+02  0.43984431779E+03  0.50400001928E-02 0.  1.
</event>
<event>
 5   0  0.9981885E-04  0.9011447E+03  0.7818609E-02  0.9424152E-01
       -1   -1    0    0    0  501  0.00000000000E+00  0.00000000000E+00  0.15824750861E+03  0.15824750869E+03  0.50400001928E-02 0.  1.
        1   -1    0    0  501    0  0.00000000000E+00  0.00000000000E+00 -0.12828982664E+04  0.12828982664E+04  0.50400001928E-02 0. -1.
    10030    2    1    2    0    0  0.00000000000E+00  0.00000000000E+00 -0.11246507578E+04  0.14411457751E+04  0.90114472651E+03 0.  0.
        4    1    3    3  502    0 -0.38640253599E+03  0.11357890798E+02 -0.19215105441E+03  0.43169382914E+03  0.12699999809E+01 0.  1.
       -4    1    3    3    0  502  0.38640253599E+03 -0.11357890798E+02 -0.93249970342E+03  0.10094519460E+04  0.12699999809E+01 0. -1.
</event>
<event>
 5   0  0.9321543E-04  0.8942942E+03  0.7818609E-02  0.9432742E-01
       -1   -1    0    0    0  501  0.00000000000E+00  0.00000000000E+00  0.81718076045E+02  0.81718076200E+02  0.50400001928E-02 0. -1.
        1   -1    0    0  501    0  0.00000000000E+00  0.00000000000E+00 -0.24467109428E+04  0.24467109428E+04  0.50400001928E-02 0.  1.
    10030    2    1    2    0    0  0.00000000000E+00  0.00000000000E+00 -0.23649928667E+04  0.25284290190E+04  0.89429415985E+03 0.  0.
        3    1    3    3  502    0  0.61529774429E+02 -0.15532563172E+03 -0.98404656653E+01  0.16735832807E+03  0.10100000352E+00 0. -1.
       -3    1    3    3    0  502 -0.61529774429E+02  0.15532563172E+03 -0.23551524011E+04  0.23610706909E+04  0.10100000352E+00 0.  1.
</event>
<event>
 5   0  0.1630202E-03  0.8989990E+03  0.7818609E-02  0.9426834E-01
       -2   -1    0    0    0  501  0.00000000000E+00  0.00000000000E+00  0.39589222892E+03  0.39589222893E+03  0.25500000920E-02 0.  1.
        2   -1    0    0  501    0  0.00000000000E+00  0.00000000000E+00 -0.51036563049E+03  0.51036563050E+03  0.25500000920E-02 0. -1.
    10030    2    1    2    0    0  0.00000000000E+00  0.00000000000E+00 -0.11447340157E+03  0.90625785943E+03  0.89899897003E+03 0.  0.
        4    1    3    3  502    0 -0.18258397447E+03 -0.38022162623E+03 -0.21387077420E+03  0.47291406592E+03  0.12699999809E+01 0. -1.
       -4    1    3    3    0  502  0.18258397447E+03  0.38022162623E+03  0.99397372637E+02  0.43334379351E+03  0.12699999809E+01 0.  1.
</event>
<event>
 5   0  0.1007561E-03  0.9000173E+03  0.7818609E-02  0.9425560E-01
        1   -1    0    0  501    0  0.00000000000E+00  0.00000000000E+00  0.42122448617E+03  0.42122448620E+03  0.50400001928E-02 0.  1.
       -1   -1    0    0    0  501  0.00000000000E+00  0.00000000000E+00 -0.48075976689E+03  0.48075976692E+03  0.50400001928E-02 0. -1.
    10030    2    1    2    0    0  0.00000000000E+00  0.00000000000E+00 -0.59535280721E+02  0.90198425313E+03  0.90001730163E+03 0.  0.
        2    1    3    3  502    0 -0.44894684278E+03  0.48235187175E+01  0.81547101085E+00  0.44897349474E+03  0.25500000920E-02 0. -1.
       -2    1    3    3    0  502  0.44894684278E+03 -0.48235187175E+01 -0.60350751732E+02  0.45301075839E+03  0.25500000920E-02 0.  1.
</event>
<event>
 5   0  0.9321543E-04  0.9002289E+03  0.7818609E-02  0.9425295E-01
        1   -1    0    0  501    0  0.00000000000E+00  0.00000000000E+00  0.82626372238E+03  0.82626372240E+03  0.50400001928E-02 0. -1.
       -1   -1    0    0    0  501  0.00000000000E+00  0.00000000000E+00 -0.24520380059E+03  0.24520380064E+03  0.50400001928E-02 0.  1.
    10030    2    1    2    0    0  0.00000000000E+00  0.00000000000E+00  0.58105992179E+03  0.10714675230E+04  0.90022887102E+03 0.  0.
        3    1    3    3  502    0 -0.41117189717E+02 -0.37251163399E+03  0.58724376116E+03  0.69664250945E+03  0.10100000352E+00 0. -1.
       -3    1    3    3    0  502  0.41117189717E+02  0.37251163399E+03 -0.61838393713E+01  0.37482501359E+03  0.10100000352E+00 0.  1.
</event>
<event>
 5   0  0.1635686E-03  0.8997281E+03  0.7818609E-02  0.9425921E-01
        2   -1    0    0  501    0  0.00000000000E+00  0.00000000000E+00  0.26768887220E+04  0.26768887220E+04  0.25500000920E-02 0. -1.
       -2   -1    0    0    0  501  0.00000000000E+00  0.00000000000E+00 -0.75601815082E+02  0.75601815125E+02  0.25500000920E-02 0.  1.
    10030    2    1    2    0    0  0.00000000000E+00  0.00000000000E+00  0.26012869070E+04  0.27524905372E+04  0.89972806162E+03 0.  0.
        5    1    3    3  502    0  0.31722776165E+03  0.31807124919E+03  0.12287164017E+04  0.13082694134E+04  0.46999998093E+01 0.  1.
       -5    1    3    3    0  502 -0.31722776165E+03 -0.31807124919E+03  0.13725705053E+04  0.14442211238E+04  0.46999998093E+01 0. -1.
</event>
<event>
 5   0  0.1007561E-03  0.8974018E+03  0.7818609E-02  0.9428835E-01
        1   -1    0    0  501    0  0.00000000000E+00  0.00000000000E+00  0.11293932954E+04  0.11293932954E+04  0.50400001928E-02 0.  1.
       -1   -1    0    0    0  501  0.00000000000E+00  0.00000000000E+00 -0.17826607323E+03  0.17826607330E+03  0.50400001928E-02 0. -1.
    10030    2    1    2    0    0  0.00000000000E+00  0.00000000000E+00  0.95112722213E+03  0.13076593687E+04  0.89740182293E+03 0.  0.
        2    1    3    3  502    0 -0.27452026647E+03  0.63152497569E+02  0.98449255078E+03  0.10239996080E+04  0.25500000920E-02 0.  1.
       -2    1    3    3    0  502  0.27452026647E+03 -0.63152497569E+02 -0.33365328659E+02  0.28365976066E+03  0.25500000920E-02 0. -1.
</event>
<event>
 5   0  0.9321543E-04  0.8997217E+03  0.7818609E-02  0.9425929E-01
       -1   -1    0    0    0  501  0.00000000000E+00  0.00000000000E+00  0.17049896004E+03  0.17049896011E+03  0.50400001928E-02 0. -1.
        1   -1    0    0  501    0  0.00000000000E+00  0.00000000000E+00 -0.11869560952E+04  0.11869560952E+04  0.50400001928E-02 0.  1.
    10030    2    1    2    0    0  0.00000000000E+00  0.00000000000E+00 -0.10164571351E+04  0.13574550553E+04  0.89972169007E+03 0.  0.
        3    1    3    3  502    0  0.46170189289E+02  0.35810253250E+03 -0.10337256270E+03  0.37557290515E+03  0.10100000352E+00 0. -1.
       -3    1    3    3    0  502 -0.46170189289E+02 -0.35810253250E+03 -0.91308457242E+03  0.98188215014E+03  0.10100000352E+00 0.  1.
</event>
<event>
 5   0  0.9697941E-04  0.8991073E+03  0.7818609E-02  0.9426698E-01
        1   -1    0    0  501    0  0.00000000000E+00  0.00000000000E+00  0.10861257624E+04  0.10861257625E+04  0.50400001928E-02 0.  1.
       -1   -1    0    0    0  501  0.00000000000E+00  0.00000000000E+00 -0.18607282916E+03  0.18607282922E+03  0.50400001928E-02 0. -1.
    10030    2    1    2    0    0  0.00000000000E+00  0.00000000000E+00  0.90005293329E+03  0.12721985917E+04  0.89910732060E+03 0.  0.
        5    1    3    3  502    0  0.12704304310E+03  0.12873515603E+03  0.10323355699E+04  0.10480703669E+04  0.46999998093E+01 0.  1.
       -5    1    3    3    0  502 -0.12704304310E+03 -0.12873515603E+03 -0.13228263658E+03  0.22412822477E+03  0.46999998093E+01 0. -1.
</event>
<event>
 5   0  0.1536020E-03  0.9002854E+03  0.7818609E-02  0.9425225E-01
       -2   -1    0    0    0  501  0.00000000000E+00  0.00000000000E+00  0.17734601499E+03  0.17734601501E+03  0.25500000920E-02 0. -1.
        2   -1    0    0  501    0  0.00000000000E+00  0.00000000000E+00 -0.11425600245E+04  0.11425600245E+04  0.25500000920E-02 0.  1.
    10030    2    1    2    0    0  0.00000000000E+00  0.00000000000E+00 -0.96521400950E+03  0.13199060395E+04  0.90028543750E+03 0.  0.
        2    1    3    3  502    0 -0.31063681566E+02  0.13900251260E+02 -0.11406712656E+04  0.11411788227E+04  0.25500000920E-02 0.  1.
       -2    1    3    3    0  502  0.31063681566E+02 -0.13900251260E+02  0.17545725608E+03  0.17872721678E+03  0.25500000920E-02 0. -1.
</event>
<event>
 5   0  0.1536020E-03  0.8998516E+03  0.7818609E-02  0.9425767E-01
        2   -1    0    0  501    0  0.00000000000E+00  0.00000000000E+00  0.18462750309E+04  0.18462750309E+04  0.25500000920E-02 0. -1.
       -2   -1    0    0    0  501  0.00000000000E+00  0.00000000000E+00 -0.10964414488E+03  0.10964414491E+03  0.25500000920E-02 0.  1.
    10030    2    1    2    0    0  0.00000000000E+00  0.00000000000E+00  0.17366308860E+04  0.19559191758E+04  0.89985164779E+03 0.  0.
        2    1    3    3  502    0 -0.41297839485E+02 -0.44691142097E+03  0.93697915143E+03  0.10389250502E+04  0.25500000920E-02 0.  1.
       -2    1    3    3    0  502  0.41297839485E+02  0.44691142097E+03  0.79965173459E+03  0.91699412560E+03  0.25500000920E-02 0. -1.
</event>
<event>
 5   0  0.1635686E-03  0.9010527E+03  0.7818609E-02  0.9424266E-01
       -2   -1    0    0    0  501  0.00000000000E+00  0.00000000000E+00  0.11505735182E+03  0.11505735185E+03  0.25500000920E-02 0. -1.
        2   -1    0    0  501    0  0.00000000000E+00  0.00000000000E+00 -0.17641113434E+04  0.17641113434E+04  0.25500000920E-02 0.  1.
    10030    2    1    2    0    0  0.00000000000E+00  0.00000000000E+00 -0.16490539915E+04  0.18791686952E+04  0.90105267219E+03 0.  0.
        5    1    3    3  502    0 -0.26393329921E+03 -0.12298455395E+03 -0.10762188196E+03  0.31046826958E+03  0.46999998093E+01 0. -1.
       -5    1    3    3    0  502  0.26393329921E+03  0.12298455395E+03 -0.15414321096E+04  0.15687004256E+04  0.46999998093E+01 0.  1.
</event>
<event>
 5   0  0.1630202E-03  0.8997374E+03  0.7818609E-02  0.9425910E-01
       -2   -1    0    0    0  501  0.00000000000E+00  0.00000000000E+00  0.58429502183E+03  0.58429502184E+03  0.25500000920E-02 0.  1.
        2   -1    0    0  501    0  0.00000000000E+00  0.00000000000E+00 -0.34636924571E+03  0.34636924572E+03  0.25500000920E-02 0. -1.
    10030    2    1    2    0    0  0.00000000000E+00  0.00000000000E+00  0.23792577612E+03  0.93066426755E+03  0.89973735276E+03 0.  0.
        4    1    3    3  502    0 -0.25455726670E+03  0.60001719463E+02  0.49757827161E+03  0.56212574897E+03  0.12699999809E+01 0.  1.
       -4    1    3    3    0  502  0.25455726670E+03 -0.60001719463E+02 -0.25965249549E+03  0.36853851859E+03  0.12699999809E+01 0. -1.
</event>
<event>
 5   0  0.9223454E-04  0.9025161E+03  0.7818609E-02  0.9422442E-01
        1   -1    0    0  501    0  0.00000000000E+00  0.00000000000E+00  0.12598483182E+04  0.12598483182E+04  0.50400001928E-02 0. -1.
       -1   -1    0    0    0  501  0.00000000000E+00  0.00000000000E+00 -0.16163361197E+03  0.16163361205E+03  0.50400001928E-02 0.  1.
    10030    2    1    2    0    0  0.00000000000E+00  0.00000000000E+00  0.10982147062E+04  0.14214819303E+04  0.90251611458E+03 0.  0.
        1    1    3    3  502    0 -0.21745410077E+03  0.19511610063E+03  0.10907801152E+04  0.11292288690E+04  0.50400001928E-02 0. -1.
       -1    1    3    3    0  502  0.21745410077E+03 -0.19511610063E+03  0.74345909892E+01  0.29225306129E+03  0.50400001928E-02 0.  1.
</event>
<event>
 5   0  0.1630202E-03  0.9014932E+03  0.7818609E-02  0.9423717E-01
       -2   -1    0    0    0  501  0.00000000000E+00  0.00000000000E+00  0.19663441688E+03  0.19663441689E+03  0.25500000920E-02 0.  1.
        2   -1    0    0  501    0  0.00000000000E+00  0.00000000000E+00 -0.10332498419E+04  0.10332498419E+04  0.25500000920E-02 0. -1.
    10030    2    1    2    0    0  0.00000000000E+00  0.00000000000E+00 -0.83661542506E+03  0.12298842588E+04  0.90149316175E+03 0.  0.
        4    1    3    3  502    0 -0.23328981139E+02 -0.16823287392E+03 -0.98792190778E+03  0.10024160065E+04  0.12699999809E+01 0. -1.
       -4    1    3    3    0  502  0.23328981139E+02  0.16823287392E+03  0.15130648272E+03  0.22746825238E+03  0.12699999809E+01 0.  1.
</event>
<event>
 5   0  0.9981885E-04  0.9003501E+03  0.7818609E-02  0.9425144E-01
        1   -1    0    0  501    0  0.00000000000E+00  0.00000000000E+00  0.75593560827E+03  0.75593560829E+03  0.50400001928E-02 0. -1.
       -1   -1    0    0    0  501  0.00000000000E+00  0.00000000000E+00 -0.26808840115E+03  0.26808840120E+03  0.50400001928E-02 0.  1.
    10030    2    1    2    0    0  0.00000000000E+00  0.00000000000E+00  0.48784720712E+03  0.10240240095E+04  0.90035008442E+03 0.  0.
        4    1    3    3  502    0  0.18825286494E+02  0.31769596091E+03  0.60604589005E+03  0.68452782904E+03  0.12699999809E+01 0. -1.
       -4    1    3    3    0  502 -0.18825286494E+02 -0.31769596091E+03 -0.11819868293E+03  0.33949618044E+03  0.12699999809E+01 0.  1.
</event>
<event>
 5   0  0.1641516E-03  0.8994954E+03  0.7818609E-02  0.9426212E-01
        2   -1    0    0  501    0  0.00000000000E+00  0.00000000000E+00  0.88273568430E+03  0.88273568430E+03  0.25500000920E-02 0. -1.
       -2   -1    0    0    0  501  0.00000000000E+00  0.00000000000E+00 -0.22914333759E+03  0.22914333761E+03  0.25500000920E-02 0.  1.
    10030    2    1    2    0    0  0.00000000000E+00  0.00000000000E+00  0.65359234671E+03  0.11118790219E+04  0.89949541616E+03 0.  0.
        1    1    3    3  502    0  0.17563603000E+03  0.31567915341E+03 -0.43616895587E+01  0.36127602645E+03  0.50400001928E-02 0.  1.
       -1    1    3    3    0  502 -0.17563603000E+03 -0.31567915341E+03  0.65795403626E+03  0.75060299546E+03  0.50400001928E-02 0. -1.
</event>
<event>
 5   0  0.9321543E-04  0.9018079E+03  0.7818609E-02  0.9423324E-01
        1   -1    0    0  501    0  0.00000000000E+00  0.00000000000E+00  0.86838094215E+03  0.86838094217E+03  0.50400001928E-02 0.  1.
       -1   -1    0    0    0  501  0.00000000000E+00  0.00000000000E+00 -0.23413041879E+03  0.23413041884E+03  0.50400001928E-02 0. -1.
    10030    2    1    2    0    0  0.00000000000E+00  0.00000000000E+00  0.63425052336E+03  0.11025113610E+04  0.90180794783E+03 0.  0.
        3    1    3    3  502    0 -0.26657553324E+03  0.19986212464E+03  0.68856326190E+03  0.76493578791E+03  0.10100000352E+00 0.  1.
       -3    1    3    3    0  502  0.26657553324E+03 -0.19986212464E+03 -0.54312738540E+02  0.33757557310E+03  0.10100000352E+00 0. -1.
</event>
<event>
 5   0  0.1704416E-03  0.9007391E+03  0.7818609E-02  0.9424658E-01
        2   -1    0    0  501    0  0.00000000000E+00  0.00000000000E+00  0.20376399534E+03  0.20376399536E+03  0.25500000920E-02 0.  1.
       -2   -1    0    0    0  501  0.00000000000E+00  0.00000000000E+00 -0.99542977510E+03  0.99542977510E+03  0.25500000920E-02 0. -1.
    10030    2    1    2    0    0  0.00000000000E+00  0.00000000000E+00 -0.79166577976E+03  0.11991937705E+04  0.90073913664E+03 0.  0.
        3    1    3    3  502    0  0.14850569921E+03  0.84704413005E+02 -0.95054818584E+03  0.96580051982E+03  0.10100000352E+00 0. -1.
       -3    1    3    3    0  502 -0.14850569921E+03 -0.84704413005E+02  0.15888240608E+03  0.23339325064E+03  0.10100000352E+00 0.  1.
</event>
<event>
 5   0  0.9697941E-04  0.9014571E+03  0.7818609E-02  0.9423762E-01
        1   -1    0    0  501    0  0.00000000000E+00  0.00000000000E+00  0.93050113418E+03  0.93050113419E+03  0.50400001928E-02 0. -1.
       -1   -1    0    0    0  501  0.00000000000E+00  0.00000000000E+00 -0.21832993053E+03  0.21832993059E+03  0.50400001928E-02 0.  1.
    10030    2    1    2    0    0  0.00000000000E+00  0.00000000000E+00  0.71217120365E+03  0.11488310648E+04  0.90145714934E+03 0.  0.
        5    1    3    3  502    0 -0.18816714410E+03 -0.91827192643E+02  0.86472760883E+03  0.88972750598E+03  0.46999998093E+01 0. -1.
       -5    1    3    3    0  502  0.18816714410E+03  0.91827192643E+02 -0.15255640517E+03  0.25910355880E+03  0.46999998093E+01 0.  1.
</event>
<event>
 5   0  0.1641516E-03  0.9037584E+03  0.7818609E-02  0.9420895E-01
       -2   -1    0    0    0  501  0.00000000000E+00  0.00000000000E+00  0.12354979530E+03  0.12354979533E+03  0.25500000920E-02 0. -1.
        2   -1    0    0  501    0  0.00000000000E+00  0.00000000000E+00 -0.16527329412E+04  0.16527329412E+04  0.25500000920E-02 0.  1.
    10030    2    1    2    0    0  0.00000000000E+00  0.00000000000E+00 -0.15291831459E+04  0.17762827365E+04  0.90375841153E+03 0.  0.
        1    1    3    3  502    0  0.37399335629E+03 -0.14488667938E+03 -0.35546066797E+03  0.53592487058E+03  0.50400001928E-02 0. -1.
       -1    1    3    3    0  502 -0.37399335629E+03  0.14488667938E+03 -0.11737224779E+04  0.12403578660E+04  0.50400001928E-02 0.  1.
</event>
<event>
 5   0  0.1704416E-03  0.8989183E+03  0.7818609E-02  0.9426935E-01
        2   -1    0    0  501    0  0.00000000000E+00  0.00000000000E+00  0.75482841787E+03  0.75482841787E+03  0.25500000920E-02 0.  1.
       -2   -1    0    0    0  501  0.00000000000E+00  0.00000000000E+00 -0.26762840505E+03  0.26762840507E+03  0.25500000920E-02 0. -1.
    10030    2    1    2    0    0  0.00000000000E+00  0.00000000000E+00  0.48720001281E+03  0.10224568229E+04  0.89891829567E+03 0.  0.
        3    1    3    3  502    0  0.19642989184E+03  0.30642159581E+03 -0.56333715007E+02  0.36831018780E+03  0.10100000352E+00 0.  1.
       -3    1    3    3    0  502 -0.19642989184E+03 -0.30642159581E+03  0.54353372782E+03  0.65414663514E+03  0.10100000352E+00 0. -1.
</event>
<event>
 5   0  0.9697941E-04  0.9030557E+03  0.7818609E-02  0.9421770E-01
        1   -1    0    0  501    0  0.00000000000E+00  0.00000000000E+00  0.62537197921E+03  0.62537197923E+03  0.50400001928E-02 0.  1.
       -1   -1    0    0    0  501  0.00000000000E+00  0.00000000000E+00 -0.32600979647E+03  0.32600979651E+03  0.50400001928E-02 0. -1.
    10030    2    1    2    0    0  0.00000000000E+00  0.00000000000E+00  0.29936218274E+03  0.95138177575E+03  0.90305568309E+03 0.  0.
        5    1    3    3  502    0 -0.36591096565E+03  0.25129623465E+03  0.62712448606E+02  0.44832529880E+03  0.46999998093E+01 0. -1.
       -5    1    3    3    0  502  0.36591096565E+03 -0.25129623465E+03  0.23664973413E+03  0.50305647695E+03  0.46999998093E+01 0.  1.
</event>
<event>
 5   0  0.9981885E-04  0.9019121E+03  0.7818609E-02  0.9423194E-01
       -1   -1    0    0    0  501  0.00000000000E+00  0.00000000000E+00  0.29148201229E+03  0.29148201234E+03  0.50400001928E-02 0.  1.
        1   -1    0    0  501    0  0.00000000000E+00  0.00000000000E+00 -0.69768057255E+03  0.69768057257E+03  0.50400001928E-02 0. -1.
    10030    2    1    2    0    0  0.00000000000E+00  0.00000000000E+00 -0.40619856026E+03  0.98916258491E+03  0.90191205171E+03 0.  0.
        4    1    3    3  502    0 -0.17474118730E+03  0.15997379469E+03  0.21773101411E+03  0.32176778107E+03  0.12699999809E+01 0.  1.
       -4    1    3    3    0  502  0.17474118730E+03 -0.15997379469E+03 -0.62392957436E+03  0.66739480384E+03  0.12699999809E+01 0. -1.
</event>
<event>
 5   0  0.1007561E-03  0.9029974E+03  0.7818609E-02  0.9421842E-01
        1   -1    0    0  501    0  0.00000000000E+00  0.00000000000E+00  0.53274989883E+03  0.53274989885E+03  0.50400001928E-02 0.  1.
       -1   -1    0    0    0  501  0.00000000000E+00  0.00000000000E+00 -0.38263935428E+03  0.38263935432E+03  0.50400001928E-02 0. -1.
    10030    2    1    2    0    0  0.00000000000E+00  0.00000000000E+00  0.15011054454E+03  0.91538925317E+03  0.90299740267E+03 0.  0.
        2    1    3    3  502    0 -0.55913550851E+01 -0.28273431204E+03  0.43185283153E+03  0.51620424501E+03  0.25500000920E-02 0.  1.
       -2    1    3    3    0  502  0.55913550851E+01  0.28273431204E+03 -0.28174228699E+03  0.39918500816E+03  0.25500000920E-02 0. -1.
</event>
<event>
 5   0  0.1630202E-03  0.9007585E+03  0.7818609E-02  0.9424634E-01
        2   -1    0    0  501    0  0.00000000000E+00  0.00000000000E+00  0.52620925050E+03  0.52620925051E+03  0.25500000920E-02 0. -1.
       -2   -1    0    0    0  501  0.00000000000E+00  0.00000000000E+00 -0.38547682868E+03  0.38547682869E+03  0.25500000920E-02 0.  1.
    10030    2    1    2    0    0  0.00000000000E+00  0.00000000000E+00  0.14073242182E+03  0.91168607920E+03  0.90075850951E+03 0.  0.
        4    1    3    3  502    0 -0.78369708004E+02 -0.30070583376E+03  0.40031806024E+03  0.50677605689E+03  0.12699999809E+01 0. -1.
       -4    1    3    3    0  502  0.78369708004E+02  0.30070583376E+03 -0.25958563842E+03  0.40491002231E+03  0.12699999809E+01 0.  1.
</event>
<event>
 5   0  0.1641516E-03  0.9000823E+03  0.7818609E-02  0.9425478E-01
        2   -1    0    0  501    0  0.00000000000E+00  0.00000000000E+00  0.11838230101E+04  0.11838230101E+04  0.25500000920E-02 0. -1.
       -2   -1    0    0    0  501  0.00000000000E+00  0.00000000000E+00 -0.17108727826E+03  0.17108727828E+03  0.25500000920E-02 0.  1.
    10030    2    1    2    0    0  0.00000000000E+00  0.00000000000E+00  0.10127357318E+04  0.13549102884E+04  0.90008234459E+03 0.  0.
        1    1    3    3  502    0 -0.30743582607E+03  0.20704807245E+02  0.10001296133E+04  0.10465202911E+04  0.50400001928E-02 0. -1.
       -1    1    3    3    0  502  0.30743582607E+03 -0.20704807245E+02  0.12606118536E+02  0.30838999732E+03  0.50400001928E-02 0.  1.
</event>
<event>
 5   0  0.9223454E-04  0.8990677E+03  0.7818609E-02  0.9426748E-01
       -1   -1    0    0    0  501  0.00000000000E+00  0.00000000000E+00  0.91363745205E+03  0.91363745206E+03  0.50400001928E-02 0.  1.
        1   -1    0    0  501    0  0.00000000000E+00  0.00000000000E+00 -0.22118256660E+03  0.22118256666E+03  0.50400001928E-02 0. -1.
    10030    2    1    2    0    0  0.00000000000E+00  0.00000000000E+00  0.69245488545E+03  0.11348200187E+04  0.89906768739E+03 0.  0.
        1    1    3    3  502    0 -0.48518739221E+02  0.86754710201E+02  0.89959226733E+03  0.90506723246E+03  0.50400001928E-02 0.  1.
       -1    1    3    3    0  502  0.48518739221E+02 -0.86754710201E+02 -0.20713738188E+03  0.22975278626E+03  0.50400001928E-02 0. -1.
</event>
<event>
 5   0  0.1635686E-03  0.9005024E+03  0.7818609E-02  0.9424954E-01
        2   -1    0    0  501    0  0.00000000000E+00  0.00000000000E+00  0.65887330493E+03  0.65887330493E+03  0.25500000920E-02 0.  1.
       -2   -1    0    0    0  501  0.00000000000E+00  0.00000000000E+00 -0.30768608263E+03  0.30768608264E+03  0.25500000920E-02 0. -1.
    10030    2    1    2    0    0  0.00000000000E+00  0.00000000000E+00  0.35118722230E+03  0.96655938757E+03  0.90050240677E+03 0.  0.
        5    1    3    3  502    0  0.42869292588E+03  0.99161199249E+02  0.27794857630E+03  0.52046908573E+03  0.46999998093E+01 0.  1.
       -5    1    3    3    0  502 -0.42869292588E+03 -0.99161199249E+02  0.73238645998E+02  0.44609030184E+03  0.46999998093E+01 0. -1.
</event>
<event>
 5   0  0.9981885E-04  0.8721656E+03  0.7818609E-02  0.9461061E-01
       -1   -1    0    0    0  501  0.00000000000E+00  0.00000000000E+00  0.11064559272E+04  0.11064559273E+04  0.50400001928E-02 0. -1.
        1   -1    0    0  501    0  0.00000000000E+00  0.00000000000E+00 -0.17187148541E+03  0.17187148548E+03  0.50400001928E-02 0.  1.
    10030    2    1    2    0    0  0.00000000000E+00  0.00000000000E+00  0.93458444184E+03  0.12783274127E+04  0.87216563521E+03 0.  0.
        4    1    3    3  502    0  0.30960568168E+03 -0.63521701716E+02  0.90767376290E+03  0.96112640036E+03  0.12699999809E+01 0. -1.
       -4    1    3    3    0  502 -0.30960568168E+03  0.63521701716E+02  0.26910678941E+02  0.31720101238E+03  0.12699999809E+01 0.  1.
</event>
<event>
 5   0  0.9321543E-04  0.8989829E+03  0.7818609E-02  0.9426854E-01
       -1   -1    0    0    0  501  0.00000000000E+00  0.00000000000E+00  0.63127899559E+03  0.63127899561E+03  0.50400001928E-02 0. -1.
        1   -1    0    0  501    0  0.00000000000E+00  0.00000000000E+00 -0.32005274747E+03  0.32005274751E+03  0.50400001928E-02 0.  1.
    10030    2    1    2    0    0  0.00000000000E+00  0.00000000000E+00  0.31122624812E+03  0.95133174313E+03  0.89898292974E+03 0.  0.
        3    1    3    3  502    0 -0.15120071150E+03  0.12401796982E+02  0.60336760399E+03  0.62214784052E+03  0.10100000352E+00 0. -1.
       -3    1    3    3    0  502  0.15120071150E+03 -0.12401796982E+02 -0.29214135587E+03  0.32918390261E+03  0.10100000352E+00 0.  1.
</event>
<event>
 5   0  0.6375625E-04  0.8948913E+03  0.7818609E-02  0.9431990E-01
       -3   -1    0    0    0  501  0.00000000000E+00  0.00000000000E+00  0.39095353529E+03  0.39095354834E+03  0.10100000352E+00 0. -1.
        3   -1    0    0  501    0  0.00000000000E+00  0.00000000000E+00 -0.51210070024E+03  0.51210071020E+03  0.10100000352E+00 0.  1.
    10030    2    1    2    0    0  0.00000000000E+00  0.00000000000E+00 -0.12114716495E+03  0.90305425854E+03  0.89489125501E+03 0.  0.
        1    1    3    3  502    0 -0.37724105946E+03  0.20402792867E+03 -0.18928854701E+03  0.46879458900E+03  0.50400001928E-02 0.  1.
       -1    1    3    3    0  502  0.37724105946E+03 -0.20402792867E+03  0.68141382059E+02  0.43425966954E+03  0.50400001928E-02 0. -1.
</event>
<event>
 5   0  0.1007561E-03  0.8998873E+03  0.7818609E-02  0.9425722E-01
       -1   -1    0    0    0  501  0.00000000000E+00  0.00000000000E+00  0.11841223813E+03  0.11841223824E+03  0.50400001928E-02 0. -1.
        1   -1    0    0  501    0  0.00000000000E+00  0.00000000000E+00 -0.17096991875E+04  0.17096991875E+04  0.50400001928E-02 0.  1.
    10030    2    1    2    0    0  0.00000000000E+00  0.00000000000E+00 -0.15912869494E+04  0.18281114258E+04  0.89988734279E+03 0.  0.
        2    1    3    3  502    0 -0.40310310952E+03  0.17221902435E+03 -0.58949187583E+03  0.73461022381E+03  0.25500000920E-02 0. -1.
       -2    1    3    3    0  502  0.40310310952E+03 -0.17221902435E+03 -0.10017950735E+04  0.10935012019E+04  0.25500000920E-02 0.  1.
</event>
<event>
 5   0  0.6375625E-04  0.9057239E+03  0.7818609E-02  0.9418454E-01
       -3   -1    0    0    0  501  0.00000000000E+00  0.00000000000E+00  0.77145751436E+03  0.77145752097E+03  0.10100000352E+00 0. -1.
        3   -1    0    0  501    0  0.00000000000E+00  0.00000000000E+00 -0.26583957430E+03  0.26583959348E+03  0.10100000352E+00 0.  1.
    10030    2    1    2    0    0  0.00000000000E+00  0.00000000000E+00  0.50561794007E+03  0.10372971145E+04  0.90572391066E+03 0.  0.
        3    1    3    3  502    0 -0.37469027490E+03  0.25060051043E+03  0.20301253453E+03  0.49437588666E+03  0.10100000352E+00 0. -1.
       -3    1    3    3    0  502  0.37469027490E+03 -0.25060051043E+03  0.30260540553E+03  0.54292122780E+03  0.10100000352E+00 0.  1.
</event>
<event>
 5   0  0.1630202E-03  0.9000043E+03  0.7818609E-02  0.9425576E-01
        2   -1    0    0  501    0  0.00000000000E+00  0.00000000000E+00  0.10792422382E+04  0.10792422382E+04  0.25500000920E-02 0. -1.
       -2   -1    0    0    0  501  0.00000000000E+00  0.00000000000E+00 -0.18763346098E+03  0.18763346100E+03  0.25500000920E-02 0.  1.
    10030    2    1    2    0    0  0.00000000000E+00  0.00000000000E+00  0.89160877725E+03  0.12668756992E+04  0.90000434757E+03 0.  0.
        4    1    3    3  502    0  0.16632465703E+02 -0.40602753468E+03  0.71790148079E+03  0.82493584408E+03  0.12699999809E+01 0. -1.
       -4    1    3    3    0  502 -0.16632465703E+02  0.40602753468E+03  0.17370729646E+03  0.44193985516E+03  0.12699999809E+01 0.  1.
</event>
<event>
 5   0  0.9223454E-04  0.9126115E+03  0.7818609E-02  0.9409952E-01
       -1   -1    0    0    0  501  0.00000000000E+00  0.00000000000E+00  0.50749782851E+03  0.50749782853E+03  0.50400001928E-02 0. -1.
        1   -1    0    0  501    0  0.00000000000E+00  0.00000000000E+00 -0.41027746585E+03  0.41027746588E+03  0.50400001928E-02 0.  1.
    10030    2    1    2    0    0  0.00000000000E+00  0.00000000000E+00  0.97220362661E+02  0.91777529441E+03  0.91261146832E+03 0.  0.
        1    1    3    3  502    0  0.73269347869E+02 -0.12745418731E+03  0.48302890609E+03  0.50490582423E+03  0.50400001928E-02 0. -1.
       -1    1    3    3    0  502 -0.73269347869E+02  0.12745418731E+03 -0.38580854343E+03  0.41286947018E+03  0.50400001928E-02 0.  1.
</event>
<event>
 5   0  0.9321543E-04  0.8983854E+03  0.7818609E-02  0.9427602E-01
       -1   -1    0    0    0  501  0.00000000000E+00  0.00000000000E+00  0.15556899471E+03  0.15556899479E+03  0.50400001928E-02 0.  1.
        1   -1    0    0  501    0  0.00000000000E+00  0.00000000000E+00 -0.12970071588E+04  0.12970071588E+04  0.50400001928E-02 0. -1.
    10030    2    1    2    0    0  0.00000000000E+00  0.00000000000E+00 -0.11414381641E+04  0.14525761536E+04  0.89838544041E+03 0.  0.
        3    1    3    3  502    0 -0.35403128221E+03  0.26560753747E+03 -0.69479325306E+03  0.82378588689E+03  0.10100000352E+00 0.  1.
       -3    1    3    3    0  502  0.35403128221E+03 -0.26560753747E+03 -0.44664491100E+03  0.62879026667E+03  0.10100000352E+00 0. -1.
</event>
<event>
 5   0  0.1536020E-03  0.9008176E+03  0.7818609E-02  0.9424560E-01
       -2   -1    0    0    0  501  0.00000000000E+00  0.00000000000E+00  0.25365151034E+03  0.25365151036E+03  0.25500000920E-02 0.  1.
        2   -1    0    0  501    0  0.00000000000E+00  0.00000000000E+00 -0.79979059196E+03  0.79979059196E+03  0.25500000920E-02 0. -1.
    10030    2    1    2    0    0  0.00000000000E+00  0.00000000000E+00 -0.54613908161E+03  0.10534421023E+04  0.90081760999E+03 0.  0.
        2    1    3    3  502    0 -0.18434657041E+03 -0.13516853150E+02  0.20725366578E+03  0.27770568112E+03  0.25500000920E-02 0.  1.
       -2    1    3    3    0  502  0.18434657041E+03  0.13516853150E+02 -0.75339274739E+03  0.77573642119E+03  0.25500000920E-02 0. -1.
</event>
<event>
 5   0  0.1630202E-03  0.9012789E+03  0.7818609E-02  0.9423984E-01
       -2   -1    0    0    0  501  0.00000000000E+00  0.00000000000E+00  0.16759268495E+03  0.16759268497E+03  0.25500000920E-02 0.  1.
        2   -1    0    0  501    0  0.00000000000E+00  0.00000000000E+00 -0.12117230760E+04  0.12117230760E+04  0.25500000920E-02 0. -1.
    10030    2    1    2    0    0  0.00000000000E+00  0.00000000000E+00 -0.10441303910E+04  0.13793157609E+04  0.90127892183E+03 0.  0.
        4    1    3    3  502    0  0.34195789477E+03 -0.25420289580E+03 -0.29756041883E+03  0.51970965912E+03  0.12699999809E+01 0.  1.
       -4    1    3    3    0  502 -0.34195789477E+03  0.25420289580E+03 -0.74656997218E+03  0.85960610182E+03  0.12699999809E+01 0. -1.
</event>
<event>
 5   0  0.9697941E-04  0.9075972E+03  0.7818609E-02  0.9416134E-01
        1   -1    0    0  501    0  0.00000000000E+00  0.00000000000E+00  0.10258286336E+04  0.10258286336E+04  0.50400001928E-02 0. -1.
       -1   -1    0    0    0  501  0.00000000000E+00  0.00000000000E+00 -0.20074812088E+03  0.20074812094E+03  0.50400001928E-02 0.  1.
    10030    2    1    2    0    0  0.00000000000E+00  0.00000000000E+00  0.82508051276E+03  0.12265767546E+04  0.90759720271E+03 0.  0.
        5    1    3    3  502    0 -0.43201229506E+02 -0.10359204019E+03 -0.18165966137E+03  0.21358834142E+03  0.46999998093E+01 0.  1.
       -5    1    3    3    0  502  0.43201229506E+02  0.10359204019E+03  0.10067401741E+04  0.10129884132E+04  0.46999998093E+01 0. -1.
</event>
<event>
 5   0  0.1630202E-03  0.8986103E+03  0.7818609E-02  0.9427320E-01
       -2   -1    0    0    0  501  0.00000000000E+00  0.00000000000E+00  0.14081666811E+03  0.14081666813E+03  0.25500000920E-02 0. -1.
        2   -1    0    0  501    0  0.00000000000E+00  0.00000000000E+00 -0.14336023790E+04  0.14336023790E+04  0.25500000920E-02 0.  1.
    10030    2    1    2    0    0  0.00000000000E+00  0.00000000000E+00 -0.12927857109E+04  0.15744190471E+04  0.89861028355E+03 0.  0.
        4    1    3    3  502    0 -0.34582237547E+03  0.22402334393E+03 -0.96027048029E+03  0.10449404683E+04  0.12699999809E+01 0.  1.
       -4    1    3    3    0  502  0.34582237547E+03 -0.22402334393E+03 -0.33251523061E+03  0.52947857887E+03  0.12699999809E+01 0. -1.
</event>
<event>
 5   0  0.1007561E-03  0.9001725E+03  0.7818609E-02  0.9425366E-01
       -1   -1    0    0    0  501  0.00000000000E+00  0.00000000000E+00  0.20395512172E+03  0.20395512178E+03  0.50400001928E-02 0.  1.
        1   -1    0    0  501    0  0.00000000000E+00  0.00000000000E+00 -0.99324611550E+03  0.99324611551E+03  0.50400001928E-02 0. -1.
    10030    2    1    2    0    0  0.00000000000E+00  0.00000000000E+00 -0.78929099378E+03  0.11972012373E+04  0.90017249997E+03 0.  0.
        2    1    3    3  502    0  0.40186789858E+03 -0.19321594078E+03 -0.31322985043E+03  0.54492490022E+03  0.25500000920E-02 0. -1.
       -2    1    3    3    0  502 -0.40186789858E+03  0.19321594078E+03 -0.47606114335E+03  0.65227633706E+03  0.25500000920E-02 0.  1.
</event>
<event>
 5   0  0.1635686E-03  0.9014044E+03  0.7818609E-02  0.9423828E-01
       -2   -1    0    0    0  501  0.00000000000E+00  0.00000000000E+00  0.80580979582E+03  0.80580979583E+03  0.25500000920E-02 0. -1.
        2   -1    0    0  501    0  0.00000000000E+00  0.00000000000E+00 -0.25208489924E+03  0.25208489925E+03  0.25500000920E-02 0.  1.
    10030    2    1    2    0    0  0.00000000000E+00  0.00000000000E+00  0.55372489658E+03  0.10578946951E+04  0.90140441800E+03 0.  0.
        5    1    3    3  502    0 -0.70942647563E+02 -0.12559120854E+03  0.77795887851E+03  0.79123202511E+03  0.46999998093E+01 0. -1.
       -5    1    3    3    0  502  0.70942647563E+02  0.12559120854E+03 -0.22423398193E+03  0.26666266997E+03  0.46999998093E+01 0.  1.
</event>
<event>
 5   0  0.1007561E-03  0.9011000E+03  0.7818609E-02  0.9424207E-01
        1   -1    0    0  501    0  0.00000000000E+00  0.00000000000E+00  0.32772819520E+03  0.32772819524E+03  0.50400001928E-02 0.  1.
       -1   -1    0    0    0  501  0.00000000000E+00  0.00000000000E+00 -0.61940138879E+03  0.61940138881E+03  0.50400001928E-02 0. -1.
    10030    2    1    2    0    0  0.00000000000E+00  0.00000000000E+00 -0.29167319359E+03  0.94712958405E+03  0.90109999286E+03 0.  0.
        2    1    3    3  502    0  0.14527919330E+02 -0.43377462669E+03 -0.18730402756E+02  0.43442181712E+03  0.25500000920E-02 0. -1.
       -2    1    3    3    0  502 -0.14527919330E+02  0.43377462669E+03 -0.27294279083E+03  0.51270776693E+03  0.25500000920E-02 0.  1.
</event>
<event>
 5   0  0.1704416E-03  0.8988942E+03  0.7818609E-02  0.9426965E-01
       -2   -1    0    0    0  501  0.00000000000E+00  0.00000000000E+00  0.11332026778E+03  0.11332026781E+03  0.25500000920E-02 0.  1.
        2   -1    0    0  501    0  0.00000000000E+00  0.00000000000E+00 -0.17825823290E+04  0.17825823290E+04  0.25500000920E-02 0. -1.
    10030    2    1    2    0    0  0.00000000000E+00  0.00000000000E+00 -0.16692620612E+04  0.18959025968E+04  0.89889422491E+03 0.  0.
        3    1    3    3  502    0 -0.25398301778E+03  0.36853893324E+03 -0.92093568020E+03  0.10239388927E+04  0.10100000352E+00 0.  1.
       -3    1    3    3    0  502  0.25398301778E+03 -0.36853893324E+03 -0.74832638104E+03  0.87196370417E+03  0.10100000352E+00 0. -1.
</event>
<event>
 5   0  0.6375625E-04  0.9133048E+03  0.7818609E-02  0.9409101E-01
       -4   -1    0    0    0  501  0.00000000000E+00  0.00000000000E+00  0.12328861576E+03  0.12329515674E+03  0.12699999809E+01 0.  1.
        4   -1    0    0  501    0  0.00000000000E+00  0.00000000000E+00 -0.16913567127E+04  0.16913571896E+04  0.12699999809E+01 0. -1.
    10030    2    1    2    0    0  0.00000000000E+00  0.00000000000E+00 -0.15680680970E+04  0.18146523463E+04  0.91330475807E+03 0.  0.
        4    1    3    3  502    0  0.39395049752E+03  0.17331659799E+03 -0.10872842508E+04  0.11693691857E+04  0.12699999809E+01 0. -1.
       -4    1    3    3    0  502 -0.39395049752E+03 -0.17331659799E+03 -0.48078384622E+03  0.64528316057E+03  0.12699999809E+01 0.  1.
</event>
<event>
 5   0  0.1536020E-03  0.8990485E+03  0.7818609E-02  0.9426772E-01
        2   -1    0    0  501    0  0.00000000000E+00  0.00000000000E+00  0.19340095808E+04  0.19340095808E+04  0.25500000920E-02 0. -1.
       -2   -1    0    0    0  501  0.00000000000E+00  0.00000000000E+00 -0.10448348168E+03  0.10448348172E+03  0.25500000920E-02 0.  1.
    10030    2    1    2    0    0  0.00000000000E+00  0.00000000000E+00  0.18295260991E+04  0.20384930625E+04  0.89904850735E+03 0.  0.
        2    1    3    3  502    0  0.30587106298E+03  0.27863152789E+03  0.51632512005E+03  0.66165267709E+03  0.25500000920E-02 0.  1.
       -2    1    3    3    0  502 -0.30587106298E+03 -0.27863152789E+03  0.13132009790E+04  0.13768403854E+04  0.25500000920E-02 0. -1.
</event>
<event>
 5   0  0.9697941E-04  0.8955975E+03  0.7818609E-02  0.9431102E-01
        1   -1    0    0  501    0  0.00000000000E+00  0.00000000000E+00  0.21306083576E+03  0.21306083582E+03  0.50400001928E-02 0. -1.
       -1   -1    0    0    0  501  0.00000000000E+00  0.00000000000E+00 -0.94115711419E+03  0.94115711420E+03  0.50400001928E-02 0.  1.
    10030    2    1    2    0    0  0.00000000000E+00  0.00000000000E+00 -0.72809627843E+03  0.11542179500E+04  0.89559750194E+03 0.  0.
        5    1    3    3  502    0 -0.74139696687E+01  0.88408299607E+02  0.20158862720E+03  0.22029765999E+03  0.46999998093E+01 0. -1.
       -5    1    3    3    0  502  0.74139696687E+01 -0.88408299607E+02 -0.92968490562E+03  0.93392029003E+03  0.46999998093E+01 0.  1.
</event>
<event>
 5   0  0.1630202E-03  0.9027656E+03  0.7818609E-02  0.9422131E-01
       -2   -1    0    0    0  501  0.00000000000E+00  0.00000000000E+00  0.20428436725E+03  0.20428436726E+03  0.25500000920E-02 0. -1.
        2   -1    0    0  501    0  0.00000000000E+00  0.00000000000E+00 -0.99736673762E+03  0.99736673762E+03  0.25500000920E-02 0.  1.
    10030    2    1    2    0    0  0.00000000000E+00  0.00000000000E+00 -0.79308237037E+03  0.12016511049E+04  0.90276560173E+03 0.  0.
        4    1    3    3  502    0 -0.14836382158E+03 -0.37462420576E+02 -0.96178634626E+03  0.97388389721E+03  0.12699999809E+01 0.  1.
       -4    1    3    3    0  502  0.14836382158E+03  0.37462420576E+02  0.16870397588E+03  0.22776720767E+03  0.12699999809E+01 0. -1.
</event>
<event>
 5   0  0.1635686E-03  0.8994744E+03  0.7818609E-02  0.9426239E-01
        2   -1    0    0  501    0  0.00000000000E+00  0.00000000000E+00  0.14789093288E+04  0.14789093288E+04  0.25500000920E-02 0. -1.
       -2   -1    0    0    0  501  0.00000000000E+00  0.00000000000E+00 -0.13676533746E+03  0.13676533748E+03  0.25500000920E-02 0.  1.
    10030    2    1    2    0    0  0.00000000000E+00  0.00000000000E+00  0.13421439913E+04  0.16156746663E+04  0.89947436527E+03 0.  0.
        5    1    3    3  502    0  0.32965311471E+03  0.36095199290E+02  0.12545325920E+03  0.35459082009E+03  0.46999998093E+01 0.  1.
       -5    1    3    3    0  502 -0.32965311471E+03 -0.36095199290E+02  0.12166907321E+04  0.12610838462E+04  0.46999998093E+01 0. -1.
</event>
<event>
 5   0  0.9981885E-04  0.9004795E+03  0.7818609E-02  0.9424982E-01
        1   -1    0    0  501    0  0.00000000000E+00  0.00000000000E+00  0.13292372317E+04  0.13292372317E+04  0.50400001928E-02 0.  1.
       -1   -1    0    0    0  501  0.00000000000E+00  0.00000000000E+00 -0.15250537918E+03  0.15250537926E+03  0.50400001928E-02 0. -1.
    10030    2    1    2    0    0  0.00000000000E+00  0.00000000000E+00  0.11767318525E+04  0.14817426110E+04  0.90047949029E+03 0.  0.
        4    1    3    3  502    0 -0.37772297758E+03  0.24480484676E+03  0.57109562533E+03  0.72715602656E+03  0.12699999809E+01 0. -1.
       -4    1    3    3    0  502  0.37772297758E+03 -0.24480484676E+03  0.60563622717E+03  0.75458658440E+03  0.12699999809E+01 0.  1.
</event>
<event>
 5   0  0.6375625E-04  0.8994483E+03  0.7818609E-02  0.9426271E-01
        4   -1    0    0  501    0  0.00000000000E+00  0.00000000000E+00  0.92820271174E+02  0.92828959063E+02  0.12699999809E+01 0.  1.
       -4   -1    0    0    0  501  0.00000000000E+00  0.00000000000E+00 -0.21788507111E+04  0.21788510812E+04  0.12699999809E+01 0. -1.
    10030    2    1    2    0    0  0.00000000000E+00  0.00000000000E+00 -0.20860304399E+04  0.22716800403E+04  0.89944828042E+03 0.  0.
        1    1    3    3  502    0  0.43769027351E+03 -0.10025067541E+03 -0.11063492589E+04  0.11939981810E+04  0.50400001928E-02 0.  1.
       -1    1    3    3    0  502 -0.43769027351E+03  0.10025067541E+03 -0.97968118102E+03  0.10776818593E+04  0.50400001928E-02 0. -1.
</event>
<event>
 5   0  0.1635686E-03  0.9025266E+03  0.7818609E-02  0.9422429E-01
       -2   -1    0    0    0  501  0.00000000000E+00  0.00000000000E+00  0.93116714646E+02  0.93116714681E+02  0.25500000920E-02 0.  1.
        2   -1    0    0  501    0  0.00000000000E+00  0.00000000000E+00 -0.21869172608E+04  0.21869172608E+04  0.25500000920E-02 0. -1.
    10030    2    1    2    0    0  0.00000000000E+00  0.00000000000E+00 -0.20938005461E+04  0.22800339755E+04  0.90252656597E+03 0.  0.
        5    1    3    3  502    0  0.10462219336E+03 -0.42775059619E+03 -0.79808955349E+03  0.91152915547E+03  0.46999998093E+01 0.  1.
       -5    1    3    3    0  502 -0.10462219336E+03  0.42775059619E+03 -0.12957109926E+04  0.13685048200E+04  0.46999998093E+01 0. -1.
</event>
<event>
 5   0  0.9321543E-04  0.9018834E+03  0.7818609E-02  0.9423230E-01
       -1   -1    0    0    0  501  0.00000000000E+00  0.00000000000E+00  0.32782361852E+03  0.32782361856E+03  0.50400001928E-02 0.  1.
        1   -1    0    0  501    0  0.00000000000E+00  0.00000000000E+00 -0.62029826916E+03  0.62029826918E+03  0.50400001928E-02 0. -1.
    10030    2    1    2    0    0  0.00000000000E+00  0.00000000000E+00 -0.29247465064E+03  0.94812188774E+03  0.90188341416E+03 0.  0.
        3    1    3    3  502    0 -0.15071624344E+03  0.31593209448E+03  0.15262627947E+03  0.38186812612E+03  0.10100000352E+00 0.  1.
       -3    1    3    3    0  502  0.15071624344E+03 -0.31593209448E+03 -0.44510093011E+03  0.56625376162E+03  0.10100000352E+00 0. -1.
</event>
<event>
 5   0  0.1641516E-03  0.8854350E+03  0.7818609E-02  0.9443974E-01
       -2   -1    0    0    0  501  0.00000000000E+00  0.00000000000E+00  0.26072065885E+03  0.26072065886E+03  0.25500000920E-02 0.  1.
        2   -1    0    0  501    0  0.00000000000E+00  0.00000000000E+00 -0.75175776572E+03  0.75175776572E+03  0.25500000920E-02 0. -1.
    10030    2    1    2    0    0  0.00000000000E+00  0.00000000000E+00 -0.49103710687E+03  0.10124784246E+04  0.88543498910E+03 0.  0.
        1    1    3    3  502    0 -0.31280053429E+02 -0.27771260669E+03  0.14710714163E+03  0.31582153948E+03  0.50400001928E-02 0.  1.
       -1    1    3    3    0  502  0.31280053429E+02  0.27771260669E+03 -0.63814424849E+03  0.69665688511E+03  0.50400001928E-02 0. -1.
</event>
<event>
 5   0  0.9223454E-04  0.8999242E+03  0.7818609E-02  0.9425676E-01
        1   -1    0    0  501    0  0.00000000000E+00  0.00000000000E+00  0.96462410007E+03  0.96462410008E+03  0.50400001928E-02 0. -1.
       -1   -1    0    0    0  501  0.00000000000E+00  0.00000000000E+00 -0.20989098116E+03  0.20989098122E+03  0.50400001928E-02 0.  1.
    10030    2    1    2    0    0  0.00000000000E+00  0.00000000000E+00  0.75473311892E+03  0.11745150813E+04  0.89992421648E+03 0.  0.
        1    1    3    3  502    0  0.15521192558E+03 -0.19289778475E+03  0.86772889036E+03  0.90236008577E+03  0.50400001928E-02 0. -1.
       -1    1    3    3    0  502 -0.15521192558E+03  0.19289778475E+03 -0.11299577144E+03  0.27215499553E+03  0.50400001928E-02 0.  1.
</event>
<event>
 5   0  0.1641516E-03  0.9021650E+03  0.7818609E-02  0.9422879E-01
        2   -1    0    0  501    0  0.00000000000E+00  0.00000000000E+00  0.35146021748E+03  0.35146021748E+03  0.25500000920E-02 0.  1.
       -2   -1    0    0    0  501  0.00000000000E+00  0.00000000000E+00 -0.57894299700E+03  0.57894299701E+03  0.25500000920E-02 0. -1.
    10030    2    1    2    0    0  0.00000000000E+00  0.00000000000E+00 -0.22748277953E+03  0.93040321449E+03  0.90216502180E+03 0.  0.
        1    1    3    3  502    0 -0.40137502161E+03  0.18782063986E+03 -0.20062152837E+03  0.48644372583E+03  0.50400001928E-02 0. -1.
       -1    1    3    3    0  502  0.40137502161E+03 -0.18782063986E+03 -0.26861251159E+02  0.44395948866E+03  0.50400001928E-02 0.  1.
</event>
<event>
 5   0  0.1641516E-03  0.9010418E+03  0.7818609E-02  0.9424280E-01
        2   -1    0    0  501    0  0.00000000000E+00  0.00000000000E+00  0.68747336370E+03  0.68747336371E+03  0.25500000920E-02 0. -1.
       -2   -1    0    0    0  501  0.00000000000E+00  0.00000000000E+00 -0.29523917816E+03  0.29523917818E+03  0.25500000920E-02 0.  1.
    10030    2    1    2    0    0  0.00000000000E+00  0.00000000000E+00  0.39223418554E+03  0.98271254188E+03  0.90104177687E+03 0.  0.
        1    1    3    3  502    0 -0.26672071849E+03 -0.34302362167E+03  0.32591669695E+03  0.54316373229E+03  0.50400001928E-02 0.  1.
       -1    1    3    3    0  502  0.26672071849E+03  0.34302362167E+03  0.66317488592E+02  0.43954880960E+03  0.50400001928E-02 0. -1.
</event>
<event>
 5   0  0.1635686E-03  0.8992486E+03  0.7818609E-02  0.9426521E-01
        2   -1    0    0  501    0  0.00000000000E+00  0.00000000000E+00  0.11035514178E+04  0.11035514178E+04  0.25500000920E-02 0. -1.
       -2   -1    0    0    0  501  0.00000000000E+00  0.00000000000E+00 -0.18319219104E+03  0.18319219105E+03  0.25500000920E-02 0.  1.
    10030    2    1    2    0    0  0.00000000000E+00  0.00000000000E+00  0.92035922676E+03  0.12867436089E+04  0.89924858001E+03 0.  0.
        5    1    3    3  502    0 -0.41279558030E+03 -0.16564384383E+03  0.55403069617E+03  0.71049994821E+03  0.46999998093E+01 0.  1.
       -5    1    3    3    0  502  0.41279558030E+03  0.16564384383E+03  0.36632853060E+03  0.57624366065E+03  0.46999998093E+01 0. -1.
</event>
<event>
 5   0  0.1704416E-03  0.8995587E+03  0.7818609E-02  0.9426133E-01
        2   -1    0    0  501    0  0.00000000000E+00  0.00000000000E+00  0.51205375371E+03  0.51205375372E+03  0.25500000920E-02 0. -1.
       -2   -1    0    0    0  501  0.00000000000E+00  0.00000000000E+00 -0.39507856467E+03  0.39507856468E+03  0.25500000920E-02 0.  1.
    10030    2    1    2    0    0  0.00000000000E+00  0.00000000000E+00  0.11697518905E+03  0.90713231840E+03  0.89955869638E+03 0.  0.
        3    1    3    3  502    0  0.18534462896E+03 -0.10951248652E+03 -0.33974971802E+03  0.40221324852E+03  0.10100000352E+00 0.  1.
       -3    1    3    3    0  502 -0.18534462896E+03  0.10951248652E+03  0.45672490706E+03  0.50491906988E+03  0.10100000352E+00 0. -1.
</event>
<event>
 5   0  0.1007561E-03  0.9001526E+03  0.7818609E-02  0.9425391E-01
        1   -1    0    0  501    0  0.00000000000E+00  0.00000000000E+00  0.50149192567E+03  0.50149192570E+03  0.50400001928E-02 0.  1.
       -1   -1    0    0    0  501  0.00000000000E+00  0.00000000000E+00 -0.40393205881E+03  0.40393205884E+03  0.50400001928E-02 0. -1.
    10030    2    1    2    0    0  0.00000000000E+00  0.00000000000E+00  0.97559866864E+02  0.90542398454E+03  0.90015257827E+03 0.  0.
        2    1    3    3  502    0  0.25766150787E+03 -0.15804783434E+02  0.41962508071E+03  0.49267073405E+03  0.25500000920E-02 0.  1.
       -2    1    3    3    0  502 -0.25766150787E+03  0.15804783434E+02 -0.32206521385E+03  0.41275325049E+03  0.25500000920E-02 0. -1.
</event>
<event>
 5   0  0.9321543E-04  0.9002556E+03  0.7818609E-02  0.9425262E-01
        1   -1    0    0  501    0  0.00000000000E+00  0.00000000000E+00  0.78954382247E+03  0.78954382248E+03  0.50400001928E-02 0.  1.
       -1   -1    0    0    0  501  0.00000000000E+00  0.00000000000E+00 -0.25662289065E+03  0.25662289069E+03  0.50400001928E-02 0. -1.
    10030    2    1    2    0    0  0.00000000000E+00  0.00000000000E+00  0.53292093182E+03  0.10461667132E+04  0.90025555938E+03 0.  0.
        3    1    3    3  502    0  0.21978488297E+03  0.36418532259E+03  0.43756099066E+03  0.61024255400E+03  0.10100000352E+00 0.  1.
       -3    1    3    3    0  502 -0.21978488297E+03 -0.36418532259E+03  0.95359941160E+02  0.43592415917E+03  0.10100000352E+00 0. -1.
</event>
<event>
 5   0  0.6375625E-04  0.8994228E+03  0.7818609E-02  0.9426303E-01
        3   -1    0    0  501    0  0.00000000000E+00  0.00000000000E+00  0.24024934465E+03  0.24024936588E+03  0.10100000352E+00 0. -1.
       -3   -1    0    0    0  501  0.00000000000E+00  0.00000000000E+00 -0.84179344729E+03  0.84179345335E+03  0.10100000352E+00 0.  1.
    10030    2    1    2    0    0  0.00000000000E+00  0.00000000000E+00 -0.60154410264E+03  0.10820428192E+04  0.89942279003E+03 0.  0.
        2    1    3    3  502    0 -0.33863850322E+03  0.14445771520E+03  0.99208549451E+01  0.36829674274E+03  0.25500000920E-02 0. -1.
       -2    1    3    3    0  502  0.33863850322E+03 -0.14445771520E+03 -0.61146495758E+03  0.71374607649E+03  0.25500000920E-02 0.  1.
</event>
<event>
 5   0  0.6375625E-04  0.8985637E+03  0.7818609E-02  0.9427379E-01
        3   -1    0    0  501    0  0.00000000000E+00  0.00000000000E+00  0.36815179242E+03  0.36815180627E+03  0.10100000352E+00 0. -1.
       -3   -1    0    0    0  501  0.00000000000E+00  0.00000000000E+00 -0.54829065748E+03  0.54829066678E+03  0.10100000352E+00 0.  1.
    10030    2    1    2    0    0  0.00000000000E+00  0.00000000000E+00 -0.18013886506E+03  0.91644247305E+03  0.89856374048E+03 0.  0.
        5    1    3    3  502    0  0.14209425650E+02 -0.30884579711E+03  0.24236767573E+03  0.39287633475E+03  0.46999998093E+01 0. -1.
       -5    1    3    3    0  502 -0.14209425650E+02  0.30884579711E+03 -0.42250654079E+03  0.52356613830E+03  0.46999998093E+01 0.  1.
</event>
<event>
 5   0  0.1007561E-03  0.9003743E+03  0.7818609E-02  0.9425114E-01
        1   -1    0    0  501    0  0.00000000000E+00  0.00000000000E+00  0.53455312142E+03  0.53455312144E+03  0.50400001928E-02 0. -1.
       -1   -1    0    0    0  501  0.00000000000E+00  0.00000000000E+00 -0.37913625919E+03  0.37913625922E+03  0.50400001928E-02 0.  1.
    10030    2    1    2    0    0  0.00000000000E+00  0.00000000000E+00  0.15541686223E+03  0.91368938066E+03  0.90037430176E+03 0.  0.
        2    1    3    3  502    0  0.26664930602E+02 -0.18171890533E+03 -0.33938773087E+03  0.38589740987E+03  0.25500000920E-02 0.  1.
       -2    1    3    3    0  502 -0.26664930602E+02  0.18171890533E+03  0.49480459309E+03  0.52779197079E+03  0.25500000920E-02 0. -1.
</event>
<event>
 5   0  0.9223454E-04  0.8984524E+03  0.7818609E-02  0.9427518E-01
        1   -1    0    0  501    0  0.00000000000E+00  0.00000000000E+00  0.37566135927E+03  0.37566135931E+03  0.50400001928E-02 0.  1.
       -1   -1    0    0    0  501  0.00000000000E+00  0.00000000000E+00 -0.53719703483E+03  0.53719703486E+03  0.50400001928E-02 0. -1.
    10030    2    1    2    0    0  0.00000000000E+00  0.00000000000E+00 -0.16153567556E+03  0.91285839416E+03  0.89845237677E+03 0.  0.
        1    1    3    3  502    0 -0.36743842096E+02 -0.25542465450E+03 -0.45437608847E+03  0.52254138004E+03  0.50400001928E-02 0. -1.
       -1    1    3    3    0  502  0.36743842096E+02  0.25542465450E+03  0.29284041290E+03  0.39031701412E+03  0.50400001928E-02 0.  1.
</event>
<event>
 5   0  0.1630202E-03  0.9030941E+03  0.7818609E-02  0.9421722E-01
       -2   -1    0    0    0  501  0.00000000000E+00  0.00000000000E+00  0.12200638723E+04  0.12200638723E+04  0.25500000920E-02 0. -1.
        2   -1    0    0  501    0  0.00000000000E+00  0.00000000000E+00 -0.16711809173E+03  0.16711809175E+03  0.25500000920E-02 0.  1.
    10030    2    1    2    0    0  0.00000000000E+00  0.00000000000E+00  0.10529457806E+04  0.13871819641E+04  0.90309411724E+03 0.  0.
        4    1    3    3  502    0 -0.21577839919E+02 -0.10899570885E+03 -0.14578920571E+03  0.18330786433E+03  0.12699999809E+01 0.  1.
       -4    1    3    3    0  502  0.21577839919E+02  0.10899570885E+03  0.11987349863E+04  0.12038740998E+04  0.12699999809E+01 0. -1.
</event>
<event>
 5   0  0.9321543E-04  0.9003100E+03  0.7818609E-02  0.9425194E-01
       -1   -1    0    0    0  501  0.00000000000E+00  0.00000000000E+00  0.19384699093E+03  0.19384699100E+03  0.50400001928E-02 0.  1.
        1   -1    0    0  501    0  0.00000000000E+00  0.00000000000E+00 -0.10453580588E+04  0.10453580588E+04  0.50400001928E-02 0. -1.
    10030    2    1    2    0    0  0.00000000000E+00  0.00000000000E+00 -0.85151106789E+03  0.12392050498E+04  0.90030997816E+03 0.  0.
        3    1    3    3  502    0 -0.90044547303E+02 -0.40342165906E+03 -0.18037235582E+03  0.45098919326E+03  0.10100000352E+00 0.  1.
       -3    1    3    3    0  502  0.90044547303E+02  0.40342165906E+03 -0.67113871207E+03  0.78821585657E+03  0.10100000352E+00 0. -1.
</event>
<event>
 5   0  0.1536020E-03  0.9027500E+03  0.7818609E-02  0.9422150E-01
       -2   -1    0    0    0  501  0.00000000000E+00  0.00000000000E+00  0.47010446533E+03  0.47010446534E+03  0.25500000920E-02 0.  1.
        2   -1    0    0  501    0  0.00000000000E+00  0.00000000000E+00 -0.43339175307E+03  0.43339175307E+03  0.25500000920E-02 0. -1.
    10030    2    1    2    0    0  0.00000000000E+00  0.00000000000E+00  0.36712712266E+02  0.90349621841E+03  0.90275001714E+03 0.  0.
        2    1    3    3  502    0  0.38811779140E+02 -0.12389218604E+03 -0.41430153344E+03  0.43416746605E+03  0.25500000920E-02 0. -1.
       -2    1    3    3    0  502 -0.38811779140E+02  0.12389218604E+03  0.45101424570E+03  0.46932875236E+03  0.25500000920E-02 0.  1.
</event>
<event>
 5   0  0.9697941E-04  0.8992572E+03  0.7818609E-02  0.9426510E-01
       -1   -1    0    0    0  501  0.00000000000E+00  0.00000000000E+00  0.10666440618E+03  0.10666440630E+03  0.50400001928E-02 0. -1.
        1   -1    0    0  501    0  0.00000000000E+00  0.00000000000E+00 -0.18953451382E+04  0.18953451382E+04  0.50400001928E-02 0.  1.
    10030    2    1    2    0    0  0.00000000000E+00  0.00000000000E+00 -0.17886807320E+04  0.20020095445E+04  0.89925716857E+03 0.  0.
        5    1    3    3  502    0 -0.73507106380E+02  0.43132809713E+01  0.93094737325E+02  0.11878812734E+03  0.46999998093E+01 0. -1.
       -5    1    3    3    0  502  0.73507106380E+02 -0.43132809713E+01 -0.18817754693E+04  0.18832214172E+04  0.46999998093E+01 0.  1.
</event>
<event>
 5   0  0.1630202E-03  0.8979692E+03  0.7818609E-02  0.9428124E-01
       -2   -1    0    0    0  501  0.00000000000E+00  0.00000000000E+00  0.30723199279E+03  0.30723199280E+03  0.25500000920E-02 0.  1.
        2   -1    0    0  501    0  0.00000000000E+00  0.00000000000E+00 -0.65613992473E+03  0.65613992473E+03  0.25500000920E-02 0. -1.
    10030    2    1    2    0    0  0.00000000000E+00  0.00000000000E+00 -0.34890793194E+03  0.96337191753E+03  0.89796921245E+03 0.  0.
        4    1    3    3  502    0  0.28055104169E+03 -0.85504455516E+02  0.19025542535E+03  0.34959782419E+03  0.12699999809E+01 0.  1.
       -4    1    3    3    0  502 -0.28055104169E+03  0.85504455516E+02 -0.53916335729E+03  0.61377409334E+03  0.12699999809E+01 0. -1.
</event>
<event>
 5   0  0.1641516E-03  0.9007875E+03  0.7818609E-02  0.9424598E-01
        2   -1    0    0  501    0  0.00000000000E+00  0.00000000000E+00  0.35208742074E+03  0.35208742075E+03  0.25500000920E-02 0. -1.
       -2   -1    0    0    0  501  0.00000000000E+00  0.00000000000E+00 -0.57614821336E+03  0.57614821337E+03  0.25500000920E-02 0.  1.
    10030    2    1    2    0    0  0.00000000000E+00  0.00000000000E+00 -0.22406079262E+03  0.92823563412E+03  0.90078751860E+03 0.  0.
        1    1    3    3  502    0 -0.82857772467E+01 -0.53538147329E+02  0.34871765872E+03  0.35290082580E+03  0.50400001928E-02 0. -1.
       -1    1    3    3    0  502  0.82857772467E+01  0.53538147329E+02 -0.57277845134E+03  0.57533480832E+03  0.50400001928E-02 0.  1.
</event>
<event>
 5   0  0.1641516E-03  0.9036637E+03  0.7818609E-02  0.9421013E-01
       -2   -1    0    0    0  501  0.00000000000E+00  0.00000000000E+00  0.36715636582E+03  0.36715636583E+03  0.25500000920E-02 0. -1.
        2   -1    0    0  501    0  0.00000000000E+00  0.00000000000E+00 -0.55603565194E+03  0.55603565194E+03  0.25500000920E-02 0.  1.
    10030    2    1    2    0    0  0.00000000000E+00  0.00000000000E+00 -0.18887928612E+03  0.92319201777E+03  0.90366371895E+03 0.  0.
        1    1    3    3  502    0 -0.44743670545E+03 -0.34466891997E+02 -0.14815396883E+03  0.47258562243E+03  0.50400001928E-02 0. -1.
       -1    1    3    3    0  502  0.44743670545E+03  0.34466891997E+02 -0.40725317286E+02  0.45060639534E+03  0.50400001928E-02 0.  1.
</event>
<event>
 5   0  0.9981885E-04  0.8991878E+03  0.7818609E-02  0.9426597E-01
        1   -1    0    0  501    0  0.00000000000E+00  0.00000000000E+00  0.10529591677E+04  0.10529591677E+04  0.50400001928E-02 0. -1.
       -1   -1    0    0    0  501  0.00000000000E+00  0.00000000000E+00 -0.19196820046E+03  0.19196820052E+03  0.50400001928E-02 0.  1.
    10030    2    1    2    0    0  0.00000000000E+00  0.00000000000E+00  0.86099096720E+03  0.12449273682E+04  0.89918780378E+03 0.  0.
        4    1    3    3  502    0  0.28270020066E+03 -0.13337341001E+03  0.87789576374E+03  0.93188543011E+03  0.12699999809E+01 0. -1.
       -4    1    3    3    0  502 -0.28270020066E+03  0.13337341001E+03 -0.16904796544E+02  0.31304193808E+03  0.12699999809E+01 0.  1.
</event>
<event>
 5   0  0.1630202E-03  0.9007176E+03  0.7818609E-02  0.9424685E-01
        2   -1    0    0  501    0  0.00000000000E+00  0.00000000000E+00  0.43316118628E+03  0.43316118629E+03  0.25500000920E-02 0.  1.
       -2   -1    0    0    0  501  0.00000000000E+00  0.00000000000E+00 -0.46823917696E+03  0.46823917696E+03  0.25500000920E-02 0. -1.
    10030    2    1    2    0    0  0.00000000000E+00  0.00000000000E+00 -0.35077990677E+02  0.90140036325E+03  0.90071757474E+03 0.  0.
        4    1    3    3  502    0  0.24371080114E+03 -0.21666358686E+02  0.36084422039E+03  0.43597540066E+03  0.12699999809E+01 0.  1.
       -4    1    3    3    0  502 -0.24371080114E+03  0.21666358686E+02 -0.39592221107E+03  0.46542496259E+03  0.12699999809E+01 0. -1.
</event>
<event>
 5   0  0.1630202E-03  0.8841220E+03  0.7818609E-02  0.9445650E-01
       -2   -1    0    0    0  501  0.00000000000E+00  0.00000000000E+00  0.42506447045E+03  0.42506447045E+03  0.25500000920E-02 0. -1.
        2   -1    0    0  501    0  0.00000000000E+00  0.00000000000E+00 -0.45973712568E+03  0.45973712569E+03  0.25500000920E-02 0.  1.
    10030    2    1    2    0    0  0.00000000000E+00  0.00000000000E+00 -0.34672655237E+02  0.88480159614E+03  0.88412197774E+03 0.  0.
        4    1    3    3  502    0 -0.32237270757E+03 -0.12797673272E+03  0.25694386130E+03  0.43165260043E+03  0.12699999809E+01 0. -1.
       -4    1    3    3    0  502  0.32237270757E+03  0.12797673272E+03 -0.29161651653E+03  0.45314899571E+03  0.12699999809E+01 0.  1.
</event>
<event>
 5   0  0.6375625E-04  0.8987513E+03  0.7818609E-02  0.9427144E-01
       -4   -1    0    0    0  501  0.00000000000E+00  0.00000000000E+00  0.34331032762E+03  0.34331267665E+03  0.12699999809E+01 0.  1.
        4   -1    0    0  501    0  0.00000000000E+00  0.00000000000E+00 -0.58820474308E+03  0.58820611411E+03  0.12699999809E+01 0. -1.
    10030    2    1    2    0    0  0.00000000000E+00  0.00000000000E+00 -0.24489441546E+03  0.93151879076E+03  0.89875134649E+03 0.  0.
        3    1    3    3  502    0  0.15049299986E+03 -0.32974153452E+03  0.15287041289E+03  0.39337894698E+03  0.10100000352E+00 0.  1.
       -3    1    3    3    0  502 -0.15049299986E+03  0.32974153452E+03 -0.39776482835E+03  0.53813984378E+03  0.10100000352E+00 0. -1.
</event>
<event>
 5   0  0.1630202E-03  0.8982780E+03  0.7818609E-02  0.9427737E-01
       -2   -1    0    0    0  501  0.00000000000E+00  0.00000000000E+00  0.45651029950E+03  0.45651029951E+03  0.25500000920E-02 0. -1.
        2   -1    0    0  501    0  0.00000000000E+00  0.00000000000E+00 -0.44188668550E+03  0.44188668551E+03  0.25500000920E-02 0.  1.
    10030    2    1    2    0    0  0.00000000000E+00  0.00000000000E+00  0.14623613996E+02  0.89839698502E+03  0.89827795954E+03 0.  0.
        4    1    3    3  502    0  0.15231631808E+03 -0.29599492842E+03 -0.29424257546E+03  0.44428995546E+03  0.12699999809E+01 0.  1.
       -4    1    3    3    0  502 -0.15231631808E+03  0.29599492842E+03  0.30886618946E+03  0.45410702956E+03  0.12699999809E+01 0. -1.
</event>
<event>
 5   0  0.9321543E-04  0.9003103E+03  0.7818609E-02  0.9425194E-01
       -1   -1    0    0    0  501  0.00000000000E+00  0.00000000000E+00  0.66202961437E+03  0.66202961439E+03  0.50400001928E-02 0. -1.
        1   -1    0    0  501    0  0.00000000000E+00  0.00000000000E+00 -0.30608850031E+03  0.30608850035E+03  0.50400001928E-02 0.  1.
    10030    2    1    2    0    0  0.00000000000E+00  0.00000000000E+00  0.35594111406E+03  0.96811811474E+03  0.90031028396E+03 0.  0.
        3    1    3    3  502    0  0.31768837905E+02  0.15105668116E+03  0.63268084835E+03  0.65123916195E+03  0.10100000352E+00 0. -1.
       -3    1    3    3    0  502 -0.31768837905E+02 -0.15105668116E+03 -0.27673973429E+03  0.31687895279E+03  0.10100000352E+00 0.  1.
</event>
<event>
 5   0  0.9697941E-04  0.8954044E+03  0.7818609E-02  0.9431344E-01
        1   -1    0    0  501    0  0.00000000000E+00  0.00000000000E+00  0.92904701242E+03  0.92904701243E+03  0.50400001928E-02 0. -1.
       -1   -1    0    0    0  501  0.00000000000E+00  0.00000000000E+00 -0.21574500547E+03  0.21574500553E+03  0.50400001928E-02 0.  1.
    10030    2    1    2    0    0  0.00000000000E+00  0.00000000000E+00  0.71330200695E+03  0.11447920180E+04  0.89540438422E+03 0.  0.
        5    1    3    3  502    0  0.30702030410E+03 -0.28484949269E+03  0.15444084883E+03  0.44640202329E+03  0.46999998093E+01 0.  1.
       -5    1    3    3    0  502 -0.30702030410E+03  0.28484949269E+03  0.55886115812E+03  0.69838999467E+03  0.46999998093E+01 0. -1.
</event>
<event>
 5   0  0.9697941E-04  0.9022097E+03  0.7818609E-02  0.9422823E-01
       -1   -1    0    0    0  501  0.00000000000E+00  0.00000000000E+00  0.33471718240E+03  0.33471718244E+03  0.50400001928E-02 0.  1.
        1   -1    0    0  501    0  0.00000000000E+00  0.00000000000E+00 -0.60796278248E+03  0.60796278251E+03  0.50400001928E-02 0. -1.
    10030    2    1    2    0    0  0.00000000000E+00  0.00000000000E+00 -0.27324560009E+03  0.94267996494E+03  0.90220970862E+03 0.  0.
        5    1    3    3  502    0  0.77957245146E+01 -0.35235320677E+03  0.15753722999E+03  0.38607463589E+03  0.46999998093E+01 0.  1.
       -5    1    3    3    0  502 -0.77957245146E+01  0.35235320677E+03 -0.43078283008E+03  0.55660532905E+03  0.46999998093E+01 0. -1.
</event>
<event>
 5   0  0.1007561E-03  0.8971661E+03  0.7818609E-02  0.9429131E-01
        1   -1    0    0  501    0  0.00000000000E+00  0.00000000000E+00  0.14521965662E+03  0.14521965671E+03  0.50400001928E-02 0.  1.
       -1   -1    0    0    0  501  0.00000000000E+00  0.00000000000E+00 -0.13856714967E+04  0.13856714967E+04  0.50400001928E-02 0. -1.
    10030    2    1    2    0    0  0.00000000000E+00  0.00000000000E+00 -0.12404518400E+04  0.15308911534E+04  0.89716606937E+03 0.  0.
        2    1    3    3  502    0 -0.12757916488E+03  0.78923953552E+02 -0.13415985108E+04  0.13499599986E+04  0.25500000920E-02 0. -1.
       -2    1    3    3    0  502  0.12757916488E+03 -0.78923953552E+02  0.10114667073E+03  0.18093115476E+03  0.25500000920E-02 0.  1.
</event>
<event>
 5   0  0.1704416E-03  0.9004140E+03  0.7818609E-02  0.9425064E-01
        2   -1    0    0  501    0  0.00000000000E+00  0.00000000000E+00  0.42014565342E+03  0.42014565343E+03  0.25500000920E-02 0.  1.
       -2   -1    0    0    0  501  0.00000000000E+00  0.00000000000E+00 -0.48241925702E+03  0.48241925703E+03  0.25500000920E-02 0. -1.
    10030    2    1    2    0    0  0.00000000000E+00  0.00000000000E+00 -0.62273603594E+02  0.90256491046E+03  0.90041402471E+03 0.  0.
        3    1    3    3  502    0 -0.10813271029E+03 -0.21306173449E+03  0.35134822018E+03  0.42489241905E+03  0.10100000352E+00 0.  1.
       -3    1    3    3    0  502  0.10813271029E+03  0.21306173449E+03 -0.41362182378E+03  0.47767249141E+03  0.10100000352E+00 0. -1.
</event>
<event>
 5   0  0.1635686E-03  0.8988206E+03  0.7818609E-02  0.9427057E-01
       -2   -1    0    0    0  501  0.00000000000E+00  0.00000000000E+00  0.11384722498E+03  0.11384722501E+03  0.25500000920E-02 0.  1.
        2   -1    0    0  501    0  0.00000000000E+00  0.00000000000E+00 -0.17740408692E+04  0.17740408692E+04  0.25500000920E-02 0. -1.
    10030    2    1    2    0    0  0.00000000000E+00  0.00000000000E+00 -0.16601936443E+04  0.18878880943E+04  0.89882062724E+03 0.  0.
        5    1    3    3  502    0  0.15680291717E+03  0.11379598619E+03 -0.16817611671E+04  0.16928908395E+04  0.46999998093E+01 0. -1.
       -5    1    3    3    0  502 -0.15680291717E+03 -0.11379598619E+03  0.21567522863E+02  0.19499725472E+03  0.46999998093E+01 0.  1.
</event>
<event>
 5   0  0.1536020E-03  0.9028375E+03  0.7818609E-02  0.9422041E-01
        2   -1    0    0  501    0  0.00000000000E+00  0.00000000000E+00  0.22115876891E+04  0.22115876891E+04  0.25500000920E-02 0.  1.
       -2   -1    0    0    0  501  0.00000000000E+00  0.00000000000E+00 -0.92141447100E+02  0.92141447135E+02  0.25500000920E-02 0. -1.
    10030    2    1    2    0    0  0.00000000000E+00  0.00000000000E+00  0.21194462420E+04  0.23037291362E+04  0.90283750498E+03 0.  0.
        2    1    3    3  502    0 -0.17547296268E+03 -0.26339075772E+03  0.18810761550E+04  0.19075148630E+04  0.25500000920E-02 0.  1.
       -2    1    3    3    0  502  0.17547296268E+03  0.26339075772E+03  0.23837008699E+03  0.39621427316E+03  0.25500000920E-02 0. -1.
</event>
<event>
 5   0  0.1007561E-03  0.9063012E+03  0.7818609E-02  0.9417739E-01
       -1   -1    0    0    0  501  0.00000000000E+00  0.00000000000E+00  0.46598477087E+03  0.46598477090E+03  0.50400001928E-02 0.  1.
        1   -1    0    0  501    0  0.00000000000E+00  0.00000000000E+00 -0.44066992177E+03  0.44066992180E+03  0.50400001928E-02 0. -1.
    10030    2    1    2    0    0  0.00000000000E+00  0.00000000000E+00  0.25314849105E+02  0.90665469270E+03  0.90630121384E+03 0.  0.
        2    1    3    3  502    0 -0.12671495467E+03 -0.43285778241E+03  0.56525787761E+02  0.45455220186E+03  0.25500000920E-02 0. -1.
       -2    1    3    3    0  502  0.12671495467E+03  0.43285778241E+03 -0.31210938657E+02  0.45210249084E+03  0.25500000920E-02 0.  1.
</event>
<event>
 5   0  0.1641516E-03  0.8937838E+03  0.7818609E-02  0.9433385E-01
        2   -1    0    0  501    0  0.00000000000E+00  0.00000000000E+00  0.10631822170E+04  0.10631822171E+04  0.25500000920E-02 0.  1.
       -2   -1    0    0    0  501  0.00000000000E+00  0.00000000000E+00 -0.18784399082E+03  0.18784399083E+03  0.25500000920E-02 0. -1.
    10030    2    1    2    0    0  0.00000000000E+00  0.00000000000E+00  0.87533822623E+03  0.12510262079E+04  0.89378384552E+03 0.  0.
        1    1    3    3  502    0  0.31478719585E+03 -0.59524028539E+02  0.15601700077E+01  0.32036935372E+03  0.50400001928E-02 0. -1.
       -1    1    3    3    0  502 -0.31478719585E+03  0.59524028539E+02  0.87377805622E+03  0.93065685417E+03  0.50400001928E-02 0.  1.
</event>
<event>
 5   0  0.6375625E-04  0.9047387E+03  0.7818609E-02  0.9419677E-01
       -3   -1    0    0    0  501  0.00000000000E+00  0.00000000000E+00  0.27643382175E+03  0.27643384020E+03  0.10100000352E+00 0. -1.
        3   -1    0    0  501    0  0.00000000000E+00  0.00000000000E+00 -0.74027847456E+03  0.74027848145E+03  0.10100000352E+00 0.  1.
    10030    2    1    2    0    0  0.00000000000E+00  0.00000000000E+00 -0.46384465282E+03  0.10167123217E+04  0.90473868219E+03 0.  0.
        4    1    3    3  502    0 -0.85774348671E+02 -0.26211455027E+03 -0.63487441990E+03  0.69219102731E+03  0.12699999809E+01 0.  1.
       -4    1    3    3    0  502  0.85774348671E+02  0.26211455027E+03  0.17102976708E+03  0.32452129434E+03  0.12699999809E+01 0. -1.
</event>
<event>
 5   0  0.6375625E-04  0.8975368E+03  0.7818609E-02  0.9428666E-01
       -4   -1    0    0    0  501  0.00000000000E+00  0.00000000000E+00  0.35631369677E+03  0.35631596008E+03  0.12699999809E+01 0. -1.
        4   -1    0    0  501    0  0.00000000000E+00  0.00000000000E+00 -0.56520800624E+03  0.56520943306E+03  0.12699999809E+01 0.  1.
    10030    2    1    2    0    0  0.00000000000E+00  0.00000000000E+00 -0.20889430947E+03  0.92152539314E+03  0.89753675004E+03 0.  0.
        1    1    3    3  502    0 -0.11818354278E+03  0.83875143618E+02 -0.54052306560E+03  0.55961377214E+03  0.50400001928E-02 0.  1.
       -1    1    3    3    0  502  0.11818354278E+03 -0.83875143618E+02  0.33162875613E+03  0.36191162100E+03  0.50400001928E-02 0. -1.
</event>
<event>
 5   0  0.9223454E-04  0.8992149E+03  0.7818609E-02  0.9426563E-01
        1   -1    0    0  501    0  0.00000000000E+00  0.00000000000E+00  0.28137551642E+03  0.28137551646E+03  0.50400001928E-02 0.  1.
       -1   -1    0    0    0  501  0.00000000000E+00  0.00000000000E+00 -0.71842370726E+03  0.71842370727E+03  0.50400001928E-02 0. -1.
    10030    2    1    2    0    0  0.00000000000E+00  0.00000000000E+00 -0.43704819084E+03  0.99979922374E+03  0.89921486124E+03 0.  0.
        1    1    3    3  502    0  0.42217963904E+02 -0.23115997294E+03  0.20766653398E+03  0.31359636307E+03  0.50400001928E-02 0.  1.
       -1    1    3    3    0  502 -0.42217963904E+02  0.23115997294E+03 -0.64471472482E+03  0.68620286067E+03  0.50400001928E-02 0. -1.
</event>
<event>
 5   0  0.6375625E-04  0.8940933E+03  0.7818609E-02  0.9432995E-01
        3   -1    0    0  501    0  0.00000000000E+00  0.00000000000E+00  0.83290217342E+03  0.83290217954E+03  0.10100000352E+00 0. -1.
       -3   -1    0    0    0  501  0.00000000000E+00  0.00000000000E+00 -0.23994499622E+03  0.23994501748E+03  0.10100000352E+00 0.  1.
    10030    2    1    2    0    0  0.00000000000E+00  0.00000000000E+00  0.59295717720E+03  0.10728471970E+04  0.89409333639E+03 0.  0.
        5    1    3    3  502    0  0.37431804392E+03 -0.12076026222E+03  0.41563611779E+02  0.39553339020E+03  0.46999998093E+01 0.  1.
       -5    1    3    3    0  502 -0.37431804392E+03  0.12076026222E+03  0.55139356542E+03  0.67731380683E+03  0.46999998093E+01 0. -1.
</event>
<event>
 5   0  0.9321543E-04  0.8982450E+03  0.7818609E-02  0.9427778E-01
        1   -1    0    0  501    0  0.00000000000E+00  0.00000000000E+00  0.64337572652E+03  0.64337572653E+03  0.50400001928E-02 0.  1.
       -1   -1    0    0    0  501  0.00000000000E+00  0.00000000000E+00 -0.31351977687E+03  0.31351977691E+03  0.50400001928E-02 0. -1.
    10030    2    1    2    0    0  0.00000000000E+00  0.00000000000E+00  0.32985594964E+03  0.95689550345E+03  0.89824498719E+03 0.  0.
        3    1    3    3  502    0 -0.43803778419E+01 -0.41016816153E+03  0.35977467726E+03  0.54561427496E+03  0.10100000352E+00 0.  1.
       -3    1    3    3    0  502  0.43803778419E+01  0.41016816153E+03 -0.29918727615E+02  0.41128122849E+03  0.10100000352E+00 0. -1.
</event>
<event>
 5   0  0.1007561E-03  0.9019301E+03  0.7818609E-02  0.9423172E-01
       -1   -1    0    0    0  501  0.00000000000E+00  0.00000000000E+00  0.90598360151E+02  0.90598360291E+02  0.50400001928E-02 0. -1.
        1   -1    0    0  501    0  0.00000000000E+00  0.00000000000E+00 -0.22447369566E+04  0.22447369566E+04  0.50400001928E-02 0.  1.
    10030    2    1    2    0    0  0.00000000000E+00  0.00000000000E+00 -0.21541385964E+04  0.23353353169E+04  0.90193012458E+03 0.  0.
        2    1    3    3  502    0 -0.22843112826E+03 -0.37058264054E+03 -0.13818688399E+04  0.14488180578E+04  0.25500000920E-02 0.  1.
       -2    1    3    3    0  502  0.22843112826E+03  0.37058264054E+03 -0.77226975649E+03  0.88651725907E+03  0.25500000920E-02 0. -1.
</event>
<event>
 5   0  0.9321543E-04  0.8987784E+03  0.7818609E-02  0.9427110E-01
       -1   -1    0    0    0  501  0.00000000000E+00  0.00000000000E+00  0.20361508307E+03  0.20361508313E+03  0.50400001928E-02 0.  1.
        1   -1    0    0  501    0  0.00000000000E+00  0.00000000000E+00 -0.99182554979E+03  0.99182554980E+03  0.50400001928E-02 0. -1.
    10030    2    1    2    0    0  0.00000000000E+00  0.00000000000E+00 -0.78821046672E+03  0.11954406329E+04  0.89877837481E+03 0.  0.
        3    1    3    3  502    0 -0.30003495010E+02 -0.17622147773E+03  0.15429202798E+03  0.23613610275E+03  0.10100000352E+00 0.  1.
       -3    1    3    3    0  502  0.30003495010E+02  0.17622147773E+03 -0.94250249469E+03  0.95930453018E+03  0.10100000352E+00 0. -1.
</event>
<event>
 5   0  0.9981885E-04  0.8991324E+03  0.7818609E-02  0.9426667E-01
        1   -1    0    0  501    0  0.00000000000E+00  0.00000000000E+00  0.27218664233E+03  0.27218664237E+03  0.50400001928E-02 0.  1.
       -1   -1    0    0    0  501  0.00000000000E+00  0.00000000000E+00 -0.74254114937E+03  0.74254114938E+03  0.50400001928E-02 0. -1.
    10030    2    1    2    0    0  0.00000000000E+00  0.00000000000E+00 -0.47035450704E+03  0.10147277918E+04  0.89913243133E+03 0.  0.
        4    1    3    3  502    0  0.93782774820E+02  0.43916338279E+03 -0.25907732726E+03  0.51844224368E+03  0.12699999809E+01 0. -1.
       -4    1    3    3    0  502 -0.93782774820E+02 -0.43916338279E+03 -0.21127717977E+03  0.49628554807E+03  0.12699999809E+01 0.  1.
</event>
<event>
 5   0  0.1007561E-03  0.9001871E+03  0.7818609E-02  0.9425348E-01
        1   -1    0    0  501    0  0.00000000000E+00  0.00000000000E+00  0.17152523267E+04  0.17152523267E+04  0.50400001928E-02 0. -1.
       -1   -1    0    0    0  501  0.00000000000E+00  0.00000000000E+00 -0.11810751028E+03  0.11810751039E+03  0.50400001928E-02 0.  1.
    10030    2    1    2    0    0  0.00000000000E+00  0.00000000000E+00  0.15971448164E+04  0.18333598371E+04  0.90018705149E+03 0.  0.
        2    1    3    3  502    0 -0.41093825881E+03  0.16561551499E+03  0.63710589477E+03  0.77601718571E+03  0.25500000920E-02 0. -1.
       -2    1    3    3    0  502  0.41093825881E+03 -0.16561551499E+03  0.96003892165E+03  0.10573426514E+04  0.25500000920E-02 0.  1.
</event>
<event>
 5   0  0.1536020E-03  0.9010133E+03  0.7818609E-02  0.9424316E-01
       -2   -1    0    0    0  501  0.00000000000E+00  0.00000000000E+00  0.46045009109E+03  0.46045009110E+03  0.25500000920E-02 0.  1.
        2   -1    0    0  501    0  0.00000000000E+00  0.00000000000E+00 -0.44077792874E+03  0.44077792875E+03  0.25500000920E-02 0. -1.
    10030    2    1    2    0    0  0.00000000000E+00  0.00000000000E+00  0.19672162345E+02  0.90122801985E+03  0.90101329057E+03 0.  0.
        2    1    3    3  502    0  0.19940968568E+03  0.37015662457E+03 -0.15199273586E+03  0.44708158229E+03  0.25500000920E-02 0. -1.
       -2    1    3    3    0  502 -0.19940968568E+03 -0.37015662457E+03  0.17166489821E+03  0.45414643756E+03  0.25500000920E-02 0.  1.
</event>
<event>
 5   0  0.1007561E-03  0.8984292E+03  0.7818609E-02  0.9427547E-01
       -1   -1    0    0    0  501  0.00000000000E+00  0.00000000000E+00  0.27105463096E+03  0.27105463100E+03  0.50400001928E-02 0.  1.
        1   -1    0    0  501    0  0.00000000000E+00  0.00000000000E+00 -0.74447630857E+03  0.74447630859E+03  0.50400001928E-02 0. -1.
    10030    2    1    2    0    0  0.00000000000E+00  0.00000000000E+00 -0.47342167762E+03  0.10155309396E+04  0.89842918721E+03 0.  0.
        2    1    3    3  502    0  0.46798482947E+02  0.12491237987E+03 -0.72157364210E+03  0.73379951051E+03  0.25500000920E-02 0. -1.
       -2    1    3    3    0  502 -0.46798482947E+02 -0.12491237987E+03  0.24815196448E+03  0.28173142908E+03  0.25500000920E-02 0.  1.
</event>
<event>
 5   0  0.9697941E-04  0.8994462E+03  0.7818609E-02  0.9426274E-01
       -1   -1    0    0    0  501  0.00000000000E+00  0.00000000000E+00  0.21094128009E+03  0.21094128015E+03  0.50400001928E-02 0.  1.
        1   -1    0    0  501    0  0.00000000000E+00  0.00000000000E+00 -0.95880177514E+03  0.95880177515E+03  0.50400001928E-02 0. -1.
    10030    2    1    2    0    0  0.00000000000E+00  0.00000000000E+00 -0.74786049504E+03  0.11697430553E+04  0.89944621595E+03 0.  0.
        5    1    3    3  502    0  0.12297533462E+03 -0.16661006892E+02 -0.93605998806E+03  0.94426209991E+03  0.46999998093E+01 0. -1.
       -5    1    3    3    0  502 -0.12297533462E+03  0.16661006892E+02  0.18819949302E+03  0.22548095540E+03  0.46999998093E+01 0.  1.
</event>
<event>
 5   0  0.6375625E-04  0.9033751E+03  0.7818609E-02  0.9421372E-01
        3   -1    0    0  501    0  0.00000000000E+00  0.00000000000E+00  0.31315507753E+03  0.31315509381E+03  0.10100000352E+00 0.  1.
       -3   -1    0    0    0  501  0.00000000000E+00  0.00000000000E+00 -0.65150356670E+03  0.65150357453E+03  0.10100000352E+00 0. -1.
    10030    2    1    2    0    0  0.00000000000E+00  0.00000000000E+00 -0.33834848917E+03  0.96465866834E+03  0.90337514150E+03 0.  0.
        2    1    3    3  502    0  0.78034497860E+02 -0.29703915822E+03 -0.52285292640E+03  0.60638010111E+03  0.25500000920E-02 0. -1.
       -2    1    3    3    0  502 -0.78034497860E+02  0.29703915822E+03  0.18450443723E+03  0.35827856723E+03  0.25500000920E-02 0.  1.
</event>
<event>
 5   0  0.1704416E-03  0.8990336E+03  0.7818609E-02  0.9426790E-01
        2   -1    0    0  501    0  0.00000000000E+00  0.00000000000E+00  0.90584865963E+03  0.90584865963E+03  0.25500000920E-02 0.  1.
       -2   -1    0    0    0  501  0.00000000000E+00  0.00000000000E+00 -0.22306743306E+03  0.22306743307E+03  0.25500000920E-02 0. -1.
    10030    2    1    2    0    0  0.00000000000E+00  0.00000000000E+00  0.68278122657E+03  0.11289160927E+04  0.89903355944E+03 0.  0.
        3    1    3    3  502    0 -0.12117428541E+03 -0.40806053063E+03  0.15999211964E+03  0.45474618487E+03  0.10100000352E+00 0. -1.
       -3    1    3    3    0  502  0.12117428541E+03  0.40806053063E+03  0.52278910693E+03  0.67416990784E+03  0.10100000352E+00 0.  1.
</event>
<event>
 5   0  0.1704416E-03  0.8999481E+03  0.7818609E-02  0.9425646E-01
        2   -1    0    0  501    0  0.00000000000E+00  0.00000000000E+00  0.15622243074E+04  0.15622243074E+04  0.25500000920E-02 0.  1.
       -2   -1    0    0    0  501  0.00000000000E+00  0.00000000000E+00 -0.12960791085E+03  0.12960791087E+03  0.25500000920E-02 0. -1.
    10030    2    1    2    0    0  0.00000000000E+00  0.00000000000E+00  0.14326163966E+04  0.16918322183E+04  0.89994806248E+03 0.  0.
        3    1    3    3  502    0  0.27297850777E+03 -0.20743290798E+03  0.16844413486E+03  0.38199360438E+03  0.10100000352E+00 0. -1.
       -3    1    3    3    0  502 -0.27297850777E+03  0.20743290798E+03  0.12641722617E+04  0.13098386139E+04  0.10100000352E+00 0.  1.
</event>
<event>
 5   0  0.1630202E-03  0.9041260E+03  0.7818609E-02  0.9420438E-01
        2   -1    0    0  501    0  0.00000000000E+00  0.00000000000E+00  0.62398221886E+03  0.62398221886E+03  0.25500000920E-02 0.  1.
       -2   -1    0    0    0  501  0.00000000000E+00  0.00000000000E+00 -0.32751083984E+03  0.32751083985E+03  0.25500000920E-02 0. -1.
    10030    2    1    2    0    0  0.00000000000E+00  0.00000000000E+00  0.29647137901E+03  0.95149305871E+03  0.90412596590E+03 0.  0.
        4    1    3    3  502    0 -0.86017625747E+02  0.15548785629E+03 -0.28921410903E+03  0.33944354340E+03  0.12699999809E+01 0. -1.
       -4    1    3    3    0  502  0.86017625747E+02 -0.15548785629E+03  0.58568548804E+03  0.61204951532E+03  0.12699999809E+01 0.  1.
</event>
<event>
 5   0  0.1704416E-03  0.9007460E+03  0.7818609E-02  0.9424649E-01
        2   -1    0    0  501    0  0.00000000000E+00  0.00000000000E+00  0.46555498674E+03  0.46555498675E+03  0.25500000920E-02 0. -1.
       -2   -1    0    0    0  501  0.00000000000E+00  0.00000000000E+00 -0.43568613455E+03  0.43568613455E+03  0.25500000920E-02 0.  1.
    10030    2    1    2    0    0  0.00000000000E+00  0.00000000000E+00  0.29868852194E+02  0.90124112130E+03  0.90074602990E+03 0.  0.
        3    1    3    3  502    0 -0.20259397949E+03  0.24203737131E+03  0.33637325579E+03  0.46127365744E+03  0.10100000352E+00 0. -1.
       -3    1    3    3    0  502  0.20259397949E+03 -0.24203737131E+03 -0.30650440359E+03  0.43996746386E+03  0.10100000352E+00 0.  1.
</event>
<event>
 5   0  0.1641516E-03  0.9034319E+03  0.7818609E-02  0.9421302E-01
       -2   -1    0    0    0  501  0.00000000000E+00  0.00000000000E+00  0.82588723257E+03  0.82588723257E+03  0.25500000920E-02 0. -1.
        2   -1    0    0  501    0  0.00000000000E+00  0.00000000000E+00 -0.24706434237E+03  0.24706434238E+03  0.25500000920E-02 0.  1.
    10030    2    1    2    0    0  0.00000000000E+00  0.00000000000E+00  0.57882289020E+03  0.10729515750E+04  0.90343187014E+03 0.  0.
        1    1    3    3  502    0  0.15697857340E+03 -0.36289803488E+03  0.54882314420E+03  0.67642006169E+03  0.50400001928E-02 0. -1.
       -1    1    3    3    0  502 -0.15697857340E+03  0.36289803488E+03  0.29999745997E+02  0.39653151326E+03  0.50400001928E-02 0.  1.
</event>
<event>
 5   0  0.1704416E-03  0.9018506E+03  0.7818609E-02  0.9423271E-01
        2   -1    0    0  501    0  0.00000000000E+00  0.00000000000E+00  0.94555773526E+03  0.94555773526E+03  0.25500000920E-02 0. -1.
       -2   -1    0    0    0  501  0.00000000000E+00  0.00000000000E+00 -0.21504095474E+03  0.21504095475E+03  0.25500000920E-02 0.  1.
    10030    2    1    2    0    0  0.00000000000E+00  0.00000000000E+00  0.73051678052E+03  0.11605986900E+04  0.90185062657E+03 0.  0.
        3    1    3    3  502    0  0.11549207306E+03 -0.28244660272E+03  0.79250236369E+03  0.84921994147E+03  0.10100000352E+00 0.  1.
       -3    1    3    3    0  502 -0.11549207306E+03  0.28244660272E+03 -0.61985583170E+02  0.31137874855E+03  0.10100000352E+00 0. -1.
</event>
<event>
 5   0  0.1635686E-03  0.9011887E+03  0.7818609E-02  0.9424097E-01
       -2   -1    0    0    0  501  0.00000000000E+00  0.00000000000E+00  0.92525131008E+02  0.92525131043E+02  0.25500000920E-02 0. -1.
        2   -1    0    0  501    0  0.00000000000E+00  0.00000000000E+00 -0.21943797135E+04  0.21943797135E+04  0.25500000920E-02 0.  1.
    10030    2    1    2    0    0  0.00000000000E+00  0.00000000000E+00 -0.21018545825E+04  0.22869048446E+04  0.90118870503E+03 0.  0.
        5    1    3    3  502    0 -0.19373781588E+03 -0.35078114727E+03 -0.52819880472E+03  0.66302173561E+03  0.46999998093E+01 0. -1.
       -5    1    3    3    0  502  0.19373781588E+03  0.35078114727E+03 -0.15736557778E+04  0.16238831090E+04  0.46999998093E+01 0.  1.
</event>
<event>
 5   0  0.9321543E-04  0.8975044E+03  0.7818609E-02  0.9428706E-01
        1   -1    0    0  501    0  0.00000000000E+00  0.00000000000E+00  0.83587892230E+03  0.83587892231E+03  0.50400001928E-02 0.  1.
       -1   -1    0    0    0  501  0.00000000000E+00  0.00000000000E+00 -0.24091832632E+03  0.24091832638E+03  0.50400001928E-02 0. -1.
    10030    2    1    2    0    0  0.00000000000E+00  0.00000000000E+00  0.59496059597E+03  0.10767972487E+04  0.89750443120E+03 0.  0.
        3    1    3    3  502    0  0.59261408613E+02 -0.34480537725E+03 -0.39686318190E+02  0.35210463897E+03  0.10100000352E+00 0. -1.
       -3    1    3    3    0  502 -0.59261408613E+02  0.34480537725E+03  0.63464691416E+03  0.72469260972E+03  0.10100000352E+00 0.  1.
</event>
<event>
 5   0  0.6375625E-04  0.9001800E+03  0.7818609E-02  0.9425356E-01
       -3   -1    0    0    0  501  0.00000000000E+00  0.00000000000E+00  0.14582022669E+04  0.14582022704E+04  0.10100000352E+00 0. -1.
        3   -1    0    0  501    0  0.00000000000E+00  0.00000000000E+00 -0.13892515654E+03  0.13892519326E+03  0.10100000352E+00 0.  1.
    10030    2    1    2    0    0  0.00000000000E+00  0.00000000000E+00  0.13192771104E+04  0.15971274637E+04  0.90018000493E+03 0.  0.
        5    1    3    3  502    0  0.16490379351E+03  0.40286435925E+03  0.86244464813E+03  0.96608789152E+03  0.46999998093E+01 0. -1.
       -5    1    3    3    0  502 -0.16490379351E+03 -0.40286435925E+03  0.45683246228E+03  0.63103957218E+03  0.46999998093E+01 0.  1.
</event>
<event>
 5   0  0.9223454E-04  0.8977295E+03  0.7818609E-02  0.9428424E-01
       -1   -1    0    0    0  501  0.00000000000E+00  0.00000000000E+00  0.22257640367E+03  0.22257640372E+03  0.50400001928E-02 0. -1.
        1   -1    0    0  501    0  0.00000000000E+00  0.00000000000E+00 -0.90521520561E+03  0.90521520562E+03  0.50400001928E-02 0.  1.
    10030    2    1    2    0    0  0.00000000000E+00  0.00000000000E+00 -0.68263880194E+03  0.11277916093E+04  0.89772945824E+03 0.  0.
        1    1    3    3  502    0  0.77579276925E+02 -0.43839898989E+03 -0.41312852833E+03  0.60736101248E+03  0.50400001928E-02 0.  1.
       -1    1    3    3    0  502 -0.77579276925E+02  0.43839898989E+03 -0.26951027361E+03  0.52043059686E+03  0.50400001928E-02 0. -1.
</event>
<event>
 5   0  0.9321543E-04  0.8979220E+03  0.7818609E-02  0.9428183E-01
        1   -1    0    0  501    0  0.00000000000E+00  0.00000000000E+00  0.18944942169E+04  0.18944942169E+04  0.50400001928E-02 0.  1.
       -1   -1    0    0    0  501  0.00000000000E+00  0.00000000000E+00 -0.10639567286E+03  0.10639567298E+03  0.50400001928E-02 0. -1.
    10030    2    1    2    0    0  0.00000000000E+00  0.00000000000E+00  0.17880985440E+04  0.20008898898E+04  0.89792201680E+03 0.  0.
        3    1    3    3  502    0  0.46595662866E+02  0.30053295696E+03  0.15810198604E+03  0.34276444129E+03  0.10100000352E+00 0. -1.
       -3    1    3    3    0  502 -0.46595662866E+02 -0.30053295696E+03  0.16299965579E+04  0.16581254486E+04  0.10100000352E+00 0.  1.
</event>
<event>
 5   0  0.9223454E-04  0.8994795E+03  0.7818609E-02  0.9426232E-01
        1   -1    0    0  501    0  0.00000000000E+00  0.00000000000E+00  0.17039893939E+04  0.17039893939E+04  0.50400001928E-02 0.  1.
       -1   -1    0    0    0  501  0.00000000000E+00  0.00000000000E+00 -0.11870136270E+03  0.11870136281E+03  0.50400001928E-02 0. -1.
    10030    2    1    2    0    0  0.00000000000E+00  0.00000000000E+00  0.15852880312E+04  0.18226907567E+04  0.89947954549E+03 0.  0.
        1    1    3    3  502    0 -0.16637660828E+03  0.10767910531E+03  0.16107358218E+04  0.16228819591E+04  0.50400001928E-02 0.  1.
       -1    1    3    3    0  502  0.16637660828E+03 -0.10767910531E+03 -0.25447790673E+02  0.19980879755E+03  0.50400001928E-02 0. -1.
</event>
<event>
 5   0  0.9981885E-04  0.8949201E+03  0.7818609E-02  0.9431954E-01
        1   -1    0    0  501    0  0.00000000000E+00  0.00000000000E+00  0.95092296608E+03  0.95092296609E+03  0.50400001928E-02 0.  1.
       -1   -1    0    0    0  501  0.00000000000E+00  0.00000000000E+00 -0.21055383494E+03  0.21055383500E+03  0.50400001928E-02 0. -1.
    10030    2    1    2    0    0  0.00000000000E+00  0.00000000000E+00  0.74036913114E+03  0.11614768011E+04  0.89492005739E+03 0.  0.
        4    1    3    3  502    0  0.36328493882E+02 -0.42578685764E+03  0.19798181698E+03  0.47096987204E+03  0.12699999809E+01 0. -1.
       -4    1    3    3    0  502 -0.36328493882E+02  0.42578685764E+03  0.54238731416E+03  0.69050692905E+03  0.12699999809E+01 0.  1.
</event>
<event>
 5   0  0.1630202E-03  0.8987258E+03  0.7818609E-02  0.9427176E-01
       -2   -1    0    0    0  501  0.00000000000E+00  0.00000000000E+00  0.19939244214E+03  0.19939244216E+03  0.25500000920E-02 0.  1.
        2   -1    0    0  501    0  0.00000000000E+00  0.00000000000E+00 -0.10127114054E+04  0.10127114054E+04  0.25500000920E-02 0. -1.
    10030    2    1    2    0    0  0.00000000000E+00  0.00000000000E+00 -0.81331896330E+03  0.12121038476E+04  0.89872576535E+03 0.  0.
        4    1    3    3  502    0  0.13151031324E+03  0.15696714153E+03 -0.94612217955E+03  0.96803018422E+03  0.12699999809E+01 0. -1.
       -4    1    3    3    0  502 -0.13151031324E+03 -0.15696714153E+03  0.13280321626E+03  0.24407366338E+03  0.12699999809E+01 0.  1.
</event>
<event>
 5   0  0.1635686E-03  0.8991845E+03  0.7818609E-02  0.9426601E-01
       -2   -1    0    0    0  501  0.00000000000E+00  0.00000000000E+00  0.70349594663E+03  0.70349594663E+03  0.25500000920E-02 0. -1.
        2   -1    0    0  501    0  0.00000000000E+00  0.00000000000E+00 -0.28732670933E+03  0.28732670934E+03  0.25500000920E-02 0.  1.
    10030    2    1    2    0    0  0.00000000000E+00  0.00000000000E+00  0.41616923730E+03  0.99082265597E+03  0.89918446467E+03 0.  0.
        5    1    3    3  502    0  0.48299248555E+02  0.17290492122E+03  0.66225730853E+03  0.68617473132E+03  0.46999998093E+01 0. -1.
       -5    1    3    3    0  502 -0.48299248555E+02 -0.17290492122E+03 -0.24608807123E+03  0.30464792465E+03  0.46999998093E+01 0.  1.
</event>
<event>
 5   0  0.9223454E-04  0.8990084E+03  0.7818609E-02  0.9426822E-01
        1   -1    0    0  501    0  0.00000000000E+00  0.00000000000E+00  0.95530884196E+03  0.95530884197E+03  0.50400001928E-02 0. -1.
       -1   -1    0    0    0  501  0.00000000000E+00  0.00000000000E+00 -0.21150651340E+03  0.21150651346E+03  0.50400001928E-02 0.  1.
    10030    2    1    2    0    0  0.00000000000E+00  0.00000000000E+00  0.74380232856E+03  0.11668153554E+04  0.89900843694E+03 0.  0.
        1    1    3    3  502    0  0.66564712192E+02 -0.43143472457E+03  0.51100739800E+03  0.67208283962E+03  0.50400001928E-02 0. -1.
       -1    1    3    3    0  502 -0.66564712192E+02  0.43143472457E+03  0.23279493056E+03  0.49473251581E+03  0.50400001928E-02 0.  1.
</event>
<event>
 5   0  0.1704416E-03  0.9011886E+03  0.7818609E-02  0.9424097E-01
       -2   -1    0    0    0  501  0.00000000000E+00  0.00000000000E+00  0.66044915161E+02  0.66044915210E+02  0.25500000920E-02 0.  1.
        2   -1    0    0  501    0  0.00000000000E+00  0.00000000000E+00 -0.30741993637E+04  0.30741993637E+04  0.25500000920E-02 0. -1.
    10030    2    1    2    0    0  0.00000000000E+00  0.00000000000E+00 -0.30081544485E+04  0.31402442789E+04  0.90118862896E+03 0.  0.
        3    1    3    3  502    0  0.16025113723E+03  0.22616047175E+03 -0.27419845814E+04  0.27559587154E+04  0.10100000352E+00 0. -1.
       -3    1    3    3    0  502 -0.16025113723E+03 -0.22616047175E+03 -0.26616986710E+03  0.38428556351E+03  0.10100000352E+00 0.  1.
</event>
<event>
 5   0  0.1641516E-03  0.9012124E+03  0.7818609E-02  0.9424067E-01
        2   -1    0    0  501    0  0.00000000000E+00  0.00000000000E+00  0.90143394004E+03  0.90143394004E+03  0.25500000920E-02 0.  1.
       -2   -1    0    0    0  501  0.00000000000E+00  0.00000000000E+00 -0.22524775281E+03  0.22524775282E+03  0.25500000920E-02 0. -1.
    10030    2    1    2    0    0  0.00000000000E+00  0.00000000000E+00  0.67618618723E+03  0.11266816929E+04  0.90121244845E+03 0.  0.
        1    1    3    3  502    0 -0.13059654693E+03  0.39529034479E+03  0.55367669761E+03  0.69272490951E+03  0.50400001928E-02 0.  1.
       -1    1    3    3    0  502  0.13059654693E+03 -0.39529034479E+03  0.12250948963E+03  0.43395678336E+03  0.50400001928E-02 0. -1.
</event>
<event>
 5   0  0.1536020E-03  0.9032106E+03  0.7818609E-02  0.9421577E-01
       -2   -1    0    0    0  501  0.00000000000E+00  0.00000000000E+00  0.70812177207E+03  0.70812177208E+03  0.25500000920E-02 0. -1.
        2   -1    0    0  501    0  0.00000000000E+00  0.00000000000E+00 -0.28801166237E+03  0.28801166238E+03  0.25500000920E-02 0.  1.
    10030    2    1    2    0    0  0.00000000000E+00  0.00000000000E+00  0.42011010970E+03  0.99613343446E+03  0.90321055960E+03 0.  0.
        2    1    3    3  502    0  0.74623390695E+02  0.16269610405E+03 -0.24721986602E+03  0.30521522713E+03  0.25500000920E-02 0.  1.
       -2    1    3    3    0  502 -0.74623390695E+02 -0.16269610405E+03  0.66732997572E+03  0.69091820733E+03  0.25500000920E-02 0. -1.
</event>
<event>
 5   0  0.6375625E-04  0.9028230E+03  0.7818609E-02  0.9422059E-01
        4   -1    0    0  501    0  0.00000000000E+00  0.00000000000E+00  0.19348627306E+04  0.19348631474E+04  0.12699999809E+01 0.  1.
       -4   -1    0    0    0  501  0.00000000000E+00  0.00000000000E+00 -0.10531192571E+03  0.10531958316E+03  0.12699999809E+01 0. -1.
    10030    2    1    2    0    0  0.00000000000E+00  0.00000000000E+00  0.18295508049E+04  0.20401827306E+04  0.90282303160E+03 0.  0.
        3    1    3    3  502    0 -0.14409766862E+03 -0.23029228592E+03  0.17294686761E+04  0.17506743235E+04  0.10100000352E+00 0.  1.
       -3    1    3    3    0  502  0.14409766862E+03  0.23029228592E+03  0.10008212876E+03  0.28950840705E+03  0.10100000352E+00 0. -1.
</event>
<event>
 5   0  0.9981885E-04  0.9025656E+03  0.7818609E-02  0.9422380E-01
       -1   -1    0    0    0  501  0.00000000000E+00  0.00000000000E+00  0.70186953656E+03  0.70186953658E+03  0.50400001928E-02 0.  1.
        1   -1    0    0  501    0  0.00000000000E+00  0.00000000000E+00 -0.29016241298E+03  0.29016241302E+03  0.50400001928E-02 0. -1.
    10030    2    1    2    0    0  0.00000000000E+00  0.00000000000E+00  0.41170712359E+03  0.99203194960E+03  0.90256558400E+03 0.  0.
        4    1    3    3  502    0 -0.24849582084E+03 -0.17565085477E+03 -0.16042240186E+03  0.34400633086E+03  0.12699999809E+01 0. -1.
       -4    1    3    3    0  502  0.24849582084E+03  0.17565085477E+03  0.57212952545E+03  0.64802561874E+03  0.12699999809E+01 0.  1.
</event>
<event>
 5   0  0.1635686E-03  0.9026642E+03  0.7818609E-02  0.9422257E-01
       -2   -1    0    0    0  501  0.00000000000E+00  0.00000000000E+00  0.17742881320E+03  0.17742881322E+03  0.25500000920E-02 0. -1.
        2   -1    0    0  501    0  0.00000000000E+00  0.00000000000E+00 -0.11480697395E+04  0.11480697396E+04  0.25500000920E-02 0.  1.
    10030    2    1    2    0    0  0.00000000000E+00  0.00000000000E+00 -0.97064092635E+03  0.13254985528E+04  0.90266417094E+03 0.  0.
        5    1    3    3  502    0 -0.18027999669E+03  0.37351113716E+03 -0.74663122744E+03  0.85410287822E+03  0.46999998093E+01 0.  1.
       -5    1    3    3    0  502  0.18027999669E+03 -0.37351113716E+03 -0.22400969890E+03  0.47139567456E+03  0.46999998093E+01 0. -1.
</event>
<event>
 5   0  0.6375625E-04  0.8999374E+03  0.7818609E-02  0.9425660E-01
        4   -1    0    0  501    0  0.00000000000E+00  0.00000000000E+00  0.51167252214E+03  0.51167409824E+03  0.12699999809E+01 0. -1.
       -4   -1    0    0    0  501  0.00000000000E+00  0.00000000000E+00 -0.39570266440E+03  0.39570470242E+03  0.12699999809E+01 0.  1.
    10030    2    1    2    0    0  0.00000000000E+00  0.00000000000E+00  0.11596985773E+03  0.90737880066E+03  0.89993737559E+03 0.  0.
        4    1    3    3  502    0  0.86257468439E+02  0.23906423382E+03  0.43237477412E+03  0.50153924767E+03  0.12699999809E+01 0. -1.
       -4    1    3    3    0  502 -0.86257468439E+02 -0.23906423382E+03 -0.31640491639E+03  0.40583955299E+03  0.12699999809E+01 0.  1.
</event>
<event>
 5   0  0.9697941E-04  0.8974042E+03  0.7818609E-02  0.9428832E-01
       -1   -1    0    0    0  501  0.00000000000E+00  0.00000000000E+00  0.28210793934E+03  0.28210793939E+03  0.50400001928E-02 0. -1.
        1   -1    0    0  501    0  0.00000000000E+00  0.00000000000E+00 -0.71367570485E+03  0.71367570487E+03  0.50400001928E-02 0.  1.
    10030    2    1    2    0    0  0.00000000000E+00  0.00000000000E+00 -0.43156776551E+03  0.99578364426E+03  0.89740421770E+03 0.  0.
        5    1    3    3  502    0 -0.20601449318E+03  0.20596564713E+02 -0.65747286544E+03  0.68931766890E+03  0.46999998093E+01 0.  1.
       -5    1    3    3    0  502  0.20601449318E+03 -0.20596564713E+02  0.22590509993E+03  0.30646597535E+03  0.46999998093E+01 0. -1.
</event>
<event>
 5   0  0.9981885E-04  0.8994529E+03  0.7818609E-02  0.9426266E-01
       -1   -1    0    0    0  501  0.00000000000E+00  0.00000000000E+00  0.11725287642E+03  0.11725287653E+03  0.50400001928E-02 0. -1.
        1   -1    0    0  501    0  0.00000000000E+00  0.00000000000E+00 -0.17249376132E+04  0.17249376132E+04  0.50400001928E-02 0.  1.
    10030    2    1    2    0    0  0.00000000000E+00  0.00000000000E+00 -0.16076847367E+04  0.18421904897E+04  0.89945293794E+03 0.  0.
        4    1    3    3  502    0 -0.60348435472E+02  0.10345070090E+03 -0.16916708564E+04  0.16959056225E+04  0.12699999809E+01 0.  1.
       -4    1    3    3    0  502  0.60348435472E+02 -0.10345070090E+03  0.83986119639E+02  0.14628486720E+03  0.12699999809E+01 0. -1.
</event>
<event>
 5   0  0.9321543E-04  0.8996487E+03  0.7818609E-02  0.9426021E-01
        1   -1    0    0  501    0  0.00000000000E+00  0.00000000000E+00  0.73151988574E+03  0.73151988576E+03  0.50400001928E-02 0. -1.
       -1   -1    0    0    0  501  0.00000000000E+00  0.00000000000E+00 -0.27660481744E+03  0.27660481749E+03  0.50400001928E-02 0.  1.
    10030    2    1    2    0    0  0.00000000000E+00  0.00000000000E+00  0.45491506830E+03  0.10081247032E+04  0.89964865249E+03 0.  0.
        3    1    3    3  502    0 -0.17056846169E+03  0.35170862587E+03  0.47689422313E+03  0.61662035961E+03  0.10100000352E+00 0. -1.
       -3    1    3    3    0  502  0.17056846169E+03 -0.35170862587E+03 -0.21979154825E+02  0.39150434363E+03  0.10100000352E+00 0.  1.
</event>
<event>
 5   0  0.6375625E-04  0.9017744E+03  0.7818609E-02  0.9423366E-01
        3   -1    0    0  501    0  0.00000000000E+00  0.00000000000E+00  0.29612626793E+03  0.29612628515E+03  0.10100000352E+00 0.  1.
       -3   -1    0    0    0  501  0.00000000000E+00  0.00000000000E+00 -0.68652893723E+03  0.68652894466E+03  0.10100000352E+00 0. -1.
    10030    2    1    2    0    0  0.00000000000E+00  0.00000000000E+00 -0.39040266931E+03  0.98265522981E+03  0.90177439334E+03 0.  0.
        1    1    3    3  502    0 -0.41438731748E+03  0.12150766221E+03 -0.53884350655E+02  0.43518327649E+03  0.50400001928E-02 0.  1.
       -1    1    3    3    0  502  0.41438731748E+03 -0.12150766221E+03 -0.33651831865E+03  0.54747195333E+03  0.50400001928E-02 0. -1.
</event>
<event>
 5   0  0.9697941E-04  0.9007638E+03  0.7818609E-02  0.9424627E-01
       -1   -1    0    0    0  501  0.00000000000E+00  0.00000000000E+00  0.41771328367E+03  0.41771328370E+03  0.50400001928E-02 0. -1.
        1   -1    0    0  501    0  0.00000000000E+00  0.00000000000E+00 -0.48560551968E+03  0.48560551970E+03  0.50400001928E-02 0.  1.
    10030    2    1    2    0    0  0.00000000000E+00  0.00000000000E+00 -0.67892236002E+02  0.90331880341E+03  0.90076384523E+03 0.  0.
        5    1    3    3  502    0 -0.19083063497E+03  0.30190788788E+03  0.24116224490E+03  0.43098262421E+03  0.46999998093E+01 0.  1.
       -5    1    3    3    0  502  0.19083063497E+03 -0.30190788788E+03 -0.30905448090E+03  0.47233617919E+03  0.46999998093E+01 0. -1.
</event>
<event>
 5   0  0.9223454E-04  0.8997846E+03  0.7818609E-02  0.9425851E-01
        1   -1    0    0  501    0  0.00000000000E+00  0.00000000000E+00  0.88505204709E+03  0.88505204710E+03  0.50400001928E-02 0.  1.
       -1   -1    0    0    0  501  0.00000000000E+00  0.00000000000E+00 -0.22869058827E+03  0.22869058833E+03  0.50400001928E-02 0. -1.
    10030    2    1    2    0    0  0.00000000000E+00  0.00000000000E+00  0.65636145882E+03  0.11137426354E+04  0.89978458164E+03 0.  0.
        1    1    3    3  502    0  0.12727948166E+03  0.10540387109E+03  0.84612225120E+03  0.86210956757E+03  0.50400001928E-02 0.  1.
       -1    1    3    3    0  502 -0.12727948166E+03 -0.10540387109E+03 -0.18976079238E+03  0.25163306787E+03  0.50400001928E-02 0. -1.
</event>
<event>
 5   0  0.6375625E-04  0.8976433E+03  0.7818609E-02  0.9428532E-01
        3   -1    0    0  501    0  0.00000000000E+00  0.00000000000E+00  0.83701781089E+03  0.83701781698E+03  0.10100000352E+00 0. -1.
       -3   -1    0    0    0  501  0.00000000000E+00  0.00000000000E+00 -0.24066498533E+03  0.24066500652E+03  0.10100000352E+00 0.  1.
    10030    2    1    2    0    0  0.00000000000E+00  0.00000000000E+00  0.59635282556E+03  0.10776828235E+04  0.89764334538E+03 0.  0.
        2    1    3    3  502    0 -0.47119711017E+02  0.26778881490E+03  0.72688174867E+03  0.77607228601E+03  0.25500000920E-02 0. -1.
       -2    1    3    3    0  502  0.47119711017E+02 -0.26778881490E+03 -0.13052892311E+03  0.30161053749E+03  0.25500000920E-02 0.  1.
</event>
<event>
 5   0  0.1641516E-03  0.9005601E+03  0.7818609E-02  0.9424882E-01
       -2   -1    0    0    0  501  0.00000000000E+00  0.00000000000E+00  0.35776134483E+03  0.35776134484E+03  0.25500000920E-02 0.  1.
        2   -1    0    0  501    0  0.00000000000E+00  0.00000000000E+00 -0.56672455184E+03  0.56672455185E+03  0.25500000920E-02 0. -1.
    10030    2    1    2    0    0  0.00000000000E+00  0.00000000000E+00 -0.20896320701E+03  0.92448589669E+03  0.90056013197E+03 0.  0.
        1    1    3    3  502    0  0.30604042682E+03 -0.31097890260E+02  0.23307706133E+03  0.38594395729E+03  0.50400001928E-02 0.  1.
       -1    1    3    3    0  502 -0.30604042682E+03  0.31097890260E+02 -0.44204026834E+03  0.53854193939E+03  0.50400001928E-02 0. -1.
</event>
<event>
 5   0  0.9223454E-04  0.9030086E+03  0.7818609E-02  0.9421828E-01
       -1   -1    0    0    0  501  0.00000000000E+00  0.00000000000E+00  0.25028881360E+03  0.25028881366E+03  0.50400001928E-02 0. -1.
        1   -1    0    0  501    0  0.00000000000E+00  0.00000000000E+00 -0.81448355697E+03  0.81448355698E+03  0.50400001928E-02 0.  1.
    10030    2    1    2    0    0  0.00000000000E+00  0.00000000000E+00 -0.56419474336E+03  0.10647723706E+04  0.90300857850E+03 0.  0.
        1    1    3    3  502    0 -0.16179610734E+03  0.31278668675E+03 -0.61527997568E+03  0.70893084307E+03  0.50400001928E-02 0.  1.
       -1    1    3    3    0  502  0.16179610734E+03 -0.31278668675E+03  0.51085232317E+02  0.35584152757E+03  0.50400001928E-02 0. -1.
</event>
<event>
 5   0  0.1630202E-03  0.8999812E+03  0.7818609E-02  0.9425605E-01
        2   -1    0    0  501    0  0.00000000000E+00  0.00000000000E+00  0.13876300526E+04  0.13876300526E+04  0.25500000920E-02 0. -1.
       -2   -1    0    0    0  501  0.00000000000E+00  0.00000000000E+00 -0.14592617833E+03  0.14592617835E+03  0.25500000920E-02 0.  1.
    10030    2    1    2    0    0  0.00000000000E+00  0.00000000000E+00  0.12417038742E+04  0.15335562309E+04  0.89998122319E+03 0.  0.
        4    1    3    3  502    0 -0.38623685384E+03  0.22770578193E+03  0.68598587003E+03  0.81951635564E+03  0.12699999809E+01 0. -1.
       -4    1    3    3    0  502  0.38623685384E+03 -0.22770578193E+03  0.55571800422E+03  0.71403987529E+03  0.12699999809E+01 0.  1.
</event>
<event>
 5   0  0.1635686E-03  0.8975186E+03  0.7818609E-02  0.9428689E-01
       -2   -1    0    0    0  501  0.00000000000E+00  0.00000000000E+00  0.94361428874E+03  0.94361428874E+03  0.25500000920E-02 0. -1.
        2   -1    0    0  501    0  0.00000000000E+00  0.00000000000E+00 -0.21341866856E+03  0.21341866858E+03  0.25500000920E-02 0.  1.
    10030    2    1    2    0    0  0.00000000000E+00  0.00000000000E+00  0.73019562018E+03  0.11570329573E+04  0.89751859067E+03 0.  0.
        5    1    3    3  502    0  0.26787756464E+03 -0.69122235886E+02 -0.90367962930E+02  0.29107513095E+03  0.46999998093E+01 0.  1.
       -5    1    3    3    0  502 -0.26787756464E+03  0.69122235886E+02  0.82056358311E+03  0.86595782637E+03  0.46999998093E+01 0. -1.
</event>
<event>
 5   0  0.1007561E-03  0.8993336E+03  0.7818609E-02  0.9426415E-01
        1   -1    0    0  501    0  0.00000000000E+00  0.00000000000E+00  0.38165171058E+03  0.38165171061E+03  0.50400001928E-02 0. -1.
       -1   -1    0    0    0  501  0.00000000000E+00  0.00000000000E+00 -0.52980304677E+03  0.52980304679E+03  0.50400001928E-02 0.  1.
    10030    2    1    2    0    0  0.00000000000E+00  0.00000000000E+00 -0.14815133619E+03  0.91145475740E+03  0.89933361795E+03 0.  0.
        2    1    3    3  502    0  0.10063977401E+03 -0.42914084069E+03 -0.16421262864E+03  0.47037858441E+03  0.25500000920E-02 0. -1.
       -2    1    3    3    0  502 -0.10063977401E+03  0.42914084069E+03  0.16061292452E+02  0.44107617299E+03  0.25500000920E-02 0.  1.
</event>
<event>
 5   0  0.9223454E-04  0.8997479E+03  0.7818609E-02  0.9425897E-01
       -1   -1    0    0    0  501  0.00000000000E+00  0.00000000000E+00  0.21755446853E+03  0.21755446859E+03  0.50400001928E-02 0. -1.
        1   -1    0    0  501    0  0.00000000000E+00  0.00000000000E+00 -0.93027998209E+03  0.93027998210E+03  0.50400001928E-02 0.  1.
    10030    2    1    2    0    0  0.00000000000E+00  0.00000000000E+00 -0.71272551356E+03  0.11478344507E+04  0.89974789164E+03 0.  0.
        1    1    3    3  502    0 -0.22051712363E+02  0.37348885305E+03 -0.67505600573E+03  0.77180360991E+03  0.50400001928E-02 0.  1.
       -1    1    3    3    0  502  0.22051712363E+02 -0.37348885305E+03 -0.37669507830E+02  0.37603084078E+03  0.50400001928E-02 0. -1.
</event>
<event>
 5   0  0.1536020E-03  0.8997733E+03  0.7818609E-02  0.9425865E-01
        2   -1    0    0  501    0  0.00000000000E+00  0.00000000000E+00  0.11377281666E+04  0.11377281666E+04  0.25500000920E-02 0. -1.
       -2   -1    0    0    0  501  0.00000000000E+00  0.00000000000E+00 -0.17789664091E+03  0.17789664093E+03  0.25500000920E-02 0.  1.
    10030    2    1    2    0    0  0.00000000000E+00  0.00000000000E+00  0.95983152567E+03  0.13156248075E+04  0.89977334728E+03 0.  0.
        2    1    3    3  502    0 -0.10501727550E+01  0.22474276096E+03 -0.89933643650E+02  0.24207121211E+03  0.25500000920E-02 0.  1.
       -2    1    3    3    0  502  0.10501727550E+01 -0.22474276096E+03  0.10497651693E+04  0.10735535954E+04  0.25500000920E-02 0. -1.
</event>
<event>
 5   0  0.9321543E-04  0.8990093E+03  0.7818609E-02  0.9426821E-01
       -1   -1    0    0    0  501  0.00000000000E+00  0.00000000000E+00  0.46317729656E+03  0.46317729659E+03  0.50400001928E-02 0.  1.
        1   -1    0    0  501    0  0.00000000000E+00  0.00000000000E+00 -0.43623556887E+03  0.43623556890E+03  0.50400001928E-02 0. -1.
    10030    2    1    2    0    0  0.00000000000E+00  0.00000000000E+00  0.26941727689E+02  0.89941286549E+03  0.89900925797E+03 0.  0.
        3    1    3    3  502    0  0.44163442035E+03  0.81880873828E+02 -0.41143576591E+01  0.44917967104E+03  0.10100000352E+00 0. -1.
       -3    1    3    3    0  502 -0.44163442035E+03 -0.81880873828E+02  0.31056085348E+02  0.45023319444E+03  0.10100000352E+00 0.  1.
</event>
<event>
 5   0  0.9321543E-04  0.8987197E+03  0.7818609E-02  0.9427183E-01
        1   -1    0    0  501    0  0.00000000000E+00  0.00000000000E+00  0.21837232371E+04  0.21837232371E+04  0.50400001928E-02 0. -1.
       -1   -1    0    0    0  501  0.00000000000E+00  0.00000000000E+00 -0.92467892647E+02  0.92467892784E+02  0.50400001928E-02 0.  1.
    10030    2    1    2    0    0  0.00000000000E+00  0.00000000000E+00  0.20912553445E+04  0.22761911299E+04  0.89871972499E+03 0.  0.
        3    1    3    3  502    0  0.19796542096E+02 -0.29369073244E+03  0.19055473907E+04  0.19281485985E+04  0.10100000352E+00 0. -1.
       -3    1    3    3    0  502 -0.19796542096E+02  0.29369073244E+03  0.18570795380E+03  0.34804253146E+03  0.10100000352E+00 0.  1.
</event>
<event>
 5   0  0.1536020E-03  0.8957058E+03  0.7818609E-02  0.9430965E-01
       -2   -1    0    0    0  501  0.00000000000E+00  0.00000000000E+00  0.14164867259E+03  0.14164867262E+03  0.25500000920E-02 0. -1.
        2   -1    0    0  501    0  0.00000000000E+00  0.00000000000E+00 -0.14159836633E+04  0.14159836633E+04  0.25500000920E-02 0.  1.
    10030    2    1    2    0    0  0.00000000000E+00  0.00000000000E+00 -0.12743349908E+04  0.15576323360E+04  0.89570576943E+03 0.  0.
        2    1    3    3  502    0 -0.23019605822E+03 -0.19006335352E+03 -0.56596926329E+02  0.30383797598E+03  0.25500000920E-02 0. -1.
       -2    1    3    3    0  502  0.23019605822E+03  0.19006335352E+03 -0.12177380644E+04  0.12537943600E+04  0.25500000920E-02 0.  1.
</event>
<event>
 5   0  0.9321543E-04  0.8988315E+03  0.7818609E-02  0.9427043E-01
        1   -1    0    0  501    0  0.00000000000E+00  0.00000000000E+00  0.30190605719E+03  0.30190605723E+03  0.50400001928E-02 0. -1.
       -1   -1    0    0    0  501  0.00000000000E+00  0.00000000000E+00 -0.66899793990E+03  0.66899793992E+03  0.50400001928E-02 0.  1.
    10030    2    1    2    0    0  0.00000000000E+00  0.00000000000E+00 -0.36709188271E+03  0.97090399715E+03  0.89883153112E+03 0.  0.
        3    1    3    3  502    0 -0.14798359587E+03  0.36830708746E+03  0.44127830525E+02  0.39937016782E+03  0.10100000352E+00 0. -1.
       -3    1    3    3    0  502  0.14798359587E+03 -0.36830708746E+03 -0.41121971324E+03  0.57153382933E+03  0.10100000352E+00 0.  1.
</event>
<event>
 5   0  0.1704416E-03  0.8996308E+03  0.7818609E-02  0.9426043E-01
       -2   -1    0    0    0  501  0.00000000000E+00  0.00000000000E+00  0.16895103252E+03  0.16895103254E+03  0.25500000920E-02 0.  1.
        2   -1    0    0  501    0  0.00000000000E+00  0.00000000000E+00 -0.11975889356E+04  0.11975889356E+04  0.25500000920E-02 0. -1.
    10030    2    1    2    0    0  0.00000000000E+00  0.00000000000E+00 -0.10286379030E+04  0.13665399681E+04  0.89963078474E+03 0.  0.
        3    1    3    3  502    0  0.37514136674E+02  0.39726652585E+03 -0.19894468201E+03  0.44587778563E+03  0.10100000352E+00 0.  1.
       -3    1    3    3    0  502 -0.37514136674E+02 -0.39726652585E+03 -0.82969322102E+03  0.92066218247E+03  0.10100000352E+00 0. -1.
</event>
<event>
 5   0  0.1704416E-03  0.9006422E+03  0.7818609E-02  0.9424779E-01
       -2   -1    0    0    0  501  0.00000000000E+00  0.00000000000E+00  0.41241873846E+03  0.41241873846E+03  0.25500000920E-02 0. -1.
        2   -1    0    0  501    0  0.00000000000E+00  0.00000000000E+00 -0.49170679368E+03  0.49170679368E+03  0.25500000920E-02 0.  1.
    10030    2    1    2    0    0  0.00000000000E+00  0.00000000000E+00 -0.79288055221E+02  0.90412553215E+03  0.90064220542E+03 0.  0.
        3    1    3    3  502    0 -0.35887542594E+03 -0.26333061817E+03 -0.10813178324E+03  0.45806885788E+03  0.10100000352E+00 0. -1.
       -3    1    3    3    0  502  0.35887542594E+03  0.26333061817E+03  0.28843728019E+02  0.44605667427E+03  0.10100000352E+00 0.  1.
</event>
<event>
 5   0  0.1536020E-03  0.8983602E+03  0.7818609E-02  0.9427634E-01
        2   -1    0    0  501    0  0.00000000000E+00  0.00000000000E+00  0.85636376411E+03  0.85636376411E+03  0.25500000920E-02 0. -1.
       -2   -1    0    0    0  501  0.00000000000E+00  0.00000000000E+00 -0.23560404611E+03  0.23560404612E+03  0.25500000920E-02 0.  1.
    10030    2    1    2    0    0  0.00000000000E+00  0.00000000000E+00  0.62075971800E+03  0.10919678102E+04  0.89836021232E+03 0.  0.
        2    1    3    3  502    0 -0.24071521616E+03  0.34884452537E+03  0.49118683945E+03  0.64876870256E+03  0.25500000920E-02 0. -1.
       -2    1    3    3    0  502  0.24071521616E+03 -0.34884452537E+03  0.12957287855E+03  0.44319910767E+03  0.25500000920E-02 0.  1.
</event>
<event>
 5   0  0.9981885E-04  0.9003257E+03  0.7818609E-02  0.9425174E-01
       -1   -1    0    0    0  501  0.00000000000E+00  0.00000000000E+00  0.22136622638E+03  0.22136622644E+03  0.50400001928E-02 0. -1.
        1   -1    0    0  501    0  0.00000000000E+00  0.00000000000E+00 -0.91543584013E+03  0.91543584015E+03  0.50400001928E-02 0.  1.
    10030    2    1    2    0    0  0.00000000000E+00  0.00000000000E+00 -0.69406961375E+03  0.11368020666E+04  0.90032566878E+03 0.  0.
        4    1    3    3  502    0 -0.15328388354E+03 -0.18303170764E+03  0.13484429863E+03  0.27419181740E+03  0.12699999809E+01 0. -1.
       -4    1    3    3    0  502  0.15328388354E+03  0.18303170764E+03 -0.82891391238E+03  0.86261024919E+03  0.12699999809E+01 0.  1.
</event>
<event>
 5   0  0.1641516E-03  0.8991268E+03  0.7818609E-02  0.9426674E-01
       -2   -1    0    0    0  501  0.00000000000E+00  0.00000000000E+00  0.81374660129E+03  0.81374660130E+03  0.25500000920E-02 0. -1.
        2   -1    0    0  501    0  0.00000000000E+00  0.00000000000E+00 -0.24836633388E+03  0.24836633389E+03  0.25500000920E-02 0.  1.
    10030    2    1    2    0    0  0.00000000000E+00  0.00000000000E+00  0.56538026741E+03  0.10621129352E+04  0.89912682104E+03 0.  0.
        1    1    3    3  502    0 -0.39954192343E+03  0.19747370534E+03  0.35235158280E+03  0.56813840814E+03  0.50400001928E-02 0. -1.
       -1    1    3    3    0  502  0.39954192343E+03 -0.19747370534E+03  0.21302868461E+03  0.49397452705E+03  0.50400001928E-02 0.  1.
</event>
<event>
 5   0  0.1536020E-03  0.8997505E+03  0.7818609E-02  0.9425893E-01
        2   -1    0    0  501    0  0.00000000000E+00  0.00000000000E+00  0.40690950037E+03  0.40690950038E+03  0.25500000920E-02 0. -1.
       -2   -1    0    0    0  501  0.00000000000E+00  0.00000000000E+00 -0.49737777864E+03  0.49737777865E+03  0.25500000920E-02 0.  1.
    10030    2    1    2    0    0  0.00000000000E+00  0.00000000000E+00 -0.90468278266E+02  0.90428727903E+03  0.89975050633E+03 0.  0.
        2    1    3    3  502    0 -0.72153213150E+02  0.19315329984E+03 -0.44709203767E+03  0.49234700523E+03  0.25500000920E-02 0.  1.
       -2    1    3    3    0  502  0.72153213150E+02 -0.19315329984E+03  0.35662375940E+03  0.41194027380E+03  0.25500000920E-02 0. -1.
</event>
<event>
 5   0  0.1630202E-03  0.9005488E+03  0.7818609E-02  0.9424896E-01
       -2   -1    0    0    0  501  0.00000000000E+00  0.00000000000E+00  0.63248007076E+03  0.63248007076E+03  0.25500000920E-02 0. -1.
        2   -1    0    0  501    0  0.00000000000E+00  0.00000000000E+00 -0.32055874158E+03  0.32055874159E+03  0.25500000920E-02 0.  1.
    10030    2    1    2    0    0  0.00000000000E+00  0.00000000000E+00  0.31192132918E+03  0.95303881235E+03  0.90054875618E+03 0.  0.
        4    1    3    3  502    0  0.66596995167E+02 -0.12247017372E+03  0.60906474672E+03  0.62481643849E+03  0.12699999809E+01 0. -1.
       -4    1    3    3    0  502 -0.66596995167E+02  0.12247017372E+03 -0.29714341754E+03  0.32822237386E+03  0.12699999809E+01 0.  1.
</event>
<event>
 5   0  0.1704416E-03  0.8976688E+03  0.7818609E-02  0.9428500E-01
        2   -1    0    0  501    0  0.00000000000E+00  0.00000000000E+00  0.15959994623E+04  0.15959994623E+04  0.25500000920E-02 0.  1.
       -2   -1    0    0    0  501  0.00000000000E+00  0.00000000000E+00 -0.12622330816E+03  0.12622330818E+03  0.25500000920E-02 0. -1.
    10030    2    1    2    0    0  0.00000000000E+00  0.00000000000E+00  0.14697761542E+04  0.17222227705E+04  0.89766882975E+03 0.  0.
        3    1    3    3  502    0  0.42598991089E+02  0.17277590079E+03  0.15254288863E+04  0.15357732526E+04  0.10100000352E+00 0.  1.
       -3    1    3    3    0  502 -0.42598991089E+02 -0.17277590079E+03 -0.55652732155E+02  0.18644951792E+03  0.10100000352E+00 0. -1.
</event>
<event>
 5   0  0.6375625E-04  0.8984766E+03  0.7818609E-02  0.9427488E-01
        4   -1    0    0  501    0  0.00000000000E+00  0.00000000000E+00  0.60282689709E+03  0.60282823487E+03  0.12699999809E+01 0.  1.
       -4   -1    0    0    0  501  0.00000000000E+00  0.00000000000E+00 -0.33477820604E+03  0.33478061494E+03  0.12699999809E+01 0. -1.
    10030    2    1    2    0    0  0.00000000000E+00  0.00000000000E+00  0.26804869105E+03  0.93760884980E+03  0.89847662989E+03 0.  0.
        5    1    3    3  502    0 -0.10330425260E+02 -0.70787139077E+02  0.59682074807E+03  0.60111116449E+03  0.46999998093E+01 0.  1.
       -5    1    3    3    0  502  0.10330425260E+02  0.70787139077E+02 -0.32877205702E+03  0.33649768532E+03  0.46999998093E+01 0. -1.
</event>
<event>
 5   0  0.1641516E-03  0.8993561E+03  0.7818609E-02  0.9426387E-01
        2   -1    0    0  501    0  0.00000000000E+00  0.00000000000E+00  0.16866660586E+04  0.16866660586E+04  0.25500000920E-02 0. -1.
       -2   -1    0    0    0  501  0.00000000000E+00  0.00000000000E+00 -0.11988759233E+03  0.11988759236E+03  0.25500000920E-02 0.  1.
    10030    2    1    2    0    0  0.00000000000E+00  0.00000000000E+00  0.15667784663E+04  0.18065536510E+04  0.89935606490E+03 0.  0.
        1    1    3    3  502    0 -0.44530342576E+03  0.60614224201E+01  0.65829181368E+03  0.79478298536E+03  0.50400001928E-02 0.  1.
       -1    1    3    3    0  502  0.44530342576E+03 -0.60614224201E+01  0.90848665260E+03  0.10117706656E+04  0.50400001928E-02 0. -1.
</event>
<event>
 5   0  0.1630202E-03  0.9028850E+03  0.7818609E-02  0.9421982E-01
        2   -1    0    0  501    0  0.00000000000E+00  0.00000000000E+00  0.10983635807E+04  0.10983635807E+04  0.25500000920E-02 0.  1.
       -2   -1    0    0    0  501  0.00000000000E+00  0.00000000000E+00 -0.18554907072E+03  0.18554907073E+03  0.25500000920E-02 0. -1.
    10030    2    1    2    0    0  0.00000000000E+00  0.00000000000E+00  0.91281450996E+03  0.12839126514E+04  0.90288502417E+03 0.  0.
        4    1    3    3  502    0  0.32215091878E+03  0.16194165349E+03  0.84269318626E+03  0.91659136624E+03  0.12699999809E+01 0.  1.
       -4    1    3    3    0  502 -0.32215091878E+03 -0.16194165349E+03  0.70121323702E+02  0.36732128517E+03  0.12699999809E+01 0. -1.
</event>
<event>
 5   0  0.9223454E-04  0.9004771E+03  0.7818609E-02  0.9424985E-01
       -1   -1    0    0    0  501  0.00000000000E+00  0.00000000000E+00  0.14502619575E+03  0.14502619583E+03  0.50400001928E-02 0. -1.
        1   -1    0    0  501    0  0.00000000000E+00  0.00000000000E+00 -0.13977803848E+04  0.13977803848E+04  0.50400001928E-02 0.  1.
    10030    2    1    2    0    0  0.00000000000E+00  0.00000000000E+00 -0.12527541890E+04  0.15428065806E+04  0.90047714412E+03 0.  0.
        1    1    3    3  502    0 -0.38852992853E+03  0.56186246942E+02 -0.10040949552E+04  0.10781090292E+04  0.50400001928E-02 0.  1.
       -1    1    3    3    0  502  0.38852992853E+03 -0.56186246942E+02 -0.24865923381E+03  0.46469755142E+03  0.50400001928E-02 0. -1.
</event>
<event>
 5   0  0.1007561E-03  0.8996038E+03  0.7818609E-02  0.9426077E-01
       -1   -1    0    0    0  501  0.00000000000E+00  0.00000000000E+00  0.33933326510E+03  0.33933326514E+03  0.50400001928E-02 0.  1.
        1   -1    0    0  501    0  0.00000000000E+00  0.00000000000E+00 -0.59623320674E+03  0.59623320676E+03  0.50400001928E-02 0. -1.
    10030    2    1    2    0    0  0.00000000000E+00  0.00000000000E+00 -0.25689994164E+03  0.93556647190E+03  0.89960382576E+03 0.  0.
        2    1    3    3  502    0  0.23350953878E+03 -0.12361178335E+02  0.27115298702E+03  0.35805508767E+03  0.25500000920E-02 0.  1.
       -2    1    3    3    0  502 -0.23350953878E+03  0.12361178335E+02 -0.52805292867E+03  0.57751138423E+03  0.25500000920E-02 0. -1.
</event>
<event>
 5   0  0.9697941E-04  0.9006338E+03  0.7818609E-02  0.9424789E-01
       -1   -1    0    0    0  501  0.00000000000E+00  0.00000000000E+00  0.58830123706E+03  0.58830123709E+03  0.50400001928E-02 0.  1.
        1   -1    0    0  501    0  0.00000000000E+00  0.00000000000E+00 -0.34469639739E+03  0.34469639742E+03  0.50400001928E-02 0. -1.
    10030    2    1    2    0    0  0.00000000000E+00  0.00000000000E+00  0.24360483968E+03  0.93299763451E+03  0.90063381465E+03 0.  0.
        5    1    3    3  502    0 -0.44300090631E+03 -0.30756266437E+02  0.19909921268E+03  0.48668094005E+03  0.46999998093E+01 0.  1.
       -5    1    3    3    0  502  0.44300090631E+03  0.30756266437E+02  0.44505626993E+02  0.44631669446E+03  0.46999998093E+01 0. -1.
</event>
<event>
 5   0  0.6375625E-04  0.9022006E+03  0.7818609E-02  0.9422835E-01
        3   -1    0    0  501    0  0.00000000000E+00  0.00000000000E+00  0.60581161521E+03  0.60581162363E+03  0.10100000352E+00 0. -1.
       -3   -1    0    0    0  501  0.00000000000E+00  0.00000000000E+00 -0.33589891517E+03  0.33589893036E+03  0.10100000352E+00 0.  1.
    10030    2    1    2    0    0  0.00000000000E+00  0.00000000000E+00  0.26991270004E+03  0.94171055398E+03  0.90220058847E+03 0.  0.
        2    1    3    3  502    0  0.71510777688E+02 -0.55966715023E+02 -0.32626005799E+03  0.33866161572E+03  0.25500000920E-02 0.  1.
       -2    1    3    3    0  502 -0.71510777688E+02  0.55966715023E+02  0.59617275803E+03  0.60304893826E+03  0.25500000920E-02 0. -1.
</event>
<event>
 5   0  0.9321543E-04  0.8997158E+03  0.7818609E-02  0.9425937E-01
        1   -1    0    0  501    0  0.00000000000E+00  0.00000000000E+00  0.49925771537E+03  0.49925771540E+03  0.50400001928E-02 0. -1.
       -1   -1    0    0    0  501  0.00000000000E+00  0.00000000000E+00 -0.40534605740E+03  0.40534605743E+03  0.50400001928E-02 0.  1.
    10030    2    1    2    0    0  0.00000000000E+00  0.00000000000E+00  0.93911657970E+02  0.90460377283E+03  0.89971583643E+03 0.  0.
        3    1    3    3  502    0  0.43880125060E+03 -0.57588662961E+02  0.12807341066E+03  0.46072312764E+03  0.10100000352E+00 0. -1.
       -3    1    3    3    0  502 -0.43880125060E+03  0.57588662961E+02 -0.34161752687E+02  0.44388064519E+03  0.10100000352E+00 0.  1.
</event>
<event>
 5   0  0.1630202E-03  0.8991765E+03  0.7818609E-02  0.9426611E-01
        2   -1    0    0  501    0  0.00000000000E+00  0.00000000000E+00  0.53871571810E+03  0.53871571811E+03  0.25500000920E-02 0. -1.
       -2   -1    0    0    0  501  0.00000000000E+00  0.00000000000E+00 -0.37520639584E+03  0.37520639585E+03  0.25500000920E-02 0.  1.
    10030    2    1    2    0    0  0.00000000000E+00  0.00000000000E+00  0.16350932226E+03  0.91392211396E+03  0.89917647429E+03 0.  0.
        4    1    3    3  502    0  0.14718853300E+03  0.37520330881E+02 -0.34833436628E+03  0.38001405646E+03  0.12699999809E+01 0.  1.
       -4    1    3    3    0  502 -0.14718853300E+03 -0.37520330881E+02  0.51184368854E+03  0.53390805751E+03  0.12699999809E+01 0. -1.
</event>
<event>
 5   0  0.9223454E-04  0.8986881E+03  0.7818609E-02  0.9427223E-01
        1   -1    0    0  501    0  0.00000000000E+00  0.00000000000E+00  0.53993255386E+03  0.53993255388E+03  0.50400001928E-02 0. -1.
       -1   -1    0    0    0  501  0.00000000000E+00  0.00000000000E+00 -0.37395428408E+03  0.37395428412E+03  0.50400001928E-02 0.  1.
    10030    2    1    2    0    0  0.00000000000E+00  0.00000000000E+00  0.16597826978E+03  0.91388683800E+03  0.89868813647E+03 0.  0.
        1    1    3    3  502    0  0.20801769339E+02 -0.14903378026E+03 -0.34756994659E+03  0.37874615386E+03  0.50400001928E-02 0.  1.
       -1    1    3    3    0  502 -0.20801769339E+02  0.14903378026E+03  0.51354821636E+03  0.53514068414E+03  0.50400001928E-02 0. -1.
</event>
<event>
 5   0  0.1635686E-03  0.8917871E+03  0.7818609E-02  0.9435907E-01
        2   -1    0    0  501    0  0.00000000000E+00  0.00000000000E+00  0.14661600312E+04  0.14661600312E+04  0.25500000920E-02 0.  1.
       -2   -1    0    0    0  501  0.00000000000E+00  0.00000000000E+00 -0.13560666122E+03  0.13560666124E+03  0.25500000920E-02 0. -1.
    10030    2    1    2    0    0  0.00000000000E+00  0.00000000000E+00  0.13305533700E+04  0.16017666925E+04  0.89178711959E+03 0.  0.
        5    1    3    3  502    0  0.33721658597E+03 -0.12629007954E+03  0.19301108367E+03  0.40858240107E+03  0.46999998093E+01 0. -1.
       -5    1    3    3    0  502 -0.33721658597E+03  0.12629007954E+03  0.11375422863E+04  0.11931842914E+04  0.46999998093E+01 0.  1.
</event>
<event>
 5   0  0.1635686E-03  0.9012563E+03  0.7818609E-02  0.9424012E-01
        2   -1    0    0  501    0  0.00000000000E+00  0.00000000000E+00  0.23302627879E+04  0.23302627879E+04  0.25500000920E-02 0. -1.
       -2   -1    0    0    0  501  0.00000000000E+00  0.00000000000E+00 -0.87142850708E+02  0.87142850746E+02  0.25500000920E-02 0.  1.
    10030    2    1    2    0    0  0.00000000000E+00  0.00000000000E+00  0.22431199372E+04  0.24174056387E+04  0.90125632822E+03 0.  0.
        5    1    3    3  502    0 -0.36264208554E+03  0.24165604880E+03  0.81413103115E+03  0.92343833254E+03  0.46999998093E+01 0.  1.
       -5    1    3    3    0  502  0.36264208554E+03 -0.24165604880E+03  0.14289889061E+04  0.14939673061E+04  0.46999998093E+01 0. -1.
</event>
<event>
 5   0  0.1635686E-03  0.8981651E+03  0.7818609E-02  0.9427878E-01
       -2   -1    0    0    0  501  0.00000000000E+00  0.00000000000E+00  0.13419981454E+03  0.13419981457E+03  0.25500000920E-02 0. -1.
        2   -1    0    0  501    0  0.00000000000E+00  0.00000000000E+00 -0.15027975605E+04  0.15027975605E+04  0.25500000920E-02 0.  1.
    10030    2    1    2    0    0  0.00000000000E+00  0.00000000000E+00 -0.13685977460E+04  0.16369973751E+04  0.89816513835E+03 0.  0.
        5    1    3    3  502    0 -0.83371880467E+02 -0.18463141195E+03 -0.14147358060E+04  0.14291742789E+04  0.46999998093E+01 0.  1.
       -5    1    3    3    0  502  0.83371880467E+02  0.18463141195E+03  0.46138060008E+02  0.20782309619E+03  0.46999998093E+01 0. -1.
</event>
<event>
 5   0  0.1536020E-03  0.8982668E+03  0.7818609E-02  0.9427751E-01
        2   -1    0    0  501    0  0.00000000000E+00  0.00000000000E+00  0.42379752179E+03  0.42379752180E+03  0.25500000920E-02 0.  1.
       -2   -1    0    0    0  501  0.00000000000E+00  0.00000000000E+00 -0.47598391515E+03  0.47598391515E+03  0.25500000920E-02 0. -1.
    10030    2    1    2    0    0  0.00000000000E+00  0.00000000000E+00 -0.52186393354E+02  0.89978143696E+03  0.89826678367E+03 0.  0.
        2    1    3    3  502    0  0.30501667521E+03 -0.18395290700E+03  0.24794983919E+03  0.43399650564E+03  0.25500000920E-02 0.  1.
       -2    1    3    3    0  502 -0.30501667521E+03  0.18395290700E+03 -0.30013623255E+03  0.46578493132E+03  0.25500000920E-02 0. -1.
</event>
<event>
 5   0  0.9981885E-04  0.9014245E+03  0.7818609E-02  0.9423802E-01
        1   -1    0    0  501    0  0.00000000000E+00  0.00000000000E+00  0.10180087773E+04  0.10180087773E+04  0.50400001928E-02 0. -1.
       -1   -1    0    0    0  501  0.00000000000E+00  0.00000000000E+00 -0.19954791754E+03  0.19954791761E+03  0.50400001928E-02 0.  1.
    10030    2    1    2    0    0  0.00000000000E+00  0.00000000000E+00  0.81846085977E+03  0.12175566949E+04  0.90142449845E+03 0.  0.
        4    1    3    3  502    0  0.82879141990E+02 -0.14534049321E+03  0.97450743732E+03  0.98876648883E+03  0.12699999809E+01 0.  1.
       -4    1    3    3    0  502 -0.82879141990E+02  0.14534049321E+03 -0.15604657755E+03  0.22879020610E+03  0.12699999809E+01 0. -1.
</event>
<event>
 5   0  0.1641516E-03  0.9002013E+03  0.7818609E-02  0.9425330E-01
       -2   -1    0    0    0  501  0.00000000000E+00  0.00000000000E+00  0.23678598882E+03  0.23678598884E+03  0.25500000920E-02 0.  1.
        2   -1    0    0  501    0  0.00000000000E+00  0.00000000000E+00 -0.85558518713E+03  0.85558518714E+03  0.25500000920E-02 0. -1.
    10030    2    1    2    0    0  0.00000000000E+00  0.00000000000E+00 -0.61879919831E+03  0.10923711760E+04  0.90020127653E+03 0.  0.
        1    1    3    3  502    0  0.20771332011E+03  0.29611844478E+03  0.15665764070E+02  0.36204471116E+03  0.50400001928E-02 0.  1.
       -1    1    3    3    0  502 -0.20771332011E+03 -0.29611844478E+03 -0.63446496238E+03  0.73032646481E+03  0.50400001928E-02 0. -1.
</event>
<event>
 5   0  0.1635686E-03  0.9002446E+03  0.7818609E-02  0.9425276E-01
       -2   -1    0    0    0  501  0.00000000000E+00  0.00000000000E+00  0.17480252739E+03  0.17480252740E+03  0.25500000920E-02 0.  1.
        2   -1    0    0  501    0  0.00000000000E+00  0.00000000000E+00 -0.11590798084E+04  0.11590798084E+04  0.25500000920E-02 0. -1.
    10030    2    1    2    0    0  0.00000000000E+00  0.00000000000E+00 -0.98427728102E+03  0.13338823358E+04  0.90024458891E+03 0.  0.
        5    1    3    3  502    0  0.28001947310E+03 -0.34499734742E+03 -0.38576705700E+03  0.58844913740E+03  0.46999998093E+01 0.  1.
       -5    1    3    3    0  502 -0.28001947310E+03  0.34499734742E+03 -0.59851022402E+03  0.74543319841E+03  0.46999998093E+01 0. -1.
</event>
<event>
 5   0  0.1630202E-03  0.9017665E+03  0.7818609E-02  0.9423376E-01
       -2   -1    0    0    0  501  0.00000000000E+00  0.00000000000E+00  0.24505911446E+03  0.24505911447E+03  0.25500000920E-02 0. -1.
        2   -1    0    0  501    0  0.00000000000E+00  0.00000000000E+00 -0.82957823665E+03  0.82957823665E+03  0.25500000920E-02 0.  1.
    10030    2    1    2    0    0  0.00000000000E+00  0.00000000000E+00 -0.58451912219E+03  0.10746373511E+04  0.90176650649E+03 0.  0.
        4    1    3    3  502    0 -0.43407564450E+03 -0.10842268023E+03 -0.35879191930E+03  0.57350710282E+03  0.12699999809E+01 0.  1.
       -4    1    3    3    0  502  0.43407564450E+03  0.10842268023E+03 -0.22572720289E+03  0.50113024830E+03  0.12699999809E+01 0. -1.
</event>
<event>
 5   0  0.1704416E-03  0.9063839E+03  0.7818609E-02  0.9417636E-01
        2   -1    0    0  501    0  0.00000000000E+00  0.00000000000E+00  0.77416483974E+03  0.77416483974E+03  0.25500000920E-02 0.  1.
       -2   -1    0    0    0  501  0.00000000000E+00  0.00000000000E+00 -0.26529614437E+03  0.26529614438E+03  0.25500000920E-02 0. -1.
    10030    2    1    2    0    0  0.00000000000E+00  0.00000000000E+00  0.50886869537E+03  0.10394609841E+04  0.90638390783E+03 0.  0.
        3    1    3    3  502    0 -0.36771264622E+03  0.56765836109E+02 -0.42297913899E+02  0.37446505052E+03  0.10100000352E+00 0. -1.
       -3    1    3    3    0  502  0.36771264622E+03 -0.56765836109E+02  0.55116660927E+03  0.66499593360E+03  0.10100000352E+00 0.  1.
</event>
<event>
 5   0  0.1635686E-03  0.9002339E+03  0.7818609E-02  0.9425289E-01
        2   -1    0    0  501    0  0.00000000000E+00  0.00000000000E+00  0.11246369202E+04  0.11246369202E+04  0.25500000920E-02 0. -1.
       -2   -1    0    0    0  501  0.00000000000E+00  0.00000000000E+00 -0.18015169792E+03  0.18015169794E+03  0.25500000920E-02 0.  1.
    10030    2    1    2    0    0  0.00000000000E+00  0.00000000000E+00  0.94448522225E+03  0.13047886181E+04  0.90023386012E+03 0.  0.
        5    1    3    3  502    0 -0.14692134651E+03 -0.13247841913E+03 -0.11372411661E+03  0.22823601445E+03  0.46999998093E+01 0.  1.
       -5    1    3    3    0  502  0.14692134651E+03  0.13247841913E+03  0.10582093389E+04  0.10765526037E+04  0.46999998093E+01 0. -1.
</event>
<event>
 5   0  0.9981885E-04  0.8985279E+03  0.7818609E-02  0.9427423E-01
        1   -1    0    0  501    0  0.00000000000E+00  0.00000000000E+00  0.18537154215E+03  0.18537154222E+03  0.50400001928E-02 0.  1.
       -1   -1    0    0    0  501  0.00000000000E+00  0.00000000000E+00 -0.10888300028E+04  0.10888300028E+04  0.50400001928E-02 0. -1.
    10030    2    1    2    0    0  0.00000000000E+00  0.00000000000E+00 -0.90345846060E+03  0.12742015450E+04  0.89852790007E+03 0.  0.
        4    1    3    3  502    0  0.19606680810E+03 -0.36630593905E+02 -0.10225955422E+04  0.10418671938E+04  0.12699999809E+01 0. -1.
       -4    1    3    3    0  502 -0.19606680810E+03  0.36630593905E+02  0.11913708158E+03  0.23233435122E+03  0.12699999809E+01 0.  1.
</event>
<event>
 5   0  0.9321543E-04  0.8932252E+03  0.7818609E-02  0.9434090E-01
       -1   -1    0    0    0  501  0.00000000000E+00  0.00000000000E+00  0.12644058949E+03  0.12644058959E+03  0.50400001928E-02 0. -1.
        1   -1    0    0  501    0  0.00000000000E+00  0.00000000000E+00 -0.15775221353E+04  0.15775221353E+04  0.50400001928E-02 0.  1.
    10030    2    1    2    0    0  0.00000000000E+00  0.00000000000E+00 -0.14510815458E+04  0.17039627249E+04  0.89322523209E+03 0.  0.
        3    1    3    3  502    0  0.10700642173E+03  0.31880443656E+03 -0.12861962807E+04  0.13294312791E+04  0.10100000352E+00 0.  1.
       -3    1    3    3    0  502 -0.10700642173E+03 -0.31880443656E+03 -0.16488526510E+03  0.37453144582E+03  0.10100000352E+00 0. -1.
</event>
<event>
 5   0  0.9697941E-04  0.8963197E+03  0.7818609E-02  0.9430194E-01
       -1   -1    0    0    0  501  0.00000000000E+00  0.00000000000E+00  0.18736943379E+03  0.18736943386E+03  0.50400001928E-02 0.  1.
        1   -1    0    0  501    0  0.00000000000E+00  0.00000000000E+00 -0.10719318146E+04  0.10719318146E+04  0.50400001928E-02 0. -1.
    10030    2    1    2    0    0  0.00000000000E+00  0.00000000000E+00 -0.88456238080E+03  0.12593012485E+04  0.89631971352E+03 0.  0.
        5    1    3    3  502    0  0.32692633358E+03 -0.27343473293E+01 -0.11670594689E+02  0.32717976255E+03  0.46999998093E+01 0. -1.
       -5    1    3    3    0  502 -0.32692633358E+03  0.27343473293E+01 -0.87289178611E+03  0.93212148591E+03  0.46999998093E+01 0.  1.
</event>
<event>
 5   0  0.1641516E-03  0.8985016E+03  0.7818609E-02  0.9427456E-01
       -2   -1    0    0    0  501  0.00000000000E+00  0.00000000000E+00  0.32280909487E+03  0.32280909488E+03  0.25500000920E-02 0.  1.
        2   -1    0    0  501    0  0.00000000000E+00  0.00000000000E+00 -0.62521872358E+03  0.62521872358E+03  0.25500000920E-02 0. -1.
    10030    2    1    2    0    0  0.00000000000E+00  0.00000000000E+00 -0.30240962871E+03  0.94802781846E+03  0.89850161994E+03 0.  0.
        1    1    3    3  502    0  0.28498169211E+03  0.22767739216E+03 -0.42790959683E+03  0.56227945261E+03  0.50400001928E-02 0. -1.
       -1    1    3    3    0  502 -0.28498169211E+03 -0.22767739216E+03  0.12549996812E+03  0.38574836586E+03  0.50400001928E-02 0.  1.
</event>
<event>
 5   0  0.1635686E-03  0.8998511E+03  0.7818609E-02  0.9425768E-01
       -2   -1    0    0    0  501  0.00000000000E+00  0.00000000000E+00  0.19317370290E+03  0.19317370292E+03  0.25500000920E-02 0. -1.
        2   -1    0    0  501    0  0.00000000000E+00  0.00000000000E+00 -0.10479325359E+04  0.10479325359E+04  0.25500000920E-02 0.  1.
    10030    2    1    2    0    0  0.00000000000E+00  0.00000000000E+00 -0.85475883300E+03  0.12411062388E+04  0.89985111738E+03 0.  0.
        5    1    3    3  502    0  0.89609824382E+02  0.31323440364E+03 -0.85530965027E+03  0.91527176298E+03  0.46999998093E+01 0.  1.
       -5    1    3    3    0  502 -0.89609824382E+02 -0.31323440364E+03  0.55081727603E+00  0.32583447584E+03  0.46999998093E+01 0. -1.
</event>
<event>
 5   0  0.9697941E-04  0.9003593E+03  0.7818609E-02  0.9425132E-01
       -1   -1    0    0    0  501  0.00000000000E+00  0.00000000000E+00  0.42362612617E+03  0.42362612620E+03  0.50400001928E-02 0.  1.
        1   -1    0    0  501    0  0.00000000000E+00  0.00000000000E+00 -0.47839759773E+03  0.47839759775E+03  0.50400001928E-02 0. -1.
    10030    2    1    2    0    0  0.00000000000E+00  0.00000000000E+00 -0.54771471561E+02  0.90202372395E+03  0.90035930854E+03 0.  0.
        5    1    3    3  502    0 -0.22442989025E+03  0.92733268254E+02 -0.40712653274E+03  0.47406997199E+03  0.46999998093E+01 0. -1.
       -5    1    3    3    0  502  0.22442989025E+03 -0.92733268254E+02  0.35235506118E+03  0.42795375196E+03  0.46999998093E+01 0.  1.
</event>
<event>
 5   0  0.9223454E-04  0.8988008E+03  0.7818609E-02  0.9427082E-01
        1   -1    0    0  501    0  0.00000000000E+00  0.00000000000E+00  0.13767434953E+04  0.13767434953E+04  0.50400001928E-02 0.  1.
       -1   -1    0    0    0  501  0.00000000000E+00  0.00000000000E+00 -0.14669452882E+03  0.14669452891E+03  0.50400001928E-02 0. -1.
    10030    2    1    2    0    0  0.00000000000E+00  0.00000000000E+00  0.12300489665E+04  0.15234380242E+04  0.89880084206E+03 0.  0.
        1    1    3    3  502    0  0.13614904749E+03 -0.28311882760E+03  0.11597077121E+04  0.12015052273E+04  0.50400001928E-02 0.  1.
       -1    1    3    3    0  502 -0.13614904749E+03  0.28311882760E+03  0.70341254444E+02  0.32193279699E+03  0.50400001928E-02 0. -1.
</event>
<event>
 5   0  0.1536020E-03  0.9035372E+03  0.7818609E-02  0.9421171E-01
        2   -1    0    0  501    0  0.00000000000E+00  0.00000000000E+00  0.30346328256E+03  0.30346328257E+03  0.25500000920E-02 0. -1.
       -2   -1    0    0    0  501  0.00000000000E+00  0.00000000000E+00 -0.67255202816E+03  0.67255202817E+03  0.25500000920E-02 0.  1.
    10030    2    1    2    0    0  0.00000000000E+00  0.00000000000E+00 -0.36908874560E+03  0.97601531073E+03  0.90353715178E+03 0.  0.
        2    1    3    3  502    0 -0.12275912586E+03  0.40261592181E+03 -0.72919405493E+01  0.42097809430E+03  0.25500000920E-02 0. -1.
       -2    1    3    3    0  502  0.12275912586E+03 -0.40261592181E+03 -0.36179680505E+03  0.55503721644E+03  0.25500000920E-02 0.  1.
</event>
<event>
 5   0  0.9223454E-04  0.8992933E+03  0.7818609E-02  0.9426465E-01
        1   -1    0    0  501    0  0.00000000000E+00  0.00000000000E+00  0.13012146687E+04  0.13012146688E+04  0.50400001928E-02 0.  1.
       -1   -1    0    0    0  501  0.00000000000E+00  0.00000000000E+00 -0.15537953446E+03  0.15537953454E+03  0.50400001928E-02 0. -1.
    10030    2    1    2    0    0  0.00000000000E+00  0.00000000000E+00  0.11458351343E+04  0.14565942033E+04  0.89929334375E+03 0.  0.
        1    1    3    3  502    0  0.22630920173E+02  0.34501743141E+03  0.10731666986E+03  0.36203046029E+03  0.50400001928E-02 0. -1.
       -1    1    3    3    0  502 -0.22630920173E+02 -0.34501743141E+03  0.10385184644E+04  0.10945637430E+04  0.50400001928E-02 0.  1.
</event>
<event>
 5   0  0.1630202E-03  0.8994436E+03  0.7818609E-02  0.9426277E-01
       -2   -1    0    0    0  501  0.00000000000E+00  0.00000000000E+00  0.15477408058E+03  0.15477408060E+03  0.25500000920E-02 0. -1.
        2   -1    0    0  501    0  0.00000000000E+00  0.00000000000E+00 -0.13067412576E+04  0.13067412576E+04  0.25500000920E-02 0.  1.
    10030    2    1    2    0    0  0.00000000000E+00  0.00000000000E+00 -0.11519671770E+04  0.14615153382E+04  0.89944355401E+03 0.  0.
        4    1    3    3  502    0 -0.69716919450E+02 -0.44115452110E+03 -0.49045857785E+03  0.66334680961E+03  0.12699999809E+01 0.  1.
       -4    1    3    3    0  502  0.69716919450E+02  0.44115452110E+03 -0.66150859915E+03  0.79816852857E+03  0.12699999809E+01 0. -1.
</event>
<event>
 5   0  0.1641516E-03  0.8999408E+03  0.7818609E-02  0.9425655E-01
        2   -1    0    0  501    0  0.00000000000E+00  0.00000000000E+00  0.16442895035E+04  0.16442895035E+04  0.25500000920E-02 0. -1.
       -2   -1    0    0    0  501  0.00000000000E+00  0.00000000000E+00 -0.12313729153E+03  0.12313729156E+03  0.25500000920E-02 0.  1.
    10030    2    1    2    0    0  0.00000000000E+00  0.00000000000E+00  0.15211522120E+04  0.17674267951E+04  0.89994078912E+03 0.  0.
        1    1    3    3  502    0 -0.33607974877E+03 -0.22747729186E+03  0.11422971128E+04  0.12122451112E+04  0.50400001928E-02 0. -1.
       -1    1    3    3    0  502  0.33607974877E+03  0.22747729186E+03  0.37885509922E+03  0.55518168384E+03  0.50400001928E-02 0.  1.
</event>
<event>
 5   0  0.6375625E-04  0.9035940E+03  0.7818609E-02  0.9421100E-01
       -4   -1    0    0    0  501  0.00000000000E+00  0.00000000000E+00  0.24903437276E+03  0.24903761104E+03  0.12699999809E+01 0.  1.
        4   -1    0    0  501    0  0.00000000000E+00  0.00000000000E+00 -0.81963888367E+03  0.81963986758E+03  0.12699999809E+01 0. -1.
    10030    2    1    2    0    0  0.00000000000E+00  0.00000000000E+00 -0.57060451092E+03  0.10686774786E+04  0.90359396049E+03 0.  0.
        4    1    3    3  502    0  0.16327408455E+03 -0.80782206596E+02 -0.77427929117E+03  0.79542078501E+03  0.12699999809E+01 0. -1.
       -4    1    3    3    0  502 -0.16327408455E+03  0.80782206596E+02  0.20367478026E+03  0.27325669361E+03  0.12699999809E+01 0.  1.
</event>
<event>
 5   0  0.9223454E-04  0.9143148E+03  0.7818609E-02  0.9407862E-01
       -1   -1    0    0    0  501  0.00000000000E+00  0.00000000000E+00  0.10815643964E+03  0.10815643975E+03  0.50400001928E-02 0.  1.
        1   -1    0    0  501    0  0.00000000000E+00  0.00000000000E+00 -0.19323201870E+04  0.19323201870E+04  0.50400001928E-02 0. -1.
    10030    2    1    2    0    0  0.00000000000E+00  0.00000000000E+00 -0.18241637474E+04  0.20404766268E+04  0.91431476372E+03 0.  0.
        1    1    3    3  502    0  0.18468322563E+02  0.35954553943E+03 -0.28331717497E+03  0.45812956194E+03  0.50400001928E-02 0.  1.
       -1    1    3    3    0  502 -0.18468322563E+02 -0.35954553943E+03 -0.15408465724E+04  0.15823470648E+04  0.50400001928E-02 0. -1.
</event>
<event>
 5   0  0.9697941E-04  0.9003377E+03  0.7818609E-02  0.9425159E-01
       -1   -1    0    0    0  501  0.00000000000E+00  0.00000000000E+00  0.13664398433E+03  0.13664398442E+03  0.50400001928E-02 0. -1.
        1   -1    0    0  501    0  0.00000000000E+00  0.00000000000E+00 -0.14830656594E+04  0.14830656594E+04  0.50400001928E-02 0.  1.
    10030    2    1    2    0    0  0.00000000000E+00  0.00000000000E+00 -0.13464216750E+04  0.16197096438E+04  0.90033771619E+03 0.  0.
        5    1    3    3  502    0  0.16133586620E+03 -0.22580615831E+03 -0.13108099204E+04  0.13398740315E+04  0.46999998093E+01 0.  1.
       -5    1    3    3    0  502 -0.16133586620E+03  0.22580615831E+03 -0.35611754653E+02  0.27983561232E+03  0.46999998093E+01 0. -1.
</event>
<event>
 5   0  0.1630202E-03  0.9073972E+03  0.7818609E-02  0.9416381E-01
        2   -1    0    0  501    0  0.00000000000E+00  0.00000000000E+00  0.80350666900E+03  0.80350666901E+03  0.25500000920E-02 0.  1.
       -2   -1    0    0    0  501  0.00000000000E+00  0.00000000000E+00 -0.25618011953E+03  0.25618011954E+03  0.25500000920E-02 0. -1.
    10030    2    1    2    0    0  0.00000000000E+00  0.00000000000E+00  0.54732654947E+03  0.10596867885E+04  0.90739723279E+03 0.  0.
        4    1    3    3  502    0  0.10386241986E+03  0.14334158397E+03 -0.21418638893E+03  0.27786981495E+03  0.12699999809E+01 0. -1.
       -4    1    3    3    0  502 -0.10386241986E+03 -0.14334158397E+03  0.76151293840E+03  0.78181697360E+03  0.12699999809E+01 0.  1.
</event>
<event>
 5   0  0.9981885E-04  0.9005498E+03  0.7818609E-02  0.9424894E-01
       -1   -1    0    0    0  501  0.00000000000E+00  0.00000000000E+00  0.15863647683E+03  0.15863647691E+03  0.50400001928E-02 0.  1.
        1   -1    0    0  501    0  0.00000000000E+00  0.00000000000E+00 -0.12780635428E+04  0.12780635429E+04  0.50400001928E-02 0. -1.
    10030    2    1    2    0    0  0.00000000000E+00  0.00000000000E+00 -0.11194270660E+04  0.14367000198E+04  0.90054982686E+03 0.  0.
        4    1    3    3  502    0 -0.78525410601E+02  0.58369077108E+02  0.14146921260E+03  0.17201261665E+03  0.12699999809E+01 0.  1.
       -4    1    3    3    0  502  0.78525410601E+02 -0.58369077108E+02 -0.12608962786E+04  0.12646874031E+04  0.12699999809E+01 0. -1.
</event>
<event>
 5   0  0.1630202E-03  0.9000508E+03  0.7818609E-02  0.9425518E-01
        2   -1    0    0  501    0  0.00000000000E+00  0.00000000000E+00  0.15855175241E+04  0.15855175241E+04  0.25500000920E-02 0.  1.
       -2   -1    0    0    0  501  0.00000000000E+00  0.00000000000E+00 -0.12773296519E+03  0.12773296522E+03  0.25500000920E-02 0. -1.
    10030    2    1    2    0    0  0.00000000000E+00  0.00000000000E+00  0.14577845589E+04  0.17132504893E+04  0.90005078687E+03 0.  0.
        4    1    3    3  502    0  0.17713286403E+03  0.33628066566E+03  0.11875558527E+04  0.12468966492E+04  0.12699999809E+01 0.  1.
       -4    1    3    3    0  502 -0.17713286403E+03 -0.33628066566E+03  0.27022870617E+03  0.46635384008E+03  0.12699999809E+01 0. -1.
</event>
<event>
 5   0  0.1007561E-03  0.8973393E+03  0.7818609E-02  0.9428914E-01
       -1   -1    0    0    0  501  0.00000000000E+00  0.00000000000E+00  0.37054072720E+03  0.37054072723E+03  0.50400001928E-02 0.  1.
        1   -1    0    0  501    0  0.00000000000E+00  0.00000000000E+00 -0.54327211126E+03  0.54327211129E+03  0.50400001928E-02 0. -1.
    10030    2    1    2    0    0  0.00000000000E+00  0.00000000000E+00 -0.17273138406E+03  0.91381283852E+03  0.89733927407E+03 0.  0.
        2    1    3    3  502    0  0.72436219785E+02 -0.84397750934E+02 -0.52901130474E+03  0.54057649491E+03  0.25500000920E-02 0. -1.
       -2    1    3    3    0  502 -0.72436219785E+02  0.84397750934E+02  0.35627992068E+03  0.37323634360E+03  0.25500000920E-02 0.  1.
</event>
<event>
 5   0  0.1641516E-03  0.8979802E+03  0.7818609E-02  0.9428110E-01
        2   -1    0    0  501    0  0.00000000000E+00  0.00000000000E+00  0.47935333909E+03  0.47935333909E+03  0.25500000920E-02 0.  1.
       -2   -1    0    0    0  501  0.00000000000E+00  0.00000000000E+00 -0.42055012622E+03  0.42055012623E+03  0.25500000920E-02 0. -1.
    10030    2    1    2    0    0  0.00000000000E+00  0.00000000000E+00  0.58803212867E+02  0.89990346532E+03  0.89798019413E+03 0.  0.
        1    1    3    3  502    0  0.11025132665E+03 -0.20561794736E+03  0.41383501493E+03  0.47507211548E+03  0.50400001928E-02 0.  1.
       -1    1    3    3    0  502 -0.11025132665E+03  0.20561794736E+03 -0.35503180206E+03  0.42483134984E+03  0.50400001928E-02 0. -1.
</event>
<event>
 5   0  0.9223454E-04  0.8889480E+03  0.7818609E-02  0.9439503E-01
        1   -1    0    0  501    0  0.00000000000E+00  0.00000000000E+00  0.86103398112E+03  0.86103398114E+03  0.50400001928E-02 0. -1.
       -1   -1    0    0    0  501  0.00000000000E+00  0.00000000000E+00 -0.22944174956E+03  0.22944174961E+03  0.50400001928E-02 0.  1.
    10030    2    1    2    0    0  0.00000000000E+00  0.00000000000E+00  0.63159223157E+03  0.10904757307E+04  0.88894801444E+03 0.  0.
        1    1    3    3  502    0 -0.65034889814E+02  0.36869261841E+03  0.21915823624E+02  0.37502544862E+03  0.50400001928E-02 0.  1.
       -1    1    3    3    0  502  0.65034889814E+02 -0.36869261841E+03  0.60967640794E+03  0.71545028212E+03  0.50400001928E-02 0. -1.
</event>
<event>
 5   0  0.9223454E-04  0.9008828E+03  0.7818609E-02  0.9424479E-01
       -1   -1    0    0    0  501  0.00000000000E+00  0.00000000000E+00  0.23047900520E+03  0.23047900525E+03  0.50400001928E-02 0.  1.
        1   -1    0    0  501    0  0.00000000000E+00  0.00000000000E+00 -0.88032938257E+03  0.88032938258E+03  0.50400001928E-02 0. -1.
    10030    2    1    2    0    0  0.00000000000E+00  0.00000000000E+00 -0.64985037737E+03  0.11108083878E+04  0.90088276791E+03 0.  0.
        1    1    3    3  502    0  0.75592670682E+02 -0.31161489347E+03  0.65145306318E+02  0.32720330783E+03  0.50400001928E-02 0.  1.
       -1    1    3    3    0  502 -0.75592670682E+02  0.31161489347E+03 -0.71499568369E+03  0.78360508001E+03  0.50400001928E-02 0. -1.
</event>
<event>
 5   0  0.9321543E-04  0.9021930E+03  0.7818609E-02  0.9422844E-01
       -1   -1    0    0    0  501  0.00000000000E+00  0.00000000000E+00  0.38339592278E+03  0.38339592281E+03  0.50400001928E-02 0. -1.
        1   -1    0    0  501    0  0.00000000000E+00  0.00000000000E+00 -0.53075177611E+03  0.53075177613E+03  0.50400001928E-02 0.  1.
    10030    2    1    2    0    0  0.00000000000E+00  0.00000000000E+00 -0.14735585333E+03  0.91414769894E+03  0.90219303254E+03 0.  0.
        3    1    3    3  502    0  0.29306105659E+03 -0.30583796177E+03 -0.23086709011E+03  0.48241192486E+03  0.10100000352E+00 0.  1.
       -3    1    3    3    0  502 -0.29306105659E+03  0.30583796177E+03  0.83511236783E+02  0.43173577408E+03  0.10100000352E+00 0. -1.
</event>
<event>
 5   0  0.1704416E-03  0.8993710E+03  0.7818609E-02  0.9426368E-01
       -2   -1    0    0    0  501  0.00000000000E+00  0.00000000000E+00  0.53681335088E+03  0.53681335088E+03  0.25500000920E-02 0.  1.
        2   -1    0    0  501    0  0.00000000000E+00  0.00000000000E+00 -0.37669898818E+03  0.37669898819E+03  0.25500000920E-02 0. -1.
    10030    2    1    2    0    0  0.00000000000E+00  0.00000000000E+00  0.16011436269E+03  0.91351233907E+03  0.89937099381E+03 0.  0.
        3    1    3    3  502    0  0.19307781384E+03  0.29435911393E+03 -0.20414711911E+03  0.40694273134E+03  0.10100000352E+00 0. -1.
       -3    1    3    3    0  502 -0.19307781384E+03 -0.29435911393E+03  0.36426148181E+03  0.50656960773E+03  0.10100000352E+00 0.  1.
</event>
<event>
 5   0  0.1536020E-03  0.9000253E+03  0.7818609E-02  0.9425550E-01
       -2   -1    0    0    0  501  0.00000000000E+00  0.00000000000E+00  0.11678092277E+03  0.11678092280E+03  0.25500000920E-02 0.  1.
        2   -1    0    0  501    0  0.00000000000E+00  0.00000000000E+00 -0.17341134090E+04  0.17341134090E+04  0.25500000920E-02 0. -1.
    10030    2    1    2    0    0  0.00000000000E+00  0.00000000000E+00 -0.16173324862E+04  0.18508943318E+04  0.90002525323E+03 0.  0.
        2    1    3    3  502    0 -0.10183424518E+03 -0.16654158714E+02 -0.17094560006E+04  0.17125674855E+04  0.25500000920E-02 0. -1.
       -2    1    3    3    0  502  0.10183424518E+03  0.16654158714E+02  0.92123514369E+02  0.13832684627E+03  0.25500000920E-02 0.  1.
</event>
<event>
 5   0  0.9981885E-04  0.9022371E+03  0.7818609E-02  0.9422789E-01
       -1   -1    0    0    0  501  0.00000000000E+00  0.00000000000E+00  0.79075316132E+03  0.79075316133E+03  0.50400001928E-02 0.  1.
        1   -1    0    0  501    0  0.00000000000E+00  0.00000000000E+00 -0.25735965811E+03  0.25735965816E+03  0.50400001928E-02 0. -1.
    10030    2    1    2    0    0  0.00000000000E+00  0.00000000000E+00  0.53339350320E+03  0.10481128195E+04  0.90223713797E+03 0.  0.
        4    1    3    3  502    0  0.11316389876E+02  0.43832240430E+03  0.38992139086E+03  0.58676647377E+03  0.12699999809E+01 0. -1.
       -4    1    3    3    0  502 -0.11316389876E+02 -0.43832240430E+03  0.14347211234E+03  0.46134634572E+03  0.12699999809E+01 0.  1.
</event>
<event>
 5   0  0.1630202E-03  0.9011030E+03  0.7818609E-02  0.9424204E-01
        2   -1    0    0  501    0  0.00000000000E+00  0.00000000000E+00  0.11252453900E+04  0.11252453900E+04  0.25500000920E-02 0.  1.
       -2   -1    0    0    0  501  0.00000000000E+00  0.00000000000E+00 -0.18040213849E+03  0.18040213851E+03  0.25500000920E-02 0. -1.
    10030    2    1    2    0    0  0.00000000000E+00  0.00000000000E+00  0.94484325156E+03  0.13056475286E+04  0.90110304561E+03 0.  0.
        4    1    3    3  502    0  0.18969460256E+03 -0.40581575340E+03  0.54228105555E+03  0.70337815153E+03  0.12699999809E+01 0.  1.
       -4    1    3    3    0  502 -0.18969460256E+03  0.40581575340E+03  0.40256219601E+03  0.60226937702E+03  0.12699999809E+01 0. -1.
</event>
<event>
 5   0  0.1635686E-03  0.9183409E+03  0.7818609E-02  0.9402940E-01
        2   -1    0    0  501    0  0.00000000000E+00  0.00000000000E+00  0.94713148741E+03  0.94713148742E+03  0.25500000920E-02 0. -1.
       -2   -1    0    0    0  501  0.00000000000E+00  0.00000000000E+00 -0.22260636077E+03  0.22260636078E+03  0.25500000920E-02 0.  1.
    10030    2    1    2    0    0  0.00000000000E+00  0.00000000000E+00  0.72452512664E+03  0.11697378482E+04  0.91834088136E+03 0.  0.
        5    1    3    3  502    0 -0.16101487926E+03 -0.41592318465E+02 -0.18286679970E+03  0.24722068831E+03  0.46999998093E+01 0.  1.
       -5    1    3    3    0  502  0.16101487926E+03  0.41592318465E+02  0.90739192634E+03  0.92251715989E+03  0.46999998093E+01 0. -1.
</event>
<event>
 5   0  0.9981885E-04  0.8999093E+03  0.7818609E-02  0.9425695E-01
       -1   -1    0    0    0  501  0.00000000000E+00  0.00000000000E+00  0.18583287853E+03  0.18583287860E+03  0.50400001928E-02 0. -1.
        1   -1    0    0  501    0  0.00000000000E+00  0.00000000000E+00 -0.10894690590E+04  0.10894690590E+04  0.50400001928E-02 0.  1.
    10030    2    1    2    0    0  0.00000000000E+00  0.00000000000E+00 -0.90363618045E+03  0.12753019376E+04  0.89990926510E+03 0.  0.
        4    1    3    3  502    0  0.24673865457E+03  0.34535536368E+03 -0.66347745319E+03  0.78762569452E+03  0.12699999809E+01 0.  1.
       -4    1    3    3    0  502 -0.24673865457E+03 -0.34535536368E+03 -0.24015872726E+03  0.48767624308E+03  0.12699999809E+01 0. -1.
</event>
<event>
 5   0  0.1641516E-03  0.9002263E+03  0.7818609E-02  0.9425299E-01
       -2   -1    0    0    0  501  0.00000000000E+00  0.00000000000E+00  0.35159166763E+03  0.35159166764E+03  0.25500000920E-02 0. -1.
        2   -1    0    0  501    0  0.00000000000E+00  0.00000000000E+00 -0.57624185626E+03  0.57624185627E+03  0.25500000920E-02 0.  1.
    10030    2    1    2    0    0  0.00000000000E+00  0.00000000000E+00 -0.22465018863E+03  0.92783352390E+03  0.90022627202E+03 0.  0.
        1    1    3    3  502    0 -0.44626772384E+03  0.69059477538E+01 -0.52233921685E+02  0.44936728414E+03  0.50400001928E-02 0.  1.
       -1    1    3    3    0  502  0.44626772384E+03 -0.69059477538E+01 -0.17241626694E+03  0.47846623976E+03  0.50400001928E-02 0. -1.
</event>
<event>
 5   0  0.9223454E-04  0.8972129E+03  0.7818609E-02  0.9429072E-01
       -1   -1    0    0    0  501  0.00000000000E+00  0.00000000000E+00  0.20710450928E+03  0.20710450934E+03  0.50400001928E-02 0.  1.
        1   -1    0    0  501    0  0.00000000000E+00  0.00000000000E+00 -0.97172080047E+03  0.97172080048E+03  0.50400001928E-02 0. -1.
    10030    2    1    2    0    0  0.00000000000E+00  0.00000000000E+00 -0.76461629119E+03  0.11788253098E+04  0.89721292810E+03 0.  0.
        1    1    3    3  502    0 -0.31728808492E+03  0.24895475996E+03 -0.12418090162E+03  0.42198471263E+03  0.50400001928E-02 0.  1.
       -1    1    3    3    0  502  0.31728808492E+03 -0.24895475996E+03 -0.64043538957E+03  0.75684059720E+03  0.50400001928E-02 0. -1.
</event>
<event>
 5   0  0.1641516E-03  0.9000122E+03  0.7818609E-02  0.9425566E-01
        2   -1    0    0  501    0  0.00000000000E+00  0.00000000000E+00  0.73883123579E+03  0.73883123579E+03  0.25500000920E-02 0.  1.
       -2   -1    0    0    0  501  0.00000000000E+00  0.00000000000E+00 -0.27408896442E+03  0.27408896443E+03  0.25500000920E-02 0. -1.
    10030    2    1    2    0    0  0.00000000000E+00  0.00000000000E+00  0.46474227137E+03  0.10129202002E+04  0.90001219615E+03 0.  0.
        1    1    3    3  502    0  0.43930697227E+03 -0.79961003467E+02  0.16949564355E+03  0.47761192528E+03  0.50400001928E-02 0.  1.
       -1    1    3    3    0  502 -0.43930697227E+03  0.79961003467E+02  0.29524662782E+03  0.53530827494E+03  0.50400001928E-02 0. -1.
</event>
<event>
 5   0  0.9981885E-04  0.8902508E+03  0.7818609E-02  0.9437851E-01
       -1   -1    0    0    0  501  0.00000000000E+00  0.00000000000E+00  0.17940944633E+03  0.17940944640E+03  0.50400001928E-02 0.  1.
        1   -1    0    0  501    0  0.00000000000E+00  0.00000000000E+00 -0.11043824440E+04  0.11043824441E+04  0.50400001928E-02 0. -1.
    10030    2    1    2    0    0  0.00000000000E+00  0.00000000000E+00 -0.92497299771E+03  0.12837918905E+04  0.89025084752E+03 0.  0.
        4    1    3    3  502    0  0.41120209781E+03  0.16093832489E+03 -0.38159343137E+03  0.58361243083E+03  0.12699999809E+01 0.  1.
       -4    1    3    3    0  502 -0.41120209781E+03 -0.16093832489E+03 -0.54337956634E+03  0.70017945962E+03  0.12699999809E+01 0. -1.
</event>
<event>
 5   0  0.1536020E-03  0.8932599E+03  0.7818609E-02  0.9434046E-01
        2   -1    0    0  501    0  0.00000000000E+00  0.00000000000E+00  0.90632460636E+03  0.90632460636E+03  0.25500000920E-02 0. -1.
       -2   -1    0    0    0  501  0.00000000000E+00  0.00000000000E+00 -0.22009587266E+03  0.22009587268E+03  0.25500000920E-02 0.  1.
    10030    2    1    2    0    0  0.00000000000E+00  0.00000000000E+00  0.68622873370E+03  0.11264204790E+04  0.89325988416E+03 0.  0.
        2    1    3    3  502    0  0.10755015075E+03  0.45718155737E+02 -0.20047411314E+03  0.23204968161E+03  0.25500000920E-02 0.  1.
       -2    1    3    3    0  502 -0.10755015075E+03 -0.45718155737E+02  0.88670284684E+03  0.89437079743E+03  0.25500000920E-02 0. -1.
</event>
<event>
 5   0  0.1536020E-03  0.8996486E+03  0.7818609E-02  0.9426021E-01
        2   -1    0    0  501    0  0.00000000000E+00  0.00000000000E+00  0.13021357749E+04  0.13021357749E+04  0.25500000920E-02 0. -1.
       -2   -1    0    0    0  501  0.00000000000E+00  0.00000000000E+00 -0.15539231148E+03  0.15539231150E+03  0.25500000920E-02 0.  1.
    10030    2    1    2    0    0  0.00000000000E+00  0.00000000000E+00  0.11467434634E+04  0.14575280864E+04  0.89964857125E+03 0.  0.
        2    1    3    3  502    0  0.23989346781E+03 -0.36696023429E+03  0.73645796889E+03  0.85707585977E+03  0.25500000920E-02 0. -1.
       -2    1    3    3    0  502 -0.23989346781E+03  0.36696023429E+03  0.41028549453E+03  0.60045222664E+03  0.25500000920E-02 0.  1.
</event>
<event>
 5   0  0.9981885E-04  0.9036800E+03  0.7818609E-02  0.9420993E-01
        1   -1    0    0  501    0  0.00000000000E+00  0.00000000000E+00  0.41007351766E+03  0.41007351769E+03  0.50400001928E-02 0. -1.
       -1   -1    0    0    0  501  0.00000000000E+00  0.00000000000E+00 -0.49786049468E+03  0.49786049470E+03  0.50400001928E-02 0.  1.
    10030    2    1    2    0    0  0.00000000000E+00  0.00000000000E+00 -0.87786977019E+02  0.90793401239E+03  0.90368004156E+03 0.  0.
        4    1    3    3  502    0 -0.42111343323E+03 -0.68994265552E+02  0.10533535543E+03  0.43953826037E+03  0.12699999809E+01 0. -1.
       -4    1    3    3    0  502  0.42111343323E+03  0.68994265552E+02 -0.19312233245E+03  0.46839575202E+03  0.12699999809E+01 0.  1.
</event>
<event>
 5   0  0.9697941E-04  0.8904287E+03  0.7818609E-02  0.9437626E-01
       -1   -1    0    0    0  501  0.00000000000E+00  0.00000000000E+00  0.34210914087E+03  0.34210914091E+03  0.50400001928E-02 0. -1.
        1   -1    0    0  501    0  0.00000000000E+00  0.00000000000E+00 -0.57939347626E+03  0.57939347628E+03  0.50400001928E-02 0.  1.
    10030    2    1    2    0    0  0.00000000000E+00  0.00000000000E+00 -0.23728433539E+03  0.92150261719E+03  0.89042867073E+03 0.  0.
        5    1    3    3  502    0  0.74043466620E+02  0.43896641588E+03 -0.11404121205E+03  0.45956657544E+03  0.46999998093E+01 0.  1.
       -5    1    3    3    0  502 -0.74043466620E+02 -0.43896641588E+03 -0.12324312333E+03  0.46193604175E+03  0.46999998093E+01 0. -1.
</event>
<event>
 5   0  0.6375625E-04  0.8980999E+03  0.7818609E-02  0.9427960E-01
       -4   -1    0    0    0  501  0.00000000000E+00  0.00000000000E+00  0.46010292391E+03  0.46010467666E+03  0.12699999809E+01 0.  1.
        4   -1    0    0  501    0  0.00000000000E+00  0.00000000000E+00 -0.43825901942E+03  0.43826085954E+03  0.12699999809E+01 0. -1.
    10030    2    1    2    0    0  0.00000000000E+00  0.00000000000E+00  0.21843904484E+02  0.89836553620E+03  0.89809992789E+03 0.  0.
        5    1    3    3  502    0  0.21604745424E+03 -0.81191342143E+02  0.39620497436E+03  0.45855098760E+03  0.46999998093E+01 0.  1.
       -5    1    3    3    0  502 -0.21604745424E+03  0.81191342143E+02 -0.37436106988E+03  0.43981454860E+03  0.46999998093E+01 0. -1.
</event>
<event>
 5   0  0.1704416E-03  0.9013535E+03  0.7818609E-02  0.9423891E-01
       -2   -1    0    0    0  501  0.00000000000E+00  0.00000000000E+00  0.78150184860E+02  0.78150184902E+02  0.25500000920E-02 0. -1.
        2   -1    0    0  501    0  0.00000000000E+00  0.00000000000E+00 -0.25989644003E+04  0.25989644003E+04  0.25500000920E-02 0.  1.
    10030    2    1    2    0    0  0.00000000000E+00  0.00000000000E+00 -0.25208142155E+04  0.26771145852E+04  0.90135353416E+03 0.  0.
        3    1    3    3  502    0 -0.83842599238E+02  0.34878590899E+03 -0.20706980410E+04  0.21015402873E+04  0.10100000352E+00 0.  1.
       -3    1    3    3    0  502  0.83842599238E+02 -0.34878590899E+03 -0.45011617441E+03  0.57557429792E+03  0.10100000352E+00 0. -1.
</event>
<event>
 5   0  0.1007561E-03  0.9011806E+03  0.7818609E-02  0.9424107E-01
       -1   -1    0    0    0  501  0.00000000000E+00  0.00000000000E+00  0.20282378368E+03  0.20282378374E+03  0.50400001928E-02 0. -1.
        1   -1    0    0  501    0  0.00000000000E+00  0.00000000000E+00 -0.10010246046E+04  0.10010246046E+04  0.50400001928E-02 0.  1.
    10030    2    1    2    0    0  0.00000000000E+00  0.00000000000E+00 -0.79820082094E+03  0.12038483884E+04  0.90118055441E+03 0.  0.
        2    1    3    3  502    0  0.21444440989E+03 -0.35871680071E+03 -0.62409399337E+03  0.75110416096E+03  0.25500000920E-02 0.  1.
       -2    1    3    3    0  502 -0.21444440989E+03  0.35871680071E+03 -0.17410682757E+03  0.45274422741E+03  0.25500000920E-02 0. -1.
</event>
<event>
 5   0  0.9223454E-04  0.8976009E+03  0.7818609E-02  0.9428585E-01
        1   -1    0    0  501    0  0.00000000000E+00  0.00000000000E+00  0.85422797801E+03  0.85422797803E+03  0.50400001928E-02 0.  1.
       -1   -1    0    0    0  501  0.00000000000E+00  0.00000000000E+00 -0.23579403840E+03  0.23579403846E+03  0.50400001928E-02 0. -1.
    10030    2    1    2    0    0  0.00000000000E+00  0.00000000000E+00  0.61843393961E+03  0.10900220165E+04  0.89760094628E+03 0.  0.
        1    1    3    3  502    0 -0.42634740093E+01 -0.44738136231E+03  0.26622056217E+03  0.52061660394E+03  0.50400001928E-02 0.  1.
       -1    1    3    3    0  502  0.42634740093E+01  0.44738136231E+03  0.35221337744E+03  0.56940541254E+03  0.50400001928E-02 0. -1.
</event>
<event>
 5   0  0.1641516E-03  0.9025970E+03  0.7818609E-02  0.9422341E-01
       -2   -1    0    0    0  501  0.00000000000E+00  0.00000000000E+00  0.30396622021E+03  0.30396622022E+03  0.25500000920E-02 0.  1.
        2   -1    0    0  501    0  0.00000000000E+00  0.00000000000E+00 -0.67004270064E+03  0.67004270065E+03  0.25500000920E-02 0. -1.
    10030    2    1    2    0    0  0.00000000000E+00  0.00000000000E+00 -0.36607648043E+03  0.97400892086E+03  0.90259702436E+03 0.  0.
        1    1    3    3  502    0  0.11985334268E+03 -0.74696055451E+02  0.27950716781E+03  0.31315903521E+03  0.50400001928E-02 0.  1.
       -1    1    3    3    0  502 -0.11985334268E+03  0.74696055451E+02 -0.64558364825E+03  0.66084988565E+03  0.50400001928E-02 0. -1.
</event>
<event>
 5   0  0.9697941E-04  0.9001663E+03  0.7818609E-02  0.9425374E-01
        1   -1    0    0  501    0  0.00000000000E+00  0.00000000000E+00  0.35068349623E+03  0.35068349627E+03  0.50400001928E-02 0.  1.
       -1   -1    0    0    0  501  0.00000000000E+00  0.00000000000E+00 -0.57765712869E+03  0.57765712871E+03  0.50400001928E-02 0. -1.
    10030    2    1    2    0    0  0.00000000000E+00  0.00000000000E+00 -0.22697363246E+03  0.92834062498E+03  0.90016625473E+03 0.  0.
        5    1    3    3  502    0 -0.34922867221E+03 -0.27213864683E+03 -0.19684119592E+03  0.48454995099E+03  0.46999998093E+01 0. -1.
       -5    1    3    3    0  502  0.34922867221E+03  0.27213864683E+03 -0.30132436544E+02  0.44379067399E+03  0.46999998093E+01 0.  1.
</event>
<event>
 5   0  0.9697941E-04  0.9006514E+03  0.7818609E-02  0.9424768E-01
       -1   -1    0    0    0  501  0.00000000000E+00  0.00000000000E+00  0.10078752324E+03  0.10078752337E+03  0.50400001928E-02 0.  1.
        1   -1    0    0  501    0  0.00000000000E+00  0.00000000000E+00 -0.20120865088E+04  0.20120865089E+04  0.50400001928E-02 0. -1.
    10030    2    1    2    0    0  0.00000000000E+00  0.00000000000E+00 -0.19112989856E+04  0.21128740322E+04  0.90065135522E+03 0.  0.
        5    1    3    3  502    0  0.41987793889E+03  0.77801922670E+02 -0.12908850824E+04  0.13596900414E+04  0.46999998093E+01 0. -1.
       -5    1    3    3    0  502 -0.41987793889E+03 -0.77801922670E+02 -0.62041390321E+03  0.75318399082E+03  0.46999998093E+01 0.  1.
</event>
<event>
 5   0  0.1536020E-03  0.8997363E+03  0.7818609E-02  0.9425911E-01
        2   -1    0    0  501    0  0.00000000000E+00  0.00000000000E+00  0.10918808807E+04  0.10918808807E+04  0.25500000920E-02 0. -1.
       -2   -1    0    0    0  501  0.00000000000E+00  0.00000000000E+00 -0.18535111188E+03  0.18535111190E+03  0.25500000920E-02 0.  1.
    10030    2    1    2    0    0  0.00000000000E+00  0.00000000000E+00  0.90652976878E+03  0.12772319926E+04  0.89973626198E+03 0.  0.
        2    1    3    3  502    0  0.14851535037E+03  0.34485175197E+03  0.80502378753E+03  0.88828083319E+03  0.25500000920E-02 0. -1.
       -2    1    3    3    0  502 -0.14851535037E+03 -0.34485175197E+03  0.10150598125E+03  0.38895115936E+03  0.25500000920E-02 0.  1.
</event>
<event>
 5   0  0.1536020E-03  0.9005937E+03  0.7818609E-02  0.9424840E-01
       -2   -1    0    0    0  501  0.00000000000E+00  0.00000000000E+00  0.40088317973E+03  0.40088317974E+03  0.25500000920E-02 0.  1.
        2   -1    0    0  501    0  0.00000000000E+00  0.00000000000E+00 -0.50580131118E+03  0.50580131119E+03  0.25500000920E-02 0. -1.
    10030    2    1    2    0    0  0.00000000000E+00  0.00000000000E+00 -0.10491813146E+03  0.90668449093E+03  0.90059366630E+03 0.  0.
        2    1    3    3  502    0  0.13488749027E+03 -0.28465077894E+03 -0.37642182413E+03  0.49083000180E+03  0.25500000920E-02 0. -1.
       -2    1    3    3    0  502 -0.13488749027E+03  0.28465077894E+03  0.27150369267E+03  0.41585448912E+03  0.25500000920E-02 0.  1.
</event>
<event>
 5   0  0.9321543E-04  0.8995837E+03  0.7818609E-02  0.9426102E-01
        1   -1    0    0  501    0  0.00000000000E+00  0.00000000000E+00  0.10971645070E+04  0.10971645070E+04  0.50400001928E-02 0. -1.
       -1   -1    0    0    0  501  0.00000000000E+00  0.00000000000E+00 -0.18439594914E+03  0.18439594921E+03  0.50400001928E-02 0.  1.
    10030    2    1    2    0    0  0.00000000000E+00  0.00000000000E+00  0.91276855785E+03  0.12815604562E+04  0.89958366078E+03 0.  0.
        3    1    3    3  502    0  0.17355253520E+03  0.88926210617E+02 -0.12104075198E+03  0.22951955745E+03  0.10100000352E+00 0.  1.
       -3    1    3    3    0  502 -0.17355253520E+03 -0.88926210617E+02  0.10338093098E+04  0.10520408988E+04  0.10100000352E+00 0. -1.
</event>
<event>
 5   0  0.1635686E-03  0.9000452E+03  0.7818609E-02  0.9425525E-01
       -2   -1    0    0    0  501  0.00000000000E+00  0.00000000000E+00  0.49457126056E+03  0.49457126057E+03  0.25500000920E-02 0. -1.
        2   -1    0    0  501    0  0.00000000000E+00  0.00000000000E+00 -0.40948667546E+03  0.40948667547E+03  0.25500000920E-02 0.  1.
    10030    2    1    2    0    0  0.00000000000E+00  0.00000000000E+00  0.85084585097E+02  0.90405793604E+03  0.90004520170E+03 0.  0.
        5    1    3    3  502    0  0.10462790990E+03 -0.36878397728E+03 -0.19419818898E+03  0.42974835431E+03  0.46999998093E+01 0.  1.
       -5    1    3    3    0  502 -0.10462790990E+03  0.36878397728E+03  0.27928277408E+03  0.47430958173E+03  0.46999998093E+01 0. -1.
</event>
<event>
 5   0  0.9981885E-04  0.8963793E+03  0.7818609E-02  0.9430119E-01
       -1   -1    0    0    0  501  0.00000000000E+00  0.00000000000E+00  0.25655321165E+03  0.25655321170E+03  0.50400001928E-02 0. -1.
        1   -1    0    0  501    0  0.00000000000E+00  0.00000000000E+00 -0.78297190736E+03  0.78297190738E+03  0.50400001928E-02 0.  1.
    10030    2    1    2    0    0  0.00000000000E+00  0.00000000000E+00 -0.52641869571E+03  0.10395251191E+04  0.89637928914E+03 0.  0.
        4    1    3    3  502    0  0.30697000480E+03 -0.16518302878E+02  0.11501590477E+03  0.32822813625E+03  0.12699999809E+01 0. -1.
       -4    1    3    3    0  502 -0.30697000480E+03  0.16518302878E+02 -0.64143460049E+03  0.71129698283E+03  0.12699999809E+01 0.  1.
</event>
<event>
 5   0  0.1536020E-03  0.9024892E+03  0.7818609E-02  0.9422475E-01
       -2   -1    0    0    0  501  0.00000000000E+00  0.00000000000E+00  0.23991200030E+03  0.23991200031E+03  0.25500000920E-02 0.  1.
        2   -1    0    0  501    0  0.00000000000E+00  0.00000000000E+00 -0.84873494132E+03  0.84873494133E+03  0.25500000920E-02 0. -1.
    10030    2    1    2    0    0  0.00000000000E+00  0.00000000000E+00 -0.60882294102E+03  0.10886469416E+04  0.90248921879E+03 0.  0.
        2    1    3    3  502    0  0.24872578524E+03  0.18689455180E+03  0.89852222832E+02  0.32383253649E+03  0.25500000920E-02 0.  1.
       -2    1    3    3    0  502 -0.24872578524E+03 -0.18689455180E+03 -0.69867516386E+03  0.76481440515E+03  0.25500000920E-02 0. -1.
</event>
<event>
 5   0  0.9321543E-04  0.9060733E+03  0.7818609E-02  0.9418021E-01
        1   -1    0    0  501    0  0.00000000000E+00  0.00000000000E+00  0.54754322030E+03  0.54754322033E+03  0.50400001928E-02 0. -1.
       -1   -1    0    0    0  501  0.00000000000E+00  0.00000000000E+00 -0.37484204604E+03  0.37484204608E+03  0.50400001928E-02 0.  1.
    10030    2    1    2    0    0  0.00000000000E+00  0.00000000000E+00  0.17270117426E+03  0.92238526640E+03  0.90607333262E+03 0.  0.
        3    1    3    3  502    0 -0.11976835290E+03  0.21455302170E+03  0.47381370987E+03  0.53373860582E+03  0.10100000352E+00 0. -1.
       -3    1    3    3    0  502  0.11976835290E+03 -0.21455302170E+03 -0.30111253561E+03  0.38864666058E+03  0.10100000352E+00 0.  1.
</event>
<event>
 5   0  0.9697941E-04  0.9021980E+03  0.7818609E-02  0.9422838E-01
       -1   -1    0    0    0  501  0.00000000000E+00  0.00000000000E+00  0.36165248994E+03  0.36165248997E+03  0.50400001928E-02 0. -1.
        1   -1    0    0  501    0  0.00000000000E+00  0.00000000000E+00 -0.56266802602E+03  0.56266802604E+03  0.50400001928E-02 0.  1.
    10030    2    1    2    0    0  0.00000000000E+00  0.00000000000E+00 -0.20101553608E+03  0.92432051601E+03  0.90219796640E+03 0.  0.
        5    1    3    3  502    0 -0.42211344063E+03 -0.15851801045E+03 -0.11348672121E+03  0.46498284085E+03  0.46999998093E+01 0.  1.
       -5    1    3    3    0  502  0.42211344063E+03  0.15851801045E+03 -0.87528814873E+02  0.45933767516E+03  0.46999998093E+01 0. -1.
</event>
<event>
 5   0  0.1007561E-03  0.9000770E+03  0.7818609E-02  0.9425485E-01
        1   -1    0    0  501    0  0.00000000000E+00  0.00000000000E+00  0.20422019866E+03  0.20422019872E+03  0.50400001928E-02 0.  1.
       -1   -1    0    0    0  501  0.00000000000E+00  0.00000000000E+00 -0.99174638917E+03  0.99174638918E+03  0.50400001928E-02 0. -1.
    10030    2    1    2    0    0  0.00000000000E+00  0.00000000000E+00 -0.78752619051E+03  0.11959665879E+04  0.90007698484E+03 0.  0.
        2    1    3    3  502    0 -0.27788921985E+03  0.15376589701E+03 -0.81743739232E+03  0.87696651017E+03  0.25500000920E-02 0. -1.
       -2    1    3    3    0  502  0.27788921985E+03 -0.15376589701E+03  0.29911201813E+02  0.31900007773E+03  0.25500000920E-02 0.  1.
</event>
<event>
 5   0  0.9697941E-04  0.8995510E+03  0.7818609E-02  0.9426143E-01
       -1   -1    0    0    0  501  0.00000000000E+00  0.00000000000E+00  0.22521029446E+03  0.22521029451E+03  0.50400001928E-02 0.  1.
        1   -1    0    0  501    0  0.00000000000E+00  0.00000000000E+00 -0.89826272060E+03  0.89826272061E+03  0.50400001928E-02 0. -1.
    10030    2    1    2    0    0  0.00000000000E+00  0.00000000000E+00 -0.67305242614E+03  0.11234730151E+04  0.89955102544E+03 0.  0.
        5    1    3    3  502    0  0.36772198866E+03  0.42028181741E+02 -0.65565096162E+03  0.75291839032E+03  0.46999998093E+01 0.  1.
       -5    1    3    3    0  502 -0.36772198866E+03 -0.42028181741E+02 -0.17401464520E+02  0.37055462481E+03  0.46999998093E+01 0. -1.
</event>
<event>
 5   0  0.1536020E-03  0.9008393E+03  0.7818609E-02  0.9424533E-01
       -2   -1    0    0    0  501  0.00000000000E+00  0.00000000000E+00  0.37234710503E+03  0.37234710504E+03  0.25500000920E-02 0. -1.
        2   -1    0    0  501    0  0.00000000000E+00  0.00000000000E+00 -0.54486217287E+03  0.54486217288E+03  0.25500000920E-02 0.  1.
    10030    2    1    2    0    0  0.00000000000E+00  0.00000000000E+00 -0.17251506784E+03  0.91720927791E+03  0.90083928137E+03 0.  0.
        2    1    3    3  502    0 -0.10802605473E+03  0.20126682516E+02  0.35849034281E+03  0.37495338076E+03  0.25500000920E-02 0. -1.
       -2    1    3    3    0  502  0.10802605473E+03 -0.20126682516E+02 -0.53100541065E+03  0.54225589715E+03  0.25500000920E-02 0.  1.
</event>
<event>
 5   0  0.1536020E-03  0.9000889E+03  0.7818609E-02  0.9425470E-01
       -2   -1    0    0    0  501  0.00000000000E+00  0.00000000000E+00  0.11485324677E+03  0.11485324680E+03  0.25500000920E-02 0.  1.
        2   -1    0    0  501    0  0.00000000000E+00  0.00000000000E+00 -0.17634679162E+04  0.17634679162E+04  0.25500000920E-02 0. -1.
    10030    2    1    2    0    0  0.00000000000E+00  0.00000000000E+00 -0.16486146694E+04  0.18783211630E+04  0.90008891955E+03 0.  0.
        2    1    3    3  502    0  0.22965502223E+03  0.71735100456E+02 -0.30623287366E+02  0.24253894452E+03  0.25500000920E-02 0.  1.
       -2    1    3    3    0  502 -0.22965502223E+03 -0.71735100456E+02 -0.16179913820E+04  0.16357822184E+04  0.25500000920E-02 0. -1.
</event>
<event>
 5   0  0.9981885E-04  0.9003476E+03  0.7818609E-02  0.9425147E-01
        1   -1    0    0  501    0  0.00000000000E+00  0.00000000000E+00  0.36989868774E+03  0.36989868777E+03  0.50400001928E-02 0.  1.
       -1   -1    0    0    0  501  0.00000000000E+00  0.00000000000E+00 -0.54787010039E+03  0.54787010041E+03  0.50400001928E-02 0. -1.
    10030    2    1    2    0    0  0.00000000000E+00  0.00000000000E+00 -0.17797141265E+03  0.91776878819E+03  0.90034755781E+03 0.  0.
        4    1    3    3  502    0  0.81123877910E+02  0.43495213894E+03 -0.43712800041E+01  0.44247617758E+03  0.12699999809E+01 0.  1.
       -4    1    3    3    0  502 -0.81123877910E+02 -0.43495213894E+03 -0.17360013265E+03  0.47529261060E+03  0.12699999809E+01 0. -1.
</event>
<event>
 5   0  0.1630202E-03  0.9002076E+03  0.7818609E-02  0.9425322E-01
       -2   -1    0    0    0  501  0.00000000000E+00  0.00000000000E+00  0.23410961936E+03  0.23410961938E+03  0.25500000920E-02 0.  1.
        2   -1    0    0  501    0  0.00000000000E+00  0.00000000000E+00 -0.86537847037E+03  0.86537847037E+03  0.25500000920E-02 0. -1.
    10030    2    1    2    0    0  0.00000000000E+00  0.00000000000E+00 -0.63126885100E+03  0.10994880897E+04  0.90020758565E+03 0.  0.
        4    1    3    3  502    0  0.21562150335E+03 -0.41506184694E+02  0.16425185841E+03  0.27421831078E+03  0.12699999809E+01 0.  1.
       -4    1    3    3    0  502 -0.21562150335E+03  0.41506184694E+02 -0.79552070941E+03  0.82526977897E+03  0.12699999809E+01 0. -1.
</event>
<event>
 5   0  0.9697941E-04  0.8993199E+03  0.7818609E-02  0.9426432E-01
        1   -1    0    0  501    0  0.00000000000E+00  0.00000000000E+00  0.46323662386E+03  0.46323662389E+03  0.50400001928E-02 0.  1.
       -1   -1    0    0    0  501  0.00000000000E+00  0.00000000000E+00 -0.43648119277E+03  0.43648119279E+03  0.50400001928E-02 0. -1.
    10030    2    1    2    0    0  0.00000000000E+00  0.00000000000E+00  0.26755431096E+02  0.89971781668E+03  0.89931990780E+03 0.  0.
        5    1    3    3  502    0 -0.31563344986E+03 -0.14179061136E+03 -0.27387809861E+03  0.44131661541E+03  0.46999998093E+01 0. -1.
       -5    1    3    3    0  502  0.31563344986E+03  0.14179061136E+03  0.30063352971E+03  0.45840120127E+03  0.46999998093E+01 0.  1.
</event>
<event>
 5   0  0.9697941E-04  0.9024053E+03  0.7818609E-02  0.9422580E-01
       -1   -1    0    0    0  501  0.00000000000E+00  0.00000000000E+00  0.23054651648E+03  0.23054651654E+03  0.50400001928E-02 0.  1.
        1   -1    0    0  501    0  0.00000000000E+00  0.00000000000E+00 -0.88304891314E+03  0.88304891316E+03  0.50400001928E-02 0. -1.
    10030    2    1    2    0    0  0.00000000000E+00  0.00000000000E+00 -0.65250239666E+03  0.11135954297E+04  0.90240534317E+03 0.  0.
        5    1    3    3  502    0  0.26390630799E+03 -0.18565846736E+03 -0.71540365794E+03  0.78481850749E+03  0.46999998093E+01 0. -1.
       -5    1    3    3    0  502 -0.26390630799E+03  0.18565846736E+03  0.62901261283E+02  0.32877692220E+03  0.46999998093E+01 0.  1.
</event>
<event>
 5   0  0.9321543E-04  0.9013388E+03  0.7818609E-02  0.9423909E-01
        1   -1    0    0  501    0  0.00000000000E+00  0.00000000000E+00  0.89494737723E+03  0.89494737724E+03  0.50400001928E-02 0. -1.
       -1   -1    0    0    0  501  0.00000000000E+00  0.00000000000E+00 -0.22694397550E+03  0.22694397555E+03  0.50400001928E-02 0.  1.
    10030    2    1    2    0    0  0.00000000000E+00  0.00000000000E+00  0.66800340173E+03  0.11218913528E+04  0.90133881684E+03 0.  0.
        3    1    3    3  502    0 -0.14866149118E+03  0.13886682074E+03 -0.16654293311E+03  0.26290833314E+03  0.10100000352E+00 0.  1.
       -3    1    3    3    0  502  0.14866149118E+03 -0.13886682074E+03  0.83454633484E+03  0.85898301966E+03  0.10100000352E+00 0. -1.
</event>
<event>
 5   0  0.1536020E-03  0.9018525E+03  0.7818609E-02  0.9423269E-01
        2   -1    0    0  501    0  0.00000000000E+00  0.00000000000E+00  0.14958402297E+04  0.14958402297E+04  0.25500000920E-02 0. -1.
       -2   -1    0    0    0  501  0.00000000000E+00  0.00000000000E+00 -0.13593327564E+03  0.13593327566E+03  0.25500000920E-02 0.  1.
    10030    2    1    2    0    0  0.00000000000E+00  0.00000000000E+00  0.13599069540E+04  0.16317735053E+04  0.90185245416E+03 0.  0.
        2    1    3    3  502    0  0.18228377328E+03 -0.29691703206E+02 -0.64362390250E+02  0.19557987761E+03  0.25500000920E-02 0.  1.
       -2    1    3    3    0  502 -0.18228377328E+03  0.29691703206E+02  0.14242693443E+04  0.14361936277E+04  0.25500000920E-02 0. -1.
</event>
<event>
 5   0  0.9223454E-04  0.9006259E+03  0.7818609E-02  0.9424799E-01
        1   -1    0    0  501    0  0.00000000000E+00  0.00000000000E+00  0.48390527168E+03  0.48390527171E+03  0.50400001928E-02 0.  1.
       -1   -1    0    0    0  501  0.00000000000E+00  0.00000000000E+00 -0.41905254444E+03  0.41905254447E+03  0.50400001928E-02 0. -1.
    10030    2    1    2    0    0  0.00000000000E+00  0.00000000000E+00  0.64852727244E+02  0.90295781618E+03  0.90062586104E+03 0.  0.
        1    1    3    3  502    0 -0.20280318287E+03  0.11044094082E+03  0.42002198146E+03  0.47931701130E+03  0.50400001928E-02 0.  1.
       -1    1    3    3    0  502  0.20280318287E+03 -0.11044094082E+03 -0.35516925421E+03  0.42364080488E+03  0.50400001928E-02 0. -1.
</event>
<event>
 5   0  0.1536020E-03  0.8995119E+03  0.7818609E-02  0.9426192E-01
        2   -1    0    0  501    0  0.00000000000E+00  0.00000000000E+00  0.29108385312E+03  0.29108385313E+03  0.25500000920E-02 0. -1.
       -2   -1    0    0    0  501  0.00000000000E+00  0.00000000000E+00 -0.69492150224E+03  0.69492150225E+03  0.25500000920E-02 0.  1.
    10030    2    1    2    0    0  0.00000000000E+00  0.00000000000E+00 -0.40383764912E+03  0.98600535538E+03  0.89951193099E+03 0.  0.
        2    1    3    3  502    0  0.24331213139E+03 -0.15080623834E+03 -0.58217137964E+03  0.64874249906E+03  0.25500000920E-02 0.  1.
       -2    1    3    3    0  502 -0.24331213139E+03  0.15080623834E+03  0.17833373052E+03  0.33726285632E+03  0.25500000920E-02 0. -1.
</event>
<event>
 5   0  0.1536020E-03  0.8996003E+03  0.7818609E-02  0.9426081E-01
       -2   -1    0    0    0  501  0.00000000000E+00  0.00000000000E+00  0.26497522453E+03  0.26497522454E+03  0.25500000920E-02 0. -1.
        2   -1    0    0  501    0  0.00000000000E+00  0.00000000000E+00 -0.76354373532E+03  0.76354373533E+03  0.25500000920E-02 0.  1.
    10030    2    1    2    0    0  0.00000000000E+00  0.00000000000E+00 -0.49856851080E+03  0.10285189599E+04  0.89960029504E+03 0.  0.
        2    1    3    3  502    0  0.37448047974E+03 -0.29509749344E+02 -0.53215438596E+03  0.65137911043E+03  0.25500000920E-02 0.  1.
       -2    1    3    3    0  502 -0.37448047974E+03  0.29509749344E+02  0.33585875161E+02  0.37713984943E+03  0.25500000920E-02 0. -1.
</event>
<event>
 5   0  0.9321543E-04  0.8988995E+03  0.7818609E-02  0.9426958E-01
        1   -1    0    0  501    0  0.00000000000E+00  0.00000000000E+00  0.54165400880E+03  0.54165400882E+03  0.50400001928E-02 0. -1.
       -1   -1    0    0    0  501  0.00000000000E+00  0.00000000000E+00 -0.37294117544E+03  0.37294117548E+03  0.50400001928E-02 0.  1.
    10030    2    1    2    0    0  0.00000000000E+00  0.00000000000E+00  0.16871283336E+03  0.91459518430E+03  0.89889951108E+03 0.  0.
        3    1    3    3  502    0  0.63870011624E+02 -0.44166427664E+03  0.13875358559E+03  0.46733208681E+03  0.10100000352E+00 0.  1.
       -3    1    3    3    0  502 -0.63870011624E+02  0.44166427664E+03  0.29959247764E+02  0.44726309749E+03  0.10100000352E+00 0. -1.
</event>
<event>
 5   0  0.9223454E-04  0.9000323E+03  0.7818609E-02  0.9425541E-01
        1   -1    0    0  501    0  0.00000000000E+00  0.00000000000E+00  0.38463599666E+03  0.38463599670E+03  0.50400001928E-02 0.  1.
       -1   -1    0    0    0  501  0.00000000000E+00  0.00000000000E+00 -0.52650960010E+03  0.52650960012E+03  0.50400001928E-02 0. -1.
    10030    2    1    2    0    0  0.00000000000E+00  0.00000000000E+00 -0.14187360344E+03  0.91114559682E+03  0.90003232123E+03 0.  0.
        1    1    3    3  502    0 -0.44549998646E+03  0.17096521141E+02 -0.13294684080E+03  0.46522832188E+03  0.50400001928E-02 0. -1.
       -1    1    3    3    0  502  0.44549998646E+03 -0.17096521141E+02 -0.89267626351E+01  0.44591727494E+03  0.50400001928E-02 0.  1.
</event>
<event>
 5   0  0.9321543E-04  0.8996692E+03  0.7818609E-02  0.9425995E-01
        1   -1    0    0  501    0  0.00000000000E+00  0.00000000000E+00  0.51221459951E+03  0.51221459954E+03  0.50400001928E-02 0.  1.
       -1   -1    0    0    0  501  0.00000000000E+00  0.00000000000E+00 -0.39505155099E+03  0.39505155102E+03  0.50400001928E-02 0. -1.
    10030    2    1    2    0    0  0.00000000000E+00  0.00000000000E+00  0.11716304852E+03  0.90726615055E+03  0.89966921032E+03 0.  0.
        3    1    3    3  502    0 -0.13245392919E+03 -0.27630107518E+03 -0.27353946954E+03  0.41074344681E+03  0.10100000352E+00 0. -1.
       -3    1    3    3    0  502  0.13245392919E+03  0.27630107518E+03  0.39070251807E+03  0.49652270374E+03  0.10100000352E+00 0.  1.
</event>
<event>
 5   0  0.9697941E-04  0.8996669E+03  0.7818609E-02  0.9425998E-01
        1   -1    0    0  501    0  0.00000000000E+00  0.00000000000E+00  0.71265589983E+03  0.71265589985E+03  0.50400001928E-02 0. -1.
       -1   -1    0    0    0  501  0.00000000000E+00  0.00000000000E+00 -0.28393803265E+03  0.28393803269E+03  0.50400001928E-02 0.  1.
    10030    2    1    2    0    0  0.00000000000E+00  0.00000000000E+00  0.42871786719E+03  0.99659393254E+03  0.89966685875E+03 0.  0.
        5    1    3    3  502    0 -0.15163638315E+03 -0.14557264831E+03  0.65487479622E+03  0.68779944558E+03  0.46999998093E+01 0. -1.
       -5    1    3    3    0  502  0.15163638315E+03  0.14557264831E+03 -0.22615692903E+03  0.30879448696E+03  0.46999998093E+01 0.  1.
</event>
<event>
 5   0  0.9981885E-04  0.9001980E+03  0.7818609E-02  0.9425334E-01
        1   -1    0    0  501    0  0.00000000000E+00  0.00000000000E+00  0.10032345613E+04  0.10032345613E+04  0.50400001928E-02 0. -1.
       -1   -1    0    0    0  501  0.00000000000E+00  0.00000000000E+00 -0.20193592714E+03  0.20193592720E+03  0.50400001928E-02 0.  1.
    10030    2    1    2    0    0  0.00000000000E+00  0.00000000000E+00  0.80129863413E+03  0.12051704885E+04  0.90019798115E+03 0.  0.
        4    1    3    3  502    0  0.41300557498E+03  0.30397390710E+02  0.63670800628E+03  0.75953690133E+03  0.12699999809E+01 0. -1.
       -4    1    3    3    0  502 -0.41300557498E+03 -0.30397390710E+02  0.16459062784E+03  0.44563358715E+03  0.12699999809E+01 0.  1.
</event>
<event>
 5   0  0.9981885E-04  0.9008701E+03  0.7818609E-02  0.9424494E-01
       -1   -1    0    0    0  501  0.00000000000E+00  0.00000000000E+00  0.28757676800E+03  0.28757676804E+03  0.50400001928E-02 0. -1.
        1   -1    0    0  501    0  0.00000000000E+00  0.00000000000E+00 -0.70552193850E+03  0.70552193851E+03  0.50400001928E-02 0.  1.
    10030    2    1    2    0    0  0.00000000000E+00  0.00000000000E+00 -0.41794517050E+03  0.99309870655E+03  0.90087006578E+03 0.  0.
        4    1    3    3  502    0 -0.22164884829E+03 -0.20371645816E+03  0.16038385652E+03  0.34110585102E+03  0.12699999809E+01 0. -1.
       -4    1    3    3    0  502  0.22164884829E+03  0.20371645816E+03 -0.57832902702E+03  0.65199285553E+03  0.12699999809E+01 0.  1.
</event>
<event>
 5   0  0.1641516E-03  0.8943769E+03  0.7818609E-02  0.9432638E-01
        2   -1    0    0  501    0  0.00000000000E+00  0.00000000000E+00  0.51014593758E+03  0.51014593758E+03  0.25500000920E-02 0. -1.
       -2   -1    0    0    0  501  0.00000000000E+00  0.00000000000E+00 -0.39200059957E+03  0.39200059958E+03  0.25500000920E-02 0.  1.
    10030    2    1    2    0    0  0.00000000000E+00  0.00000000000E+00  0.11814533801E+03  0.90214653716E+03  0.89437690803E+03 0.  0.
        1    1    3    3  502    0  0.20964730918E+03 -0.28165557991E+02 -0.33834524890E+03  0.39902731783E+03  0.50400001928E-02 0.  1.
       -1    1    3    3    0  502 -0.20964730918E+03  0.28165557991E+02  0.45649058690E+03  0.50311921933E+03  0.50400001928E-02 0. -1.
</event>
<event>
 5   0  0.1704416E-03  0.8997886E+03  0.7818609E-02  0.9425846E-01
        2   -1    0    0  501    0  0.00000000000E+00  0.00000000000E+00  0.68947398189E+03  0.68947398189E+03  0.25500000920E-02 0. -1.
       -2   -1    0    0    0  501  0.00000000000E+00  0.00000000000E+00 -0.29356419566E+03  0.29356419568E+03  0.25500000920E-02 0.  1.
    10030    2    1    2    0    0  0.00000000000E+00  0.00000000000E+00  0.39590978622E+03  0.98303817757E+03  0.89978858613E+03 0.  0.
        3    1    3    3  502    0 -0.24854988576E+03 -0.29905653915E+03  0.44514735227E+03  0.59107362888E+03  0.10100000352E+00 0. -1.
       -3    1    3    3    0  502  0.24854988576E+03  0.29905653915E+03 -0.49237566049E+02  0.39196454869E+03  0.10100000352E+00 0.  1.
</event>
<event>
 5   0  0.9697941E-04  0.9081216E+03  0.7818609E-02  0.9415486E-01
        1   -1    0    0  501    0  0.00000000000E+00  0.00000000000E+00  0.31110666142E+03  0.31110666146E+03  0.50400001928E-02 0.  1.
       -1   -1    0    0    0  501  0.00000000000E+00  0.00000000000E+00 -0.66270270733E+03  0.66270270735E+03  0.50400001928E-02 0. -1.
    10030    2    1    2    0    0  0.00000000000E+00  0.00000000000E+00 -0.35159604592E+03  0.97380936881E+03  0.90812163683E+03 0.  0.
        5    1    3    3  502    0  0.38201947677E+03  0.24248540420E+03 -0.21607960359E+03  0.50144843899E+03  0.46999998093E+01 0.  1.
       -5    1    3    3    0  502 -0.38201947677E+03 -0.24248540420E+03 -0.13551644233E+03  0.47236092982E+03  0.46999998093E+01 0. -1.
</event>
<event>
 5   0  0.1536020E-03  0.9027027E+03  0.7818609E-02  0.9422209E-01
        2   -1    0    0  501    0  0.00000000000E+00  0.00000000000E+00  0.56572908535E+03  0.56572908535E+03  0.25500000920E-02 0.  1.
       -2   -1    0    0    0  501  0.00000000000E+00  0.00000000000E+00 -0.36009819694E+03  0.36009819695E+03  0.25500000920E-02 0. -1.
    10030    2    1    2    0    0  0.00000000000E+00  0.00000000000E+00  0.20563088840E+03  0.92582728230E+03  0.90270266112E+03 0.  0.
        2    1    3    3  502    0  0.32671925328E+03 -0.18946915395E+03 -0.15064687745E+03  0.40661838676E+03  0.25500000920E-02 0.  1.
       -2    1    3    3    0  502 -0.32671925328E+03  0.18946915395E+03  0.35627776585E+03  0.51920889554E+03  0.25500000920E-02 0. -1.
</event>
<event>
 5   0  0.1630202E-03  0.8826458E+03  0.7818609E-02  0.9447539E-01
        2   -1    0    0  501    0  0.00000000000E+00  0.00000000000E+00  0.11605434414E+04  0.11605434414E+04  0.25500000920E-02 0. -1.
       -2   -1    0    0    0  501  0.00000000000E+00  0.00000000000E+00 -0.16782301056E+03  0.16782301058E+03  0.25500000920E-02 0.  1.
    10030    2    1    2    0    0  0.00000000000E+00  0.00000000000E+00  0.99272043087E+03  0.13283664520E+04  0.88264578228E+03 0.  0.
        4    1    3    3  502    0  0.28198687672E+03  0.18422804170E+03  0.67221875341E+02  0.34347774806E+03  0.12699999809E+01 0.  1.
       -4    1    3    3    0  502 -0.28198687672E+03 -0.18422804170E+03  0.92549855553E+03  0.98488870395E+03  0.12699999809E+01 0. -1.
</event>
<event>
 5   0  0.9981885E-04  0.8996430E+03  0.7818609E-02  0.9426028E-01
       -1   -1    0    0    0  501  0.00000000000E+00  0.00000000000E+00  0.20784841319E+03  0.20784841325E+03  0.50400001928E-02 0.  1.
        1   -1    0    0  501    0  0.00000000000E+00  0.00000000000E+00 -0.97349497130E+03  0.97349497131E+03  0.50400001928E-02 0. -1.
    10030    2    1    2    0    0  0.00000000000E+00  0.00000000000E+00 -0.76564655810E+03  0.11813433846E+04  0.89964300715E+03 0.  0.
        4    1    3    3  502    0 -0.21451933630E+03 -0.25899488169E+03  0.94492195814E+01  0.33643393860E+03  0.12699999809E+01 0.  1.
       -4    1    3    3    0  502  0.21451933630E+03  0.25899488169E+03 -0.77509577769E+03  0.84490944596E+03  0.12699999809E+01 0. -1.
</event>
<event>
 5   0  0.1635686E-03  0.8983479E+03  0.7818609E-02  0.9427649E-01
        2   -1    0    0  501    0  0.00000000000E+00  0.00000000000E+00  0.13317033389E+04  0.13317033389E+04  0.25500000920E-02 0.  1.
       -2   -1    0    0    0  501  0.00000000000E+00  0.00000000000E+00 -0.15150313483E+03  0.15150313485E+03  0.25500000920E-02 0. -1.
    10030    2    1    2    0    0  0.00000000000E+00  0.00000000000E+00  0.11802002040E+04  0.14832064737E+04  0.89834788476E+03 0.  0.
        5    1    3    3  502    0  0.34714883963E+03 -0.74669333391E+02  0.13599767842E+03  0.38027001557E+03  0.46999998093E+01 0. -1.
       -5    1    3    3    0  502 -0.34714883963E+03  0.74669333391E+02  0.10442025256E+04  0.11029364581E+04  0.46999998093E+01 0.  1.
</event>
<event>
 5   0  0.1641516E-03  0.9029944E+03  0.7818609E-02  0.9421846E-01
       -2   -1    0    0    0  501  0.00000000000E+00  0.00000000000E+00  0.39771995705E+03  0.39771995705E+03  0.25500000920E-02 0.  1.
        2   -1    0    0  501    0  0.00000000000E+00  0.00000000000E+00 -0.51254586229E+03  0.51254586230E+03  0.25500000920E-02 0. -1.
    10030    2    1    2    0    0  0.00000000000E+00  0.00000000000E+00 -0.11482590524E+03  0.91026581935E+03  0.90299439276E+03 0.  0.
        1    1    3    3  502    0  0.37292195238E+03  0.10679204620E+03 -0.29030232087E+03  0.48451084737E+03  0.50400001928E-02 0. -1.
       -1    1    3    3    0  502 -0.37292195238E+03 -0.10679204620E+03  0.17547641562E+03  0.42575497198E+03  0.50400001928E-02 0.  1.
</event>
<event>
 5   0  0.9981885E-04  0.9000037E+03  0.7818609E-02  0.9425577E-01
        1   -1    0    0  501    0  0.00000000000E+00  0.00000000000E+00  0.67898823678E+03  0.67898823680E+03  0.50400001928E-02 0.  1.
       -1   -1    0    0    0  501  0.00000000000E+00  0.00000000000E+00 -0.29824031160E+03  0.29824031164E+03  0.50400001928E-02 0. -1.
    10030    2    1    2    0    0  0.00000000000E+00  0.00000000000E+00  0.38074792519E+03  0.97722854844E+03  0.90000369630E+03 0.  0.
        4    1    3    3  502    0 -0.43419595982E+03  0.34764845727E+02  0.31305227159E+03  0.53641221431E+03  0.12699999809E+01 0.  1.
       -4    1    3    3    0  502  0.43419595982E+03 -0.34764845727E+02  0.67695653602E+02  0.44081633413E+03  0.12699999809E+01 0. -1.
</event>
<event>
 5   0  0.6375625E-04  0.9007970E+03  0.7818609E-02  0.9424586E-01
        3   -1    0    0  501    0  0.00000000000E+00  0.00000000000E+00  0.15845025620E+04  0.15845025652E+04  0.10100000352E+00 0.  1.
       -3   -1    0    0    0  501  0.00000000000E+00  0.00000000000E+00 -0.12802678157E+03  0.12802682141E+03  0.10100000352E+00 0. -1.
    10030    2    1    2    0    0  0.00000000000E+00  0.00000000000E+00  0.14564757804E+04  0.17125293866E+04  0.90079698105E+03 0.  0.
        3    1    3    3  502    0 -0.17479168120E+03 -0.15059528660E+03 -0.71511222218E+01  0.23082941951E+03  0.10100000352E+00 0. -1.
       -3    1    3    3    0  502  0.17479168120E+03  0.15059528660E+03  0.14636269026E+04  0.14816999671E+04  0.10100000352E+00 0.  1.
</event>
<event>
 5   0  0.9223454E-04  0.8935113E+03  0.7818609E-02  0.9433729E-01
       -1   -1    0    0    0  501  0.00000000000E+00  0.00000000000E+00  0.14666483983E+03  0.14666483992E+03  0.50400001928E-02 0.  1.
        1   -1    0    0  501    0  0.00000000000E+00  0.00000000000E+00 -0.13608619291E+04  0.13608619291E+04  0.50400001928E-02 0. -1.
    10030    2    1    2    0    0  0.00000000000E+00  0.00000000000E+00 -0.12141970892E+04  0.15075267690E+04  0.89351126895E+03 0.  0.
        1    1    3    3  502    0 -0.10773504810E+03 -0.13445974861E+03  0.88353558591E+02  0.19363010078E+03  0.50400001928E-02 0.  1.
       -1    1    3    3    0  502  0.10773504810E+03  0.13445974861E+03 -0.13025506478E+04  0.13138966682E+04  0.50400001928E-02 0. -1.
</event>
<event>
 5   0  0.1630202E-03  0.8950770E+03  0.7818609E-02  0.9431756E-01
       -2   -1    0    0    0  501  0.00000000000E+00  0.00000000000E+00  0.17418909390E+03  0.17418909392E+03  0.25500000920E-02 0. -1.
        2   -1    0    0  501    0  0.00000000000E+00  0.00000000000E+00 -0.11498463318E+04  0.11498463318E+04  0.25500000920E-02 0.  1.
    10030    2    1    2    0    0  0.00000000000E+00  0.00000000000E+00 -0.97565723788E+03  0.13240354257E+04  0.89507695908E+03 0.  0.
        4    1    3    3  502    0  0.56234166028E+02 -0.15759215763E+03 -0.11018325672E+04  0.11144658759E+04  0.12699999809E+01 0.  1.
       -4    1    3    3    0  502 -0.56234166028E+02  0.15759215763E+03  0.12617532930E+03  0.20956954979E+03  0.12699999809E+01 0. -1.
</event>
<event>
 5   0  0.1704416E-03  0.9001107E+03  0.7818609E-02  0.9425443E-01
        2   -1    0    0  501    0  0.00000000000E+00  0.00000000000E+00  0.60485494555E+03  0.60485494556E+03  0.25500000920E-02 0.  1.
       -2   -1    0    0    0  501  0.00000000000E+00  0.00000000000E+00 -0.33487340105E+03  0.33487340105E+03  0.25500000920E-02 0. -1.
    10030    2    1    2    0    0  0.00000000000E+00  0.00000000000E+00  0.26998154451E+03  0.93972834661E+03  0.90011073266E+03 0.  0.
        3    1    3    3  502    0 -0.98794546818E+02 -0.29578285818E+03 -0.20379457349E+03  0.37253201212E+03  0.10100000352E+00 0. -1.
       -3    1    3    3    0  502  0.98794546818E+02  0.29578285818E+03  0.47377611800E+03  0.56719633449E+03  0.10100000352E+00 0.  1.
</event>
<event>
 5   0  0.1536020E-03  0.9009174E+03  0.7818609E-02  0.9424435E-01
        2   -1    0    0  501    0  0.00000000000E+00  0.00000000000E+00  0.88893277742E+03  0.88893277743E+03  0.25500000920E-02 0. -1.
       -2   -1    0    0    0  501  0.00000000000E+00  0.00000000000E+00 -0.22826587568E+03  0.22826587569E+03  0.25500000920E-02 0.  1.
    10030    2    1    2    0    0  0.00000000000E+00  0.00000000000E+00  0.66066690175E+03  0.11171986531E+04  0.90091735218E+03 0.  0.
        2    1    3    3  502    0 -0.35950068239E+03  0.18981611970E+03  0.57092617135E+03  0.70087630369E+03  0.25500000920E-02 0. -1.
       -2    1    3    3    0  502  0.35950068239E+03 -0.18981611970E+03  0.89740730402E+02  0.41632234943E+03  0.25500000920E-02 0.  1.
</event>
<event>
 5   0  0.1536020E-03  0.8991344E+03  0.7818609E-02  0.9426664E-01
        2   -1    0    0  501    0  0.00000000000E+00  0.00000000000E+00  0.49189662506E+03  0.49189662507E+03  0.25500000920E-02 0. -1.
       -2   -1    0    0    0  501  0.00000000000E+00  0.00000000000E+00 -0.41088041233E+03  0.41088041234E+03  0.25500000920E-02 0.  1.
    10030    2    1    2    0    0  0.00000000000E+00  0.00000000000E+00  0.81016212733E+02  0.90277703741E+03  0.89913444631E+03 0.  0.
        2    1    3    3  502    0 -0.43416677307E+03  0.10272049022E+03  0.96034972773E+02  0.45637156129E+03  0.25500000920E-02 0.  1.
       -2    1    3    3    0  502  0.43416677307E+03 -0.10272049022E+03 -0.15018760040E+02  0.44640547612E+03  0.25500000920E-02 0. -1.
</event>
<event>
 5   0  0.1630202E-03  0.8992016E+03  0.7818609E-02  0.9426580E-01
       -2   -1    0    0    0  501  0.00000000000E+00  0.00000000000E+00  0.79595586091E+03  0.79595586092E+03  0.25500000920E-02 0.  1.
        2   -1    0    0  501    0  0.00000000000E+00  0.00000000000E+00 -0.25395991234E+03  0.25395991235E+03  0.25500000920E-02 0. -1.
    10030    2    1    2    0    0  0.00000000000E+00  0.00000000000E+00  0.54199594858E+03  0.10499157733E+04  0.89920160291E+03 0.  0.
        4    1    3    3  502    0  0.31121432245E+03 -0.94381994934E+02 -0.91481969858E+02  0.33783558009E+03  0.12699999809E+01 0. -1.
       -4    1    3    3    0  502 -0.31121432245E+03  0.94381994934E+02  0.63347791844E+03  0.71208019318E+03  0.12699999809E+01 0.  1.
</event>
<event>
 5   0  0.1635686E-03  0.8976957E+03  0.7818609E-02  0.9428466E-01
        2   -1    0    0  501    0  0.00000000000E+00  0.00000000000E+00  0.11029153246E+04  0.11029153246E+04  0.25500000920E-02 0. -1.
       -2   -1    0    0    0  501  0.00000000000E+00  0.00000000000E+00 -0.18266534726E+03  0.18266534728E+03  0.25500000920E-02 0.  1.
    10030    2    1    2    0    0  0.00000000000E+00  0.00000000000E+00  0.92024997732E+03  0.12855806719E+04  0.89769574083E+03 0.  0.
        5    1    3    3  502    0 -0.18512019379E+03  0.36812170666E+03  0.20531265939E+03  0.46038946031E+03  0.46999998093E+01 0.  1.
       -5    1    3    3    0  502  0.18512019379E+03 -0.36812170666E+03  0.71493731793E+03  0.82519121156E+03  0.46999998093E+01 0. -1.
</event>
<event>
 5   0  0.1635686E-03  0.9013064E+03  0.7818609E-02  0.9423950E-01
       -2   -1    0    0    0  501  0.00000000000E+00  0.00000000000E+00  0.13852039160E+03  0.13852039162E+03  0.25500000920E-02 0.  1.
        2   -1    0    0  501    0  0.00000000000E+00  0.00000000000E+00 -0.14661258218E+04  0.14661258218E+04  0.25500000920E-02 0. -1.
    10030    2    1    2    0    0  0.00000000000E+00  0.00000000000E+00 -0.13276054302E+04  0.16046462134E+04  0.90130643619E+03 0.  0.
        5    1    3    3  502    0 -0.15453854684E+03  0.16748956504E+03 -0.13559269484E+04  0.13749526888E+04  0.46999998093E+01 0. -1.
       -5    1    3    3    0  502  0.15453854684E+03 -0.16748956504E+03  0.28321518271E+02  0.22969352462E+03  0.46999998093E+01 0.  1.
</event>
<event>
 5   0  0.1704416E-03  0.8990742E+03  0.7818609E-02  0.9426740E-01
       -2   -1    0    0    0  501  0.00000000000E+00  0.00000000000E+00  0.85188297913E+02  0.85188297951E+02  0.25500000920E-02 0.  1.
        2   -1    0    0  501    0  0.00000000000E+00  0.00000000000E+00 -0.23721988941E+04  0.23721988941E+04  0.25500000920E-02 0. -1.
    10030    2    1    2    0    0  0.00000000000E+00  0.00000000000E+00 -0.22870105961E+04  0.24573871920E+04  0.89907415967E+03 0.  0.
        3    1    3    3  502    0 -0.33809652149E+03  0.46812822081E+02 -0.19431029637E+04  0.19728532221E+04  0.10100000352E+00 0. -1.
       -3    1    3    3    0  502  0.33809652149E+03 -0.46812822081E+02 -0.34390763243E+03  0.48453396991E+03  0.10100000352E+00 0.  1.
</event>
<event>
 5   0  0.9223454E-04  0.9011277E+03  0.7818609E-02  0.9424173E-01
       -1   -1    0    0    0  501  0.00000000000E+00  0.00000000000E+00  0.37696242905E+03  0.37696242909E+03  0.50400001928E-02 0.  1.
        1   -1    0    0  501    0  0.00000000000E+00  0.00000000000E+00 -0.53853583672E+03  0.53853583674E+03  0.50400001928E-02 0. -1.
    10030    2    1    2    0    0  0.00000000000E+00  0.00000000000E+00 -0.16157340767E+03  0.91549826583E+03  0.90112768722E+03 0.  0.
        1    1    3    3  502    0  0.52750259143E+02  0.89047759936E+02 -0.52629516893E+03  0.53637551981E+03  0.50400001928E-02 0. -1.
       -1    1    3    3    0  502 -0.52750259143E+02 -0.89047759936E+02  0.36472176126E+03  0.37912274602E+03  0.50400001928E-02 0.  1.
</event>
<event>
 5   0  0.9223454E-04  0.8999669E+03  0.7818609E-02  0.9425623E-01
       -1   -1    0    0    0  501  0.00000000000E+00  0.00000000000E+00  0.46201968197E+03  0.46201968199E+03  0.50400001928E-02 0.  1.
        1   -1    0    0  501    0  0.00000000000E+00  0.00000000000E+00 -0.43826074706E+03  0.43826074709E+03  0.50400001928E-02 0. -1.
    10030    2    1    2    0    0  0.00000000000E+00  0.00000000000E+00  0.23758934902E+02  0.90028042909E+03  0.89996686828E+03 0.  0.
        1    1    3    3  502    0 -0.11964694783E+03 -0.41853639477E+03 -0.10216457377E+03  0.44713052460E+03  0.50400001928E-02 0. -1.
       -1    1    3    3    0  502  0.11964694783E+03  0.41853639477E+03  0.12592350867E+03  0.45314990448E+03  0.50400001928E-02 0.  1.
</event>
<event>
 5   0  0.1536020E-03  0.9028218E+03  0.7818609E-02  0.9422061E-01
        2   -1    0    0  501    0  0.00000000000E+00  0.00000000000E+00  0.38682574225E+03  0.38682574226E+03  0.25500000920E-02 0. -1.
       -2   -1    0    0    0  501  0.00000000000E+00  0.00000000000E+00 -0.52677931020E+03  0.52677931021E+03  0.25500000920E-02 0.  1.
    10030    2    1    2    0    0  0.00000000000E+00  0.00000000000E+00 -0.13995356795E+03  0.91360505247E+03  0.90282179345E+03 0.  0.
        2    1    3    3  502    0 -0.29980390677E+03  0.78821072304E+02  0.26208372850E+03  0.40593475425E+03  0.25500000920E-02 0. -1.
       -2    1    3    3    0  502  0.29980390677E+03 -0.78821072304E+02 -0.40203729645E+03  0.50767029822E+03  0.25500000920E-02 0.  1.
</event>
<event>
 5   0  0.1630202E-03  0.9020435E+03  0.7818609E-02  0.9423030E-01
       -2   -1    0    0    0  501  0.00000000000E+00  0.00000000000E+00  0.18919973080E+03  0.18919973082E+03  0.25500000920E-02 0. -1.
        2   -1    0    0  501    0  0.00000000000E+00  0.00000000000E+00 -0.10751634656E+04  0.10751634656E+04  0.25500000920E-02 0.  1.
    10030    2    1    2    0    0  0.00000000000E+00  0.00000000000E+00 -0.88596373476E+03  0.12643631964E+04  0.90204354278E+03 0.  0.
        4    1    3    3  502    0 -0.89459198659E+02 -0.96958104774E+02  0.16154911581E+03  0.20857505130E+03  0.12699999809E+01 0. -1.
       -4    1    3    3    0  502  0.89459198659E+02  0.96958104774E+02 -0.10475128506E+04  0.10557881451E+04  0.12699999809E+01 0.  1.
</event>
<event>
 5   0  0.9697941E-04  0.8992316E+03  0.7818609E-02  0.9426543E-01
       -1   -1    0    0    0  501  0.00000000000E+00  0.00000000000E+00  0.57720248637E+03  0.57720248639E+03  0.50400001928E-02 0. -1.
        1   -1    0    0  501    0  0.00000000000E+00  0.00000000000E+00 -0.35023125863E+03  0.35023125867E+03  0.50400001928E-02 0.  1.
    10030    2    1    2    0    0  0.00000000000E+00  0.00000000000E+00  0.22697122773E+03  0.92743374506E+03  0.89923156820E+03 0.  0.
        5    1    3    3  502    0 -0.19137915242E+03 -0.19597786988E+03  0.48117605860E+03  0.55370190069E+03  0.46999998093E+01 0. -1.
       -5    1    3    3    0  502  0.19137915242E+03  0.19597786988E+03 -0.25420483087E+03  0.37373184437E+03  0.46999998093E+01 0.  1.
</event>
<event>
 5   0  0.6375625E-04  0.9001823E+03  0.7818609E-02  0.9425354E-01
       -3   -1    0    0    0  501  0.00000000000E+00  0.00000000000E+00  0.32924889563E+03  0.32924891113E+03  0.10100000352E+00 0.  1.
        3   -1    0    0  501    0  0.00000000000E+00  0.00000000000E+00 -0.61528541242E+03  0.61528542071E+03  0.10100000352E+00 0. -1.
    10030    2    1    2    0    0  0.00000000000E+00  0.00000000000E+00 -0.28603651679E+03  0.94453433184E+03  0.90018232324E+03 0.  0.
        4    1    3    3  502    0 -0.16777745760E+03 -0.32987002580E+03 -0.41179719224E+03  0.55366239681E+03  0.12699999809E+01 0. -1.
       -4    1    3    3    0  502  0.16777745760E+03  0.32987002580E+03  0.12576067545E+03  0.39087193503E+03  0.12699999809E+01 0.  1.
</event>
<event>
 5   0  0.1630202E-03  0.9089167E+03  0.7818609E-02  0.9414503E-01
       -2   -1    0    0    0  501  0.00000000000E+00  0.00000000000E+00  0.29480101212E+03  0.29480101213E+03  0.25500000920E-02 0.  1.
        2   -1    0    0  501    0  0.00000000000E+00  0.00000000000E+00 -0.70058242826E+03  0.70058242827E+03  0.25500000920E-02 0. -1.
    10030    2    1    2    0    0  0.00000000000E+00  0.00000000000E+00 -0.40578141614E+03  0.99538344040E+03  0.90891673751E+03 0.  0.
        4    1    3    3  502    0 -0.21369729214E+03  0.21059993966E+03 -0.57670121682E+03  0.65008059011E+03  0.12699999809E+01 0. -1.
       -4    1    3    3    0  502  0.21369729214E+03 -0.21059993966E+03  0.17091980068E+03  0.34530285029E+03  0.12699999809E+01 0.  1.
</event>
<event>
 5   0  0.9697941E-04  0.9011681E+03  0.7818609E-02  0.9424122E-01
        1   -1    0    0  501    0  0.00000000000E+00  0.00000000000E+00  0.10430154973E+04  0.10430154973E+04  0.50400001928E-02 0.  1.
       -1   -1    0    0    0  501  0.00000000000E+00  0.00000000000E+00 -0.19465289823E+03  0.19465289829E+03  0.50400001928E-02 0. -1.
    10030    2    1    2    0    0  0.00000000000E+00  0.00000000000E+00  0.84836259904E+03  0.12376683956E+04  0.90116810749E+03 0.  0.
        5    1    3    3  502    0 -0.26429927985E+03 -0.28507412664E+03  0.11135081241E+03  0.40440383336E+03  0.46999998093E+01 0. -1.
       -5    1    3    3    0  502  0.26429927985E+03  0.28507412664E+03  0.73701178663E+03  0.83326456221E+03  0.46999998093E+01 0.  1.
</event>
<event>
 5   0  0.9981885E-04  0.8998302E+03  0.7818609E-02  0.9425794E-01
        1   -1    0    0  501    0  0.00000000000E+00  0.00000000000E+00  0.70779486476E+03  0.70779486478E+03  0.50400001928E-02 0. -1.
       -1   -1    0    0    0  501  0.00000000000E+00  0.00000000000E+00 -0.28599187177E+03  0.28599187181E+03  0.50400001928E-02 0.  1.
    10030    2    1    2    0    0  0.00000000000E+00  0.00000000000E+00  0.42180299299E+03  0.99378673659E+03  0.89983015782E+03 0.  0.
        4    1    3    3  502    0 -0.22712012470E+03 -0.11163595579E+03  0.62173208108E+03  0.67126636384E+03  0.12699999809E+01 0. -1.
       -4    1    3    3    0  502  0.22712012470E+03  0.11163595579E+03 -0.19992908809E+03  0.32252037275E+03  0.12699999809E+01 0.  1.
</event>
<event>
 5   0  0.9223454E-04  0.9002183E+03  0.7818609E-02  0.9425309E-01
        1   -1    0    0  501    0  0.00000000000E+00  0.00000000000E+00  0.12464199622E+04  0.12464199622E+04  0.50400001928E-02 0. -1.
       -1   -1    0    0    0  501  0.00000000000E+00  0.00000000000E+00 -0.16254414050E+03  0.16254414058E+03  0.50400001928E-02 0.  1.
    10030    2    1    2    0    0  0.00000000000E+00  0.00000000000E+00  0.10838758217E+04  0.14089641028E+04  0.90021833245E+03 0.  0.
        1    1    3    3  502    0 -0.99327857768E+02 -0.70886388108E+02 -0.13616049630E+03  0.18284032412E+03  0.50400001928E-02 0.  1.
       -1    1    3    3    0  502  0.99327857768E+02  0.70886388108E+02  0.12200363180E+04  0.12261237787E+04  0.50400001928E-02 0. -1.
</event>
<event>
 5   0  0.9223454E-04  0.9009063E+03  0.7818609E-02  0.9424449E-01
       -1   -1    0    0    0  501  0.00000000000E+00  0.00000000000E+00  0.26095526047E+03  0.26095526051E+03  0.50400001928E-02 0.  1.
        1   -1    0    0  501    0  0.00000000000E+00  0.00000000000E+00 -0.77755868559E+03  0.77755868560E+03  0.50400001928E-02 0. -1.
    10030    2    1    2    0    0  0.00000000000E+00  0.00000000000E+00 -0.51660342512E+03  0.10385139461E+04  0.90090627561E+03 0.  0.
        1    1    3    3  502    0  0.78028234544E+02 -0.44188539698E+03 -0.30378646684E+03  0.54188313031E+03  0.50400001928E-02 0. -1.
       -1    1    3    3    0  502 -0.78028234544E+02  0.44188539698E+03 -0.21281695828E+03  0.49663081581E+03  0.50400001928E-02 0.  1.
</event>
<event>
 5   0  0.9223454E-04  0.9004830E+03  0.7818609E-02  0.9424978E-01
       -1   -1    0    0    0  501  0.00000000000E+00  0.00000000000E+00  0.33888277491E+03  0.33888277495E+03  0.50400001928E-02 0. -1.
        1   -1    0    0  501    0  0.00000000000E+00  0.00000000000E+00 -0.59819333062E+03  0.59819333064E+03  0.50400001928E-02 0.  1.
    10030    2    1    2    0    0  0.00000000000E+00  0.00000000000E+00 -0.25931055570E+03  0.93707610559E+03  0.90048301670E+03 0.  0.
        1    1    3    3  502    0 -0.28502976268E+03 -0.28976824550E+03 -0.33120016881E+03  0.52431016923E+03  0.50400001928E-02 0.  1.
       -1    1    3    3    0  502  0.28502976268E+03  0.28976824550E+03  0.71889613112E+02  0.41276593635E+03  0.50400001928E-02 0. -1.
</event>
<event>
 5   0  0.6375625E-04  0.8990059E+03  0.7818609E-02  0.9426825E-01
       -4   -1    0    0    0  501  0.00000000000E+00  0.00000000000E+00  0.22573385906E+03  0.22573743160E+03  0.12699999809E+01 0.  1.
        4   -1    0    0  501    0  0.00000000000E+00  0.00000000000E+00 -0.89508236287E+03  0.89508326384E+03  0.12699999809E+01 0. -1.
    10030    2    1    2    0    0  0.00000000000E+00  0.00000000000E+00 -0.66934850381E+03  0.11208206954E+04  0.89900590197E+03 0.  0.
        3    1    3    3  502    0 -0.15953172810E+03 -0.10434183866E+03 -0.84219628815E+03  0.86349996499E+03  0.10100000352E+00 0. -1.
       -3    1    3    3    0  502  0.15953172810E+03  0.10434183866E+03  0.17284778434E+03  0.25732073045E+03  0.10100000352E+00 0.  1.
</event>
<event>
 5   0  0.9697941E-04  0.9031439E+03  0.7818609E-02  0.9421660E-01
        1   -1    0    0  501    0  0.00000000000E+00  0.00000000000E+00  0.15305978524E+04  0.15305978524E+04  0.50400001928E-02 0.  1.
       -1   -1    0    0    0  501  0.00000000000E+00  0.00000000000E+00 -0.13322717670E+03  0.13322717680E+03  0.50400001928E-02 0. -1.
    10030    2    1    2    0    0  0.00000000000E+00  0.00000000000E+00  0.13973706757E+04  0.16638250292E+04  0.90314391018E+03 0.  0.
        5    1    3    3  502    0 -0.44828931374E+03  0.33656339807E+02  0.62054482679E+03  0.76628586707E+03  0.46999998093E+01 0.  1.
       -5    1    3    3    0  502  0.44828931374E+03 -0.33656339807E+02  0.77682584888E+03  0.89753916210E+03  0.46999998093E+01 0. -1.
</event>
<event>
 5   0  0.1704416E-03  0.8991205E+03  0.7818609E-02  0.9426681E-01
        2   -1    0    0  501    0  0.00000000000E+00  0.00000000000E+00  0.75385972659E+03  0.75385972660E+03  0.25500000920E-02 0.  1.
       -2   -1    0    0    0  501  0.00000000000E+00  0.00000000000E+00 -0.26809287759E+03  0.26809287760E+03  0.25500000920E-02 0. -1.
    10030    2    1    2    0    0  0.00000000000E+00  0.00000000000E+00  0.48576684900E+03  0.10219526042E+04  0.89912051119E+03 0.  0.
        3    1    3    3  502    0  0.34996164242E+03 -0.70398037655E+02 -0.67716657014E+02  0.36333812174E+03  0.10100000352E+00 0. -1.
       -3    1    3    3    0  502 -0.34996164242E+03  0.70398037655E+02  0.55348350602E+03  0.65861448246E+03  0.10100000352E+00 0.  1.
</event>
<event>
 5   0  0.9321543E-04  0.9002751E+03  0.7818609E-02  0.9425238E-01
        1   -1    0    0  501    0  0.00000000000E+00  0.00000000000E+00  0.58237393962E+03  0.58237393964E+03  0.50400001928E-02 0. -1.
       -1   -1    0    0    0  501  0.00000000000E+00  0.00000000000E+00 -0.34792733033E+03  0.34792733037E+03  0.50400001928E-02 0.  1.
    10030    2    1    2    0    0  0.00000000000E+00  0.00000000000E+00  0.23444660929E+03  0.93030127001E+03  0.90027509150E+03 0.  0.
        3    1    3    3  502    0  0.92765967634E+02  0.29129809391E+03  0.45864215400E+03  0.55119210797E+03  0.10100000352E+00 0. -1.
       -3    1    3    3    0  502 -0.92765967634E+02 -0.29129809391E+03 -0.22419554472E+03  0.37910916203E+03  0.10100000352E+00 0.  1.
</event>
<event>
 5   0  0.1007561E-03  0.9014886E+03  0.7818609E-02  0.9423723E-01
        1   -1    0    0  501    0  0.00000000000E+00  0.00000000000E+00  0.10790653866E+04  0.10790653866E+04  0.50400001928E-02 0. -1.
       -1   -1    0    0    0  501  0.00000000000E+00  0.00000000000E+00 -0.18828369690E+03  0.18828369697E+03  0.50400001928E-02 0.  1.
    10030    2    1    2    0    0  0.00000000000E+00  0.00000000000E+00  0.89078168968E+03  0.12673490836E+04  0.90148859169E+03 0.  0.
        2    1    3    3  502    0  0.43050621048E+02 -0.41016737461E+03  0.18969870023E+03  0.45395619617E+03  0.25500000920E-02 0.  1.
       -2    1    3    3    0  502 -0.43050621048E+02  0.41016737461E+03  0.70108298944E+03  0.81339288739E+03  0.25500000920E-02 0. -1.
</event>
<event>
 5   0  0.1635686E-03  0.9003973E+03  0.7818609E-02  0.9425085E-01
        2   -1    0    0  501    0  0.00000000000E+00  0.00000000000E+00  0.16674060843E+03  0.16674060845E+03  0.25500000920E-02 0. -1.
       -2   -1    0    0    0  501  0.00000000000E+00  0.00000000000E+00 -0.12155337661E+04  0.12155337661E+04  0.25500000920E-02 0.  1.
    10030    2    1    2    0    0  0.00000000000E+00  0.00000000000E+00 -0.10487931577E+04  0.13822743746E+04  0.90039733395E+03 0.  0.
        5    1    3    3  502    0  0.37149294862E+03  0.25291528328E+03 -0.48425813235E+03  0.66068235949E+03  0.46999998093E+01 0.  1.
       -5    1    3    3    0  502 -0.37149294862E+03 -0.25291528328E+03 -0.56453502535E+03  0.72159201509E+03  0.46999998093E+01 0. -1.
</event>
<event>
 5   0  0.1704416E-03  0.9005697E+03  0.7818609E-02  0.9424870E-01
        2   -1    0    0  501    0  0.00000000000E+00  0.00000000000E+00  0.23664097321E+03  0.23664097323E+03  0.25500000920E-02 0. -1.
       -2   -1    0    0    0  501  0.00000000000E+00  0.00000000000E+00 -0.85681034657E+03  0.85681034658E+03  0.25500000920E-02 0.  1.
    10030    2    1    2    0    0  0.00000000000E+00  0.00000000000E+00 -0.62016937336E+03  0.10934513198E+04  0.90056967367E+03 0.  0.
        3    1    3    3  502    0 -0.41350367050E+00 -0.30123533751E+03 -0.71645068873E+03  0.77720299738E+03  0.10100000352E+00 0.  1.
       -3    1    3    3    0  502  0.41350367050E+00  0.30123533751E+03  0.96281315371E+02  0.31624832243E+03  0.10100000352E+00 0. -1.
</event>
<event>
 5   0  0.9223454E-04  0.9004915E+03  0.7818609E-02  0.9424967E-01
        1   -1    0    0  501    0  0.00000000000E+00  0.00000000000E+00  0.26374969645E+03  0.26374969650E+03  0.50400001928E-02 0.  1.
       -1   -1    0    0    0  501  0.00000000000E+00  0.00000000000E+00 -0.76861218735E+03  0.76861218736E+03  0.50400001928E-02 0. -1.
    10030    2    1    2    0    0  0.00000000000E+00  0.00000000000E+00 -0.50486249090E+03  0.10323618839E+04  0.90049149054E+03 0.  0.
        1    1    3    3  502    0  0.36640167850E+03 -0.19371408604E+03 -0.50755409943E+02  0.41755412680E+03  0.50400001928E-02 0.  1.
       -1    1    3    3    0  502 -0.36640167850E+03  0.19371408604E+03 -0.45410708095E+03  0.61480775706E+03  0.50400001928E-02 0. -1.
</event>
<event>
 5   0  0.1630202E-03  0.9000893E+03  0.7818609E-02  0.9425470E-01
       -2   -1    0    0    0  501  0.00000000000E+00  0.00000000000E+00  0.93605530608E+02  0.93605530643E+02  0.25500000920E-02 0.  1.
        2   -1    0    0  501    0  0.00000000000E+00  0.00000000000E+00 -0.21637629853E+04  0.21637629853E+04  0.25500000920E-02 0. -1.
    10030    2    1    2    0    0  0.00000000000E+00  0.00000000000E+00 -0.20701574547E+04  0.22573685160E+04  0.90008928977E+03 0.  0.
        4    1    3    3  502    0 -0.30944390337E+03 -0.18662491671E+03 -0.17078150633E+04  0.17456283374E+04  0.12699999809E+01 0. -1.
       -4    1    3    3    0  502  0.30944390337E+03  0.18662491671E+03 -0.36234239136E+03  0.51174017855E+03  0.12699999809E+01 0.  1.
</event>
<event>
 5   0  0.1641516E-03  0.8990482E+03  0.7818609E-02  0.9426772E-01
       -2   -1    0    0    0  501  0.00000000000E+00  0.00000000000E+00  0.34043623710E+03  0.34043623711E+03  0.25500000920E-02 0. -1.
        2   -1    0    0  501    0  0.00000000000E+00  0.00000000000E+00 -0.59356758475E+03  0.59356758476E+03  0.25500000920E-02 0.  1.
    10030    2    1    2    0    0  0.00000000000E+00  0.00000000000E+00 -0.25313134765E+03  0.93400382187E+03  0.89904819676E+03 0.  0.
        1    1    3    3  502    0 -0.15753259424E+03  0.36128756685E+03  0.98002491865E+02  0.40614001606E+03  0.50400001928E-02 0. -1.
       -1    1    3    3    0  502  0.15753259424E+03 -0.36128756685E+03 -0.35113383952E+03  0.52786380581E+03  0.50400001928E-02 0.  1.
</event>
<event>
 5   0  0.1704416E-03  0.9019811E+03  0.7818609E-02  0.9423108E-01
       -2   -1    0    0    0  501  0.00000000000E+00  0.00000000000E+00  0.32852536341E+03  0.32852536342E+03  0.25500000920E-02 0. -1.
        2   -1    0    0  501    0  0.00000000000E+00  0.00000000000E+00 -0.61910737436E+03  0.61910737436E+03  0.25500000920E-02 0.  1.
    10030    2    1    2    0    0  0.00000000000E+00  0.00000000000E+00 -0.29058201095E+03  0.94763273778E+03  0.90198109771E+03 0.  0.
        3    1    3    3  502    0 -0.80273344624E+02 -0.39245916127E+03 -0.36295923706E+03  0.54056213435E+03  0.10100000352E+00 0.  1.
       -3    1    3    3    0  502  0.80273344624E+02  0.39245916127E+03  0.72377226103E+02  0.40707060344E+03  0.10100000352E+00 0. -1.
</event>
<event>
 5   0  0.9697941E-04  0.8979710E+03  0.7818609E-02  0.9428121E-01
       -1   -1    0    0    0  501  0.00000000000E+00  0.00000000000E+00  0.15694737404E+03  0.15694737412E+03  0.50400001928E-02 0. -1.
        1   -1    0    0  501    0  0.00000000000E+00  0.00000000000E+00 -0.12844305475E+04  0.12844305475E+04  0.50400001928E-02 0.  1.
    10030    2    1    2    0    0  0.00000000000E+00  0.00000000000E+00 -0.11274831734E+04  0.14413779216E+04  0.89797104994E+03 0.  0.
        5    1    3    3  502    0 -0.16487104617E+03 -0.33498630116E+03 -0.96396056402E+03  0.10337506193E+04  0.46999998093E+01 0.  1.
       -5    1    3    3    0  502  0.16487104617E+03  0.33498630116E+03 -0.16352260941E+03  0.40762730235E+03  0.46999998093E+01 0. -1.
</event>
<event>
 5   0  0.1007561E-03  0.9007191E+03  0.7818609E-02  0.9424683E-01
        1   -1    0    0  501    0  0.00000000000E+00  0.00000000000E+00  0.34110041533E+03  0.34110041537E+03  0.50400001928E-02 0.  1.
       -1   -1    0    0    0  501  0.00000000000E+00  0.00000000000E+00 -0.59461589142E+03  0.59461589144E+03  0.50400001928E-02 0. -1.
    10030    2    1    2    0    0  0.00000000000E+00  0.00000000000E+00 -0.25351547608E+03  0.93571630681E+03  0.90071910728E+03 0.  0.
        2    1    3    3  502    0 -0.16163704274E+03 -0.13862653502E+03 -0.53901409090E+03  0.57955158527E+03  0.25500000920E-02 0. -1.
       -2    1    3    3    0  502  0.16163704274E+03  0.13862653502E+03  0.28549861482E+03  0.35616472154E+03  0.25500000920E-02 0.  1.
</event>
<event>
 5   0  0.9223454E-04  0.9037612E+03  0.7818609E-02  0.9420892E-01
        1   -1    0    0  501    0  0.00000000000E+00  0.00000000000E+00  0.11856296657E+04  0.11856296657E+04  0.50400001928E-02 0. -1.
       -1   -1    0    0    0  501  0.00000000000E+00  0.00000000000E+00 -0.17222583981E+03  0.17222583988E+03  0.50400001928E-02 0.  1.
    10030    2    1    2    0    0  0.00000000000E+00  0.00000000000E+00  0.10134038259E+04  0.13578555056E+04  0.90376117405E+03 0.  0.
        1    1    3    3  502    0  0.28743590669E+03 -0.17232903527E+03  0.96211853459E+03  0.10188173396E+04  0.50400001928E-02 0. -1.
       -1    1    3    3    0  502 -0.28743590669E+03  0.17232903527E+03  0.51285291274E+02  0.33903816596E+03  0.50400001928E-02 0.  1.
</event>
<event>
 5   0  0.1536020E-03  0.8999799E+03  0.7818609E-02  0.9425607E-01
       -2   -1    0    0    0  501  0.00000000000E+00  0.00000000000E+00  0.18907934448E+03  0.18907934449E+03  0.25500000920E-02 0.  1.
        2   -1    0    0  501    0  0.00000000000E+00  0.00000000000E+00 -0.10709310348E+04  0.10709310348E+04  0.25500000920E-02 0. -1.
    10030    2    1    2    0    0  0.00000000000E+00  0.00000000000E+00 -0.88185169029E+03  0.12600103793E+04  0.89997986210E+03 0.  0.
        2    1    3    3  502    0  0.25850835991E+03  0.20313174325E+03 -0.87108741484E+03  0.93106517579E+03  0.25500000920E-02 0. -1.
       -2    1    3    3    0  502 -0.25850835991E+03 -0.20313174325E+03 -0.10764275448E+02  0.32894520348E+03  0.25500000920E-02 0.  1.
</event>
<event>
 5   0  0.1630202E-03  0.8956895E+03  0.7818609E-02  0.9430986E-01
        2   -1    0    0  501    0  0.00000000000E+00  0.00000000000E+00  0.25310175336E+03  0.25310175337E+03  0.25500000920E-02 0.  1.
       -2   -1    0    0    0  501  0.00000000000E+00  0.00000000000E+00 -0.79242804765E+03  0.79242804766E+03  0.25500000920E-02 0. -1.
    10030    2    1    2    0    0  0.00000000000E+00  0.00000000000E+00 -0.53932629429E+03  0.10455298010E+04  0.89568951826E+03 0.  0.
        4    1    3    3  502    0  0.23257918830E+03  0.37107171368E+03 -0.16031089727E+03  0.46635661484E+03  0.12699999809E+01 0. -1.
       -4    1    3    3    0  502 -0.23257918830E+03 -0.37107171368E+03 -0.37901539702E+03  0.57917318619E+03  0.12699999809E+01 0.  1.
</event>
<event>
 5   0  0.1007561E-03  0.9112518E+03  0.7818609E-02  0.9411624E-01
       -1   -1    0    0    0  501  0.00000000000E+00  0.00000000000E+00  0.22031024939E+03  0.22031024945E+03  0.50400001928E-02 0. -1.
        1   -1    0    0  501    0  0.00000000000E+00  0.00000000000E+00 -0.94228465783E+03  0.94228465784E+03  0.50400001928E-02 0.  1.
    10030    2    1    2    0    0  0.00000000000E+00  0.00000000000E+00 -0.72197440843E+03  0.11625949073E+04  0.91125181592E+03 0.  0.
        2    1    3    3  502    0  0.24776630071E+03 -0.59818813724E+02 -0.84281652469E+03  0.88051469297E+03  0.25500000920E-02 0.  1.
       -2    1    3    3    0  502 -0.24776630071E+03  0.59818813724E+02  0.12084211625E+03  0.28208021432E+03  0.25500000920E-02 0. -1.
</event>
<event>
 5   0  0.6375625E-04  0.8994044E+03  0.7818609E-02  0.9426326E-01
        3   -1    0    0  501    0  0.00000000000E+00  0.00000000000E+00  0.31184310641E+03  0.31184312277E+03  0.10100000352E+00 0.  1.
       -3   -1    0    0    0  501  0.00000000000E+00  0.00000000000E+00 -0.64850581419E+03  0.64850582206E+03  0.10100000352E+00 0. -1.
    10030    2    1    2    0    0  0.00000000000E+00  0.00000000000E+00 -0.33666270778E+03  0.96034894482E+03  0.89940442350E+03 0.  0.
        5    1    3    3  502    0 -0.13084088707E+03 -0.24977054726E+03 -0.54236076182E+03  0.61129530505E+03  0.46999998093E+01 0. -1.
       -5    1    3    3    0  502  0.13084088707E+03  0.24977054726E+03  0.20569805404E+03  0.34905363978E+03  0.46999998093E+01 0.  1.
</event>
<event>
 5   0  0.9697941E-04  0.9010927E+03  0.7818609E-02  0.9424217E-01
        1   -1    0    0  501    0  0.00000000000E+00  0.00000000000E+00  0.75723472414E+03  0.75723472416E+03  0.50400001928E-02 0.  1.
       -1   -1    0    0    0  501  0.00000000000E+00  0.00000000000E+00 -0.26807011714E+03  0.26807011718E+03  0.50400001928E-02 0. -1.
    10030    2    1    2    0    0  0.00000000000E+00  0.00000000000E+00  0.48916460701E+03  0.10253048413E+04  0.90109267278E+03 0.  0.
        5    1    3    3  502    0  0.31345096402E+03  0.23716690368E+03  0.49509009792E+03  0.63216765348E+03  0.46999998093E+01 0.  1.
       -5    1    3    3    0  502 -0.31345096402E+03 -0.23716690368E+03 -0.59254909104E+01  0.39313718787E+03  0.46999998093E+01 0. -1.
</event>
<event>
 5   0  0.1007561E-03  0.9018465E+03  0.7818609E-02  0.9423276E-01
       -1   -1    0    0    0  501  0.00000000000E+00  0.00000000000E+00  0.34380461565E+03  0.34380461569E+03  0.50400001928E-02 0.  1.
        1   -1    0    0  501    0  0.00000000000E+00  0.00000000000E+00 -0.59141668293E+03  0.59141668295E+03  0.50400001928E-02 0. -1.
    10030    2    1    2    0    0  0.00000000000E+00  0.00000000000E+00 -0.24761206727E+03  0.93522129864E+03  0.90184651774E+03 0.  0.
        2    1    3    3  502    0  0.44679174194E+03 -0.35145485705E+02 -0.17538314162E+03  0.48126636305E+03  0.25500000920E-02 0.  1.
       -2    1    3    3    0  502 -0.44679174194E+03  0.35145485705E+02 -0.72228925657E+02  0.45395493559E+03  0.25500000920E-02 0. -1.
</event>
<event>
 5   0  0.6375625E-04  0.9015843E+03  0.7818609E-02  0.9423603E-01
        3   -1    0    0  501    0  0.00000000000E+00  0.00000000000E+00  0.12544742060E+04  0.12544742101E+04  0.10100000352E+00 0. -1.
       -3   -1    0    0    0  501  0.00000000000E+00  0.00000000000E+00 -0.16199102108E+03  0.16199105257E+03  0.10100000352E+00 0.  1.
    10030    2    1    2    0    0  0.00000000000E+00  0.00000000000E+00  0.10924831849E+04  0.14164652627E+04  0.90158434488E+03 0.  0.
        4    1    3    3  502    0 -0.10572963033E+03  0.24774049599E+03  0.11141356701E+04  0.11462347109E+04  0.12699999809E+01 0. -1.
       -4    1    3    3    0  502  0.10572963033E+03 -0.24774049599E+03 -0.21652485216E+02  0.27023055175E+03  0.12699999809E+01 0.  1.
</event>
<event>
 5   0  0.1536020E-03  0.8998225E+03  0.7818609E-02  0.9425803E-01
        2   -1    0    0  501    0  0.00000000000E+00  0.00000000000E+00  0.81760622435E+03  0.81760622436E+03  0.25500000920E-02 0. -1.
       -2   -1    0    0    0  501  0.00000000000E+00  0.00000000000E+00 -0.24757653173E+03  0.24757653174E+03  0.25500000920E-02 0.  1.
    10030    2    1    2    0    0  0.00000000000E+00  0.00000000000E+00  0.57002969263E+03  0.10651827561E+04  0.89982245660E+03 0.  0.
        2    1    3    3  502    0 -0.32225676809E+03  0.31395644578E+03  0.28670515955E+03  0.53349594464E+03  0.25500000920E-02 0.  1.
       -2    1    3    3    0  502  0.32225676809E+03 -0.31395644578E+03  0.28332453308E+03  0.53168681146E+03  0.25500000920E-02 0. -1.
</event>
<event>
 5   0  0.1704416E-03  0.8997556E+03  0.7818609E-02  0.9425887E-01
        2   -1    0    0  501    0  0.00000000000E+00  0.00000000000E+00  0.84873811756E+03  0.84873811757E+03  0.25500000920E-02 0. -1.
       -2   -1    0    0    0  501  0.00000000000E+00  0.00000000000E+00 -0.23845995612E+03  0.23845995613E+03  0.25500000920E-02 0.  1.
    10030    2    1    2    0    0  0.00000000000E+00  0.00000000000E+00  0.61027816145E+03  0.10871980737E+04  0.89975564301E+03 0.  0.
        3    1    3    3  502    0 -0.14924843569E+03 -0.45383456650E+02  0.81501151876E+03  0.82980632657E+03  0.10100000352E+00 0. -1.
       -3    1    3    3    0  502  0.14924843569E+03  0.45383456650E+02 -0.20473335732E+03  0.25739174713E+03  0.10100000352E+00 0.  1.
</event>
<event>
 5   0  0.1536020E-03  0.9006072E+03  0.7818609E-02  0.9424823E-01
        2   -1    0    0  501    0  0.00000000000E+00  0.00000000000E+00  0.16089602975E+04  0.16089602975E+04  0.25500000920E-02 0. -1.
       -2   -1    0    0    0  501  0.00000000000E+00  0.00000000000E+00 -0.12602756870E+03  0.12602756873E+03  0.25500000920E-02 0.  1.
    10030    2    1    2    0    0  0.00000000000E+00  0.00000000000E+00  0.14829327288E+04  0.17349878663E+04  0.90060724949E+03 0.  0.
        2    1    3    3  502    0 -0.33637632025E+03 -0.24171464040E+03  0.40119384732E+03  0.57665544248E+03  0.25500000920E-02 0.  1.
       -2    1    3    3    0  502  0.33637632025E+03  0.24171464040E+03  0.10817388815E+04  0.11583324238E+04  0.25500000920E-02 0. -1.
</event>
<event>
 5   0  0.9321543E-04  0.9021797E+03  0.7818609E-02  0.9422861E-01
       -1   -1    0    0    0  501  0.00000000000E+00  0.00000000000E+00  0.29517272549E+03  0.29517272553E+03  0.50400001928E-02 0.  1.
        1   -1    0    0  501    0  0.00000000000E+00  0.00000000000E+00 -0.68936597877E+03  0.68936597879E+03  0.50400001928E-02 0. -1.
    10030    2    1    2    0    0  0.00000000000E+00  0.00000000000E+00 -0.39419325328E+03  0.98453870432E+03  0.90217966025E+03 0.  0.
        3    1    3    3  502    0  0.16099560890E+03  0.28967970278E+03 -0.53105263913E+03  0.62597989745E+03  0.10100000352E+00 0. -1.
       -3    1    3    3    0  502 -0.16099560890E+03 -0.28967970278E+03  0.13685938584E+03  0.35855880687E+03  0.10100000352E+00 0.  1.
</event>
<event>
 5   0  0.9697941E-04  0.8996893E+03  0.7818609E-02  0.9425970E-01
       -1   -1    0    0    0  501  0.00000000000E+00  0.00000000000E+00  0.41825286592E+03  0.41825286595E+03  0.50400001928E-02 0. -1.
        1   -1    0    0  501    0  0.00000000000E+00  0.00000000000E+00 -0.48382262183E+03  0.48382262186E+03  0.50400001928E-02 0.  1.
    10030    2    1    2    0    0  0.00000000000E+00  0.00000000000E+00 -0.65569755914E+02  0.90207548781E+03  0.89968927570E+03 0.  0.
        5    1    3    3  502    0  0.38630203620E+03  0.16599689808E+03  0.12749489553E+03  0.43938738230E+03  0.46999998093E+01 0. -1.
       -5    1    3    3    0  502 -0.38630203620E+03 -0.16599689808E+03 -0.19306465144E+03  0.46268810551E+03  0.46999998093E+01 0.  1.
</event>
<event>
 5   0  0.1635686E-03  0.8998246E+03  0.7818609E-02  0.9425801E-01
       -2   -1    0    0    0  501  0.00000000000E+00  0.00000000000E+00  0.11719325138E+03  0.11719325140E+03  0.25500000920E-02 0. -1.
        2   -1    0    0  501    0  0.00000000000E+00  0.00000000000E+00 -0.17272419178E+04  0.17272419178E+04  0.25500000920E-02 0.  1.
    10030    2    1    2    0    0  0.00000000000E+00  0.00000000000E+00 -0.16100486664E+04  0.18444351692E+04  0.89982464133E+03 0.  0.
        5    1    3    3  502    0  0.12993735837E+03  0.40718898693E+03 -0.51723448920E+03  0.67099940014E+03  0.46999998093E+01 0. -1.
       -5    1    3    3    0  502 -0.12993735837E+03 -0.40718898693E+03 -0.10928141772E+04  0.11734357690E+04  0.46999998093E+01 0.  1.
</event>
<event>
 5   0  0.9697941E-04  0.9024615E+03  0.7818609E-02  0.9422510E-01
       -1   -1    0    0    0  501  0.00000000000E+00  0.00000000000E+00  0.38635207962E+03  0.38635207965E+03  0.50400001928E-02 0.  1.
        1   -1    0    0  501    0  0.00000000000E+00  0.00000000000E+00 -0.52700420341E+03  0.52700420344E+03  0.50400001928E-02 0. -1.
    10030    2    1    2    0    0  0.00000000000E+00  0.00000000000E+00 -0.14065212380E+03  0.91335628309E+03  0.90246145620E+03 0.  0.
        5    1    3    3  502    0 -0.38384644198E+03  0.72838558596E+02 -0.29875761368E+03  0.49185541409E+03  0.46999998093E+01 0. -1.
       -5    1    3    3    0  502  0.38384644198E+03 -0.72838558596E+02  0.15810548988E+03  0.42150086900E+03  0.46999998093E+01 0.  1.
</event>
<event>
 5   0  0.1007561E-03  0.9007510E+03  0.7818609E-02  0.9424643E-01
        1   -1    0    0  501    0  0.00000000000E+00  0.00000000000E+00  0.78743820147E+03  0.78743820149E+03  0.50400001928E-02 0. -1.
       -1   -1    0    0    0  501  0.00000000000E+00  0.00000000000E+00 -0.25759236752E+03  0.25759236757E+03  0.50400001928E-02 0.  1.
    10030    2    1    2    0    0  0.00000000000E+00  0.00000000000E+00  0.52984583395E+03  0.10450305691E+04  0.90075095476E+03 0.  0.
        2    1    3    3  502    0  0.33908723442E+03  0.20459662033E+03  0.51374814092E+03  0.64867332449E+03  0.25500000920E-02 0. -1.
       -2    1    3    3    0  502 -0.33908723442E+03 -0.20459662033E+03  0.16097693031E+02  0.39635724457E+03  0.25500000920E-02 0.  1.
</event>
<event>
 5   0  0.1635686E-03  0.8994834E+03  0.7818609E-02  0.9426227E-01
       -2   -1    0    0    0  501  0.00000000000E+00  0.00000000000E+00  0.15674977200E+04  0.15674977200E+04  0.25500000920E-02 0. -1.
        2   -1    0    0  501    0  0.00000000000E+00  0.00000000000E+00 -0.12903853522E+03  0.12903853524E+03  0.25500000920E-02 0.  1.
    10030    2    1    2    0    0  0.00000000000E+00  0.00000000000E+00  0.14384591847E+04  0.16965362552E+04  0.89948342901E+03 0.  0.
        5    1    3    3  502    0  0.26167791798E+03 -0.31439148261E+03  0.36673052439E+03  0.54939121271E+03  0.46999998093E+01 0.  1.
       -5    1    3    3    0  502 -0.26167791798E+03  0.31439148261E+03  0.10717286604E+04  0.11471450425E+04  0.46999998093E+01 0. -1.
</event>
<event>
 5   0  0.9223454E-04  0.9053404E+03  0.7818609E-02  0.9418930E-01
       -1   -1    0    0    0  501  0.00000000000E+00  0.00000000000E+00  0.14099549485E+03  0.14099549494E+03  0.50400001928E-02 0. -1.
        1   -1    0    0  501    0  0.00000000000E+00  0.00000000000E+00 -0.14533110709E+04  0.14533110710E+04  0.50400001928E-02 0.  1.
    10030    2    1    2    0    0  0.00000000000E+00  0.00000000000E+00 -0.13123155761E+04  0.15943065659E+04  0.90534040824E+03 0.  0.
        1    1    3    3  502    0  0.15319714504E+03  0.34420044805E+03 -0.21426549112E+03  0.43342013612E+03  0.50400001928E-02 0. -1.
       -1    1    3    3    0  502 -0.15319714504E+03 -0.34420044805E+03 -0.10980500850E+04  0.11608864298E+04  0.50400001928E-02 0.  1.
</event>
<event>
 5   0  0.1704416E-03  0.9023114E+03  0.7818609E-02  0.9422697E-01
        2   -1    0    0  501    0  0.00000000000E+00  0.00000000000E+00  0.68543159080E+03  0.68543159081E+03  0.25500000920E-02 0. -1.
       -2   -1    0    0    0  501  0.00000000000E+00  0.00000000000E+00 -0.29695372743E+03  0.29695372744E+03  0.25500000920E-02 0.  1.
    10030    2    1    2    0    0  0.00000000000E+00  0.00000000000E+00  0.38847786337E+03  0.98238531825E+03  0.90231140034E+03 0.  0.
        3    1    3    3  502    0  0.43116199933E+03  0.94913747927E+02  0.29539345790E+03  0.53119355641E+03  0.10100000352E+00 0. -1.
       -3    1    3    3    0  502 -0.43116199933E+03 -0.94913747927E+02  0.93084405475E+02  0.45119176184E+03  0.10100000352E+00 0.  1.
</event>
<event>
 5   0  0.1630202E-03  0.8949902E+03  0.7818609E-02  0.9431866E-01
        2   -1    0    0  501    0  0.00000000000E+00  0.00000000000E+00  0.57831523894E+03  0.57831523895E+03  0.25500000920E-02 0.  1.
       -2   -1    0    0    0  501  0.00000000000E+00  0.00000000000E+00 -0.34626763412E+03  0.34626763413E+03  0.25500000920E-02 0. -1.
    10030    2    1    2    0    0  0.00000000000E+00  0.00000000000E+00  0.23204760482E+03  0.92458287307E+03  0.89499016658E+03 0.  0.
        4    1    3    3  502    0  0.20351329051E+03  0.31515395879E+03 -0.13599015687E+03  0.39904211910E+03  0.12699999809E+01 0. -1.
       -4    1    3    3    0  502 -0.20351329051E+03 -0.31515395879E+03  0.36803776169E+03  0.52554075397E+03  0.12699999809E+01 0.  1.
</event>
<event>
 5   0  0.1704416E-03  0.9029745E+03  0.7818609E-02  0.9421871E-01
       -2   -1    0    0    0  501  0.00000000000E+00  0.00000000000E+00  0.14415660963E+03  0.14415660965E+03  0.25500000920E-02 0.  1.
        2   -1    0    0  501    0  0.00000000000E+00  0.00000000000E+00 -0.14140229811E+04  0.14140229811E+04  0.25500000920E-02 0. -1.
    10030    2    1    2    0    0  0.00000000000E+00  0.00000000000E+00 -0.12698663715E+04  0.15581795908E+04  0.90297454874E+03 0.  0.
        3    1    3    3  502    0 -0.42233457967E+03  0.15940374937E+03 -0.62105344229E+03  0.76777824981E+03  0.10100000352E+00 0.  1.
       -3    1    3    3    0  502  0.42233457967E+03 -0.15940374937E+03 -0.64881292920E+03  0.79040134097E+03  0.10100000352E+00 0. -1.
</event>
<event>
 5   0  0.6375625E-04  0.8978974E+03  0.7818609E-02  0.9428214E-01
        4   -1    0    0  501    0  0.00000000000E+00  0.00000000000E+00  0.13143059281E+04  0.13143065416E+04  0.12699999809E+01 0. -1.
       -4   -1    0    0    0  501  0.00000000000E+00  0.00000000000E+00 -0.15335138733E+03  0.15335664607E+03  0.12699999809E+01 0.  1.
    10030    2    1    2    0    0  0.00000000000E+00  0.00000000000E+00  0.11609545407E+04  0.14676631877E+04  0.89789742563E+03 0.  0.
        5    1    3    3  502    0 -0.27850692873E+03 -0.19323249135E+03  0.10615698935E+04  0.11143866626E+04  0.46999998093E+01 0. -1.
       -5    1    3    3    0  502  0.27850692873E+03  0.19323249135E+03  0.99384647207E+02  0.35327652507E+03  0.46999998093E+01 0.  1.
</event>
<event>
 5   0  0.1630202E-03  0.9011523E+03  0.7818609E-02  0.9424142E-01
       -2   -1    0    0    0  501  0.00000000000E+00  0.00000000000E+00  0.18522206101E+03  0.18522206103E+03  0.25500000920E-02 0. -1.
        2   -1    0    0  501    0  0.00000000000E+00  0.00000000000E+00 -0.10960836586E+04  0.10960836586E+04  0.25500000920E-02 0.  1.
    10030    2    1    2    0    0  0.00000000000E+00  0.00000000000E+00 -0.91086159762E+03  0.12813057197E+04  0.90115231633E+03 0.  0.
        4    1    3    3  502    0  0.31689175934E+02 -0.44765170676E+03 -0.39818455421E+03  0.59995733727E+03  0.12699999809E+01 0.  1.
       -4    1    3    3    0  502 -0.31689175934E+02  0.44765170676E+03 -0.51267704342E+03  0.68134838239E+03  0.12699999809E+01 0. -1.
</event>
<event>
 5   0  0.9697941E-04  0.9016620E+03  0.7818609E-02  0.9423506E-01
       -1   -1    0    0    0  501  0.00000000000E+00  0.00000000000E+00  0.13680826790E+03  0.13680826799E+03  0.50400001928E-02 0.  1.
        1   -1    0    0  501    0  0.00000000000E+00  0.00000000000E+00 -0.14856456195E+04  0.14856456195E+04  0.50400001928E-02 0. -1.
    10030    2    1    2    0    0  0.00000000000E+00  0.00000000000E+00 -0.13488373516E+04  0.16224538875E+04  0.90166202978E+03 0.  0.
        5    1    3    3  502    0  0.32527950349E+03 -0.20747947671E+03 -0.25483717082E+03  0.46240519274E+03  0.46999998093E+01 0.  1.
       -5    1    3    3    0  502 -0.32527950349E+03  0.20747947671E+03 -0.10940001807E+04  0.11600486947E+04  0.46999998093E+01 0. -1.
</event>
<event>
 5   0  0.6375625E-04  0.9000088E+03  0.7818609E-02  0.9425570E-01
        4   -1    0    0  501    0  0.00000000000E+00  0.00000000000E+00  0.40018690633E+03  0.40018892151E+03  0.12699999809E+01 0. -1.
       -4   -1    0    0    0  501  0.00000000000E+00  0.00000000000E+00 -0.50601935787E+03  0.50602095158E+03  0.12699999809E+01 0.  1.
    10030    2    1    2    0    0  0.00000000000E+00  0.00000000000E+00 -0.10583245154E+03  0.90620987309E+03  0.90000879234E+03 0.  0.
        1    1    3    3  502    0 -0.26058275031E+03 -0.17613078274E+03  0.27113742430E+03  0.41526006944E+03  0.50400001928E-02 0. -1.
       -1    1    3    3    0  502  0.26058275031E+03  0.17613078274E+03 -0.37696987584E+03  0.49094980365E+03  0.50400001928E-02 0.  1.
</event>
<event>
 5   0  0.6375625E-04  0.9005354E+03  0.7818609E-02  0.9424912E-01
        3   -1    0    0  501    0  0.00000000000E+00  0.00000000000E+00  0.74853265766E+03  0.74853266447E+03  0.10100000352E+00 0.  1.
       -3   -1    0    0    0  501  0.00000000000E+00  0.00000000000E+00 -0.27085120991E+03  0.27085122874E+03  0.10100000352E+00 0. -1.
    10030    2    1    2    0    0  0.00000000000E+00  0.00000000000E+00  0.47768144775E+03  0.10193838932E+04  0.90053537199E+03 0.  0.
        3    1    3    3  502    0 -0.13294609726E+03  0.11174226186E+03  0.70909440033E+03  0.73005196845E+03  0.10100000352E+00 0.  1.
       -3    1    3    3    0  502  0.13294609726E+03 -0.11174226186E+03 -0.23141295258E+03  0.28933192476E+03  0.10100000352E+00 0. -1.
</event>
<event>
 5   0  0.6375625E-04  0.8987085E+03  0.7818609E-02  0.9427197E-01
        3   -1    0    0  501    0  0.00000000000E+00  0.00000000000E+00  0.79922150378E+03  0.79922151016E+03  0.10100000352E+00 0.  1.
       -3   -1    0    0    0  501  0.00000000000E+00  0.00000000000E+00 -0.25264489780E+03  0.25264491799E+03  0.10100000352E+00 0. -1.
    10030    2    1    2    0    0  0.00000000000E+00  0.00000000000E+00  0.54657660598E+03  0.10518664281E+04  0.89870851585E+03 0.  0.
        3    1    3    3  502    0 -0.41469561617E+03 -0.14143984046E+03  0.38998778467E+03  0.58657323918E+03  0.10100000352E+00 0.  1.
       -3    1    3    3    0  502  0.41469561617E+03  0.14143984046E+03  0.15658882131E+03  0.46529318896E+03  0.10100000352E+00 0. -1.
</event>
<event>
 5   0  0.6375625E-04  0.8998792E+03  0.7818609E-02  0.9425732E-01
        3   -1    0    0  501    0  0.00000000000E+00  0.00000000000E+00  0.36939554206E+03  0.36939555587E+03  0.10100000352E+00 0.  1.
       -3   -1    0    0    0  501  0.00000000000E+00  0.00000000000E+00 -0.54804568765E+03  0.54804569696E+03  0.10100000352E+00 0. -1.
    10030    2    1    2    0    0  0.00000000000E+00  0.00000000000E+00 -0.17865014560E+03  0.91744125282E+03  0.89987920182E+03 0.  0.
        2    1    3    3  502    0  0.91316041478E+02 -0.96919514288E+02  0.34884582026E+03  0.37339713175E+03  0.25500000920E-02 0.  1.
       -2    1    3    3    0  502 -0.91316041478E+02  0.96919514288E+02 -0.52749596585E+03  0.54404412108E+03  0.25500000920E-02 0. -1.
</event>
<event>
 5   0  0.1007561E-03  0.8971842E+03  0.7818609E-02  0.9429108E-01
       -1   -1    0    0    0  501  0.00000000000E+00  0.00000000000E+00  0.16864191271E+03  0.16864191279E+03  0.50400001928E-02 0.  1.
        1   -1    0    0  501    0  0.00000000000E+00  0.00000000000E+00 -0.11932671699E+04  0.11932671699E+04  0.50400001928E-02 0. -1.
    10030    2    1    2    0    0  0.00000000000E+00  0.00000000000E+00 -0.10246252572E+04  0.13619090827E+04  0.89718416832E+03 0.  0.
        2    1    3    3  502    0 -0.88904388549E+02 -0.38417396551E+03 -0.83696639318E+03  0.92520612265E+03  0.25500000920E-02 0. -1.
       -2    1    3    3    0  502  0.88904388549E+02  0.38417396551E+03 -0.18765886405E+03  0.43670296008E+03  0.25500000920E-02 0.  1.
</event>
<event>
 5   0  0.9321543E-04  0.9002233E+03  0.7818609E-02  0.9425302E-01
        1   -1    0    0  501    0  0.00000000000E+00  0.00000000000E+00  0.42584182397E+03  0.42584182400E+03  0.50400001928E-02 0. -1.
       -1   -1    0    0    0  501  0.00000000000E+00  0.00000000000E+00 -0.47576467783E+03  0.47576467786E+03  0.50400001928E-02 0.  1.
    10030    2    1    2    0    0  0.00000000000E+00  0.00000000000E+00 -0.49922853858E+02  0.90160650186E+03  0.90022330166E+03 0.  0.
        3    1    3    3  502    0  0.45908782778E+02 -0.28481758483E+03 -0.37099455878E+03  0.46996345157E+03  0.10100000352E+00 0.  1.
       -3    1    3    3    0  502 -0.45908782778E+02  0.28481758483E+03  0.32107170492E+03  0.43164305029E+03  0.10100000352E+00 0. -1.
</event>
<event>
 5   0  0.9697941E-04  0.9001069E+03  0.7818609E-02  0.9425448E-01
       -1   -1    0    0    0  501  0.00000000000E+00  0.00000000000E+00  0.45394546235E+03  0.45394546238E+03  0.50400001928E-02 0. -1.
        1   -1    0    0  501    0  0.00000000000E+00  0.00000000000E+00 -0.44619485369E+03  0.44619485372E+03  0.50400001928E-02 0.  1.
    10030    2    1    2    0    0  0.00000000000E+00  0.00000000000E+00  0.77506086626E+01  0.90014031610E+03  0.90010694738E+03 0.  0.
        5    1    3    3  502    0 -0.43995645914E+03 -0.12693031959E+02  0.97704366471E+02  0.45087806803E+03  0.46999998093E+01 0.  1.
       -5    1    3    3    0  502  0.43995645914E+03  0.12693031959E+02 -0.89953757808E+02  0.44926224807E+03  0.46999998093E+01 0. -1.
</event>
<event>
 5   0  0.1635686E-03  0.9000014E+03  0.7818609E-02  0.9425580E-01
       -2   -1    0    0    0  501  0.00000000000E+00  0.00000000000E+00  0.19617126057E+03  0.19617126059E+03  0.25500000920E-02 0.  1.
        2   -1    0    0  501    0  0.00000000000E+00  0.00000000000E+00 -0.10322645025E+04  0.10322645025E+04  0.25500000920E-02 0. -1.
    10030    2    1    2    0    0  0.00000000000E+00  0.00000000000E+00 -0.83609324194E+03  0.12284357631E+04  0.90000139715E+03 0.  0.
        5    1    3    3  502    0  0.15738037878E+03  0.38166049747E+03 -0.66238455363E+03  0.78051822902E+03  0.46999998093E+01 0. -1.
       -5    1    3    3    0  502 -0.15738037878E+03 -0.38166049747E+03 -0.17370868831E+03  0.44791753409E+03  0.46999998093E+01 0.  1.
</event>
<event>
 5   0  0.9223454E-04  0.8996191E+03  0.7818609E-02  0.9426058E-01
        1   -1    0    0  501    0  0.00000000000E+00  0.00000000000E+00  0.32190079550E+03  0.32190079554E+03  0.50400001928E-02 0.  1.
       -1   -1    0    0    0  501  0.00000000000E+00  0.00000000000E+00 -0.62854339218E+03  0.62854339220E+03  0.50400001928E-02 0. -1.
    10030    2    1    2    0    0  0.00000000000E+00  0.00000000000E+00 -0.30664259668E+03  0.95044418774E+03  0.89961907045E+03 0.  0.
        1    1    3    3  502    0  0.15474311130E+03  0.27157055008E+03  0.18842319390E+03  0.36496478486E+03  0.50400001928E-02 0.  1.
       -1    1    3    3    0  502 -0.15474311130E+03 -0.27157055008E+03 -0.49506579058E+03  0.58547940288E+03  0.50400001928E-02 0. -1.
</event>
<event>
 5   0  0.9697941E-04  0.9000096E+03  0.7818609E-02  0.9425569E-01
        1   -1    0    0  501    0  0.00000000000E+00  0.00000000000E+00  0.16466912732E+04  0.16466912732E+04  0.50400001928E-02 0. -1.
       -1   -1    0    0    0  501  0.00000000000E+00  0.00000000000E+00 -0.12297650377E+03  0.12297650387E+03  0.50400001928E-02 0.  1.
    10030    2    1    2    0    0  0.00000000000E+00  0.00000000000E+00  0.15237147694E+04  0.17696677770E+04  0.90000963475E+03 0.  0.
        5    1    3    3  502    0 -0.17603331436E+03  0.31162322340E+03  0.12981337814E+04  0.13465772037E+04  0.46999998093E+01 0. -1.
       -5    1    3    3    0  502  0.17603331436E+03 -0.31162322340E+03  0.22558098804E+03  0.42309057339E+03  0.46999998093E+01 0.  1.
</event>
<event>
 5   0  0.9981885E-04  0.8999285E+03  0.7818609E-02  0.9425671E-01
       -1   -1    0    0    0  501  0.00000000000E+00  0.00000000000E+00  0.19391580063E+03  0.19391580069E+03  0.50400001928E-02 0.  1.
        1   -1    0    0  501    0  0.00000000000E+00  0.00000000000E+00 -0.10441016368E+04  0.10441016368E+04  0.50400001928E-02 0. -1.
    10030    2    1    2    0    0  0.00000000000E+00  0.00000000000E+00 -0.85018583617E+03  0.12380174375E+04  0.89992845245E+03 0.  0.
        4    1    3    3  502    0  0.17387126377E+03  0.17239631288E+03  0.94242911058E+02  0.26236433493E+03  0.12699999809E+01 0.  1.
       -4    1    3    3    0  502 -0.17387126377E+03 -0.17239631288E+03 -0.94442874723E+03  0.97565310257E+03  0.12699999809E+01 0. -1.
</event>
<event>
 5   0  0.1007561E-03  0.8994800E+03  0.7818609E-02  0.9426232E-01
        1   -1    0    0  501    0  0.00000000000E+00  0.00000000000E+00  0.51274664703E+03  0.51274664705E+03  0.50400001928E-02 0. -1.
       -1   -1    0    0    0  501  0.00000000000E+00  0.00000000000E+00 -0.39447566027E+03  0.39447566030E+03  0.50400001928E-02 0.  1.
    10030    2    1    2    0    0  0.00000000000E+00  0.00000000000E+00  0.11827098676E+03  0.90722230736E+03  0.89948001015E+03 0.  0.
        2    1    3    3  502    0 -0.31019453556E+03  0.10594577271E+03 -0.25144507211E+03  0.41312199281E+03  0.25500000920E-02 0.  1.
       -2    1    3    3    0  502  0.31019453556E+03 -0.10594577271E+03  0.36971605887E+03  0.49410031455E+03  0.25500000920E-02 0. -1.
</event>
<event>
 5   0  0.1536020E-03  0.9025784E+03  0.7818609E-02  0.9422364E-01
       -2   -1    0    0    0  501  0.00000000000E+00  0.00000000000E+00  0.30270972733E+03  0.30270972734E+03  0.25500000920E-02 0. -1.
        2   -1    0    0  501    0  0.00000000000E+00  0.00000000000E+00 -0.67279616663E+03  0.67279616663E+03  0.25500000920E-02 0.  1.
    10030    2    1    2    0    0  0.00000000000E+00  0.00000000000E+00 -0.37008643929E+03  0.97550589397E+03  0.90257840470E+03 0.  0.
        2    1    3    3  502    0 -0.10268878146E+03  0.14241219677E+02 -0.65975170724E+03  0.66784737282E+03  0.25500000920E-02 0.  1.
       -2    1    3    3    0  502  0.10268878146E+03 -0.14241219677E+02  0.28966526795E+03  0.30765852115E+03  0.25500000920E-02 0. -1.
</event>
<event>
 5   0  0.1704416E-03  0.9030266E+03  0.7818609E-02  0.9421806E-01
        2   -1    0    0  501    0  0.00000000000E+00  0.00000000000E+00  0.95063955989E+03  0.95063955989E+03  0.25500000920E-02 0.  1.
       -2   -1    0    0    0  501  0.00000000000E+00  0.00000000000E+00 -0.21444957624E+03  0.21444957626E+03  0.25500000920E-02 0. -1.
    10030    2    1    2    0    0  0.00000000000E+00  0.00000000000E+00  0.73618998364E+03  0.11650891362E+04  0.90302657943E+03 0.  0.
        3    1    3    3  502    0 -0.98602899103E+02  0.38985649025E+03  0.63299141107E+03  0.74992583059E+03  0.10100000352E+00 0.  1.
       -3    1    3    3    0  502  0.98602899103E+02 -0.38985649025E+03  0.10319857257E+03  0.41516330556E+03  0.10100000352E+00 0. -1.
</event>
<event>
 5   0  0.1630202E-03  0.8917845E+03  0.7818609E-02  0.9435910E-01
        2   -1    0    0  501    0  0.00000000000E+00  0.00000000000E+00  0.20791600011E+03  0.20791600012E+03  0.25500000920E-02 0. -1.
       -2   -1    0    0    0  501  0.00000000000E+00  0.00000000000E+00 -0.95625104435E+03  0.95625104435E+03  0.25500000920E-02 0.  1.
    10030    2    1    2    0    0  0.00000000000E+00  0.00000000000E+00 -0.74833504424E+03  0.11641670445E+04  0.89178448573E+03 0.  0.
        4    1    3    3  502    0  0.79515265307E+02  0.41274660332E+03 -0.17994328469E+03  0.45723476965E+03  0.12699999809E+01 0. -1.
       -4    1    3    3    0  502 -0.79515265307E+02 -0.41274660332E+03 -0.56839175955E+03  0.70693227483E+03  0.12699999809E+01 0.  1.
</event>
<event>
 5   0  0.9321543E-04  0.9013874E+03  0.7818609E-02  0.9423849E-01
        1   -1    0    0  501    0  0.00000000000E+00  0.00000000000E+00  0.70853063317E+03  0.70853063319E+03  0.50400001928E-02 0.  1.
       -1   -1    0    0    0  501  0.00000000000E+00  0.00000000000E+00 -0.28668460243E+03  0.28668460247E+03  0.50400001928E-02 0. -1.
    10030    2    1    2    0    0  0.00000000000E+00  0.00000000000E+00  0.42184603074E+03  0.99521523566E+03  0.90138742594E+03 0.  0.
        3    1    3    3  502    0 -0.37728607623E+03  0.10890173630E+03 -0.33279820581E+02  0.39409634373E+03  0.10100000352E+00 0.  1.
       -3    1    3    3    0  502  0.37728607623E+03 -0.10890173630E+03  0.45512585132E+03  0.60111889193E+03  0.10100000352E+00 0. -1.
</event>
<event>
 5   0  0.1641516E-03  0.8999118E+03  0.7818609E-02  0.9425692E-01
       -2   -1    0    0    0  501  0.00000000000E+00  0.00000000000E+00  0.17623763227E+03  0.17623763229E+03  0.25500000920E-02 0.  1.
        2   -1    0    0  501    0  0.00000000000E+00  0.00000000000E+00 -0.11487916333E+04  0.11487916333E+04  0.25500000920E-02 0. -1.
    10030    2    1    2    0    0  0.00000000000E+00  0.00000000000E+00 -0.97255400101E+03  0.13250292656E+04  0.89991181219E+03 0.  0.
        1    1    3    3  502    0  0.37192422434E+03  0.25272684140E+03 -0.51010223599E+03  0.68000204132E+03  0.50400001928E-02 0. -1.
       -1    1    3    3    0  502 -0.37192422434E+03 -0.25272684140E+03 -0.46245176502E+03  0.64502722424E+03  0.50400001928E-02 0.  1.
</event>
<event>
 5   0  0.1635686E-03  0.9023184E+03  0.7818609E-02  0.9422688E-01
        2   -1    0    0  501    0  0.00000000000E+00  0.00000000000E+00  0.42959616081E+03  0.42959616082E+03  0.25500000920E-02 0.  1.
       -2   -1    0    0    0  501  0.00000000000E+00  0.00000000000E+00 -0.47380455810E+03  0.47380455811E+03  0.25500000920E-02 0. -1.
    10030    2    1    2    0    0  0.00000000000E+00  0.00000000000E+00 -0.44208397293E+02  0.90340071892E+03  0.90231838979E+03 0.  0.
        5    1    3    3  502    0  0.37750999134E+03 -0.18148044520E+03  0.14564851341E+03  0.44349129079E+03  0.46999998093E+01 0.  1.
       -5    1    3    3    0  502 -0.37750999134E+03  0.18148044520E+03 -0.18985691070E+03  0.45990942814E+03  0.46999998093E+01 0. -1.
</event>
<event>
 5   0  0.9981885E-04  0.8764108E+03  0.7818609E-02  0.9455559E-01
        1   -1    0    0  501    0  0.00000000000E+00  0.00000000000E+00  0.78965122374E+03  0.78965122375E+03  0.50400001928E-02 0. -1.
       -1   -1    0    0    0  501  0.00000000000E+00  0.00000000000E+00 -0.24317566861E+03  0.24317566867E+03  0.50400001928E-02 0.  1.
    10030    2    1    2    0    0  0.00000000000E+00  0.00000000000E+00  0.54647555512E+03  0.10328268924E+04  0.87641078117E+03 0.  0.
        4    1    3    3  502    0  0.26340276459E+03 -0.31582923131E+03  0.94928730980E+02  0.42206894770E+03  0.12699999809E+01 0.  1.
       -4    1    3    3    0  502 -0.26340276459E+03  0.31582923131E+03  0.45154682414E+03  0.61075794472E+03  0.12699999809E+01 0. -1.
</event>
<event>
 5   0  0.1007561E-03  0.8990420E+03  0.7818609E-02  0.9426780E-01
       -1   -1    0    0    0  501  0.00000000000E+00  0.00000000000E+00  0.17811006014E+03  0.17811006022E+03  0.50400001928E-02 0. -1.
        1   -1    0    0  501    0  0.00000000000E+00  0.00000000000E+00 -0.11345184173E+04  0.11345184173E+04  0.50400001928E-02 0.  1.
    10030    2    1    2    0    0  0.00000000000E+00  0.00000000000E+00 -0.95640835718E+03  0.13126284776E+04  0.89904203149E+03 0.  0.
        2    1    3    3  502    0  0.21607550462E+03  0.22952515022E+02 -0.10527472901E+04  0.10749382766E+04  0.25500000920E-02 0.  1.
       -2    1    3    3    0  502 -0.21607550462E+03 -0.22952515022E+02  0.96338932907E+02  0.23769020098E+03  0.25500000920E-02 0. -1.
</event>
<event>
 5   0  0.1007561E-03  0.8855294E+03  0.7818609E-02  0.9443853E-01
       -1   -1    0    0    0  501  0.00000000000E+00  0.00000000000E+00  0.20587735211E+03  0.20587735217E+03  0.50400001928E-02 0. -1.
        1   -1    0    0  501    0  0.00000000000E+00  0.00000000000E+00 -0.95222012621E+03  0.95222012622E+03  0.50400001928E-02 0.  1.
    10030    2    1    2    0    0  0.00000000000E+00  0.00000000000E+00 -0.74634277410E+03  0.11580974784E+04  0.88552935186E+03 0.  0.
        2    1    3    3  502    0 -0.13405073303E+03  0.29867772330E+03 -0.76302503862E+03  0.83029223228E+03  0.25500000920E-02 0.  1.
       -2    1    3    3    0  502  0.13405073303E+03 -0.29867772330E+03  0.16682264518E+02  0.32780524611E+03  0.25500000920E-02 0. -1.
</event>
<event>
 5   0  0.9321543E-04  0.9257614E+03  0.7818609E-02  0.9393939E-01
       -1   -1    0    0    0  501  0.00000000000E+00  0.00000000000E+00  0.22944994107E+03  0.22944994112E+03  0.50400001928E-02 0.  1.
        1   -1    0    0  501    0  0.00000000000E+00  0.00000000000E+00 -0.93379213733E+03  0.93379213734E+03  0.50400001928E-02 0. -1.
    10030    2    1    2    0    0  0.00000000000E+00  0.00000000000E+00 -0.70434219626E+03  0.11632420785E+04  0.92576141834E+03 0.  0.
        3    1    3    3  502    0  0.25984989874E+03  0.37123836718E+03 -0.47083550677E+03  0.65347224866E+03  0.10100000352E+00 0. -1.
       -3    1    3    3    0  502 -0.25984989874E+03 -0.37123836718E+03 -0.23350668949E+03  0.50976982980E+03  0.10100000352E+00 0.  1.
</event>
<event>
 5   0  0.1007561E-03  0.8990821E+03  0.7818609E-02  0.9426730E-01
        1   -1    0    0  501    0  0.00000000000E+00  0.00000000000E+00  0.90023760889E+03  0.90023760890E+03  0.50400001928E-02 0.  1.
       -1   -1    0    0    0  501  0.00000000000E+00  0.00000000000E+00 -0.22448202065E+03  0.22448202071E+03  0.50400001928E-02 0. -1.
    10030    2    1    2    0    0  0.00000000000E+00  0.00000000000E+00  0.67575558824E+03  0.11247196296E+04  0.89908210426E+03 0.  0.
        2    1    3    3  502    0 -0.37398975495E+03  0.60378989747E+02  0.35120656226E+02  0.38045685657E+03  0.25500000920E-02 0. -1.
       -2    1    3    3    0  502  0.37398975495E+03 -0.60378989747E+02  0.64063493201E+03  0.74426277304E+03  0.25500000920E-02 0.  1.
</event>
<event>
 5   0  0.1536020E-03  0.9012631E+03  0.7818609E-02  0.9424004E-01
        2   -1    0    0  501    0  0.00000000000E+00  0.00000000000E+00  0.22634024245E+04  0.22634024245E+04  0.25500000920E-02 0.  1.
       -2   -1    0    0    0  501  0.00000000000E+00  0.00000000000E+00 -0.89718382633E+02  0.89718382669E+02  0.25500000920E-02 0. -1.
    10030    2    1    2    0    0  0.00000000000E+00  0.00000000000E+00  0.21736840418E+04  0.23531208071E+04  0.90126312432E+03 0.  0.
        2    1    3    3  502    0 -0.24114781125E+03 -0.20317919927E+03  0.19273567454E+04  0.19529818427E+04  0.25500000920E-02 0.  1.
       -2    1    3    3    0  502  0.24114781125E+03  0.20317919927E+03  0.24632729645E+03  0.40013896445E+03  0.25500000920E-02 0. -1.
</event>
<event>
 5   0  0.1536020E-03  0.9041019E+03  0.7818609E-02  0.9420468E-01
        2   -1    0    0  501    0  0.00000000000E+00  0.00000000000E+00  0.27677539895E+03  0.27677539896E+03  0.25500000920E-02 0.  1.
       -2   -1    0    0    0  501  0.00000000000E+00  0.00000000000E+00 -0.73832450180E+03  0.73832450180E+03  0.25500000920E-02 0. -1.
    10030    2    1    2    0    0  0.00000000000E+00  0.00000000000E+00 -0.46154910285E+03  0.10150999008E+04  0.90410189370E+03 0.  0.
        2    1    3    3  502    0  0.33565567387E+03  0.62022185321E+02  0.10198769606E+03  0.35624847092E+03  0.25500000920E-02 0.  1.
       -2    1    3    3    0  502 -0.33565567387E+03 -0.62022185321E+02 -0.56353679891E+03  0.65885142984E+03  0.25500000920E-02 0. -1.
</event>
<event>
 5   0  0.1704416E-03  0.9002845E+03  0.7818609E-02  0.9425226E-01
        2   -1    0    0  501    0  0.00000000000E+00  0.00000000000E+00  0.16342588568E+04  0.16342588568E+04  0.25500000920E-02 0. -1.
       -2   -1    0    0    0  501  0.00000000000E+00  0.00000000000E+00 -0.12398772097E+03  0.12398772100E+03  0.25500000920E-02 0.  1.
    10030    2    1    2    0    0  0.00000000000E+00  0.00000000000E+00  0.15102711358E+04  0.17582465778E+04  0.90028446872E+03 0.  0.
        3    1    3    3  502    0  0.26634707931E+03 -0.31874077352E+03  0.10939192410E+04  0.11701263878E+04  0.10100000352E+00 0. -1.
       -3    1    3    3    0  502 -0.26634707931E+03  0.31874077352E+03  0.41635189478E+03  0.58812018997E+03  0.10100000352E+00 0.  1.
</event>
<event>
 5   0  0.6375625E-04  0.8991373E+03  0.7818609E-02  0.9426661E-01
        3   -1    0    0  501    0  0.00000000000E+00  0.00000000000E+00  0.47871403290E+03  0.47871404355E+03  0.10100000352E+00 0.  1.
       -3   -1    0    0    0  501  0.00000000000E+00  0.00000000000E+00 -0.42219766000E+03  0.42219767209E+03  0.10100000352E+00 0. -1.
    10030    2    1    2    0    0  0.00000000000E+00  0.00000000000E+00  0.56516372892E+02  0.90091171564E+03  0.89913726370E+03 0.  0.
        3    1    3    3  502    0  0.38051871521E+02 -0.46570628054E+02 -0.41814903994E+03  0.42245165182E+03  0.10100000352E+00 0. -1.
       -3    1    3    3    0  502 -0.38051871521E+02  0.46570628054E+02  0.47466541283E+03  0.47846006381E+03  0.10100000352E+00 0.  1.
</event>
<event>
 5   0  0.9223454E-04  0.8970242E+03  0.7818609E-02  0.9429309E-01
       -1   -1    0    0    0  501  0.00000000000E+00  0.00000000000E+00  0.11512283652E+03  0.11512283664E+03  0.50400001928E-02 0. -1.
        1   -1    0    0  501    0  0.00000000000E+00  0.00000000000E+00 -0.17473778731E+04  0.17473778731E+04  0.50400001928E-02 0.  1.
    10030    2    1    2    0    0  0.00000000000E+00  0.00000000000E+00 -0.16322550366E+04  0.18625007098E+04  0.89702418551E+03 0.  0.
        1    1    3    3  502    0  0.43729699437E+03  0.96674106329E+02 -0.86649905017E+03  0.97539486778E+03  0.50400001928E-02 0. -1.
       -1    1    3    3    0  502 -0.43729699437E+03 -0.96674106329E+02 -0.76575598644E+03  0.88710584200E+03  0.50400001928E-02 0.  1.
</event>
<event>
 5   0  0.1007561E-03  0.9001343E+03  0.7818609E-02  0.9425414E-01
       -1   -1    0    0    0  501  0.00000000000E+00  0.00000000000E+00  0.20635684707E+03  0.20635684713E+03  0.50400001928E-02 0.  1.
        1   -1    0    0  501    0  0.00000000000E+00  0.00000000000E+00 -0.98160272496E+03  0.98160272497E+03  0.50400001928E-02 0. -1.
    10030    2    1    2    0    0  0.00000000000E+00  0.00000000000E+00 -0.77524587789E+03  0.11879595721E+04  0.90013430874E+03 0.  0.
        2    1    3    3  502    0  0.22264699538E+03 -0.31767759682E+03 -0.86470144218E+02  0.39745166488E+03  0.25500000920E-02 0.  1.
       -2    1    3    3    0  502 -0.22264699538E+03  0.31767759682E+03 -0.68877573368E+03  0.79050790722E+03  0.25500000920E-02 0. -1.
</event>
<event>
 5   0  0.1007561E-03  0.9000357E+03  0.7818609E-02  0.9425537E-01
       -1   -1    0    0    0  501  0.00000000000E+00  0.00000000000E+00  0.55381875864E+03  0.55381875866E+03  0.50400001928E-02 0. -1.
        1   -1    0    0  501    0  0.00000000000E+00  0.00000000000E+00 -0.36567211156E+03  0.36567211159E+03  0.50400001928E-02 0.  1.
    10030    2    1    2    0    0  0.00000000000E+00  0.00000000000E+00  0.18814664708E+03  0.91949087025E+03  0.90003572133E+03 0.  0.
        2    1    3    3  502    0  0.68742157468E+02  0.32058178145E+03  0.40898619835E+03  0.52418305320E+03  0.25500000920E-02 0. -1.
       -2    1    3    3    0  502 -0.68742157468E+02 -0.32058178145E+03 -0.22083955127E+03  0.39530781705E+03  0.25500000920E-02 0.  1.
</event>
<event>
 5   0  0.1704416E-03  0.9029292E+03  0.7818609E-02  0.9421927E-01
       -2   -1    0    0    0  501  0.00000000000E+00  0.00000000000E+00  0.44413449277E+03  0.44413449277E+03  0.25500000920E-02 0. -1.
        2   -1    0    0  501    0  0.00000000000E+00  0.00000000000E+00 -0.45891566538E+03  0.45891566539E+03  0.25500000920E-02 0.  1.
    10030    2    1    2    0    0  0.00000000000E+00  0.00000000000E+00 -0.14781172617E+02  0.90305015816E+03  0.90292918055E+03 0.  0.
        3    1    3    3  502    0  0.37364499045E+03 -0.24299854308E+03  0.64461890504E+02  0.45034899395E+03  0.10100000352E+00 0.  1.
       -3    1    3    3    0  502 -0.37364499045E+03  0.24299854308E+03 -0.79243063121E+02  0.45270116421E+03  0.10100000352E+00 0. -1.
</event>
<event>
 5   0  0.1536020E-03  0.8996824E+03  0.7818609E-02  0.9425979E-01
        2   -1    0    0  501    0  0.00000000000E+00  0.00000000000E+00  0.63629997614E+03  0.63629997615E+03  0.25500000920E-02 0.  1.
       -2   -1    0    0    0  501  0.00000000000E+00  0.00000000000E+00 -0.31802155207E+03  0.31802155208E+03  0.25500000920E-02 0. -1.
    10030    2    1    2    0    0  0.00000000000E+00  0.00000000000E+00  0.31827842407E+03  0.95432152823E+03  0.89968240174E+03 0.  0.
        2    1    3    3  502    0  0.10149345322E+03  0.12133852042E+03 -0.28754485103E+03  0.32818592131E+03  0.25500000920E-02 0. -1.
       -2    1    3    3    0  502 -0.10149345322E+03 -0.12133852042E+03  0.60582327511E+03  0.62613560692E+03  0.25500000920E-02 0.  1.
</event>
<event>
 5   0  0.1536020E-03  0.8986477E+03  0.7818609E-02  0.9427273E-01
       -2   -1    0    0    0  501  0.00000000000E+00  0.00000000000E+00  0.99429465710E+02  0.99429465743E+02  0.25500000920E-02 0.  1.
        2   -1    0    0  501    0  0.00000000000E+00  0.00000000000E+00 -0.20305039607E+04  0.20305039607E+04  0.25500000920E-02 0. -1.
    10030    2    1    2    0    0  0.00000000000E+00  0.00000000000E+00 -0.19310744950E+04  0.21299334264E+04  0.89864770399E+03 0.  0.
        2    1    3    3  502    0  0.34341082344E+03  0.18811613703E+03 -0.44317096263E+03  0.59137059175E+03  0.25500000920E-02 0.  1.
       -2    1    3    3    0  502 -0.34341082344E+03 -0.18811613703E+03 -0.14879035324E+04  0.15385628347E+04  0.25500000920E-02 0. -1.
</event>
<event>
 5   0  0.9981885E-04  0.8968663E+03  0.7818609E-02  0.9429507E-01
       -1   -1    0    0    0  501  0.00000000000E+00  0.00000000000E+00  0.52516059408E+03  0.52516059410E+03  0.50400001928E-02 0.  1.
        1   -1    0    0  501    0  0.00000000000E+00  0.00000000000E+00 -0.38291583591E+03  0.38291583594E+03  0.50400001928E-02 0. -1.
    10030    2    1    2    0    0  0.00000000000E+00  0.00000000000E+00  0.14224475817E+03  0.90807643004E+03  0.89686633986E+03 0.  0.
        4    1    3    3  502    0  0.31539288243E+03  0.88999079202E+02 -0.23880358329E+03  0.40549016101E+03  0.12699999809E+01 0. -1.
       -4    1    3    3    0  502 -0.31539288243E+03 -0.88999079202E+02  0.38104834146E+03  0.50258626903E+03  0.12699999809E+01 0.  1.
</event>
<event>
 5   0  0.9697941E-04  0.9008987E+03  0.7818609E-02  0.9424459E-01
       -1   -1    0    0    0  501  0.00000000000E+00  0.00000000000E+00  0.50213396001E+03  0.50213396003E+03  0.50400001928E-02 0. -1.
        1   -1    0    0  501    0  0.00000000000E+00  0.00000000000E+00 -0.40408461267E+03  0.40408461270E+03  0.50400001928E-02 0.  1.
    10030    2    1    2    0    0  0.00000000000E+00  0.00000000000E+00  0.98049347340E+02  0.90621857273E+03  0.90089867746E+03 0.  0.
        5    1    3    3  502    0 -0.35345168587E+03 -0.24542328519E+03 -0.84884810351E+02  0.43862079771E+03  0.46999998093E+01 0.  1.
       -5    1    3    3    0  502  0.35345168587E+03  0.24542328519E+03  0.18293415769E+03  0.46759777502E+03  0.46999998093E+01 0. -1.
</event>
<event>
 5   0  0.1641516E-03  0.9010421E+03  0.7818609E-02  0.9424280E-01
       -2   -1    0    0    0  501  0.00000000000E+00  0.00000000000E+00  0.12198910869E+03  0.12198910871E+03  0.25500000920E-02 0.  1.
        2   -1    0    0  501    0  0.00000000000E+00  0.00000000000E+00 -0.16638305198E+04  0.16638305198E+04  0.25500000920E-02 0. -1.
    10030    2    1    2    0    0  0.00000000000E+00  0.00000000000E+00 -0.15418414111E+04  0.17858196285E+04  0.90104206813E+03 0.  0.
        1    1    3    3  502    0  0.11900805094E+03 -0.26039633753E+03 -0.14603429138E+04  0.14881433381E+04  0.50400001928E-02 0. -1.
       -1    1    3    3    0  502 -0.11900805094E+03  0.26039633753E+03 -0.81498497308E+02  0.29767629042E+03  0.50400001928E-02 0.  1.
</event>
<event>
 5   0  0.1704416E-03  0.8980670E+03  0.7818609E-02  0.9428001E-01
       -2   -1    0    0    0  501  0.00000000000E+00  0.00000000000E+00  0.78688844807E+03  0.78688844808E+03  0.25500000920E-02 0.  1.
        2   -1    0    0  501    0  0.00000000000E+00  0.00000000000E+00 -0.25623848109E+03  0.25623848110E+03  0.25500000920E-02 0. -1.
    10030    2    1    2    0    0  0.00000000000E+00  0.00000000000E+00  0.53064996698E+03  0.10431269292E+04  0.89806703698E+03 0.  0.
        3    1    3    3  502    0  0.19181887755E+03 -0.16729381898E+03 -0.16435965638E+03  0.30297823437E+03  0.10100000352E+00 0. -1.
       -3    1    3    3    0  502 -0.19181887755E+03  0.16729381898E+03  0.69500962337E+03  0.74014869481E+03  0.10100000352E+00 0.  1.
</event>
<event>
 5   0  0.6375625E-04  0.9012491E+03  0.7818609E-02  0.9424021E-01
        4   -1    0    0  501    0  0.00000000000E+00  0.00000000000E+00  0.12591053841E+03  0.12591694319E+03  0.12699999809E+01 0. -1.
       -4   -1    0    0    0  501  0.00000000000E+00  0.00000000000E+00 -0.16127044575E+04  0.16127049575E+04  0.12699999809E+01 0.  1.
    10030    2    1    2    0    0  0.00000000000E+00  0.00000000000E+00 -0.14867939190E+04  0.17386219007E+04  0.90124910867E+03 0.  0.
        3    1    3    3  502    0  0.23760738436E+03 -0.22554966140E+03 -0.14651268955E+03  0.35888145293E+03  0.10100000352E+00 0. -1.
       -3    1    3    3    0  502 -0.23760738436E+03  0.22554966140E+03 -0.13402812295E+04  0.13797404478E+04  0.10100000352E+00 0.  1.
</event>
<event>
 5   0  0.1704416E-03  0.9001200E+03  0.7818609E-02  0.9425431E-01
        2   -1    0    0  501    0  0.00000000000E+00  0.00000000000E+00  0.45805062613E+03  0.45805062614E+03  0.25500000920E-02 0. -1.
       -2   -1    0    0    0  501  0.00000000000E+00  0.00000000000E+00 -0.44220878356E+03  0.44220878357E+03  0.25500000920E-02 0.  1.
    10030    2    1    2    0    0  0.00000000000E+00  0.00000000000E+00  0.15841842569E+02  0.90025940971E+03  0.90012001466E+03 0.  0.
        3    1    3    3  502    0  0.17027761461E+03 -0.75429399503E+02  0.41770371408E+03  0.45734064253E+03  0.10100000352E+00 0. -1.
       -3    1    3    3    0  502 -0.17027761461E+03  0.75429399503E+02 -0.40186187151E+03  0.44291876718E+03  0.10100000352E+00 0.  1.
</event>
<event>
 5   0  0.1536020E-03  0.9231354E+03  0.7818609E-02  0.9397114E-01
        2   -1    0    0  501    0  0.00000000000E+00  0.00000000000E+00  0.56697475363E+03  0.56697475364E+03  0.25500000920E-02 0. -1.
       -2   -1    0    0    0  501  0.00000000000E+00  0.00000000000E+00 -0.37575704855E+03  0.37575704856E+03  0.25500000920E-02 0.  1.
    10030    2    1    2    0    0  0.00000000000E+00  0.00000000000E+00  0.19121770508E+03  0.94273180220E+03  0.92313543976E+03 0.  0.
        2    1    3    3  502    0  0.35770720801E+03 -0.27412965354E+03 -0.62237480373E+01  0.45071082599E+03  0.25500000920E-02 0.  1.
       -2    1    3    3    0  502 -0.35770720801E+03  0.27412965354E+03  0.19744145312E+03  0.49202097621E+03  0.25500000920E-02 0. -1.
</event>
<event>
 5   0  0.1635686E-03  0.8948157E+03  0.7818609E-02  0.9432085E-01
        2   -1    0    0  501    0  0.00000000000E+00  0.00000000000E+00  0.14750631603E+04  0.14750631603E+04  0.25500000920E-02 0.  1.
       -2   -1    0    0    0  501  0.00000000000E+00  0.00000000000E+00 -0.13570522245E+03  0.13570522247E+03  0.25500000920E-02 0. -1.
    10030    2    1    2    0    0  0.00000000000E+00  0.00000000000E+00  0.13393579378E+04  0.16107683827E+04  0.89481567780E+03 0.  0.
        5    1    3    3  502    0 -0.41701900226E+03 -0.27282960029E+02  0.38221018823E+03  0.56635318145E+03  0.46999998093E+01 0. -1.
       -5    1    3    3    0  502  0.41701900226E+03  0.27282960029E+02  0.95714774959E+03  0.10444152013E+04  0.46999998093E+01 0.  1.
</event>
<event>
 5   0  0.9321543E-04  0.8961222E+03  0.7818609E-02  0.9430442E-01
       -1   -1    0    0    0  501  0.00000000000E+00  0.00000000000E+00  0.28036122916E+03  0.28036122920E+03  0.50400001928E-02 0. -1.
        1   -1    0    0  501    0  0.00000000000E+00  0.00000000000E+00 -0.71607166292E+03  0.71607166294E+03  0.50400001928E-02 0.  1.
    10030    2    1    2    0    0  0.00000000000E+00  0.00000000000E+00 -0.43571043377E+03  0.99643289214E+03  0.89612216045E+03 0.  0.
        3    1    3    3  502    0 -0.33673398516E+03 -0.18293938087E+03 -0.47601214919E+03  0.61110078564E+03  0.10100000352E+00 0.  1.
       -3    1    3    3    0  502  0.33673398516E+03  0.18293938087E+03  0.40301715426E+02  0.38533210650E+03  0.10100000352E+00 0. -1.
</event>
<event>
 5   0  0.9697941E-04  0.9037230E+03  0.7818609E-02  0.9420939E-01
        1   -1    0    0  501    0  0.00000000000E+00  0.00000000000E+00  0.52800875135E+03  0.52800875138E+03  0.50400001928E-02 0. -1.
       -1   -1    0    0    0  501  0.00000000000E+00  0.00000000000E+00 -0.38669590678E+03  0.38669590682E+03  0.50400001928E-02 0.  1.
    10030    2    1    2    0    0  0.00000000000E+00  0.00000000000E+00  0.14131284457E+03  0.91470465819E+03  0.90372301713E+03 0.  0.
        5    1    3    3  502    0  0.21837494969E+03  0.20832449995E+03  0.41100134481E+03  0.50993226154E+03  0.46999998093E+01 0. -1.
       -5    1    3    3    0  502 -0.21837494969E+03 -0.20832449995E+03 -0.26968850024E+03  0.40477239665E+03  0.46999998093E+01 0.  1.
</event>
<event>
 5   0  0.1641516E-03  0.9060007E+03  0.7818609E-02  0.9418111E-01
       -2   -1    0    0    0  501  0.00000000000E+00  0.00000000000E+00  0.46170929171E+03  0.46170929171E+03  0.25500000920E-02 0. -1.
        2   -1    0    0  501    0  0.00000000000E+00  0.00000000000E+00 -0.44445566388E+03  0.44445566389E+03  0.25500000920E-02 0.  1.
    10030    2    1    2    0    0  0.00000000000E+00  0.00000000000E+00  0.17253627823E+02  0.90616495560E+03  0.90600068383E+03 0.  0.
        1    1    3    3  502    0 -0.31878317409E+02 -0.26269578001E+03  0.37636726055E+03  0.46008435617E+03  0.50400001928E-02 0. -1.
       -1    1    3    3    0  502  0.31878317409E+02  0.26269578001E+03 -0.35911363272E+03  0.44608059943E+03  0.50400001928E-02 0.  1.
</event>
<event>
 5   0  0.1007561E-03  0.8999682E+03  0.7818609E-02  0.9425621E-01
        1   -1    0    0  501    0  0.00000000000E+00  0.00000000000E+00  0.57161125216E+03  0.57161125218E+03  0.50400001928E-02 0.  1.
       -1   -1    0    0    0  501  0.00000000000E+00  0.00000000000E+00 -0.35423667783E+03  0.35423667787E+03  0.50400001928E-02 0. -1.
    10030    2    1    2    0    0  0.00000000000E+00  0.00000000000E+00  0.21737457433E+03  0.92584793004E+03  0.89996815722E+03 0.  0.
        2    1    3    3  502    0 -0.86550471338E+02  0.13335395337E+02  0.56276039259E+03  0.56953320916E+03  0.25500000920E-02 0.  1.
       -2    1    3    3    0  502  0.86550471338E+02 -0.13335395337E+02 -0.34538581826E+03  0.35631472089E+03  0.25500000920E-02 0. -1.
</event>
<event>
 5   0  0.1536020E-03  0.9001330E+03  0.7818609E-02  0.9425415E-01
        2   -1    0    0  501    0  0.00000000000E+00  0.00000000000E+00  0.40541403843E+03  0.40541403844E+03  0.25500000920E-02 0. -1.
       -2   -1    0    0    0  501  0.00000000000E+00  0.00000000000E+00 -0.49963702256E+03  0.49963702257E+03  0.25500000920E-02 0.  1.
    10030    2    1    2    0    0  0.00000000000E+00  0.00000000000E+00 -0.94222984127E+02  0.90505106101E+03  0.90013301923E+03 0.  0.
        2    1    3    3  502    0 -0.11715977486E+03  0.48781176649E+02 -0.48127374581E+03  0.49772526001E+03  0.25500000920E-02 0.  1.
       -2    1    3    3    0  502  0.11715977486E+03 -0.48781176649E+02  0.38705076168E+03  0.40732580100E+03  0.25500000920E-02 0. -1.
</event>
<event>
 5   0  0.9223454E-04  0.9011352E+03  0.7818609E-02  0.9424163E-01
       -1   -1    0    0    0  501  0.00000000000E+00  0.00000000000E+00  0.29469055278E+03  0.29469055283E+03  0.50400001928E-02 0. -1.
        1   -1    0    0  501    0  0.00000000000E+00  0.00000000000E+00 -0.68889606766E+03  0.68889606768E+03  0.50400001928E-02 0.  1.
    10030    2    1    2    0    0  0.00000000000E+00  0.00000000000E+00 -0.39420551488E+03  0.98358662050E+03  0.90113520188E+03 0.  0.
        1    1    3    3  502    0  0.10746058276E+03 -0.38280152057E+03 -0.42845482226E+03  0.58451545381E+03  0.50400001928E-02 0.  1.
       -1    1    3    3    0  502 -0.10746058276E+03  0.38280152057E+03  0.34249307386E+02  0.39907116669E+03  0.50400001928E-02 0. -1.
</event>
<event>
 5   0  0.1630202E-03  0.8995187E+03  0.7818609E-02  0.9426183E-01
       -2   -1    0    0    0  501  0.00000000000E+00  0.00000000000E+00  0.25897237111E+03  0.25897237112E+03  0.25500000920E-02 0.  1.
        2   -1    0    0  501    0  0.00000000000E+00  0.00000000000E+00 -0.78110059193E+03  0.78110059194E+03  0.25500000920E-02 0. -1.
    10030    2    1    2    0    0  0.00000000000E+00  0.00000000000E+00 -0.52212822083E+03  0.10400729631E+04  0.89951869881E+03 0.  0.
        4    1    3    3  502    0 -0.88821401570E+02  0.62557971788E+02 -0.76569902749E+03  0.77336883491E+03  0.12699999809E+01 0. -1.
       -4    1    3    3    0  502  0.88821401570E+02 -0.62557971788E+02  0.24357080667E+03  0.26670412815E+03  0.12699999809E+01 0.  1.
</event>
<event>
 5   0  0.9981885E-04  0.9004013E+03  0.7818609E-02  0.9425080E-01
        1   -1    0    0  501    0  0.00000000000E+00  0.00000000000E+00  0.26681389270E+03  0.26681389274E+03  0.50400001928E-02 0.  1.
       -1   -1    0    0    0  501  0.00000000000E+00  0.00000000000E+00 -0.75963288368E+03  0.75963288370E+03  0.50400001928E-02 0. -1.
    10030    2    1    2    0    0  0.00000000000E+00  0.00000000000E+00 -0.49281899099E+03  0.10264467764E+04  0.90040125888E+03 0.  0.
        4    1    3    3  502    0  0.77263199433E+02  0.23388492608E+03  0.18318190053E+03  0.30696739601E+03  0.12699999809E+01 0.  1.
       -4    1    3    3    0  502 -0.77263199433E+02 -0.23388492608E+03 -0.67600089151E+03  0.71947938043E+03  0.12699999809E+01 0. -1.
</event>
<event>
 5   0  0.1635686E-03  0.8987567E+03  0.7818609E-02  0.9427137E-01
       -2   -1    0    0    0  501  0.00000000000E+00  0.00000000000E+00  0.15398605399E+03  0.15398605401E+03  0.25500000920E-02 0.  1.
        2   -1    0    0  501    0  0.00000000000E+00  0.00000000000E+00 -0.13114232597E+04  0.13114232597E+04  0.25500000920E-02 0. -1.
    10030    2    1    2    0    0  0.00000000000E+00  0.00000000000E+00 -0.11574372057E+04  0.14654093137E+04  0.89875668095E+03 0.  0.
        5    1    3    3  502    0 -0.18126104184E+03  0.28148887707E+03 -0.10673944416E+04  0.11186798189E+04  0.46999998093E+01 0. -1.
       -5    1    3    3    0  502  0.18126104184E+03 -0.28148887707E+03 -0.90042764073E+02  0.34672949480E+03  0.46999998093E+01 0.  1.
</event>
<event>
 5   0  0.1007561E-03  0.9025223E+03  0.7818609E-02  0.9422434E-01
        1   -1    0    0  501    0  0.00000000000E+00  0.00000000000E+00  0.20513916593E+04  0.20513916593E+04  0.50400001928E-02 0.  1.
       -1   -1    0    0    0  501  0.00000000000E+00  0.00000000000E+00 -0.99267561518E+02  0.99267561646E+02  0.50400001928E-02 0. -1.
    10030    2    1    2    0    0  0.00000000000E+00  0.00000000000E+00  0.19521240978E+04  0.21506592210E+04  0.90252234961E+03 0.  0.
        2    1    3    3  502    0 -0.32458565563E+02 -0.34268929213E+03  0.28071972663E+03  0.44417685031E+03  0.25500000920E-02 0. -1.
       -2    1    3    3    0  502  0.32458565563E+02  0.34268929213E+03  0.16714043712E+04  0.17064823707E+04  0.25500000920E-02 0.  1.
</event>
<event>
 5   0  0.9321543E-04  0.8997858E+03  0.7818609E-02  0.9425849E-01
        1   -1    0    0  501    0  0.00000000000E+00  0.00000000000E+00  0.25309832159E+04  0.25309832159E+04  0.50400001928E-02 0. -1.
       -1   -1    0    0    0  501  0.00000000000E+00  0.00000000000E+00 -0.79970346496E+02  0.79970346655E+02  0.50400001928E-02 0.  1.
    10030    2    1    2    0    0  0.00000000000E+00  0.00000000000E+00  0.24510128694E+04  0.26109535626E+04  0.89978576332E+03 0.  0.
        3    1    3    3  502    0 -0.39241137846E+03 -0.13791601836E+03  0.72799311053E+03  0.83843991868E+03  0.10100000352E+00 0. -1.
       -3    1    3    3    0  502  0.39241137846E+03  0.13791601836E+03  0.17230197589E+04  0.17725136439E+04  0.10100000352E+00 0.  1.
</event>
<event>
 5   0  0.1641516E-03  0.8991103E+03  0.7818609E-02  0.9426694E-01
        2   -1    0    0  501    0  0.00000000000E+00  0.00000000000E+00  0.65524341164E+03  0.65524341165E+03  0.25500000920E-02 0. -1.
       -2   -1    0    0    0  501  0.00000000000E+00  0.00000000000E+00 -0.30843470851E+03  0.30843470852E+03  0.25500000920E-02 0.  1.
    10030    2    1    2    0    0  0.00000000000E+00  0.00000000000E+00  0.34680870313E+03  0.96367812017E+03  0.89911025060E+03 0.  0.
        1    1    3    3  502    0 -0.11505508407E+03  0.20906964354E+03 -0.23494380119E+03  0.33488263312E+03  0.50400001928E-02 0.  1.
       -1    1    3    3    0  502  0.11505508407E+03 -0.20906964354E+03  0.58175250433E+03  0.62879548705E+03  0.50400001928E-02 0. -1.
</event>
<event>
 5   0  0.9321543E-04  0.9200348E+03  0.7818609E-02  0.9400878E-01
       -1   -1    0    0    0  501  0.00000000000E+00  0.00000000000E+00  0.10858679693E+03  0.10858679705E+03  0.50400001928E-02 0. -1.
        1   -1    0    0  501    0  0.00000000000E+00  0.00000000000E+00 -0.19488189314E+04  0.19488189314E+04  0.50400001928E-02 0.  1.
    10030    2    1    2    0    0  0.00000000000E+00  0.00000000000E+00 -0.18402321344E+04  0.20574057284E+04  0.92003479430E+03 0.  0.
        3    1    3    3  502    0 -0.26105338458E+02  0.45908336564E+03 -0.89036752166E+03  0.10020944861E+04  0.10100000352E+00 0. -1.
       -3    1    3    3    0  502  0.26105338458E+02 -0.45908336564E+03 -0.94986461277E+03  0.10553112423E+04  0.10100000352E+00 0.  1.
</event>
<event>
 5   0  0.1641516E-03  0.9002951E+03  0.7818609E-02  0.9425213E-01
       -2   -1    0    0    0  501  0.00000000000E+00  0.00000000000E+00  0.13109224223E+03  0.13109224226E+03  0.25500000920E-02 0.  1.
        2   -1    0    0  501    0  0.00000000000E+00  0.00000000000E+00 -0.15457269083E+04  0.15457269083E+04  0.25500000920E-02 0. -1.
    10030    2    1    2    0    0  0.00000000000E+00  0.00000000000E+00 -0.14146346660E+04  0.16768191505E+04  0.90029507675E+03 0.  0.
        1    1    3    3  502    0  0.11894684715E+03  0.32850401735E+03 -0.17864466542E+03  0.39239923340E+03  0.50400001928E-02 0.  1.
       -1    1    3    3    0  502 -0.11894684715E+03 -0.32850401735E+03 -0.12359900006E+04  0.12844199171E+04  0.50400001928E-02 0. -1.
</event>
<event>
 5   0  0.9321543E-04  0.8950275E+03  0.7818609E-02  0.9431819E-01
       -1   -1    0    0    0  501  0.00000000000E+00  0.00000000000E+00  0.39572396211E+03  0.39572396214E+03  0.50400001928E-02 0.  1.
        1   -1    0    0  501    0  0.00000000000E+00  0.00000000000E+00 -0.50608146676E+03  0.50608146679E+03  0.50400001928E-02 0. -1.
    10030    2    1    2    0    0  0.00000000000E+00  0.00000000000E+00 -0.11035750465E+03  0.90180542893E+03  0.89502751512E+03 0.  0.
        3    1    3    3  502    0 -0.58431143944E+02 -0.41731412053E+03  0.96638369596E+02  0.43232425153E+03  0.10100000352E+00 0.  1.
       -3    1    3    3    0  502  0.58431143944E+02  0.41731412053E+03 -0.20699587424E+03  0.46948117740E+03  0.10100000352E+00 0. -1.
</event>
<event>
 5   0  0.9697941E-04  0.8976724E+03  0.7818609E-02  0.9428496E-01
       -1   -1    0    0    0  501  0.00000000000E+00  0.00000000000E+00  0.26940241690E+03  0.26940241695E+03  0.50400001928E-02 0. -1.
        1   -1    0    0  501    0  0.00000000000E+00  0.00000000000E+00 -0.74778066176E+03  0.74778066178E+03  0.50400001928E-02 0.  1.
    10030    2    1    2    0    0  0.00000000000E+00  0.00000000000E+00 -0.47837824487E+03  0.10171830787E+04  0.89767236255E+03 0.  0.
        5    1    3    3  502    0 -0.15194494936E+03 -0.75567046554E+02  0.23161978135E+03  0.28717148061E+03  0.46999998093E+01 0. -1.
       -5    1    3    3    0  502  0.15194494936E+03  0.75567046554E+02 -0.70999802622E+03  0.73001159812E+03  0.46999998093E+01 0.  1.
</event>
<event>
 5   0  0.1630202E-03  0.9013240E+03  0.7818609E-02  0.9423928E-01
        2   -1    0    0  501    0  0.00000000000E+00  0.00000000000E+00  0.77521938211E+03  0.77521938211E+03  0.25500000920E-02 0.  1.
       -2   -1    0    0    0  501  0.00000000000E+00  0.00000000000E+00 -0.26198550351E+03  0.26198550352E+03  0.25500000920E-02 0. -1.
    10030    2    1    2    0    0  0.00000000000E+00  0.00000000000E+00  0.51323387859E+03  0.10372048856E+04  0.90132400426E+03 0.  0.
        4    1    3    3  502    0 -0.37201536311E+03  0.40827809493E+02  0.54552865163E+03  0.66156289426E+03  0.12699999809E+01 0.  1.
       -4    1    3    3    0  502  0.37201536311E+03 -0.40827809493E+02 -0.32294773039E+02  0.37564199137E+03  0.12699999809E+01 0. -1.
</event>
<event>
 5   0  0.1536020E-03  0.9002305E+03  0.7818609E-02  0.9425293E-01
       -2   -1    0    0    0  501  0.00000000000E+00  0.00000000000E+00  0.21881602916E+03  0.21881602917E+03  0.25500000920E-02 0.  1.
        2   -1    0    0  501    0  0.00000000000E+00  0.00000000000E+00 -0.92590908969E+03  0.92590908969E+03  0.25500000920E-02 0. -1.
    10030    2    1    2    0    0  0.00000000000E+00  0.00000000000E+00 -0.70709306053E+03  0.11447251189E+04  0.90023052687E+03 0.  0.
        2    1    3    3  502    0 -0.16650429280E+03  0.41720076434E+03 -0.31705401308E+03  0.54982124777E+03  0.25500000920E-02 0. -1.
       -2    1    3    3    0  502  0.16650429280E+03 -0.41720076434E+03 -0.39003904745E+03  0.59490387109E+03  0.25500000920E-02 0.  1.
</event>
<event>
 5   0  0.9981885E-04  0.9001328E+03  0.7818609E-02  0.9425415E-01
       -1   -1    0    0    0  501  0.00000000000E+00  0.00000000000E+00  0.59239620995E+03  0.59239620998E+03  0.50400001928E-02 0.  1.
        1   -1    0    0  501    0  0.00000000000E+00  0.00000000000E+00 -0.34193293698E+03  0.34193293702E+03  0.50400001928E-02 0. -1.
    10030    2    1    2    0    0  0.00000000000E+00  0.00000000000E+00  0.25046327298E+03  0.93432914699E+03  0.90013282565E+03 0.  0.
        4    1    3    3  502    0 -0.34223233950E+03  0.60624368997E+02 -0.17156802837E+03  0.38760223113E+03  0.12699999809E+01 0. -1.
       -4    1    3    3    0  502  0.34223233950E+03 -0.60624368997E+02  0.42203130134E+03  0.54672691586E+03  0.12699999809E+01 0.  1.
</event>
<event>
 5   0  0.6375625E-04  0.9027734E+03  0.7818609E-02  0.9422121E-01
       -3   -1    0    0    0  501  0.00000000000E+00  0.00000000000E+00  0.18637042497E+03  0.18637045234E+03  0.10100000352E+00 0. -1.
        3   -1    0    0  501    0  0.00000000000E+00  0.00000000000E+00 -0.10932525906E+04  0.10932525952E+04  0.10100000352E+00 0.  1.
    10030    2    1    2    0    0  0.00000000000E+00  0.00000000000E+00 -0.90688216559E+03  0.12796230476E+04  0.90277343868E+03 0.  0.
        1    1    3    3  502    0 -0.35210156425E+03  0.74221130136E+02 -0.67165399364E+02  0.36605392855E+03  0.50400001928E-02 0. -1.
       -1    1    3    3    0  502  0.35210156425E+03 -0.74221130136E+02 -0.83971676622E+03  0.91356911901E+03  0.50400001928E-02 0.  1.
</event>
<event>
 5   0  0.1635686E-03  0.8990262E+03  0.7818609E-02  0.9426799E-01
        2   -1    0    0  501    0  0.00000000000E+00  0.00000000000E+00  0.35941719964E+03  0.35941719965E+03  0.25500000920E-02 0.  1.
       -2   -1    0    0    0  501  0.00000000000E+00  0.00000000000E+00 -0.56219359670E+03  0.56219359670E+03  0.25500000920E-02 0. -1.
    10030    2    1    2    0    0  0.00000000000E+00  0.00000000000E+00 -0.20277639706E+03  0.92161079635E+03  0.89902624697E+03 0.  0.
        5    1    3    3  502    0  0.43313421677E+03  0.74306855758E+02 -0.19816962068E+03  0.48209962364E+03  0.46999998093E+01 0.  1.
       -5    1    3    3    0  502 -0.43313421677E+03 -0.74306855758E+02 -0.46067763774E+01  0.43951117271E+03  0.46999998093E+01 0. -1.
</event>
<event>
 5   0  0.9223454E-04  0.9001771E+03  0.7818609E-02  0.9425360E-01
        1   -1    0    0  501    0  0.00000000000E+00  0.00000000000E+00  0.14815051448E+04  0.14815051448E+04  0.50400001928E-02 0.  1.
       -1   -1    0    0    0  501  0.00000000000E+00  0.00000000000E+00 -0.13673910166E+03  0.13673910175E+03  0.50400001928E-02 0. -1.
    10030    2    1    2    0    0  0.00000000000E+00  0.00000000000E+00  0.13447660431E+04  0.16182442465E+04  0.90017705520E+03 0.  0.
        1    1    3    3  502    0  0.42518875079E+03 -0.13238108406E+03  0.55491964602E+03  0.71150968987E+03  0.50400001928E-02 0. -1.
       -1    1    3    3    0  502 -0.42518875079E+03  0.13238108406E+03  0.78984639710E+03  0.90673455667E+03  0.50400001928E-02 0.  1.
</event>
<event>
 5   0  0.1630202E-03  0.9005284E+03  0.7818609E-02  0.9424921E-01
        2   -1    0    0  501    0  0.00000000000E+00  0.00000000000E+00  0.70358678462E+03  0.70358678463E+03  0.25500000920E-02 0.  1.
       -2   -1    0    0    0  501  0.00000000000E+00  0.00000000000E+00 -0.28814905833E+03  0.28814905834E+03  0.25500000920E-02 0. -1.
    10030    2    1    2    0    0  0.00000000000E+00  0.00000000000E+00  0.41543772630E+03  0.99173584297E+03  0.90052844363E+03 0.  0.
        4    1    3    3  502    0  0.63226872348E+02  0.43177399716E+03  0.85531952990E+02  0.44468387636E+03  0.12699999809E+01 0.  1.
       -4    1    3    3    0  502 -0.63226872348E+02 -0.43177399716E+03  0.32990577331E+03  0.54705196661E+03  0.12699999809E+01 0. -1.
</event>
<event>
 5   0  0.1007561E-03  0.9007919E+03  0.7818609E-02  0.9424592E-01
        1   -1    0    0  501    0  0.00000000000E+00  0.00000000000E+00  0.11020050020E+04  0.11020050020E+04  0.50400001928E-02 0.  1.
       -1   -1    0    0    0  501  0.00000000000E+00  0.00000000000E+00 -0.18407948539E+03  0.18407948546E+03  0.50400001928E-02 0. -1.
    10030    2    1    2    0    0  0.00000000000E+00  0.00000000000E+00  0.91792551659E+03  0.12860844875E+04  0.90079190430E+03 0.  0.
        2    1    3    3  502    0 -0.13048901479E+03 -0.10139013043E+02  0.10742554623E+04  0.10821991410E+04  0.25500000920E-02 0.  1.
       -2    1    3    3    0  502  0.13048901479E+03  0.10139013043E+02 -0.15632994569E+03  0.20388534644E+03  0.25500000920E-02 0. -1.
</event>
<event>
 5   0  0.1007561E-03  0.8993938E+03  0.7818609E-02  0.9426339E-01
       -1   -1    0    0    0  501  0.00000000000E+00  0.00000000000E+00  0.29251951367E+03  0.29251951372E+03  0.50400001928E-02 0.  1.
        1   -1    0    0  501    0  0.00000000000E+00  0.00000000000E+00 -0.69132932156E+03  0.69132932158E+03  0.50400001928E-02 0. -1.
    10030    2    1    2    0    0  0.00000000000E+00  0.00000000000E+00 -0.39880980789E+03  0.98384883530E+03  0.89939383356E+03 0.  0.
        2    1    3    3  502    0  0.24179401413E+03  0.23275846536E+03  0.12801093036E+03  0.35920418534E+03  0.25500000920E-02 0.  1.
       -2    1    3    3    0  502 -0.24179401413E+03 -0.23275846536E+03 -0.52682073825E+03  0.62464464996E+03  0.25500000920E-02 0. -1.
</event>
<event>
 5   0  0.1536020E-03  0.8987276E+03  0.7818609E-02  0.9427173E-01
       -2   -1    0    0    0  501  0.00000000000E+00  0.00000000000E+00  0.10775183327E+04  0.10775183327E+04  0.25500000920E-02 0. -1.
        2   -1    0    0  501    0  0.00000000000E+00  0.00000000000E+00 -0.18740084322E+03  0.18740084324E+03  0.25500000920E-02 0.  1.
    10030    2    1    2    0    0  0.00000000000E+00  0.00000000000E+00  0.89011748949E+03  0.12649191759E+04  0.89872764316E+03 0.  0.
        2    1    3    3  502    0 -0.29633289159E+03 -0.33390678669E+03  0.37300417969E+03  0.58175514000E+03  0.25500000920E-02 0.  1.
       -2    1    3    3    0  502  0.29633289159E+03  0.33390678669E+03  0.51711330980E+03  0.68316403595E+03  0.25500000920E-02 0. -1.
</event>
<event>
 5   0  0.9697941E-04  0.8997499E+03  0.7818609E-02  0.9425894E-01
       -1   -1    0    0    0  501  0.00000000000E+00  0.00000000000E+00  0.20094976226E+03  0.20094976232E+03  0.50400001928E-02 0.  1.
        1   -1    0    0  501    0  0.00000000000E+00  0.00000000000E+00 -0.10071546240E+04  0.10071546240E+04  0.50400001928E-02 0. -1.
    10030    2    1    2    0    0  0.00000000000E+00  0.00000000000E+00 -0.80620486175E+03  0.12081043863E+04  0.89974992592E+03 0.  0.
        5    1    3    3  502    0  0.25948447109E+03 -0.36358611446E+02 -0.89408561806E+03  0.93170023172E+03  0.46999998093E+01 0. -1.
       -5    1    3    3    0  502 -0.25948447109E+03  0.36358611446E+02  0.87880756314E+02  0.27640415462E+03  0.46999998093E+01 0.  1.
</event>
<event>
 5   0  0.9981885E-04  0.8889997E+03  0.7818609E-02  0.9439438E-01
       -1   -1    0    0    0  501  0.00000000000E+00  0.00000000000E+00  0.16045700219E+03  0.16045700227E+03  0.50400001928E-02 0.  1.
        1   -1    0    0  501    0  0.00000000000E+00  0.00000000000E+00 -0.12313585550E+04  0.12313585550E+04  0.50400001928E-02 0. -1.
    10030    2    1    2    0    0  0.00000000000E+00  0.00000000000E+00 -0.10709015528E+04  0.13918155573E+04  0.88899966798E+03 0.  0.
        4    1    3    3  502    0 -0.28525921546E+03  0.55116738263E+02 -0.87771726456E+01  0.29067047752E+03  0.12699999809E+01 0.  1.
       -4    1    3    3    0  502  0.28525921546E+03 -0.55116738263E+02 -0.10621243802E+04  0.11011450798E+04  0.12699999809E+01 0. -1.
</event>
<event>
 5   0  0.9697941E-04  0.9002266E+03  0.7818609E-02  0.9425298E-01
       -1   -1    0    0    0  501  0.00000000000E+00  0.00000000000E+00  0.81911773284E+03  0.81911773286E+03  0.50400001928E-02 0.  1.
        1   -1    0    0  501    0  0.00000000000E+00  0.00000000000E+00 -0.24734173072E+03  0.24734173077E+03  0.50400001928E-02 0. -1.
    10030    2    1    2    0    0  0.00000000000E+00  0.00000000000E+00  0.57177600213E+03  0.10664594636E+04  0.90022663310E+03 0.  0.
        5    1    3    3  502    0 -0.44257981602E+03  0.80964163032E+02  0.30029113127E+03  0.54095188581E+03  0.46999998093E+01 0.  1.
       -5    1    3    3    0  502  0.44257981602E+03 -0.80964163032E+02  0.27148487085E+03  0.52550757782E+03  0.46999998093E+01 0. -1.
</event>
<event>
 5   0  0.1536020E-03  0.9110520E+03  0.7818609E-02  0.9411870E-01
       -2   -1    0    0    0  501  0.00000000000E+00  0.00000000000E+00  0.38840477196E+03  0.38840477196E+03  0.25500000920E-02 0.  1.
        2   -1    0    0  501    0  0.00000000000E+00  0.00000000000E+00 -0.53424656357E+03  0.53424656358E+03  0.25500000920E-02 0. -1.
    10030    2    1    2    0    0  0.00000000000E+00  0.00000000000E+00 -0.14584179162E+03  0.92265133555E+03  0.91105195176E+03 0.  0.
        2    1    3    3  502    0  0.24884482598E+03  0.34899344861E+03 -0.22910417867E+03  0.48601327068E+03  0.25500000920E-02 0. -1.
       -2    1    3    3    0  502 -0.24884482598E+03 -0.34899344861E+03  0.83262387047E+02  0.43663806487E+03  0.25500000920E-02 0.  1.
</event>
<event>
 5   0  0.1536020E-03  0.9005437E+03  0.7818609E-02  0.9424902E-01
        2   -1    0    0  501    0  0.00000000000E+00  0.00000000000E+00  0.10771805811E+04  0.10771805811E+04  0.25500000920E-02 0.  1.
       -2   -1    0    0    0  501  0.00000000000E+00  0.00000000000E+00 -0.18821798038E+03  0.18821798040E+03  0.25500000920E-02 0. -1.
    10030    2    1    2    0    0  0.00000000000E+00  0.00000000000E+00  0.88896260070E+03  0.12653985615E+04  0.90054373240E+03 0.  0.
        2    1    3    3  502    0  0.42182949806E+03  0.11061182461E+03  0.28694372362E+03  0.52202662931E+03  0.25500000920E-02 0. -1.
       -2    1    3    3    0  502 -0.42182949806E+03 -0.11061182461E+03  0.60201887708E+03  0.74337193217E+03  0.25500000920E-02 0.  1.
</event>
<event>
 5   0  0.9223454E-04  0.9002105E+03  0.7818609E-02  0.9425318E-01
       -1   -1    0    0    0  501  0.00000000000E+00  0.00000000000E+00  0.42093640804E+03  0.42093640807E+03  0.50400001928E-02 0.  1.
        1   -1    0    0  501    0  0.00000000000E+00  0.00000000000E+00 -0.48129536530E+03  0.48129536532E+03  0.50400001928E-02 0. -1.
    10030    2    1    2    0    0  0.00000000000E+00  0.00000000000E+00 -0.60358957252E+02  0.90223177340E+03  0.90021051383E+03 0.  0.
        1    1    3    3  502    0  0.28034011495E+03 -0.24599328728E+01  0.32274482864E+03  0.42750538682E+03  0.50400001928E-02 0. -1.
       -1    1    3    3    0  502 -0.28034011495E+03  0.24599328728E+01 -0.38310378590E+03  0.47472638658E+03  0.50400001928E-02 0.  1.
</event>
<event>
 5   0  0.1704416E-03  0.8998643E+03  0.7818609E-02  0.9425751E-01
       -2   -1    0    0    0  501  0.00000000000E+00  0.00000000000E+00  0.51157345643E+03  0.51157345644E+03  0.25500000920E-02 0. -1.
        2   -1    0    0  501    0  0.00000000000E+00  0.00000000000E+00 -0.39571820080E+03  0.39571820081E+03  0.25500000920E-02 0.  1.
    10030    2    1    2    0    0  0.00000000000E+00  0.00000000000E+00  0.11585525563E+03  0.90729165725E+03  0.89986427369E+03 0.  0.
        3    1    3    3  502    0  0.40506040035E+03  0.42557551516E+02  0.25069629173E+03  0.47826113579E+03  0.10100000352E+00 0. -1.
       -3    1    3    3    0  502 -0.40506040035E+03 -0.42557551516E+02 -0.13484103610E+03  0.42903052146E+03  0.10100000352E+00 0.  1.
</event>
<event>
 5   0  0.1704416E-03  0.8990401E+03  0.7818609E-02  0.9426782E-01
        2   -1    0    0  501    0  0.00000000000E+00  0.00000000000E+00  0.25895351379E+03  0.25895351381E+03  0.25500000920E-02 0.  1.
       -2   -1    0    0    0  501  0.00000000000E+00  0.00000000000E+00 -0.78032641791E+03  0.78032641791E+03  0.25500000920E-02 0. -1.
    10030    2    1    2    0    0  0.00000000000E+00  0.00000000000E+00 -0.52137290411E+03  0.10392799317E+04  0.89904008327E+03 0.  0.
        3    1    3    3  502    0  0.91595260165E+02  0.43819438332E+03 -0.21352767249E+03  0.49598194158E+03  0.10100000352E+00 0.  1.
       -3    1    3    3    0  502 -0.91595260165E+02 -0.43819438332E+03 -0.30784523162E+03  0.54329799014E+03  0.10100000352E+00 0. -1.
</event>
<event>
 5   0  0.1630202E-03  0.9010157E+03  0.7818609E-02  0.9424313E-01
        2   -1    0    0  501    0  0.00000000000E+00  0.00000000000E+00  0.13031304743E+04  0.13031304743E+04  0.25500000920E-02 0. -1.
       -2   -1    0    0    0  501  0.00000000000E+00  0.00000000000E+00 -0.15574596500E+03  0.15574596502E+03  0.25500000920E-02 0.  1.
    10030    2    1    2    0    0  0.00000000000E+00  0.00000000000E+00  0.11473845093E+04  0.14588764394E+04  0.90101567858E+03 0.  0.
        4    1    3    3  502    0  0.31637452801E+03 -0.28913728176E+03  0.34897191471E+03  0.55269903188E+03  0.12699999809E+01 0. -1.
       -4    1    3    3    0  502 -0.31637452801E+03  0.28913728176E+03  0.79841259462E+03  0.90617740748E+03  0.12699999809E+01 0.  1.
</event>
<event>
 5   0  0.9981885E-04  0.9006038E+03  0.7818609E-02  0.9424827E-01
       -1   -1    0    0    0  501  0.00000000000E+00  0.00000000000E+00  0.25154430991E+03  0.25154430996E+03  0.50400001928E-02 0. -1.
        1   -1    0    0  501    0  0.00000000000E+00  0.00000000000E+00 -0.80610762950E+03  0.80610762952E+03  0.50400001928E-02 0.  1.
    10030    2    1    2    0    0  0.00000000000E+00  0.00000000000E+00 -0.55456331959E+03  0.10576519395E+04  0.90060376951E+03 0.  0.
        4    1    3    3  502    0  0.14977777757E+03 -0.34228448728E+03  0.17902035027E+02  0.37405099739E+03  0.12699999809E+01 0. -1.
       -4    1    3    3    0  502 -0.14977777757E+03  0.34228448728E+03 -0.57246535462E+03  0.68360094209E+03  0.12699999809E+01 0.  1.
</event>
<event>
 5   0  0.9981885E-04  0.8991071E+03  0.7818609E-02  0.9426698E-01
        1   -1    0    0  501    0  0.00000000000E+00  0.00000000000E+00  0.47970761120E+03  0.47970761123E+03  0.50400001928E-02 0.  1.
       -1   -1    0    0    0  501  0.00000000000E+00  0.00000000000E+00 -0.42129494067E+03  0.42129494070E+03  0.50400001928E-02 0. -1.
    10030    2    1    2    0    0  0.00000000000E+00  0.00000000000E+00  0.58412670531E+02  0.90100255193E+03  0.89910708957E+03 0.  0.
        4    1    3    3  502    0 -0.23467780028E+03  0.20326763418E+03  0.35501537955E+03  0.47162372042E+03  0.12699999809E+01 0.  1.
       -4    1    3    3    0  502  0.23467780028E+03 -0.20326763418E+03 -0.29660270902E+03  0.42937883151E+03  0.12699999809E+01 0. -1.
</event>
<event>
 5   0  0.1635686E-03  0.9004298E+03  0.7818609E-02  0.9425044E-01
       -2   -1    0    0    0  501  0.00000000000E+00  0.00000000000E+00  0.26317681011E+03  0.26317681012E+03  0.25500000920E-02 0.  1.
        2   -1    0    0  501    0  0.00000000000E+00  0.00000000000E+00 -0.77017973326E+03  0.77017973327E+03  0.25500000920E-02 0. -1.
    10030    2    1    2    0    0  0.00000000000E+00  0.00000000000E+00 -0.50700292315E+03  0.10333565434E+04  0.90042977610E+03 0.  0.
        5    1    3    3  502    0 -0.85636158269E+02  0.93815248367E+02  0.24215669926E+03  0.27349005362E+03  0.46999998093E+01 0.  1.
       -5    1    3    3    0  502  0.85636158269E+02 -0.93815248367E+02 -0.74915962242E+03  0.75986648978E+03  0.46999998093E+01 0. -1.
</event>
<event>
 5   0  0.9981885E-04  0.8995111E+03  0.7818609E-02  0.9426193E-01
       -1   -1    0    0    0  501  0.00000000000E+00  0.00000000000E+00  0.21827963710E+03  0.21827963716E+03  0.50400001928E-02 0. -1.
        1   -1    0    0  501    0  0.00000000000E+00  0.00000000000E+00 -0.92670138687E+03  0.92670138688E+03  0.50400001928E-02 0.  1.
    10030    2    1    2    0    0  0.00000000000E+00  0.00000000000E+00 -0.70842174977E+03  0.11449810240E+04  0.89951107268E+03 0.  0.
        4    1    3    3  502    0 -0.14840218214E+03  0.39989094364E+03 -0.17266204321E+03  0.46016276309E+03  0.12699999809E+01 0. -1.
       -4    1    3    3    0  502  0.14840218214E+03 -0.39989094364E+03 -0.53575970655E+03  0.68481826095E+03  0.12699999809E+01 0.  1.
</event>
<event>
 5   0  0.1704416E-03  0.9003615E+03  0.7818609E-02  0.9425130E-01
        2   -1    0    0  501    0  0.00000000000E+00  0.00000000000E+00  0.51896878249E+03  0.51896878250E+03  0.25500000920E-02 0. -1.
       -2   -1    0    0    0  501  0.00000000000E+00  0.00000000000E+00 -0.39051038719E+03  0.39051038720E+03  0.25500000920E-02 0.  1.
    10030    2    1    2    0    0  0.00000000000E+00  0.00000000000E+00  0.12845839530E+03  0.90947916969E+03  0.90036148340E+03 0.  0.
        3    1    3    3  502    0  0.67072586267E+02  0.19923185506E+02  0.51344268654E+03  0.51818825509E+03  0.10100000352E+00 0. -1.
       -3    1    3    3    0  502 -0.67072586267E+02 -0.19923185506E+02 -0.38498429124E+03  0.39129091461E+03  0.10100000352E+00 0.  1.
</event>
<event>
 5   0  0.1704416E-03  0.9278167E+03  0.7818609E-02  0.9391462E-01
       -2   -1    0    0    0  501  0.00000000000E+00  0.00000000000E+00  0.21638468603E+03  0.21638468605E+03  0.25500000920E-02 0. -1.
        2   -1    0    0  501    0  0.00000000000E+00  0.00000000000E+00 -0.99457575142E+03  0.99457575142E+03  0.25500000920E-02 0.  1.
    10030    2    1    2    0    0  0.00000000000E+00  0.00000000000E+00 -0.77819106539E+03  0.12109604375E+04  0.92781670974E+03 0.  0.
        3    1    3    3  502    0  0.25552843683E+02 -0.21657398184E+03 -0.92350525993E+03  0.94890421685E+03  0.10100000352E+00 0.  1.
       -3    1    3    3    0  502 -0.25552843683E+02  0.21657398184E+03  0.14531419454E+03  0.26205622062E+03  0.10100000352E+00 0. -1.
</event>
<event>
 5   0  0.9981885E-04  0.8980271E+03  0.7818609E-02  0.9428051E-01
       -1   -1    0    0    0  501  0.00000000000E+00  0.00000000000E+00  0.36064123132E+03  0.36064123136E+03  0.50400001928E-02 0. -1.
        1   -1    0    0  501    0  0.00000000000E+00  0.00000000000E+00 -0.55904082856E+03  0.55904082859E+03  0.50400001928E-02 0.  1.
    10030    2    1    2    0    0  0.00000000000E+00  0.00000000000E+00 -0.19839959724E+03  0.91968205994E+03  0.89802711050E+03 0.  0.
        4    1    3    3  502    0  0.21159416759E+03  0.26447337488E+03 -0.40108471763E+03  0.52496554305E+03  0.12699999809E+01 0.  1.
       -4    1    3    3    0  502 -0.21159416759E+03 -0.26447337488E+03  0.20268512039E+03  0.39471651689E+03  0.12699999809E+01 0. -1.
</event>
<event>
 5   0  0.9321543E-04  0.9004051E+03  0.7818609E-02  0.9425075E-01
        1   -1    0    0  501    0  0.00000000000E+00  0.00000000000E+00  0.32740951581E+03  0.32740951585E+03  0.50400001928E-02 0.  1.
       -1   -1    0    0    0  501  0.00000000000E+00  0.00000000000E+00 -0.61904842890E+03  0.61904842892E+03  0.50400001928E-02 0. -1.
    10030    2    1    2    0    0  0.00000000000E+00  0.00000000000E+00 -0.29163891310E+03  0.94645794477E+03  0.90040512303E+03 0.  0.
        3    1    3    3  502    0 -0.33816013612E+03  0.28015414242E+03 -0.25010950758E+03  0.50536461803E+03  0.10100000352E+00 0. -1.
       -3    1    3    3    0  502  0.33816013612E+03 -0.28015414242E+03 -0.41529405522E+02  0.44109332674E+03  0.10100000352E+00 0.  1.
</event>
<event>
 5   0  0.9981885E-04  0.8989910E+03  0.7818609E-02  0.9426844E-01
        1   -1    0    0  501    0  0.00000000000E+00  0.00000000000E+00  0.52369333892E+03  0.52369333894E+03  0.50400001928E-02 0. -1.
       -1   -1    0    0    0  501  0.00000000000E+00  0.00000000000E+00 -0.38581016594E+03  0.38581016598E+03  0.50400001928E-02 0.  1.
    10030    2    1    2    0    0  0.00000000000E+00  0.00000000000E+00  0.13788317298E+03  0.90950350492E+03  0.89899102113E+03 0.  0.
        4    1    3    3  502    0 -0.27497480315E+02  0.28251302182E+03 -0.28366649859E+03  0.40129542016E+03  0.12699999809E+01 0.  1.
       -4    1    3    3    0  502  0.27497480315E+02 -0.28251302182E+03  0.42154967156E+03  0.50820808476E+03  0.12699999809E+01 0. -1.
</event>
<event>
 5   0  0.1635686E-03  0.8989492E+03  0.7818609E-02  0.9426896E-01
        2   -1    0    0  501    0  0.00000000000E+00  0.00000000000E+00  0.97008054381E+03  0.97008054382E+03  0.25500000920E-02 0. -1.
       -2   -1    0    0    0  501  0.00000000000E+00  0.00000000000E+00 -0.20825837310E+03  0.20825837311E+03  0.25500000920E-02 0.  1.
    10030    2    1    2    0    0  0.00000000000E+00  0.00000000000E+00  0.76182217072E+03  0.11783389169E+04  0.89894915504E+03 0.  0.
        5    1    3    3  502    0 -0.31640347697E+03  0.14299390235E+03  0.68243195588E+01  0.34731409083E+03  0.46999998093E+01 0.  1.
       -5    1    3    3    0  502  0.31640347697E+03 -0.14299390235E+03  0.75499785116E+03  0.83102482610E+03  0.46999998093E+01 0. -1.
</event>
<event>
 5   0  0.9981885E-04  0.9028128E+03  0.7818609E-02  0.9422072E-01
       -1   -1    0    0    0  501  0.00000000000E+00  0.00000000000E+00  0.20900666975E+03  0.20900666981E+03  0.50400001928E-02 0.  1.
        1   -1    0    0  501    0  0.00000000000E+00  0.00000000000E+00 -0.97493424466E+03  0.97493424467E+03  0.50400001928E-02 0. -1.
    10030    2    1    2    0    0  0.00000000000E+00  0.00000000000E+00 -0.76592757491E+03  0.11839409145E+04  0.90281284827E+03 0.  0.
        4    1    3    3  502    0 -0.38700433813E+03  0.11194948251E+03 -0.64998927773E+03  0.76471741083E+03  0.12699999809E+01 0. -1.
       -4    1    3    3    0  502  0.38700433813E+03 -0.11194948251E+03 -0.11593829718E+03  0.41922350366E+03  0.12699999809E+01 0.  1.
</event>
<event>
 5   0  0.6375625E-04  0.9000809E+03  0.7818609E-02  0.9425480E-01
       -3   -1    0    0    0  501  0.00000000000E+00  0.00000000000E+00  0.94271536097E+03  0.94271536638E+03  0.10100000352E+00 0.  1.
        3   -1    0    0  501    0  0.00000000000E+00  0.00000000000E+00 -0.21484363937E+03  0.21484366311E+03  0.10100000352E+00 0. -1.
    10030    2    1    2    0    0  0.00000000000E+00  0.00000000000E+00  0.72787172160E+03  0.11575590295E+04  0.90008092062E+03 0.  0.
        4    1    3    3  502    0  0.35984881285E+01  0.43792271582E+03  0.49724990176E+03  0.66260722291E+03  0.12699999809E+01 0.  1.
       -4    1    3    3    0  502 -0.35984881285E+01 -0.43792271582E+03  0.23062181983E+03  0.49495180658E+03  0.12699999809E+01 0. -1.
</event>
<event>
 5   0  0.1007561E-03  0.8996367E+03  0.7818609E-02  0.9426036E-01
       -1   -1    0    0    0  501  0.00000000000E+00  0.00000000000E+00  0.27603425621E+03  0.27603425626E+03  0.50400001928E-02 0.  1.
        1   -1    0    0  501    0  0.00000000000E+00  0.00000000000E+00 -0.73301250583E+03  0.73301250584E+03  0.50400001928E-02 0. -1.
    10030    2    1    2    0    0  0.00000000000E+00  0.00000000000E+00 -0.45697824962E+03  0.10090467621E+04  0.89963673084E+03 0.  0.
        2    1    3    3  502    0 -0.26418619820E+03  0.93571846708E+02 -0.62311067514E+03  0.68324003929E+03  0.25500000920E-02 0. -1.
       -2    1    3    3    0  502  0.26418619820E+03 -0.93571846708E+02  0.16613242552E+03  0.32580672281E+03  0.25500000920E-02 0.  1.
</event>
<event>
 5   0  0.9697941E-04  0.8905136E+03  0.7818609E-02  0.9437518E-01
       -1   -1    0    0    0  501  0.00000000000E+00  0.00000000000E+00  0.89097738685E+02  0.89097738828E+02  0.50400001928E-02 0.  1.
        1   -1    0    0  501    0  0.00000000000E+00  0.00000000000E+00 -0.22251250703E+04  0.22251250703E+04  0.50400001928E-02 0. -1.
    10030    2    1    2    0    0  0.00000000000E+00  0.00000000000E+00 -0.21360273317E+04  0.23142228092E+04  0.89051358716E+03 0.  0.
        5    1    3    3  502    0 -0.12669922103E+03 -0.13025800804E+03 -0.11719224038E+02  0.18215178143E+03  0.46999998093E+01 0.  1.
       -5    1    3    3    0  502  0.12669922103E+03  0.13025800804E+03 -0.21243081076E+04  0.21320710277E+04  0.46999998093E+01 0. -1.
</event>
<event>
 5   0  0.1536020E-03  0.9003381E+03  0.7818609E-02  0.9425159E-01
       -2   -1    0    0    0  501  0.00000000000E+00  0.00000000000E+00  0.69879639383E+03  0.69879639383E+03  0.25500000920E-02 0.  1.
        2   -1    0    0  501    0  0.00000000000E+00  0.00000000000E+00 -0.29000174240E+03  0.29000174241E+03  0.25500000920E-02 0. -1.
    10030    2    1    2    0    0  0.00000000000E+00  0.00000000000E+00  0.40879465143E+03  0.98879813625E+03  0.90033809606E+03 0.  0.
        2    1    3    3  502    0 -0.42415163514E+03  0.82742183728E+02  0.65907383035E+02  0.43714375405E+03  0.25500000920E-02 0. -1.
       -2    1    3    3    0  502  0.42415163514E+03 -0.82742183728E+02  0.34288726839E+03  0.55165438219E+03  0.25500000920E-02 0.  1.
</event>
<event>
 5   0  0.1630202E-03  0.8999785E+03  0.7818609E-02  0.9425608E-01
        2   -1    0    0  501    0  0.00000000000E+00  0.00000000000E+00  0.13782279366E+04  0.13782279366E+04  0.25500000920E-02 0.  1.
       -2   -1    0    0    0  501  0.00000000000E+00  0.00000000000E+00 -0.14692078686E+03  0.14692078688E+03  0.25500000920E-02 0. -1.
    10030    2    1    2    0    0  0.00000000000E+00  0.00000000000E+00  0.12313071497E+04  0.15251487234E+04  0.89997851736E+03 0.  0.
        4    1    3    3  502    0 -0.15957512744E+03 -0.13414434098E+03  0.12914553085E+04  0.13081732884E+04  0.12699999809E+01 0.  1.
       -4    1    3    3    0  502  0.15957512744E+03  0.13414434098E+03 -0.60148158841E+02  0.21697543508E+03  0.12699999809E+01 0. -1.
</event>
<event>
 5   0  0.1704416E-03  0.8985169E+03  0.7818609E-02  0.9427437E-01
       -2   -1    0    0    0  501  0.00000000000E+00  0.00000000000E+00  0.36227372411E+03  0.36227372411E+03  0.25500000920E-02 0. -1.
        2   -1    0    0  501    0  0.00000000000E+00  0.00000000000E+00 -0.55712883075E+03  0.55712883075E+03  0.25500000920E-02 0.  1.
    10030    2    1    2    0    0  0.00000000000E+00  0.00000000000E+00 -0.19485510664E+03  0.91940255487E+03  0.89851685867E+03 0.  0.
        3    1    3    3  502    0 -0.19764030142E+03  0.34298723051E+03  0.11995160494E+03  0.41363066469E+03  0.10100000352E+00 0. -1.
       -3    1    3    3    0  502  0.19764030142E+03 -0.34298723051E+03 -0.31480671158E+03  0.50577189018E+03  0.10100000352E+00 0.  1.
</event>
<event>
 5   0  0.9981885E-04  0.9023294E+03  0.7818609E-02  0.9422674E-01
        1   -1    0    0  501    0  0.00000000000E+00  0.00000000000E+00  0.26978421811E+03  0.26978421816E+03  0.50400001928E-02 0.  1.
       -1   -1    0    0    0  501  0.00000000000E+00  0.00000000000E+00 -0.75449034816E+03  0.75449034817E+03  0.50400001928E-02 0. -1.
    10030    2    1    2    0    0  0.00000000000E+00  0.00000000000E+00 -0.48470613005E+03  0.10242745663E+04  0.90232940478E+03 0.  0.
        4    1    3    3  502    0 -0.20959627281E+03 -0.35628923586E+03 -0.44754555428E+03  0.60923825653E+03  0.12699999809E+01 0.  1.
       -4    1    3    3    0  502  0.20959627281E+03  0.35628923586E+03 -0.37160575764E+02  0.41503630980E+03  0.12699999809E+01 0. -1.
</event>
<event>
 5   0  0.9321543E-04  0.8999292E+03  0.7818609E-02  0.9425670E-01
        1   -1    0    0  501    0  0.00000000000E+00  0.00000000000E+00  0.92102947144E+03  0.92102947146E+03  0.50400001928E-02 0. -1.
       -1   -1    0    0    0  501  0.00000000000E+00  0.00000000000E+00 -0.21982806764E+03  0.21982806770E+03  0.50400001928E-02 0.  1.
    10030    2    1    2    0    0  0.00000000000E+00  0.00000000000E+00  0.70120140381E+03  0.11408575392E+04  0.89992917274E+03 0.  0.
        3    1    3    3  502    0 -0.28843566404E+03 -0.33104230226E+03  0.22584797663E+03  0.49375242473E+03  0.10100000352E+00 0.  1.
       -3    1    3    3    0  502  0.28843566404E+03  0.33104230226E+03  0.47535342718E+03  0.64710511442E+03  0.10100000352E+00 0. -1.
</event>
<event>
 5   0  0.9697941E-04  0.9046755E+03  0.7818609E-02  0.9419756E-01
       -1   -1    0    0    0  501  0.00000000000E+00  0.00000000000E+00  0.62000917768E+03  0.62000917770E+03  0.50400001928E-02 0. -1.
        1   -1    0    0  501    0  0.00000000000E+00  0.00000000000E+00 -0.33001033983E+03  0.33001033987E+03  0.50400001928E-02 0.  1.
    10030    2    1    2    0    0  0.00000000000E+00  0.00000000000E+00  0.28999883785E+03  0.95001951756E+03  0.90467549862E+03 0.  0.
        5    1    3    3  502    0 -0.64333270061E+02 -0.41495802944E+03  0.32152741373E+03  0.52889592890E+03  0.46999998093E+01 0.  1.
       -5    1    3    3    0  502  0.64333270061E+02  0.41495802944E+03 -0.31528575881E+02  0.42112358866E+03  0.46999998093E+01 0. -1.
</event>
<event>
 5   0  0.9697941E-04  0.9036417E+03  0.7818609E-02  0.9421041E-01
        1   -1    0    0  501    0  0.00000000000E+00  0.00000000000E+00  0.85642650712E+03  0.85642650713E+03  0.50400001928E-02 0. -1.
       -1   -1    0    0    0  501  0.00000000000E+00  0.00000000000E+00 -0.23836496083E+03  0.23836496088E+03  0.50400001928E-02 0.  1.
    10030    2    1    2    0    0  0.00000000000E+00  0.00000000000E+00  0.61806154629E+03  0.10947914680E+04  0.90364167867E+03 0.  0.
        5    1    3    3  502    0 -0.41105904409E+03 -0.17316394715E+03  0.39609851931E+03  0.59654959335E+03  0.46999998093E+01 0. -1.
       -5    1    3    3    0  502  0.41105904409E+03  0.17316394715E+03  0.22196302698E+03  0.49824187466E+03  0.46999998093E+01 0.  1.
</event>
<event>
 5   0  0.1536020E-03  0.9013951E+03  0.7818609E-02  0.9423839E-01
       -2   -1    0    0    0  501  0.00000000000E+00  0.00000000000E+00  0.13786841584E+03  0.13786841587E+03  0.25500000920E-02 0. -1.
        2   -1    0    0  501    0  0.00000000000E+00  0.00000000000E+00 -0.14733488498E+04  0.14733488498E+04  0.25500000920E-02 0.  1.
    10030    2    1    2    0    0  0.00000000000E+00  0.00000000000E+00 -0.13354804339E+04  0.16112172656E+04  0.90139507859E+03 0.  0.
        2    1    3    3  502    0 -0.30424359033E+02  0.11322587112E+03 -0.14456135518E+04  0.14503600521E+04  0.25500000920E-02 0.  1.
       -2    1    3    3    0  502  0.30424359033E+02 -0.11322587112E+03  0.11013311784E+03  0.16085721359E+03  0.25500000920E-02 0. -1.
</event>
<event>
 5   0  0.1536020E-03  0.8984271E+03  0.7818609E-02  0.9427550E-01
       -2   -1    0    0    0  501  0.00000000000E+00  0.00000000000E+00  0.11601789272E+04  0.11601789272E+04  0.25500000920E-02 0.  1.
        2   -1    0    0  501    0  0.00000000000E+00  0.00000000000E+00 -0.17393250328E+03  0.17393250330E+03  0.25500000920E-02 0. -1.
    10030    2    1    2    0    0  0.00000000000E+00  0.00000000000E+00  0.98624642392E+03  0.13341114305E+04  0.89842712577E+03 0.  0.
        2    1    3    3  502    0  0.84781032381E+02  0.15197724395E+03  0.11080895413E+04  0.11216716711E+04  0.25500000920E-02 0.  1.
       -2    1    3    3    0  502 -0.84781032381E+02 -0.15197724395E+03 -0.12184311738E+03  0.21243975944E+03  0.25500000920E-02 0. -1.
</event>
<event>
 5   0  0.9321543E-04  0.9069623E+03  0.7818609E-02  0.9416920E-01
        1   -1    0    0  501    0  0.00000000000E+00  0.00000000000E+00  0.18768206405E+04  0.18768206405E+04  0.50400001928E-02 0.  1.
       -1   -1    0    0    0  501  0.00000000000E+00  0.00000000000E+00 -0.10957101404E+03  0.10957101415E+03  0.50400001928E-02 0. -1.
    10030    2    1    2    0    0  0.00000000000E+00  0.00000000000E+00  0.17672496265E+04  0.19863916547E+04  0.90696227235E+03 0.  0.
        3    1    3    3  502    0 -0.17651977669E+03 -0.14776957252E+03  0.17393299505E+04  0.17544981519E+04  0.10100000352E+00 0.  1.
       -3    1    3    3    0  502  0.17651977669E+03  0.14776957252E+03  0.27919676001E+02  0.23189350279E+03  0.10100000352E+00 0. -1.
</event>
<event>
 5   0  0.9223454E-04  0.9001192E+03  0.7818609E-02  0.9425432E-01
       -1   -1    0    0    0  501  0.00000000000E+00  0.00000000000E+00  0.15064833025E+03  0.15064833034E+03  0.50400001928E-02 0. -1.
        1   -1    0    0  501    0  0.00000000000E+00  0.00000000000E+00 -0.13445463542E+04  0.13445463542E+04  0.50400001928E-02 0.  1.
    10030    2    1    2    0    0  0.00000000000E+00  0.00000000000E+00 -0.11938980239E+04  0.14951946845E+04  0.90011924382E+03 0.  0.
        1    1    3    3  502    0  0.50308630894E+02 -0.44555516525E+03 -0.66135414352E+03  0.79902419663E+03  0.50400001928E-02 0. -1.
       -1    1    3    3    0  502 -0.50308630894E+02  0.44555516525E+03 -0.53254388039E+03  0.69617048787E+03  0.50400001928E-02 0.  1.
</event>
<event>
 5   0  0.1641516E-03  0.8987054E+03  0.7818609E-02  0.9427201E-01
       -2   -1    0    0    0  501  0.00000000000E+00  0.00000000000E+00  0.19132627578E+03  0.19132627579E+03  0.25500000920E-02 0. -1.
        2   -1    0    0  501    0  0.00000000000E+00  0.00000000000E+00 -0.10553587819E+04  0.10553587820E+04  0.25500000920E-02 0.  1.
    10030    2    1    2    0    0  0.00000000000E+00  0.00000000000E+00 -0.86403250617E+03  0.12466850577E+04  0.89870543644E+03 0.  0.
        1    1    3    3  502    0  0.13094205815E+03 -0.41642145792E+03 -0.28412987978E+03  0.52084781061E+03  0.50400001928E-02 0.  1.
       -1    1    3    3    0  502 -0.13094205815E+03  0.41642145792E+03 -0.57990262639E+03  0.72583724714E+03  0.50400001928E-02 0. -1.
</event>
<event>
 5   0  0.1635686E-03  0.9067608E+03  0.7818609E-02  0.9417169E-01
        2   -1    0    0  501    0  0.00000000000E+00  0.00000000000E+00  0.48986027935E+03  0.48986027936E+03  0.25500000920E-02 0. -1.
       -2   -1    0    0    0  501  0.00000000000E+00  0.00000000000E+00 -0.41961720149E+03  0.41961720149E+03  0.25500000920E-02 0.  1.
    10030    2    1    2    0    0  0.00000000000E+00  0.00000000000E+00  0.70243077867E+02  0.90947748085E+03  0.90676082745E+03 0.  0.
        5    1    3    3  502    0  0.17163008083E+03 -0.27370738609E+03  0.35412960236E+03  0.47937718251E+03  0.46999998093E+01 0. -1.
       -5    1    3    3    0  502 -0.17163008083E+03  0.27370738609E+03 -0.28388652449E+03  0.43010029834E+03  0.46999998093E+01 0.  1.
</event>
<event>
 5   0  0.1007561E-03  0.8994770E+03  0.7818609E-02  0.9426235E-01
        1   -1    0    0  501    0  0.00000000000E+00  0.00000000000E+00  0.98334011132E+03  0.98334011134E+03  0.50400001928E-02 0. -1.
       -1   -1    0    0    0  501  0.00000000000E+00  0.00000000000E+00 -0.20569149432E+03  0.20569149438E+03  0.50400001928E-02 0.  1.
    10030    2    1    2    0    0  0.00000000000E+00  0.00000000000E+00  0.77764861700E+03  0.11890316057E+04  0.89947695239E+03 0.  0.
        2    1    3    3  502    0  0.13039415546E+03 -0.30468914339E+03 -0.13060710518E+02  0.33167558252E+03  0.25500000920E-02 0.  1.
       -2    1    3    3    0  502 -0.13039415546E+03  0.30468914339E+03  0.79070932752E+03  0.85735602320E+03  0.25500000920E-02 0. -1.
</event>
<event>
 5   0  0.1007561E-03  0.8992928E+03  0.7818609E-02  0.9426466E-01
        1   -1    0    0  501    0  0.00000000000E+00  0.00000000000E+00  0.52307200375E+03  0.52307200378E+03  0.50400001928E-02 0.  1.
       -1   -1    0    0    0  501  0.00000000000E+00  0.00000000000E+00 -0.38652778572E+03  0.38652778576E+03  0.50400001928E-02 0. -1.
    10030    2    1    2    0    0  0.00000000000E+00  0.00000000000E+00  0.13654421803E+03  0.90959978953E+03  0.89929275191E+03 0.  0.
        2    1    3    3  502    0 -0.19259694852E+03  0.39062217901E+03 -0.44824423316E+02  0.43782245288E+03  0.25500000920E-02 0. -1.
       -2    1    3    3    0  502  0.19259694852E+03 -0.39062217901E+03  0.18136864134E+03  0.47177733666E+03  0.25500000920E-02 0.  1.
</event>
<event>
 5   0  0.9321543E-04  0.8866558E+03  0.7818609E-02  0.9442418E-01
       -1   -1    0    0    0  501  0.00000000000E+00  0.00000000000E+00  0.64209646578E+03  0.64209646580E+03  0.50400001928E-02 0. -1.
        1   -1    0    0  501    0  0.00000000000E+00  0.00000000000E+00 -0.30609050082E+03  0.30609050086E+03  0.50400001928E-02 0.  1.
    10030    2    1    2    0    0  0.00000000000E+00  0.00000000000E+00  0.33600596497E+03  0.94818696666E+03  0.88665580427E+03 0.  0.
        3    1    3    3  502    0 -0.41556003267E+03 -0.35736117601E+01  0.28972886830E+01  0.41558550978E+03  0.10100000352E+00 0.  1.
       -3    1    3    3    0  502  0.41556003267E+03  0.35736117601E+01  0.33310867628E+03  0.53260145688E+03  0.10100000352E+00 0. -1.
</event>
<event>
 5   0  0.1704416E-03  0.8993272E+03  0.7818609E-02  0.9426423E-01
       -2   -1    0    0    0  501  0.00000000000E+00  0.00000000000E+00  0.10516934207E+03  0.10516934210E+03  0.25500000920E-02 0.  1.
        2   -1    0    0  501    0  0.00000000000E+00  0.00000000000E+00 -0.19225885599E+04  0.19225885599E+04  0.25500000920E-02 0. -1.
    10030    2    1    2    0    0  0.00000000000E+00  0.00000000000E+00 -0.18174192178E+04  0.20277579020E+04  0.89932724622E+03 0.  0.
        3    1    3    3  502    0 -0.42587798461E+03 -0.46059483155E+02 -0.12170735762E+04  0.12902564217E+04  0.10100000352E+00 0. -1.
       -3    1    3    3    0  502  0.42587798461E+03  0.46059483155E+02 -0.60034564162E+03  0.73750148026E+03  0.10100000352E+00 0.  1.
</event>
<event>
 5   0  0.9697941E-04  0.9018440E+03  0.7818609E-02  0.9423279E-01
       -1   -1    0    0    0  501  0.00000000000E+00  0.00000000000E+00  0.41884775605E+03  0.41884775608E+03  0.50400001928E-02 0.  1.
        1   -1    0    0  501    0  0.00000000000E+00  0.00000000000E+00 -0.48545239707E+03  0.48545239710E+03  0.50400001928E-02 0. -1.
    10030    2    1    2    0    0  0.00000000000E+00  0.00000000000E+00 -0.66604641027E+02  0.90430015318E+03  0.90184399362E+03 0.  0.
        5    1    3    3  502    0  0.39938481668E+03 -0.54898464933E+01 -0.24308536713E+03  0.46760127879E+03  0.46999998093E+01 0. -1.
       -5    1    3    3    0  502 -0.39938481668E+03  0.54898464933E+01  0.17648072610E+03  0.43669887439E+03  0.46999998093E+01 0.  1.
</event>
<event>
 5   0  0.1007561E-03  0.8995596E+03  0.7818609E-02  0.9426132E-01
       -1   -1    0    0    0  501  0.00000000000E+00  0.00000000000E+00  0.36971907180E+03  0.36971907183E+03  0.50400001928E-02 0.  1.
        1   -1    0    0  501    0  0.00000000000E+00  0.00000000000E+00 -0.54717728713E+03  0.54717728715E+03  0.50400001928E-02 0. -1.
    10030    2    1    2    0    0  0.00000000000E+00  0.00000000000E+00 -0.17745821533E+03  0.91689635899E+03  0.89955962278E+03 0.  0.
        2    1    3    3  502    0  0.15981502541E+03  0.29115657783E+03 -0.39787107650E+03  0.51828022216E+03  0.25500000920E-02 0. -1.
       -2    1    3    3    0  502 -0.15981502541E+03 -0.29115657783E+03  0.22041286117E+03  0.39861613683E+03  0.25500000920E-02 0.  1.
</event>
<event>
 5   0  0.1704416E-03  0.8991161E+03  0.7818609E-02  0.9426687E-01
       -2   -1    0    0    0  501  0.00000000000E+00  0.00000000000E+00  0.11294125206E+03  0.11294125209E+03  0.25500000920E-02 0.  1.
        2   -1    0    0  501    0  0.00000000000E+00  0.00000000000E+00 -0.17894476792E+04  0.17894476792E+04  0.25500000920E-02 0. -1.
    10030    2    1    2    0    0  0.00000000000E+00  0.00000000000E+00 -0.16765064271E+04  0.19023889312E+04  0.89911614691E+03 0.  0.
        3    1    3    3  502    0 -0.33643013220E+03 -0.10078861153E+03 -0.24446269287E+03  0.42790839729E+03  0.10100000352E+00 0.  1.
       -3    1    3    3    0  502  0.33643013220E+03  0.10078861153E+03 -0.14320437342E+04  0.14744805340E+04  0.10100000352E+00 0. -1.
</event>
<event>
 5   0  0.1635686E-03  0.8981419E+03  0.7818609E-02  0.9427907E-01
       -2   -1    0    0    0  501  0.00000000000E+00  0.00000000000E+00  0.20617112577E+03  0.20617112579E+03  0.25500000920E-02 0. -1.
        2   -1    0    0  501    0  0.00000000000E+00  0.00000000000E+00 -0.97814245301E+03  0.97814245302E+03  0.25500000920E-02 0.  1.
    10030    2    1    2    0    0  0.00000000000E+00  0.00000000000E+00 -0.77197132724E+03  0.11843135788E+04  0.89814192802E+03 0.  0.
        5    1    3    3  502    0 -0.11815090653E+03 -0.26844447323E+03  0.62387167030E+02  0.29989384877E+03  0.46999998093E+01 0. -1.
       -5    1    3    3    0  502  0.11815090653E+03  0.26844447323E+03 -0.83435849427E+03  0.88441973004E+03  0.46999998093E+01 0.  1.
</event>
<event>
 5   0  0.1635686E-03  0.8989533E+03  0.7818609E-02  0.9426891E-01
       -2   -1    0    0    0  501  0.00000000000E+00  0.00000000000E+00  0.15608241289E+03  0.15608241291E+03  0.25500000920E-02 0. -1.
        2   -1    0    0  501    0  0.00000000000E+00  0.00000000000E+00 -0.12943756237E+04  0.12943756237E+04  0.25500000920E-02 0.  1.
    10030    2    1    2    0    0  0.00000000000E+00  0.00000000000E+00 -0.11382932108E+04  0.14504580366E+04  0.89895332593E+03 0.  0.
        5    1    3    3  502    0  0.37777924861E+03  0.55503472571E+02 -0.18661049327E+03  0.42502160221E+03  0.46999998093E+01 0. -1.
       -5    1    3    3    0  502 -0.37777924861E+03 -0.55503472571E+02 -0.95168271756E+03  0.10254364344E+04  0.46999998093E+01 0.  1.
</event>
<event>
 5   0  0.1635686E-03  0.9008785E+03  0.7818609E-02  0.9424484E-01
        2   -1    0    0  501    0  0.00000000000E+00  0.00000000000E+00  0.76924398325E+03  0.76924398325E+03  0.25500000920E-02 0.  1.
       -2   -1    0    0    0  501  0.00000000000E+00  0.00000000000E+00 -0.26375963491E+03  0.26375963493E+03  0.25500000920E-02 0. -1.
    10030    2    1    2    0    0  0.00000000000E+00  0.00000000000E+00  0.50548434834E+03  0.10330036182E+04  0.90087848723E+03 0.  0.
        5    1    3    3  502    0 -0.46202629549E+01 -0.33836441253E+02  0.76772920866E+03  0.76850275173E+03  0.46999998093E+01 0.  1.
       -5    1    3    3    0  502  0.46202629549E+01  0.33836441253E+02 -0.26224486033E+03  0.26450086645E+03  0.46999998093E+01 0. -1.
</event>
<event>
 5   0  0.1536020E-03  0.8995585E+03  0.7818609E-02  0.9426133E-01
       -2   -1    0    0    0  501  0.00000000000E+00  0.00000000000E+00  0.18157464439E+03  0.18157464441E+03  0.25500000920E-02 0.  1.
        2   -1    0    0  501    0  0.00000000000E+00  0.00000000000E+00 -0.11141499889E+04  0.11141499889E+04  0.25500000920E-02 0. -1.
    10030    2    1    2    0    0  0.00000000000E+00  0.00000000000E+00 -0.93257534447E+03  0.12957246333E+04  0.89955853182E+03 0.  0.
        2    1    3    3  502    0 -0.21467679159E+01  0.34538158510E+03 -0.88128390381E+03  0.94654866070E+03  0.25500000920E-02 0. -1.
       -2    1    3    3    0  502  0.21467679159E+01 -0.34538158510E+03 -0.51291440657E+02  0.34917597258E+03  0.25500000920E-02 0.  1.
</event>
<event>
 5   0  0.1630202E-03  0.9008679E+03  0.7818609E-02  0.9424497E-01
       -2   -1    0    0    0  501  0.00000000000E+00  0.00000000000E+00  0.20612388189E+03  0.20612388191E+03  0.25500000920E-02 0. -1.
        2   -1    0    0  501    0  0.00000000000E+00  0.00000000000E+00 -0.98431461150E+03  0.98431461151E+03  0.25500000920E-02 0.  1.
    10030    2    1    2    0    0  0.00000000000E+00  0.00000000000E+00 -0.77819072961E+03  0.11904384934E+04  0.90086791204E+03 0.  0.
        4    1    3    3  502    0  0.36751259456E+03  0.18425514838E+03 -0.63230286452E+03  0.75420421124E+03  0.12699999809E+01 0.  1.
       -4    1    3    3    0  502 -0.36751259456E+03 -0.18425514838E+03 -0.14588786509E+03  0.43623428217E+03  0.12699999809E+01 0. -1.
</event>
<event>
 5   0  0.1704416E-03  0.8996577E+03  0.7818609E-02  0.9426009E-01
       -2   -1    0    0    0  501  0.00000000000E+00  0.00000000000E+00  0.41379734477E+03  0.41379734477E+03  0.25500000920E-02 0.  1.
        2   -1    0    0  501    0  0.00000000000E+00  0.00000000000E+00 -0.48899782347E+03  0.48899782348E+03  0.25500000920E-02 0. -1.
    10030    2    1    2    0    0  0.00000000000E+00  0.00000000000E+00 -0.75200478706E+02  0.90279516825E+03  0.89965771481E+03 0.  0.
        3    1    3    3  502    0  0.10076721576E+03  0.37017538488E+03 -0.27328553297E+03  0.47102955329E+03  0.10100000352E+00 0. -1.
       -3    1    3    3    0  502 -0.10076721576E+03 -0.37017538488E+03  0.19808505427E+03  0.43176561496E+03  0.10100000352E+00 0.  1.
</event>
<event>
 5   0  0.1635686E-03  0.9031330E+03  0.7818609E-02  0.9421674E-01
       -2   -1    0    0    0  501  0.00000000000E+00  0.00000000000E+00  0.92057523168E+02  0.92057523203E+02  0.25500000920E-02 0. -1.
        2   -1    0    0  501    0  0.00000000000E+00  0.00000000000E+00 -0.22150529802E+04  0.22150529802E+04  0.25500000920E-02 0.  1.
    10030    2    1    2    0    0  0.00000000000E+00  0.00000000000E+00 -0.21229954570E+04  0.23071105034E+04  0.90313297157E+03 0.  0.
        5    1    3    3  502    0  0.44787989382E+03  0.50637970246E+02 -0.99249624197E+03  0.10900603119E+04  0.46999998093E+01 0. -1.
       -5    1    3    3    0  502 -0.44787989382E+03 -0.50637970246E+02 -0.11304992150E+04  0.12170501914E+04  0.46999998093E+01 0.  1.
</event>
<event>
 5   0  0.1630202E-03  0.8980194E+03  0.7818609E-02  0.9428061E-01
       -2   -1    0    0    0  501  0.00000000000E+00  0.00000000000E+00  0.18633768094E+03  0.18633768096E+03  0.25500000920E-02 0.  1.
        2   -1    0    0  501    0  0.00000000000E+00  0.00000000000E+00 -0.10819589028E+04  0.10819589028E+04  0.25500000920E-02 0. -1.
    10030    2    1    2    0    0  0.00000000000E+00  0.00000000000E+00 -0.89562122183E+03  0.12682965837E+04  0.89801940475E+03 0.  0.
        4    1    3    3  502    0  0.44653823850E+03  0.46300721713E+02 -0.45945221266E+03  0.64236913367E+03  0.12699999809E+01 0. -1.
       -4    1    3    3    0  502 -0.44653823850E+03 -0.46300721713E+02 -0.43616900917E+03  0.62592745006E+03  0.12699999809E+01 0.  1.
</event>
<event>
 5   0  0.6375625E-04  0.8993081E+03  0.7818609E-02  0.9426447E-01
        3   -1    0    0  501    0  0.00000000000E+00  0.00000000000E+00  0.28470048808E+03  0.28470050600E+03  0.10100000352E+00 0.  1.
       -3   -1    0    0    0  501  0.00000000000E+00  0.00000000000E+00 -0.71018051103E+03  0.71018051821E+03  0.10100000352E+00 0. -1.
    10030    2    1    2    0    0  0.00000000000E+00  0.00000000000E+00 -0.42548002295E+03  0.99488102421E+03  0.89930806868E+03 0.  0.
        2    1    3    3  502    0  0.36082200542E+03  0.10289225060E+02  0.83878325260E+02  0.37058597005E+03  0.25500000920E-02 0.  1.
       -2    1    3    3    0  502 -0.36082200542E+03 -0.10289225060E+02 -0.50935834821E+03  0.62429505415E+03  0.25500000920E-02 0. -1.
</event>
<event>
 5   0  0.1641516E-03  0.9046569E+03  0.7818609E-02  0.9419779E-01
       -2   -1    0    0    0  501  0.00000000000E+00  0.00000000000E+00  0.21242665053E+03  0.21242665054E+03  0.25500000920E-02 0.  1.
        2   -1    0    0  501    0  0.00000000000E+00  0.00000000000E+00 -0.96316078421E+03  0.96316078421E+03  0.25500000920E-02 0. -1.
    10030    2    1    2    0    0  0.00000000000E+00  0.00000000000E+00 -0.75073413368E+03  0.11755874348E+04  0.90465688373E+03 0.  0.
        1    1    3    3  502    0 -0.37677333212E+03 -0.14801118997E+03 -0.11309145698E+03  0.42030362099E+03  0.50400001928E-02 0.  1.
       -1    1    3    3    0  502  0.37677333212E+03  0.14801118997E+03 -0.63764267670E+03  0.75528381376E+03  0.50400001928E-02 0. -1.
</event>
<event>
 5   0  0.1007561E-03  0.8992850E+03  0.7818609E-02  0.9426476E-01
        1   -1    0    0  501    0  0.00000000000E+00  0.00000000000E+00  0.83410118610E+03  0.83410118612E+03  0.50400001928E-02 0.  1.
       -1   -1    0    0    0  501  0.00000000000E+00  0.00000000000E+00 -0.24239068737E+03  0.24239068742E+03  0.50400001928E-02 0. -1.
    10030    2    1    2    0    0  0.00000000000E+00  0.00000000000E+00  0.59171049874E+03  0.10764918735E+04  0.89928496011E+03 0.  0.
        2    1    3    3  502    0 -0.11878417475E+03 -0.31475855912E+03  0.65296195744E+03  0.73453519220E+03  0.25500000920E-02 0.  1.
       -2    1    3    3    0  502  0.11878417475E+03  0.31475855912E+03 -0.61251458706E+02  0.34195668133E+03  0.25500000920E-02 0. -1.
</event>
<event>
 5   0  0.1704416E-03  0.9008265E+03  0.7818609E-02  0.9424549E-01
        2   -1    0    0  501    0  0.00000000000E+00  0.00000000000E+00  0.43813092620E+03  0.43813092621E+03  0.25500000920E-02 0. -1.
       -2   -1    0    0    0  501  0.00000000000E+00  0.00000000000E+00 -0.46303991268E+03  0.46303991269E+03  0.25500000920E-02 0.  1.
    10030    2    1    2    0    0  0.00000000000E+00  0.00000000000E+00 -0.24908986486E+02  0.90117083890E+03  0.90082652230E+03 0.  0.
        3    1    3    3  502    0  0.39788846283E+03 -0.15099915235E+03 -0.16001043961E+03  0.45466396806E+03  0.10100000352E+00 0. -1.
       -3    1    3    3    0  502 -0.39788846283E+03  0.15099915235E+03  0.13510145313E+03  0.44650687084E+03  0.10100000352E+00 0.  1.
</event>
<event>
 5   0  0.9981885E-04  0.8977329E+03  0.7818609E-02  0.9428420E-01
        1   -1    0    0  501    0  0.00000000000E+00  0.00000000000E+00  0.13253629941E+04  0.13253629941E+04  0.50400001928E-02 0. -1.
       -1   -1    0    0    0  501  0.00000000000E+00  0.00000000000E+00 -0.15201956826E+03  0.15201956835E+03  0.50400001928E-02 0.  1.
    10030    2    1    2    0    0  0.00000000000E+00  0.00000000000E+00  0.11733434258E+04  0.14773825625E+04  0.89773294521E+03 0.  0.
        4    1    3    3  502    0 -0.16796614296E+02 -0.96185985107E+02  0.13076711356E+04  0.13113120459E+04  0.12699999809E+01 0. -1.
       -4    1    3    3    0  502  0.16796614296E+02  0.96185985107E+02 -0.13432770972E+03  0.16607051659E+03  0.12699999809E+01 0.  1.
</event>
<event>
 5   0  0.9223454E-04  0.8978532E+03  0.7818609E-02  0.9428269E-01
       -1   -1    0    0    0  501  0.00000000000E+00  0.00000000000E+00  0.16776967973E+03  0.16776967980E+03  0.50400001928E-02 0. -1.
        1   -1    0    0  501    0  0.00000000000E+00  0.00000000000E+00 -0.12012604908E+04  0.12012604908E+04  0.50400001928E-02 0.  1.
    10030    2    1    2    0    0  0.00000000000E+00  0.00000000000E+00 -0.10334908111E+04  0.13690301706E+04  0.89785319038E+03 0.  0.
        1    1    3    3  502    0  0.28731314909E+03  0.20011135089E+03 -0.94515668564E+03  0.10079258697E+04  0.50400001928E-02 0.  1.
       -1    1    3    3    0  502 -0.28731314909E+03 -0.20011135089E+03 -0.88334125444E+02  0.36110430091E+03  0.50400001928E-02 0. -1.
</event>
<event>
 5   0  0.9697941E-04  0.8896957E+03  0.7818609E-02  0.9438555E-01
        1   -1    0    0  501    0  0.00000000000E+00  0.00000000000E+00  0.30545619226E+03  0.30545619231E+03  0.50400001928E-02 0.  1.
       -1   -1    0    0    0  501  0.00000000000E+00  0.00000000000E+00 -0.64784943362E+03  0.64784943364E+03  0.50400001928E-02 0. -1.
    10030    2    1    2    0    0  0.00000000000E+00  0.00000000000E+00 -0.34239324136E+03  0.95330562595E+03  0.88969572593E+03 0.  0.
        5    1    3    3  502    0  0.22260603575E+03 -0.25459958253E+03 -0.48080737686E+03  0.58785390891E+03  0.46999998093E+01 0. -1.
       -5    1    3    3    0  502 -0.22260603575E+03  0.25459958253E+03  0.13841413550E+03  0.36545171704E+03  0.46999998093E+01 0.  1.
</event>
<event>
 5   0  0.1630202E-03  0.9002791E+03  0.7818609E-02  0.9425233E-01
       -2   -1    0    0    0  501  0.00000000000E+00  0.00000000000E+00  0.44385999100E+03  0.44385999100E+03  0.25500000920E-02 0.  1.
        2   -1    0    0  501    0  0.00000000000E+00  0.00000000000E+00 -0.45650795053E+03  0.45650795054E+03  0.25500000920E-02 0. -1.
    10030    2    1    2    0    0  0.00000000000E+00  0.00000000000E+00 -0.12647959536E+02  0.90036794154E+03  0.90027910077E+03 0.  0.
        4    1    3    3  502    0  0.11800480800E+03  0.43355405834E+03  0.20692491842E+02  0.44980445566E+03  0.12699999809E+01 0. -1.
       -4    1    3    3    0  502 -0.11800480800E+03 -0.43355405834E+03 -0.33340451379E+02  0.45056348588E+03  0.12699999809E+01 0.  1.
</event>
<event>
 5   0  0.1007561E-03  0.9002599E+03  0.7818609E-02  0.9425257E-01
       -1   -1    0    0    0  501  0.00000000000E+00  0.00000000000E+00  0.94643428148E+03  0.94643428149E+03  0.50400001928E-02 0. -1.
        1   -1    0    0  501    0  0.00000000000E+00  0.00000000000E+00 -0.21408458410E+03  0.21408458416E+03  0.50400001928E-02 0.  1.
    10030    2    1    2    0    0  0.00000000000E+00  0.00000000000E+00  0.73234969738E+03  0.11605188657E+04  0.90025993929E+03 0.  0.
        2    1    3    3  502    0  0.30772554009E+03  0.12360752351E+03 -0.26190787105E+02  0.33265565564E+03  0.25500000920E-02 0.  1.
       -2    1    3    3    0  502 -0.30772554009E+03 -0.12360752351E+03  0.75854048448E+03  0.82786321002E+03  0.25500000920E-02 0. -1.
</event>
<event>
 5   0  0.1536020E-03  0.9004994E+03  0.7818609E-02  0.9424957E-01
        2   -1    0    0  501    0  0.00000000000E+00  0.00000000000E+00  0.53533921536E+03  0.53533921536E+03  0.25500000920E-02 0. -1.
       -2   -1    0    0    0  501  0.00000000000E+00  0.00000000000E+00 -0.37868472956E+03  0.37868472957E+03  0.25500000920E-02 0.  1.
    10030    2    1    2    0    0  0.00000000000E+00  0.00000000000E+00  0.15665448579E+03  0.91402394493E+03  0.90049938589E+03 0.  0.
        2    1    3    3  502    0  0.44554386596E+03  0.58512284368E+02  0.49766368477E+02  0.45211692664E+03  0.25500000920E-02 0.  1.
       -2    1    3    3    0  502 -0.44554386596E+03 -0.58512284368E+02  0.10688811732E+03  0.46190701829E+03  0.25500000920E-02 0. -1.
</event>
<event>
 5   0  0.1641516E-03  0.9012125E+03  0.7818609E-02  0.9424067E-01
       -2   -1    0    0    0  501  0.00000000000E+00  0.00000000000E+00  0.23255256749E+03  0.23255256750E+03  0.25500000920E-02 0.  1.
        2   -1    0    0  501    0  0.00000000000E+00  0.00000000000E+00 -0.87311861311E+03  0.87311861312E+03  0.25500000920E-02 0. -1.
    10030    2    1    2    0    0  0.00000000000E+00  0.00000000000E+00 -0.64056604562E+03  0.11056711806E+04  0.90121246155E+03 0.  0.
        1    1    3    3  502    0 -0.39509209860E+03  0.12766851467E+03 -0.53506936738E+03  0.67727117460E+03  0.50400001928E-02 0. -1.
       -1    1    3    3    0  502  0.39509209860E+03 -0.12766851467E+03 -0.10549667825E+03  0.42840000602E+03  0.50400001928E-02 0.  1.
</event>
<event>
 5   0  0.1635686E-03  0.9011160E+03  0.7818609E-02  0.9424187E-01
       -2   -1    0    0    0  501  0.00000000000E+00  0.00000000000E+00  0.33145147993E+03  0.33145147994E+03  0.25500000920E-02 0.  1.
        2   -1    0    0  501    0  0.00000000000E+00  0.00000000000E+00 -0.61246522041E+03  0.61246522042E+03  0.25500000920E-02 0. -1.
    10030    2    1    2    0    0  0.00000000000E+00  0.00000000000E+00 -0.28101374048E+03  0.94391670036E+03  0.90111598303E+03 0.  0.
        5    1    3    3  502    0  0.27060471635E+03  0.33613114332E+03 -0.48595665528E+01  0.43157474834E+03  0.46999998093E+01 0.  1.
       -5    1    3    3    0  502 -0.27060471635E+03 -0.33613114332E+03 -0.27615417392E+03  0.51234195202E+03  0.46999998093E+01 0. -1.
</event>
<event>
 5   0  0.1007561E-03  0.9004492E+03  0.7818609E-02  0.9425020E-01
       -1   -1    0    0    0  501  0.00000000000E+00  0.00000000000E+00  0.29681958152E+03  0.29681958157E+03  0.50400001928E-02 0. -1.
        1   -1    0    0  501    0  0.00000000000E+00  0.00000000000E+00 -0.68291377016E+03  0.68291377018E+03  0.50400001928E-02 0.  1.
    10030    2    1    2    0    0  0.00000000000E+00  0.00000000000E+00 -0.38609418864E+03  0.97973335174E+03  0.90044917570E+03 0.  0.
        2    1    3    3  502    0  0.26089460655E+03 -0.40895473088E+02  0.20370141657E+03  0.33351567064E+03  0.25500000920E-02 0. -1.
       -2    1    3    3    0  502 -0.26089460655E+03  0.40895473088E+02 -0.58979560520E+03  0.64621768110E+03  0.25500000920E-02 0.  1.
</event>
<event>
 5   0  0.9981885E-04  0.9000730E+03  0.7818609E-02  0.9425490E-01
       -1   -1    0    0    0  501  0.00000000000E+00  0.00000000000E+00  0.16569617881E+03  0.16569617889E+03  0.50400001928E-02 0.  1.
        1   -1    0    0  501    0  0.00000000000E+00  0.00000000000E+00 -0.12223144677E+04  0.12223144677E+04  0.50400001928E-02 0. -1.
    10030    2    1    2    0    0  0.00000000000E+00  0.00000000000E+00 -0.10566182889E+04  0.13880106466E+04  0.90007296740E+03 0.  0.
        4    1    3    3  502    0 -0.56711412575E+02  0.43501341868E+03 -0.37349518408E+03  0.57615373311E+03  0.12699999809E+01 0.  1.
       -4    1    3    3    0  502  0.56711412575E+02 -0.43501341868E+03 -0.68312310478E+03  0.81185691346E+03  0.12699999809E+01 0. -1.
</event>
<event>
 5   0  0.1630202E-03  0.9000749E+03  0.7818609E-02  0.9425488E-01
        2   -1    0    0  501    0  0.00000000000E+00  0.00000000000E+00  0.18377020303E+04  0.18377020303E+04  0.25500000920E-02 0. -1.
       -2   -1    0    0    0  501  0.00000000000E+00  0.00000000000E+00 -0.11021029861E+03  0.11021029864E+03  0.25500000920E-02 0.  1.
    10030    2    1    2    0    0  0.00000000000E+00  0.00000000000E+00  0.17274917317E+04  0.19479123290E+04  0.90007486255E+03 0.  0.
        4    1    3    3  502    0 -0.77204111032E+01 -0.44996327071E+03  0.85865804053E+03  0.96944406398E+03  0.12699999809E+01 0.  1.
       -4    1    3    3    0  502  0.77204111032E+01  0.44996327071E+03  0.86883369120E+03  0.97846826499E+03  0.12699999809E+01 0. -1.
</event>
<event>
 5   0  0.1704416E-03  0.8996599E+03  0.7818609E-02  0.9426007E-01
        2   -1    0    0  501    0  0.00000000000E+00  0.00000000000E+00  0.87368452784E+03  0.87368452784E+03  0.25500000920E-02 0. -1.
       -2   -1    0    0    0  501  0.00000000000E+00  0.00000000000E+00 -0.23160189617E+03  0.23160189618E+03  0.25500000920E-02 0.  1.
    10030    2    1    2    0    0  0.00000000000E+00  0.00000000000E+00  0.64208263167E+03  0.11052864240E+04  0.89965992088E+03 0.  0.
        3    1    3    3  502    0  0.14938662870E+03 -0.80461001928E+01  0.84222588348E+03  0.85540958235E+03  0.10100000352E+00 0. -1.
       -3    1    3    3    0  502 -0.14938662870E+03  0.80461001928E+01 -0.20014325181E+03  0.24987684168E+03  0.10100000352E+00 0.  1.
</event>
<event>
 5   0  0.9223454E-04  0.9006067E+03  0.7818609E-02  0.9424823E-01
        1   -1    0    0  501    0  0.00000000000E+00  0.00000000000E+00  0.78679570174E+03  0.78679570176E+03  0.50400001928E-02 0. -1.
       -1   -1    0    0    0  501  0.00000000000E+00  0.00000000000E+00 -0.25772013833E+03  0.25772013838E+03  0.50400001928E-02 0.  1.
    10030    2    1    2    0    0  0.00000000000E+00  0.00000000000E+00  0.52907556341E+03  0.10445158401E+04  0.90060667802E+03 0.  0.
        1    1    3    3  502    0  0.32270976883E+02  0.34979816831E+03 -0.62212562254E+02  0.35675002092E+03  0.50400001928E-02 0.  1.
       -1    1    3    3    0  502 -0.32270976883E+02 -0.34979816831E+03  0.59128812567E+03  0.68776581921E+03  0.50400001928E-02 0. -1.
</event>
<event>
 5   0  0.9223454E-04  0.8999437E+03  0.7818609E-02  0.9425652E-01
       -1   -1    0    0    0  501  0.00000000000E+00  0.00000000000E+00  0.58582664174E+03  0.58582664176E+03  0.50400001928E-02 0.  1.
        1   -1    0    0  501    0  0.00000000000E+00  0.00000000000E+00 -0.34562212414E+03  0.34562212418E+03  0.50400001928E-02 0. -1.
    10030    2    1    2    0    0  0.00000000000E+00  0.00000000000E+00  0.24020451760E+03  0.93144876594E+03  0.89994366118E+03 0.  0.
        1    1    3    3  502    0  0.10538451976E+03 -0.10875660243E+03 -0.31845385537E+03  0.35262835053E+03  0.50400001928E-02 0. -1.
       -1    1    3    3    0  502 -0.10538451976E+03  0.10875660243E+03  0.55865837297E+03  0.57882041540E+03  0.50400001928E-02 0.  1.
</event>
<event>
 5   0  0.1007561E-03  0.9000224E+03  0.7818609E-02  0.9425553E-01
        1   -1    0    0  501    0  0.00000000000E+00  0.00000000000E+00  0.20089172213E+04  0.20089172213E+04  0.50400001928E-02 0.  1.
       -1   -1    0    0    0  501  0.00000000000E+00  0.00000000000E+00 -0.10080558222E+03  0.10080558235E+03  0.50400001928E-02 0. -1.
    10030    2    1    2    0    0  0.00000000000E+00  0.00000000000E+00  0.19081116390E+04  0.21097228036E+04  0.90002237808E+03 0.  0.
        2    1    3    3  502    0  0.11401686232E+03  0.20494930082E+03  0.18543344597E+04  0.18691068319E+04  0.25500000920E-02 0.  1.
       -2    1    3    3    0  502 -0.11401686232E+03 -0.20494930082E+03  0.53777179351E+02  0.24061597168E+03  0.25500000920E-02 0. -1.
</event>
<event>
 5   0  0.1007561E-03  0.8991257E+03  0.7818609E-02  0.9426675E-01
       -1   -1    0    0    0  501  0.00000000000E+00  0.00000000000E+00  0.12750664767E+03  0.12750664777E+03  0.50400001928E-02 0. -1.
        1   -1    0    0  501    0  0.00000000000E+00  0.00000000000E+00 -0.15850684463E+04  0.15850684463E+04  0.50400001928E-02 0.  1.
    10030    2    1    2    0    0  0.00000000000E+00  0.00000000000E+00 -0.14575617986E+04  0.17125750941E+04  0.89912571760E+03 0.  0.
        2    1    3    3  502    0  0.40455365520E+03  0.78872734560E+02 -0.38687486156E+03  0.56529348723E+03  0.25500000920E-02 0. -1.
       -2    1    3    3    0  502 -0.40455365520E+03 -0.78872734560E+02 -0.10706869371E+04  0.11472816068E+04  0.25500000920E-02 0.  1.
</event>
<event>
 5   0  0.1635686E-03  0.9008534E+03  0.7818609E-02  0.9424515E-01
        2   -1    0    0  501    0  0.00000000000E+00  0.00000000000E+00  0.31864462495E+03  0.31864462496E+03  0.25500000920E-02 0.  1.
       -2   -1    0    0    0  501  0.00000000000E+00  0.00000000000E+00 -0.63671002772E+03  0.63671002773E+03  0.25500000920E-02 0. -1.
    10030    2    1    2    0    0  0.00000000000E+00  0.00000000000E+00 -0.31806540277E+03  0.95535465269E+03  0.90085343534E+03 0.  0.
        5    1    3    3  502    0  0.16497728622E+03 -0.40458228880E+03 -0.27500017884E+03  0.51628627886E+03  0.46999998093E+01 0.  1.
       -5    1    3    3    0  502 -0.16497728622E+03  0.40458228880E+03 -0.43065223932E+02  0.43906837382E+03  0.46999998093E+01 0. -1.
</event>
<event>
 5   0  0.9697941E-04  0.9003444E+03  0.7818609E-02  0.9425151E-01
        1   -1    0    0  501    0  0.00000000000E+00  0.00000000000E+00  0.60459362123E+03  0.60459362125E+03  0.50400001928E-02 0.  1.
       -1   -1    0    0    0  501  0.00000000000E+00  0.00000000000E+00 -0.33519208689E+03  0.33519208693E+03  0.50400001928E-02 0. -1.
    10030    2    1    2    0    0  0.00000000000E+00  0.00000000000E+00  0.26940153434E+03  0.93978570818E+03  0.90034437333E+03 0.  0.
        5    1    3    3  502    0 -0.24211586743E+03  0.60106089170E+02  0.52581520433E+03  0.58201078540E+03  0.46999998093E+01 0.  1.
       -5    1    3    3    0  502  0.24211586743E+03 -0.60106089170E+02 -0.25641366999E+03  0.35777492278E+03  0.46999998093E+01 0. -1.
</event>
<event>
 5   0  0.9321543E-04  0.8989448E+03  0.7818609E-02  0.9426901E-01
        1   -1    0    0  501    0  0.00000000000E+00  0.00000000000E+00  0.37560025441E+03  0.37560025444E+03  0.50400001928E-02 0. -1.
       -1   -1    0    0    0  501  0.00000000000E+00  0.00000000000E+00 -0.53787348283E+03  0.53787348286E+03  0.50400001928E-02 0.  1.
    10030    2    1    2    0    0  0.00000000000E+00  0.00000000000E+00 -0.16227322843E+03  0.91347373730E+03  0.89894475251E+03 0.  0.
        3    1    3    3  502    0 -0.28313182722E+03  0.27487597804E+02 -0.43476430551E+03  0.51955674489E+03  0.10100000352E+00 0.  1.
       -3    1    3    3    0  502  0.28313182722E+03 -0.27487597804E+02  0.27249107708E+03  0.39391699241E+03  0.10100000352E+00 0. -1.
</event>
<event>
 5   0  0.9321543E-04  0.9124686E+03  0.7818609E-02  0.9410128E-01
       -1   -1    0    0    0  501  0.00000000000E+00  0.00000000000E+00  0.26069371337E+03  0.26069371342E+03  0.50400001928E-02 0. -1.
        1   -1    0    0  501    0  0.00000000000E+00  0.00000000000E+00 -0.79844561166E+03  0.79844561168E+03  0.50400001928E-02 0.  1.
    10030    2    1    2    0    0  0.00000000000E+00  0.00000000000E+00 -0.53775189829E+03  0.10591393251E+04  0.91246863281E+03 0.  0.
        3    1    3    3  502    0  0.44536536211E+03  0.31012252986E+02 -0.15975599394E+03  0.47416669369E+03  0.10100000352E+00 0.  1.
       -3    1    3    3    0  502 -0.44536536211E+03 -0.31012252986E+02 -0.37799590435E+03  0.58497263142E+03  0.10100000352E+00 0. -1.
</event>
<event>
 5   0  0.9981885E-04  0.9005230E+03  0.7818609E-02  0.9424928E-01
       -1   -1    0    0    0  501  0.00000000000E+00  0.00000000000E+00  0.23538643195E+03  0.23538643200E+03  0.50400001928E-02 0.  1.
        1   -1    0    0  501    0  0.00000000000E+00  0.00000000000E+00 -0.86128757341E+03  0.86128757343E+03  0.50400001928E-02 0. -1.
    10030    2    1    2    0    0  0.00000000000E+00  0.00000000000E+00 -0.62590114146E+03  0.10966740054E+04  0.90052297878E+03 0.  0.
        4    1    3    3  502    0 -0.74030808625E+02  0.80381238881E+02  0.21898977952E+03  0.24474443942E+03  0.12699999809E+01 0.  1.
       -4    1    3    3    0  502  0.74030808625E+02 -0.80381238881E+02 -0.84489092098E+03  0.85192956601E+03  0.12699999809E+01 0. -1.
</event>
<event>
 5   0  0.1536020E-03  0.8997787E+03  0.7818609E-02  0.9425858E-01
       -2   -1    0    0    0  501  0.00000000000E+00  0.00000000000E+00  0.79781376927E+02  0.79781376968E+02  0.25500000920E-02 0.  1.
        2   -1    0    0  501    0  0.00000000000E+00  0.00000000000E+00 -0.25369381856E+04  0.25369381856E+04  0.25500000920E-02 0. -1.
    10030    2    1    2    0    0  0.00000000000E+00  0.00000000000E+00 -0.24571568087E+04  0.26167195626E+04  0.89977868764E+03 0.  0.
        2    1    3    3  502    0  0.28234051834E+02  0.25013096089E+03 -0.14418251162E+03  0.29008835885E+03  0.25500000920E-02 0.  1.
       -2    1    3    3    0  502 -0.28234051834E+02 -0.25013096089E+03 -0.23129742971E+04  0.23266312037E+04  0.25500000920E-02 0. -1.
</event>
<event>
 5   0  0.1641516E-03  0.9002550E+03  0.7818609E-02  0.9425263E-01
       -2   -1    0    0    0  501  0.00000000000E+00  0.00000000000E+00  0.15270371021E+03  0.15270371023E+03  0.25500000920E-02 0.  1.
        2   -1    0    0  501    0  0.00000000000E+00  0.00000000000E+00 -0.13268491293E+04  0.13268491293E+04  0.25500000920E-02 0. -1.
    10030    2    1    2    0    0  0.00000000000E+00  0.00000000000E+00 -0.11741454191E+04  0.14795528396E+04  0.90025504155E+03 0.  0.
        1    1    3    3  502    0  0.40291518516E+03  0.19846519746E+03 -0.63598400837E+03  0.77859151033E+03  0.50400001928E-02 0. -1.
       -1    1    3    3    0  502 -0.40291518516E+03 -0.19846519746E+03 -0.53816141077E+03  0.70096132925E+03  0.50400001928E-02 0.  1.
</event>
<event>
 5   0  0.9697941E-04  0.8998035E+03  0.7818609E-02  0.9425827E-01
       -1   -1    0    0    0  501  0.00000000000E+00  0.00000000000E+00  0.12003930540E+03  0.12003930550E+03  0.50400001928E-02 0. -1.
        1   -1    0    0  501    0  0.00000000000E+00  0.00000000000E+00 -0.16862109230E+04  0.16862109230E+04  0.50400001928E-02 0.  1.
    10030    2    1    2    0    0  0.00000000000E+00  0.00000000000E+00 -0.15661716176E+04  0.18062502285E+04  0.89980350756E+03 0.  0.
        5    1    3    3  502    0 -0.27861909012E+03 -0.23518166279E+03 -0.25407094044E+03  0.44442450952E+03  0.46999998093E+01 0. -1.
       -5    1    3    3    0  502  0.27861909012E+03  0.23518166279E+03 -0.13121006772E+04  0.13618257190E+04  0.46999998093E+01 0.  1.
</event>
<event>
 5   0  0.1007561E-03  0.8979511E+03  0.7818609E-02  0.9428146E-01
        1   -1    0    0  501    0  0.00000000000E+00  0.00000000000E+00  0.18147445538E+03  0.18147445545E+03  0.50400001928E-02 0.  1.
       -1   -1    0    0    0  501  0.00000000000E+00  0.00000000000E+00 -0.11107846159E+04  0.11107846159E+04  0.50400001928E-02 0. -1.
    10030    2    1    2    0    0  0.00000000000E+00  0.00000000000E+00 -0.92931016052E+03  0.12922590714E+04  0.89795107499E+03 0.  0.
        2    1    3    3  502    0  0.28864619756E+02 -0.39727787093E+03 -0.76278622246E+03  0.86052640528E+03  0.25500000920E-02 0. -1.
       -2    1    3    3    0  502 -0.28864619756E+02  0.39727787093E+03 -0.16652393806E+03  0.43173266608E+03  0.25500000920E-02 0.  1.
</event>
<event>
 5   0  0.9321543E-04  0.9022023E+03  0.7818609E-02  0.9422833E-01
        1   -1    0    0  501    0  0.00000000000E+00  0.00000000000E+00  0.46152006564E+03  0.46152006567E+03  0.50400001928E-02 0. -1.
       -1   -1    0    0    0  501  0.00000000000E+00  0.00000000000E+00 -0.44091744594E+03  0.44091744597E+03  0.50400001928E-02 0.  1.
    10030    2    1    2    0    0  0.00000000000E+00  0.00000000000E+00  0.20602619703E+02  0.90243751164E+03  0.90220230241E+03 0.  0.
        3    1    3    3  502    0  0.41247814781E+02 -0.14823034481E+03  0.43446211986E+03  0.46090233363E+03  0.10100000352E+00 0. -1.
       -3    1    3    3    0  502 -0.41247814781E+02  0.14823034481E+03 -0.41385950016E+03  0.44153517801E+03  0.10100000352E+00 0.  1.
</event>
<event>
 5   0  0.1536020E-03  0.9002866E+03  0.7818609E-02  0.9425223E-01
        2   -1    0    0  501    0  0.00000000000E+00  0.00000000000E+00  0.87976256574E+03  0.87976256575E+03  0.25500000920E-02 0.  1.
       -2   -1    0    0    0  501  0.00000000000E+00  0.00000000000E+00 -0.23032237938E+03  0.23032237939E+03  0.25500000920E-02 0. -1.
    10030    2    1    2    0    0  0.00000000000E+00  0.00000000000E+00  0.64944018637E+03  0.11100849451E+04  0.90028663755E+03 0.  0.
        2    1    3    3  502    0  0.12877168010E+03  0.12069527946E+03  0.83532093593E+03  0.85376259117E+03  0.25500000920E-02 0.  1.
       -2    1    3    3    0  502 -0.12877168010E+03 -0.12069527946E+03 -0.18588074956E+03  0.25632235397E+03  0.25500000920E-02 0. -1.
</event>
<event>
 5   0  0.1641516E-03  0.9057678E+03  0.7818609E-02  0.9418400E-01
        2   -1    0    0  501    0  0.00000000000E+00  0.00000000000E+00  0.57849708169E+03  0.57849708169E+03  0.25500000920E-02 0. -1.
       -2   -1    0    0    0  501  0.00000000000E+00  0.00000000000E+00 -0.35454603268E+03  0.35454603269E+03  0.25500000920E-02 0.  1.
    10030    2    1    2    0    0  0.00000000000E+00  0.00000000000E+00  0.22395104900E+03  0.93304311438E+03  0.90576784054E+03 0.  0.
        1    1    3    3  502    0 -0.25871532171E+03  0.23358179681E+02 -0.27017361537E+03  0.37479728483E+03  0.50400001928E-02 0.  1.
       -1    1    3    3    0  502  0.25871532171E+03 -0.23358179681E+02  0.49412466437E+03  0.55824582955E+03  0.50400001928E-02 0. -1.
</event>
<event>
 5   0  0.9223454E-04  0.8993827E+03  0.7818609E-02  0.9426353E-01
        1   -1    0    0  501    0  0.00000000000E+00  0.00000000000E+00  0.72914316257E+03  0.72914316259E+03  0.50400001928E-02 0. -1.
       -1   -1    0    0    0  501  0.00000000000E+00  0.00000000000E+00 -0.27734240831E+03  0.27734240835E+03  0.50400001928E-02 0.  1.
    10030    2    1    2    0    0  0.00000000000E+00  0.00000000000E+00  0.45180075426E+03  0.10064855709E+04  0.89938272329E+03 0.  0.
        1    1    3    3  502    0  0.43411010110E+03 -0.11678630237E+03  0.23874308456E+03  0.50900774134E+03  0.50400001928E-02 0.  1.
       -1    1    3    3    0  502 -0.43411010110E+03  0.11678630237E+03  0.21305766971E+03  0.49747782960E+03  0.50400001928E-02 0. -1.
</event>
<event>
 5   0  0.1536020E-03  0.8927706E+03  0.7818609E-02  0.9434664E-01
        2   -1    0    0  501    0  0.00000000000E+00  0.00000000000E+00  0.77956131919E+03  0.77956131919E+03  0.25500000920E-02 0. -1.
       -2   -1    0    0    0  501  0.00000000000E+00  0.00000000000E+00 -0.25560507315E+03  0.25560507317E+03  0.25500000920E-02 0.  1.
    10030    2    1    2    0    0  0.00000000000E+00  0.00000000000E+00  0.52395624603E+03  0.10351663924E+04  0.89277058202E+03 0.  0.
        2    1    3    3  502    0 -0.29126859134E+03 -0.30335023844E+03  0.88436098280E+02  0.42974376430E+03  0.25500000920E-02 0. -1.
       -2    1    3    3    0  502  0.29126859134E+03  0.30335023844E+03  0.43552014775E+03  0.60542262806E+03  0.25500000920E-02 0.  1.
</event>
<event>
 5   0  0.9981885E-04  0.9048951E+03  0.7818609E-02  0.9419483E-01
       -1   -1    0    0    0  501  0.00000000000E+00  0.00000000000E+00  0.32143464064E+03  0.32143464068E+03  0.50400001928E-02 0.  1.
        1   -1    0    0  501    0  0.00000000000E+00  0.00000000000E+00 -0.63685973095E+03  0.63685973097E+03  0.50400001928E-02 0. -1.
    10030    2    1    2    0    0  0.00000000000E+00  0.00000000000E+00 -0.31542509031E+03  0.95829437165E+03  0.90489508515E+03 0.  0.
        4    1    3    3  502    0 -0.20293440006E+03  0.23811912977E+03  0.18841429596E+03  0.36521863386E+03  0.12699999809E+01 0.  1.
       -4    1    3    3    0  502  0.20293440006E+03 -0.23811912977E+03 -0.50383938628E+03  0.59307573779E+03  0.12699999809E+01 0. -1.
</event>
<event>
 5   0  0.6375625E-04  0.9006355E+03  0.7818609E-02  0.9424787E-01
       -3   -1    0    0    0  501  0.00000000000E+00  0.00000000000E+00  0.92906894855E+03  0.92906895404E+03  0.10100000352E+00 0. -1.
        3   -1    0    0  501    0  0.00000000000E+00  0.00000000000E+00 -0.21826805531E+03  0.21826807867E+03  0.10100000352E+00 0.  1.
    10030    2    1    2    0    0  0.00000000000E+00  0.00000000000E+00  0.71080089324E+03  0.11473370327E+04  0.90063552939E+03 0.  0.
        4    1    3    3  502    0  0.18800168338E+03  0.25553433409E+03 -0.51739968926E+02  0.32143594407E+03  0.12699999809E+01 0.  1.
       -4    1    3    3    0  502 -0.18800168338E+03 -0.25553433409E+03  0.76254086217E+03  0.82590108865E+03  0.12699999809E+01 0. -1.
</event>
<event>
 5   0  0.9321543E-04  0.8993837E+03  0.7818609E-02  0.9426352E-01
        1   -1    0    0  501    0  0.00000000000E+00  0.00000000000E+00  0.37189063038E+03  0.37189063041E+03  0.50400001928E-02 0. -1.
       -1   -1    0    0    0  501  0.00000000000E+00  0.00000000000E+00 -0.54376941249E+03  0.54376941252E+03  0.50400001928E-02 0.  1.
    10030    2    1    2    0    0  0.00000000000E+00  0.00000000000E+00 -0.17187878212E+03  0.91566004293E+03  0.89938367701E+03 0.  0.
        3    1    3    3  502    0 -0.30620966042E+03  0.21612638157E+03  0.16704859769E+03  0.41034158104E+03  0.10100000352E+00 0. -1.
       -3    1    3    3    0  502  0.30620966042E+03 -0.21612638157E+03 -0.33892737981E+03  0.50531846189E+03  0.10100000352E+00 0.  1.
</event>
<event>
 5   0  0.1635686E-03  0.9019257E+03  0.7818609E-02  0.9423177E-01
        2   -1    0    0  501    0  0.00000000000E+00  0.00000000000E+00  0.36231034008E+03  0.36231034009E+03  0.25500000920E-02 0.  1.
       -2   -1    0    0    0  501  0.00000000000E+00  0.00000000000E+00 -0.56130745198E+03  0.56130745199E+03  0.25500000920E-02 0. -1.
    10030    2    1    2    0    0  0.00000000000E+00  0.00000000000E+00 -0.19899711191E+03  0.92361779208E+03  0.90192570386E+03 0.  0.
        5    1    3    3  502    0 -0.42342443590E+03 -0.11357070953E+03 -0.20767461255E+03  0.48511585593E+03  0.46999998093E+01 0.  1.
       -5    1    3    3    0  502  0.42342443590E+03  0.11357070953E+03  0.86775006407E+01  0.43850193614E+03  0.46999998093E+01 0. -1.
</event>
<event>
 5   0  0.1536020E-03  0.8992607E+03  0.7818609E-02  0.9426506E-01
        2   -1    0    0  501    0  0.00000000000E+00  0.00000000000E+00  0.58557896001E+03  0.58557896001E+03  0.25500000920E-02 0. -1.
       -2   -1    0    0    0  501  0.00000000000E+00  0.00000000000E+00 -0.34524371031E+03  0.34524371032E+03  0.25500000920E-02 0.  1.
    10030    2    1    2    0    0  0.00000000000E+00  0.00000000000E+00  0.24033524969E+03  0.93082267034E+03  0.89926070267E+03 0.  0.
        2    1    3    3  502    0 -0.19574535180E+03 -0.31200276604E+03 -0.14677016858E+03  0.39648890421E+03  0.25500000920E-02 0.  1.
       -2    1    3    3    0  502  0.19574535180E+03  0.31200276604E+03  0.38710541827E+03  0.53433376613E+03  0.25500000920E-02 0. -1.
</event>
<event>
 5   0  0.9697941E-04  0.8991395E+03  0.7818609E-02  0.9426658E-01
        1   -1    0    0  501    0  0.00000000000E+00  0.00000000000E+00  0.84725844275E+03  0.84725844276E+03  0.50400001928E-02 0.  1.
       -1   -1    0    0    0  501  0.00000000000E+00  0.00000000000E+00 -0.23854937867E+03  0.23854937872E+03  0.50400001928E-02 0. -1.
    10030    2    1    2    0    0  0.00000000000E+00  0.00000000000E+00  0.60870906408E+03  0.10858078215E+04  0.89913953339E+03 0.  0.
        5    1    3    3  502    0 -0.29160111238E+03 -0.43363531126E+02  0.71419331509E+03  0.77266149502E+03  0.46999998093E+01 0.  1.
       -5    1    3    3    0  502  0.29160111238E+03  0.43363531126E+02 -0.10548425101E+03  0.31314632647E+03  0.46999998093E+01 0. -1.
</event>
<event>
 5   0  0.9697941E-04  0.8997993E+03  0.7818609E-02  0.9425832E-01
        1   -1    0    0  501    0  0.00000000000E+00  0.00000000000E+00  0.24551454175E+03  0.24551454181E+03  0.50400001928E-02 0.  1.
       -1   -1    0    0    0  501  0.00000000000E+00  0.00000000000E+00 -0.82443048817E+03  0.82443048819E+03  0.50400001928E-02 0. -1.
    10030    2    1    2    0    0  0.00000000000E+00  0.00000000000E+00 -0.57891594642E+03  0.10699450300E+04  0.89979925216E+03 0.  0.
        5    1    3    3  502    0  0.10528859009E+02 -0.15271699933E+02 -0.82394636988E+03  0.82416854594E+03  0.46999998093E+01 0. -1.
       -5    1    3    3    0  502 -0.10528859009E+02  0.15271699933E+02  0.24503042346E+03  0.24577648405E+03  0.46999998093E+01 0.  1.
</event>
<event>
 5   0  0.1007561E-03  0.9007985E+03  0.7818609E-02  0.9424584E-01
       -1   -1    0    0    0  501  0.00000000000E+00  0.00000000000E+00  0.31532502416E+03  0.31532502420E+03  0.50400001928E-02 0. -1.
        1   -1    0    0  501    0  0.00000000000E+00  0.00000000000E+00 -0.64333459029E+03  0.64333459031E+03  0.50400001928E-02 0.  1.
    10030    2    1    2    0    0  0.00000000000E+00  0.00000000000E+00 -0.32800956613E+03  0.95865961450E+03  0.90079852409E+03 0.  0.
        2    1    3    3  502    0 -0.14409543499E+03  0.18709767851E+03  0.24415387997E+03  0.33967654143E+03  0.25500000920E-02 0. -1.
       -2    1    3    3    0  502  0.14409543499E+03 -0.18709767851E+03 -0.57216344610E+03  0.61898307307E+03  0.25500000920E-02 0.  1.
</event>
<event>
 5   0  0.9223454E-04  0.9030045E+03  0.7818609E-02  0.9421833E-01
        1   -1    0    0  501    0  0.00000000000E+00  0.00000000000E+00  0.93459271231E+03  0.93459271232E+03  0.50400001928E-02 0. -1.
       -1   -1    0    0    0  501  0.00000000000E+00  0.00000000000E+00 -0.21812096653E+03  0.21812096659E+03  0.50400001928E-02 0.  1.
    10030    2    1    2    0    0  0.00000000000E+00  0.00000000000E+00  0.71647174577E+03  0.11527136789E+04  0.90300446458E+03 0.  0.
        1    1    3    3  502    0 -0.20303329793E+03  0.34426621794E+03  0.90126209146E+02  0.40971268284E+03  0.50400001928E-02 0.  1.
       -1    1    3    3    0  502  0.20303329793E+03 -0.34426621794E+03  0.62634553663E+03  0.74300099607E+03  0.50400001928E-02 0. -1.
</event>
<event>
 5   0  0.1536020E-03  0.9017395E+03  0.7818609E-02  0.9423410E-01
        2   -1    0    0  501    0  0.00000000000E+00  0.00000000000E+00  0.35714868767E+03  0.35714868768E+03  0.25500000920E-02 0.  1.
       -2   -1    0    0    0  501  0.00000000000E+00  0.00000000000E+00 -0.56918464658E+03  0.56918464659E+03  0.25500000920E-02 0. -1.
    10030    2    1    2    0    0  0.00000000000E+00  0.00000000000E+00 -0.21203595891E+03  0.92633333427E+03  0.90173954017E+03 0.  0.
        2    1    3    3  502    0  0.33133580579E+03  0.26762819385E+03  0.45918836711E+02  0.42838861552E+03  0.25500000920E-02 0.  1.
       -2    1    3    3    0  502 -0.33133580579E+03 -0.26762819385E+03 -0.25795479562E+03  0.49794471875E+03  0.25500000920E-02 0. -1.
</event>
<event>
 5   0  0.9223454E-04  0.9002585E+03  0.7818609E-02  0.9425258E-01
        1   -1    0    0  501    0  0.00000000000E+00  0.00000000000E+00  0.11051472094E+04  0.11051472094E+04  0.50400001928E-02 0.  1.
       -1   -1    0    0    0  501  0.00000000000E+00  0.00000000000E+00 -0.18333880035E+03  0.18333880042E+03  0.50400001928E-02 0. -1.
    10030    2    1    2    0    0  0.00000000000E+00  0.00000000000E+00  0.92180840904E+03  0.12884860098E+04  0.90025854871E+03 0.  0.
        1    1    3    3  502    0  0.17694479078E+03  0.21679282822E+03  0.96552088062E+03  0.10052557686E+04  0.50400001928E-02 0.  1.
       -1    1    3    3    0  502 -0.17694479078E+03 -0.21679282822E+03 -0.43712471570E+02  0.28323024123E+03  0.50400001928E-02 0. -1.
</event>
<event>
 5   0  0.6375625E-04  0.8988562E+03  0.7818609E-02  0.9427012E-01
       -3   -1    0    0    0  501  0.00000000000E+00  0.00000000000E+00  0.70918262849E+03  0.70918263568E+03  0.10100000352E+00 0.  1.
        3   -1    0    0  501    0  0.00000000000E+00  0.00000000000E+00 -0.28481467394E+03  0.28481469185E+03  0.10100000352E+00 0. -1.
    10030    2    1    2    0    0  0.00000000000E+00  0.00000000000E+00  0.42436795455E+03  0.99399732753E+03  0.89885623227E+03 0.  0.
        5    1    3    3  502    0  0.34296882650E+03  0.42600750568E+02 -0.10548696513E+03  0.36137519244E+03  0.46999998093E+01 0.  1.
       -5    1    3    3    0  502 -0.34296882650E+03 -0.42600750568E+02  0.52985491968E+03  0.63262213509E+03  0.46999998093E+01 0. -1.
</event>
<event>
 5   0  0.1635686E-03  0.9012082E+03  0.7818609E-02  0.9424072E-01
        2   -1    0    0  501    0  0.00000000000E+00  0.00000000000E+00  0.26004039501E+04  0.26004039501E+04  0.25500000920E-02 0.  1.
       -2   -1    0    0    0  501  0.00000000000E+00  0.00000000000E+00 -0.78081728173E+02  0.78081728214E+02  0.25500000920E-02 0. -1.
    10030    2    1    2    0    0  0.00000000000E+00  0.00000000000E+00  0.25223222219E+04  0.26784856783E+04  0.90120815448E+03 0.  0.
        5    1    3    3  502    0 -0.47230642699E+02  0.28370753343E+03  0.23030208203E+03  0.36848587100E+03  0.46999998093E+01 0. -1.
       -5    1    3    3    0  502  0.47230642699E+02 -0.28370753343E+03  0.22920201399E+04  0.23099998073E+04  0.46999998093E+01 0.  1.
</event>
<event>
 5   0  0.9321543E-04  0.8973216E+03  0.7818609E-02  0.9428936E-01
       -1   -1    0    0    0  501  0.00000000000E+00  0.00000000000E+00  0.27030549869E+03  0.27030549874E+03  0.50400001928E-02 0. -1.
        1   -1    0    0  501    0  0.00000000000E+00  0.00000000000E+00 -0.74470001172E+03  0.74470001174E+03  0.50400001928E-02 0.  1.
    10030    2    1    2    0    0  0.00000000000E+00  0.00000000000E+00 -0.47439451303E+03  0.10150055105E+04  0.89732158801E+03 0.  0.
        3    1    3    3  502    0 -0.81354754779E+02 -0.28698774887E+03 -0.61628607067E+03  0.68468174740E+03  0.10100000352E+00 0.  1.
       -3    1    3    3    0  502  0.81354754779E+02  0.28698774887E+03  0.14189155764E+03  0.33032376308E+03  0.10100000352E+00 0. -1.
</event>
<event>
 5   0  0.9697941E-04  0.8991598E+03  0.7818609E-02  0.9426632E-01
       -1   -1    0    0    0  501  0.00000000000E+00  0.00000000000E+00  0.10052083054E+03  0.10052083067E+03  0.50400001928E-02 0.  1.
        1   -1    0    0  501    0  0.00000000000E+00  0.00000000000E+00 -0.20107481469E+04  0.20107481469E+04  0.50400001928E-02 0. -1.
    10030    2    1    2    0    0  0.00000000000E+00  0.00000000000E+00 -0.19102273164E+04  0.21112689776E+04  0.89915977198E+03 0.  0.
        5    1    3    3  502    0 -0.40735623538E+02  0.31478482065E+03 -0.17026304479E+04  0.17319703826E+04  0.46999998093E+01 0. -1.
       -5    1    3    3    0  502  0.40735623538E+02 -0.31478482065E+03 -0.20759686853E+03  0.37929859498E+03  0.46999998093E+01 0.  1.
</event>
<event>
 5   0  0.9697941E-04  0.8991833E+03  0.7818609E-02  0.9426603E-01
       -1   -1    0    0    0  501  0.00000000000E+00  0.00000000000E+00  0.10790286479E+03  0.10790286490E+03  0.50400001928E-02 0.  1.
        1   -1    0    0  501    0  0.00000000000E+00  0.00000000000E+00 -0.18732833020E+04  0.18732833020E+04  0.50400001928E-02 0. -1.
    10030    2    1    2    0    0  0.00000000000E+00  0.00000000000E+00 -0.17653804372E+04  0.19811861669E+04  0.89918326266E+03 0.  0.
        5    1    3    3  502    0  0.26794497905E+03  0.36013064572E+03 -0.93763864004E+03  0.10395561087E+04  0.46999998093E+01 0. -1.
       -5    1    3    3    0  502 -0.26794497905E+03 -0.36013064572E+03 -0.82774179716E+03  0.94163005822E+03  0.46999998093E+01 0.  1.
</event>
<event>
 5   0  0.1536020E-03  0.8991039E+03  0.7818609E-02  0.9426702E-01
       -2   -1    0    0    0  501  0.00000000000E+00  0.00000000000E+00  0.23685392239E+03  0.23685392240E+03  0.25500000920E-02 0. -1.
        2   -1    0    0  501    0  0.00000000000E+00  0.00000000000E+00 -0.85325572852E+03  0.85325572852E+03  0.25500000920E-02 0.  1.
    10030    2    1    2    0    0  0.00000000000E+00  0.00000000000E+00 -0.61640180613E+03  0.10901096509E+04  0.89910392305E+03 0.  0.
        2    1    3    3  502    0 -0.20859377480E+03 -0.20489807334E+03 -0.72221392822E+03  0.77915822621E+03  0.25500000920E-02 0.  1.
       -2    1    3    3    0  502  0.20859377480E+03  0.20489807334E+03  0.10581212209E+03  0.31095142472E+03  0.25500000920E-02 0. -1.
</event>
<event>
 5   0  0.9697941E-04  0.8959801E+03  0.7818609E-02  0.9430620E-01
       -1   -1    0    0    0  501  0.00000000000E+00  0.00000000000E+00  0.40913388724E+03  0.40913388727E+03  0.50400001928E-02 0.  1.
        1   -1    0    0  501    0  0.00000000000E+00  0.00000000000E+00 -0.49053650535E+03  0.49053650537E+03  0.50400001928E-02 0. -1.
    10030    2    1    2    0    0  0.00000000000E+00  0.00000000000E+00 -0.81402618103E+02  0.89967039264E+03  0.89598014999E+03 0.  0.
        5    1    3    3  502    0 -0.61579170183E+02  0.42389501540E+03  0.90964797754E+02  0.43792198244E+03  0.46999998093E+01 0.  1.
       -5    1    3    3    0  502  0.61579170183E+02 -0.42389501540E+03 -0.17236741586E+03  0.46174841020E+03  0.46999998093E+01 0. -1.
</event>
<event>
 5   0  0.9223454E-04  0.9001236E+03  0.7818609E-02  0.9425427E-01
       -1   -1    0    0    0  501  0.00000000000E+00  0.00000000000E+00  0.54929429389E+03  0.54929429391E+03  0.50400001928E-02 0. -1.
        1   -1    0    0  501    0  0.00000000000E+00  0.00000000000E+00 -0.36875607780E+03  0.36875607783E+03  0.50400001928E-02 0.  1.
    10030    2    1    2    0    0  0.00000000000E+00  0.00000000000E+00  0.18053821610E+03  0.91805037175E+03  0.90012356796E+03 0.  0.
        1    1    3    3  502    0 -0.18299763667E+03 -0.20197600958E+03 -0.27501626696E+03  0.38719038029E+03  0.50400001928E-02 0.  1.
       -1    1    3    3    0  502  0.18299763667E+03  0.20197600958E+03  0.45555448306E+03  0.53085999146E+03  0.50400001928E-02 0. -1.
</event>
<event>
 5   0  0.1536020E-03  0.8993193E+03  0.7818609E-02  0.9426433E-01
       -2   -1    0    0    0  501  0.00000000000E+00  0.00000000000E+00  0.13295450331E+03  0.13295450333E+03  0.25500000920E-02 0.  1.
        2   -1    0    0  501    0  0.00000000000E+00  0.00000000000E+00 -0.15207743755E+04  0.15207743755E+04  0.25500000920E-02 0. -1.
    10030    2    1    2    0    0  0.00000000000E+00  0.00000000000E+00 -0.13878198721E+04  0.16537288788E+04  0.89931930204E+03 0.  0.
        2    1    3    3  502    0 -0.59350681875E+02  0.11761878778E+03 -0.14844884210E+04  0.14903229700E+04  0.25500000920E-02 0. -1.
       -2    1    3    3    0  502  0.59350681875E+02 -0.11761878778E+03  0.96668548895E+02  0.16340590880E+03  0.25500000920E-02 0.  1.
</event>
<event>
 5   0  0.6375625E-04  0.9003939E+03  0.7818609E-02  0.9425089E-01
        4   -1    0    0  501    0  0.00000000000E+00  0.00000000000E+00  0.89052747789E+03  0.89052838348E+03  0.12699999809E+01 0.  1.
       -4   -1    0    0    0  501  0.00000000000E+00  0.00000000000E+00 -0.22758960754E+03  0.22759315095E+03  0.12699999809E+01 0. -1.
    10030    2    1    2    0    0  0.00000000000E+00  0.00000000000E+00  0.66293787035E+03  0.11181215344E+04  0.90039388370E+03 0.  0.
        5    1    3    3  502    0 -0.21552516602E+03 -0.13198805775E+02  0.82199306710E+03  0.84989410989E+03  0.46999998093E+01 0.  1.
       -5    1    3    3    0  502  0.21552516602E+03  0.13198805775E+02 -0.15905519675E+03  0.26822742453E+03  0.46999998093E+01 0. -1.
</event>
<event>
 5   0  0.1007561E-03  0.8997235E+03  0.7818609E-02  0.9425927E-01
       -1   -1    0    0    0  501  0.00000000000E+00  0.00000000000E+00  0.30568246789E+03  0.30568246793E+03  0.50400001928E-02 0.  1.
        1   -1    0    0  501    0  0.00000000000E+00  0.00000000000E+00 -0.66204512973E+03  0.66204512975E+03  0.50400001928E-02 0. -1.
    10030    2    1    2    0    0  0.00000000000E+00  0.00000000000E+00 -0.35636266185E+03  0.96772759768E+03  0.89972348894E+03 0.  0.
        2    1    3    3  502    0 -0.26339461988E+02  0.21474749568E+03 -0.60241045667E+03  0.64008484787E+03  0.25500000920E-02 0. -1.
       -2    1    3    3    0  502  0.26339461988E+02 -0.21474749568E+03  0.24604779483E+03  0.32764274981E+03  0.25500000920E-02 0.  1.
</event>
<event>
 5   0  0.9981885E-04  0.9025049E+03  0.7818609E-02  0.9422456E-01
       -1   -1    0    0    0  501  0.00000000000E+00  0.00000000000E+00  0.10799570395E+03  0.10799570407E+03  0.50400001928E-02 0.  1.
        1   -1    0    0  501    0  0.00000000000E+00  0.00000000000E+00 -0.18855267863E+04  0.18855267863E+04  0.50400001928E-02 0. -1.
    10030    2    1    2    0    0  0.00000000000E+00  0.00000000000E+00 -0.17775310824E+04  0.19935224904E+04  0.90250494234E+03 0.  0.
        4    1    3    3  502    0 -0.33242471090E+03 -0.14674099998E+03 -0.29775955632E+03  0.46978875654E+03  0.12699999809E+01 0.  1.
       -4    1    3    3    0  502  0.33242471090E+03  0.14674099998E+03 -0.14797715260E+04  0.15237337338E+04  0.12699999809E+01 0. -1.
</event>
<event>
 5   0  0.9981885E-04  0.9003826E+03  0.7818609E-02  0.9425103E-01
        1   -1    0    0  501    0  0.00000000000E+00  0.00000000000E+00  0.28370413642E+03  0.28370413647E+03  0.50400001928E-02 0. -1.
       -1   -1    0    0    0  501  0.00000000000E+00  0.00000000000E+00 -0.71437881161E+03  0.71437881163E+03  0.50400001928E-02 0.  1.
    10030    2    1    2    0    0  0.00000000000E+00  0.00000000000E+00 -0.43067467519E+03  0.99808294810E+03  0.90038263834E+03 0.  0.
        4    1    3    3  502    0 -0.57192603088E+02 -0.79611445022E+02  0.27172832507E+03  0.28887172166E+03  0.12699999809E+01 0. -1.
       -4    1    3    3    0  502  0.57192603088E+02  0.79611445022E+02 -0.70240300026E+03  0.70921122644E+03  0.12699999809E+01 0.  1.
</event>
<event>
 5   0  0.9697941E-04  0.9000324E+03  0.7818609E-02  0.9425541E-01
        1   -1    0    0  501    0  0.00000000000E+00  0.00000000000E+00  0.32000018776E+03  0.32000018780E+03  0.50400001928E-02 0. -1.
       -1   -1    0    0    0  501  0.00000000000E+00  0.00000000000E+00 -0.63285776072E+03  0.63285776074E+03  0.50400001928E-02 0.  1.
    10030    2    1    2    0    0  0.00000000000E+00  0.00000000000E+00 -0.31285757296E+03  0.95285794854E+03  0.90003244893E+03 0.  0.
        5    1    3    3  502    0 -0.62196910611E+01  0.15159897293E+03  0.29207677822E+03  0.32916844855E+03  0.46999998093E+01 0. -1.
       -5    1    3    3    0  502  0.62196910611E+01 -0.15159897293E+03 -0.60493435118E+03  0.62368949998E+03  0.46999998093E+01 0.  1.
</event>
<event>
 5   0  0.9321543E-04  0.8968633E+03  0.7818609E-02  0.9429511E-01
       -1   -1    0    0    0  501  0.00000000000E+00  0.00000000000E+00  0.33396799361E+03  0.33396799365E+03  0.50400001928E-02 0. -1.
        1   -1    0    0  501    0  0.00000000000E+00  0.00000000000E+00 -0.60212638640E+03  0.60212638642E+03  0.50400001928E-02 0.  1.
    10030    2    1    2    0    0  0.00000000000E+00  0.00000000000E+00 -0.26815839279E+03  0.93609438007E+03  0.89686329214E+03 0.  0.
        3    1    3    3  502    0 -0.10423551978E+03  0.43058893601E+03 -0.61623196001E+02  0.44729107289E+03  0.10100000352E+00 0. -1.
       -3    1    3    3    0  502  0.10423551978E+03 -0.43058893601E+03 -0.20653519679E+03  0.48880330718E+03  0.10100000352E+00 0.  1.
</event>
<event>
 5   0  0.1635686E-03  0.9000307E+03  0.7818609E-02  0.9425543E-01
       -2   -1    0    0    0  501  0.00000000000E+00  0.00000000000E+00  0.28712576922E+03  0.28712576923E+03  0.25500000920E-02 0.  1.
        2   -1    0    0  501    0  0.00000000000E+00  0.00000000000E+00 -0.70531390673E+03  0.70531390674E+03  0.25500000920E-02 0. -1.
    10030    2    1    2    0    0  0.00000000000E+00  0.00000000000E+00 -0.41818813751E+03  0.99243967597E+03  0.90003066174E+03 0.  0.
        5    1    3    3  502    0  0.76023563260E+02  0.11134263487E+03  0.26430465963E+03  0.29674198828E+03  0.46999998093E+01 0.  1.
       -5    1    3    3    0  502 -0.76023563260E+02 -0.11134263487E+03 -0.68249279714E+03  0.69569768769E+03  0.46999998093E+01 0. -1.
</event>
<event>
 5   0  0.9697941E-04  0.8982998E+03  0.7818609E-02  0.9427709E-01
        1   -1    0    0  501    0  0.00000000000E+00  0.00000000000E+00  0.14474708187E+04  0.14474708187E+04  0.50400001928E-02 0.  1.
       -1   -1    0    0    0  501  0.00000000000E+00  0.00000000000E+00 -0.13937110922E+03  0.13937110931E+03  0.50400001928E-02 0. -1.
    10030    2    1    2    0    0  0.00000000000E+00  0.00000000000E+00  0.13080997095E+04  0.15868419280E+04  0.89829975764E+03 0.  0.
        5    1    3    3  502    0 -0.25975414199E+02  0.18585053385E+03  0.13748541922E+04  0.13876099175E+04  0.46999998093E+01 0.  1.
       -5    1    3    3    0  502  0.25975414199E+02 -0.18585053385E+03 -0.66754482749E+02  0.19923201058E+03  0.46999998093E+01 0. -1.
</event>
<event>
 5   0  0.1641516E-03  0.9008800E+03  0.7818609E-02  0.9424482E-01
        2   -1    0    0  501    0  0.00000000000E+00  0.00000000000E+00  0.42329919431E+03  0.42329919431E+03  0.25500000920E-02 0. -1.
       -2   -1    0    0    0  501  0.00000000000E+00  0.00000000000E+00 -0.47932096341E+03  0.47932096342E+03  0.25500000920E-02 0.  1.
    10030    2    1    2    0    0  0.00000000000E+00  0.00000000000E+00 -0.56021769105E+02  0.90262015773E+03  0.90087996455E+03 0.  0.
        1    1    3    3  502    0  0.15376485154E+03  0.23647065229E+03 -0.37987892526E+03  0.47314902182E+03  0.50400001928E-02 0.  1.
       -1    1    3    3    0  502 -0.15376485154E+03 -0.23647065229E+03  0.32385715616E+03  0.42947113591E+03  0.50400001928E-02 0. -1.
</event>
<event>
 5   0  0.9321543E-04  0.8998786E+03  0.7818609E-02  0.9425733E-01
       -1   -1    0    0    0  501  0.00000000000E+00  0.00000000000E+00  0.41100863846E+03  0.41100863849E+03  0.50400001928E-02 0. -1.
        1   -1    0    0  501    0  0.00000000000E+00  0.00000000000E+00 -0.49255749004E+03  0.49255749007E+03  0.50400001928E-02 0.  1.
    10030    2    1    2    0    0  0.00000000000E+00  0.00000000000E+00 -0.81548851578E+02  0.90356612856E+03  0.89987862153E+03 0.  0.
        3    1    3    3  502    0 -0.58276461630E+02  0.27857912140E+03 -0.39068903363E+03  0.48336363544E+03  0.10100000352E+00 0.  1.
       -3    1    3    3    0  502  0.58276461630E+02 -0.27857912140E+03  0.30914018205E+03  0.42020249312E+03  0.10100000352E+00 0. -1.
</event>
<event>
 5   0  0.1007561E-03  0.9010296E+03  0.7818609E-02  0.9424295E-01
        1   -1    0    0  501    0  0.00000000000E+00  0.00000000000E+00  0.82439501584E+03  0.82439501586E+03  0.50400001928E-02 0.  1.
       -1   -1    0    0    0  501  0.00000000000E+00  0.00000000000E+00 -0.24619702502E+03  0.24619702507E+03  0.50400001928E-02 0. -1.
    10030    2    1    2    0    0  0.00000000000E+00  0.00000000000E+00  0.57819799082E+03  0.10705920409E+04  0.90102963409E+03 0.  0.
        2    1    3    3  502    0  0.32565166433E+03  0.12388861053E+03 -0.50244920178E+02  0.35202549099E+03  0.25500000920E-02 0. -1.
       -2    1    3    3    0  502 -0.32565166433E+03 -0.12388861053E+03  0.62844291100E+03  0.71856654994E+03  0.25500000920E-02 0.  1.
</event>
<event>
 5   0  0.6375625E-04  0.8987258E+03  0.7818609E-02  0.9427176E-01
        3   -1    0    0  501    0  0.00000000000E+00  0.00000000000E+00  0.43196356433E+03  0.43196357614E+03  0.10100000352E+00 0. -1.
       -3   -1    0    0    0  501  0.00000000000E+00  0.00000000000E+00 -0.46746302880E+03  0.46746303971E+03  0.10100000352E+00 0.  1.
    10030    2    1    2    0    0  0.00000000000E+00  0.00000000000E+00 -0.35499464465E+02  0.89942661584E+03  0.89872577871E+03 0.  0.
        1    1    3    3  502    0 -0.19242306299E+03 -0.10504267817E+02  0.38851021188E+03  0.43367863628E+03  0.50400001928E-02 0. -1.
       -1    1    3    3    0  502  0.19242306299E+03  0.10504267817E+02 -0.42400967634E+03  0.46574797956E+03  0.50400001928E-02 0.  1.
</event>
<event>
 5   0  0.1641516E-03  0.9018037E+03  0.7818609E-02  0.9423330E-01
       -2   -1    0    0    0  501  0.00000000000E+00  0.00000000000E+00  0.26270704638E+03  0.26270704639E+03  0.25500000920E-02 0. -1.
        2   -1    0    0  501    0  0.00000000000E+00  0.00000000000E+00 -0.77391325994E+03  0.77391325994E+03  0.25500000920E-02 0.  1.
    10030    2    1    2    0    0  0.00000000000E+00  0.00000000000E+00 -0.51120621356E+03  0.10366203063E+04  0.90180367416E+03 0.  0.
        1    1    3    3  502    0  0.37458834457E+03 -0.20859674295E+03 -0.95152817644E+02  0.43918457144E+03  0.50400001928E-02 0. -1.
       -1    1    3    3    0  502 -0.37458834457E+03  0.20859674295E+03 -0.41605339591E+03  0.59743573490E+03  0.50400001928E-02 0.  1.
</event>
<event>
 5   0  0.1704416E-03  0.8990487E+03  0.7818609E-02  0.9426771E-01
       -2   -1    0    0    0  501  0.00000000000E+00  0.00000000000E+00  0.10785173942E+03  0.10785173945E+03  0.25500000920E-02 0. -1.
        2   -1    0    0  501    0  0.00000000000E+00  0.00000000000E+00 -0.18736104712E+04  0.18736104712E+04  0.25500000920E-02 0.  1.
    10030    2    1    2    0    0  0.00000000000E+00  0.00000000000E+00 -0.17657587318E+04  0.19814622107E+04  0.89904871582E+03 0.  0.
        3    1    3    3  502    0 -0.40195645700E+03  0.20005168231E+03 -0.93128962220E+03  0.10338713844E+04  0.10100000352E+00 0. -1.
       -3    1    3    3    0  502  0.40195645700E+03 -0.20005168231E+03 -0.83446910959E+03  0.94759082624E+03  0.10100000352E+00 0.  1.
</event>
<event>
 5   0  0.1641516E-03  0.8986856E+03  0.7818609E-02  0.9427226E-01
       -2   -1    0    0    0  501  0.00000000000E+00  0.00000000000E+00  0.10041107952E+03  0.10041107956E+03  0.25500000920E-02 0. -1.
        2   -1    0    0  501    0  0.00000000000E+00  0.00000000000E+00 -0.20108232283E+04  0.20108232283E+04  0.25500000920E-02 0.  1.
    10030    2    1    2    0    0  0.00000000000E+00  0.00000000000E+00 -0.19104121488E+04  0.21112343079E+04  0.89868555373E+03 0.  0.
        1    1    3    3  502    0 -0.10632475938E+03  0.31381882728E+03 -0.16682391792E+04  0.17008260257E+04  0.50400001928E-02 0.  1.
       -1    1    3    3    0  502  0.10632475938E+03 -0.31381882728E+03 -0.24217296960E+03  0.41040828213E+03  0.50400001928E-02 0. -1.
</event>
<event>
 5   0  0.1704416E-03  0.8999396E+03  0.7818609E-02  0.9425657E-01
        2   -1    0    0  501    0  0.00000000000E+00  0.00000000000E+00  0.46205331251E+03  0.46205331252E+03  0.25500000920E-02 0. -1.
       -2   -1    0    0    0  501  0.00000000000E+00  0.00000000000E+00 -0.43820227869E+03  0.43820227869E+03  0.25500000920E-02 0.  1.
    10030    2    1    2    0    0  0.00000000000E+00  0.00000000000E+00  0.23851033828E+02  0.90025559122E+03  0.89993958558E+03 0.  0.
        3    1    3    3  502    0 -0.31647917313E+03  0.24001189261E+03 -0.19959146056E+03  0.44452394417E+03  0.10100000352E+00 0.  1.
       -3    1    3    3    0  502  0.31647917313E+03 -0.24001189261E+03  0.22344249438E+03  0.45573164704E+03  0.10100000352E+00 0. -1.
</event>
<event>
 5   0  0.1536020E-03  0.9042738E+03  0.7818609E-02  0.9420255E-01
        2   -1    0    0  501    0  0.00000000000E+00  0.00000000000E+00  0.49390177229E+03  0.49390177230E+03  0.25500000920E-02 0. -1.
       -2   -1    0    0    0  501  0.00000000000E+00  0.00000000000E+00 -0.41390368145E+03  0.41390368145E+03  0.25500000920E-02 0.  1.
    10030    2    1    2    0    0  0.00000000000E+00  0.00000000000E+00  0.79998090844E+02  0.90780545375E+03  0.90427376790E+03 0.  0.
        2    1    3    3  502    0  0.37938479702E+03  0.14612715629E+02 -0.20648257593E+03  0.43218214891E+03  0.25500000920E-02 0.  1.
       -2    1    3    3    0  502 -0.37938479702E+03 -0.14612715629E+02  0.28648066677E+03  0.47562330484E+03  0.25500000920E-02 0. -1.
</event>
<event>
 5   0  0.1641516E-03  0.8993779E+03  0.7818609E-02  0.9426359E-01
       -2   -1    0    0    0  501  0.00000000000E+00  0.00000000000E+00  0.16068157679E+03  0.16068157681E+03  0.25500000920E-02 0.  1.
        2   -1    0    0  501    0  0.00000000000E+00  0.00000000000E+00 -0.12585148526E+04  0.12585148526E+04  0.25500000920E-02 0. -1.
    10030    2    1    2    0    0  0.00000000000E+00  0.00000000000E+00 -0.10978332758E+04  0.14191964294E+04  0.89937789820E+03 0.  0.
        1    1    3    3  502    0  0.17122174490E+03 -0.36482349629E+03 -0.23408347797E+03  0.46605594520E+03  0.50400001928E-02 0.  1.
       -1    1    3    3    0  502 -0.17122174490E+03  0.36482349629E+03 -0.86374979780E+03  0.95314048419E+03  0.50400001928E-02 0. -1.
</event>
<event>
 5   0  0.9697941E-04  0.8997599E+03  0.7818609E-02  0.9425882E-01
       -1   -1    0    0    0  501  0.00000000000E+00  0.00000000000E+00  0.21937212876E+03  0.21937212882E+03  0.50400001928E-02 0.  1.
        1   -1    0    0  501    0  0.00000000000E+00  0.00000000000E+00 -0.92259661017E+03  0.92259661019E+03  0.50400001928E-02 0. -1.
    10030    2    1    2    0    0  0.00000000000E+00  0.00000000000E+00 -0.70322448141E+03  0.11419687390E+04  0.89975992888E+03 0.  0.
        5    1    3    3  502    0  0.16997856741E+03  0.35981603324E+03 -0.61786939402E+03  0.73494555527E+03  0.46999998093E+01 0. -1.
       -5    1    3    3    0  502 -0.16997856741E+03 -0.35981603324E+03 -0.85355087394E+02  0.40702318374E+03  0.46999998093E+01 0.  1.
</event>
<event>
 5   0  0.9697941E-04  0.8995672E+03  0.7818609E-02  0.9426123E-01
        1   -1    0    0  501    0  0.00000000000E+00  0.00000000000E+00  0.34303270071E+03  0.34303270074E+03  0.50400001928E-02 0.  1.
       -1   -1    0    0    0  501  0.00000000000E+00  0.00000000000E+00 -0.58975515656E+03  0.58975515658E+03  0.50400001928E-02 0. -1.
    10030    2    1    2    0    0  0.00000000000E+00  0.00000000000E+00 -0.24672245585E+03  0.93278785733E+03  0.89956723848E+03 0.  0.
        5    1    3    3  502    0 -0.12664861210E+03  0.50825926673E+02 -0.56774339694E+03  0.58393304457E+03  0.46999998093E+01 0. -1.
       -5    1    3    3    0  502  0.12664861210E+03 -0.50825926673E+02  0.32102094109E+03  0.34885481276E+03  0.46999998093E+01 0.  1.
</event>
<event>
 5   0  0.1536020E-03  0.8989529E+03  0.7818609E-02  0.9426891E-01
        2   -1    0    0  501    0  0.00000000000E+00  0.00000000000E+00  0.14140919707E+04  0.14140919707E+04  0.25500000920E-02 0.  1.
       -2   -1    0    0    0  501  0.00000000000E+00  0.00000000000E+00 -0.14286841483E+03  0.14286841486E+03  0.25500000920E-02 0. -1.
    10030    2    1    2    0    0  0.00000000000E+00  0.00000000000E+00  0.12712235558E+04  0.15569603855E+04  0.89895289820E+03 0.  0.
        2    1    3    3  502    0 -0.34699162057E+03  0.19101208921E+03  0.26763303823E+03  0.47803372908E+03  0.25500000920E-02 0. -1.
       -2    1    3    3    0  502  0.34699162057E+03 -0.19101208921E+03  0.10035905176E+04  0.10789266564E+04  0.25500000920E-02 0.  1.
</event>
<event>
 5   0  0.9321543E-04  0.9030393E+03  0.7818609E-02  0.9421790E-01
       -1   -1    0    0    0  501  0.00000000000E+00  0.00000000000E+00  0.64713951147E+03  0.64713951149E+03  0.50400001928E-02 0. -1.
        1   -1    0    0  501    0  0.00000000000E+00  0.00000000000E+00 -0.31503251910E+03  0.31503251914E+03  0.50400001928E-02 0.  1.
    10030    2    1    2    0    0  0.00000000000E+00  0.00000000000E+00  0.33210699237E+03  0.96217203063E+03  0.90303929158E+03 0.  0.
        3    1    3    3  502    0 -0.17943183427E+03 -0.98085264760E+02  0.59497247110E+03  0.62913333554E+03  0.10100000352E+00 0. -1.
       -3    1    3    3    0  502  0.17943183427E+03  0.98085264760E+02 -0.26286547873E+03  0.33303869509E+03  0.10100000352E+00 0.  1.
</event>
<event>
 5   0  0.9697941E-04  0.8999226E+03  0.7818609E-02  0.9425678E-01
        1   -1    0    0  501    0  0.00000000000E+00  0.00000000000E+00  0.73768557531E+03  0.73768557532E+03  0.50400001928E-02 0. -1.
       -1   -1    0    0    0  501  0.00000000000E+00  0.00000000000E+00 -0.27445996249E+03  0.27445996254E+03  0.50400001928E-02 0.  1.
    10030    2    1    2    0    0  0.00000000000E+00  0.00000000000E+00  0.46322561281E+03  0.10121455379E+04  0.89992256414E+03 0.  0.
        5    1    3    3  502    0 -0.35985554957E+03 -0.17152016430E+03  0.46626336459E+03  0.61346458616E+03  0.46999998093E+01 0. -1.
       -5    1    3    3    0  502  0.35985554957E+03  0.17152016430E+03 -0.30377517715E+01  0.39868095170E+03  0.46999998093E+01 0.  1.
</event>
<event>
 5   0  0.6375625E-04  0.9003575E+03  0.7818609E-02  0.9425135E-01
        4   -1    0    0  501    0  0.00000000000E+00  0.00000000000E+00  0.97078124631E+03  0.97078207703E+03  0.12699999809E+01 0. -1.
       -4   -1    0    0    0  501  0.00000000000E+00  0.00000000000E+00 -0.20875779337E+03  0.20876165643E+03  0.12699999809E+01 0.  1.
    10030    2    1    2    0    0  0.00000000000E+00  0.00000000000E+00  0.76202345294E+03  0.11795437335E+04  0.90035752694E+03 0.  0.
        2    1    3    3  502    0 -0.23794780824E+03  0.16562431723E+03 -0.70179174687E+02  0.29828793216E+03  0.25500000920E-02 0.  1.
       -2    1    3    3    0  502  0.23794780824E+03 -0.16562431723E+03  0.83220262762E+03  0.88125580131E+03  0.25500000920E-02 0. -1.
</event>
<event>
 5   0  0.1704416E-03  0.8991325E+03  0.7818609E-02  0.9426666E-01
       -2   -1    0    0    0  501  0.00000000000E+00  0.00000000000E+00  0.20553794728E+03  0.20553794730E+03  0.25500000920E-02 0.  1.
        2   -1    0    0  501    0  0.00000000000E+00  0.00000000000E+00 -0.98332119868E+03  0.98332119868E+03  0.25500000920E-02 0. -1.
    10030    2    1    2    0    0  0.00000000000E+00  0.00000000000E+00 -0.77778325140E+03  0.11888591460E+04  0.89913251683E+03 0.  0.
        3    1    3    3  502    0  0.25701086795E+03  0.36736159979E+03 -0.34502471100E+03  0.56573067148E+03  0.10100000352E+00 0. -1.
       -3    1    3    3    0  502 -0.25701086795E+03 -0.36736159979E+03 -0.43275854039E+03  0.62312847450E+03  0.10100000352E+00 0.  1.
</event>
<event>
 5   0  0.9697941E-04  0.9003532E+03  0.7818609E-02  0.9425140E-01
       -1   -1    0    0    0  501  0.00000000000E+00  0.00000000000E+00  0.16771809641E+03  0.16771809649E+03  0.50400001928E-02 0.  1.
        1   -1    0    0  501    0  0.00000000000E+00  0.00000000000E+00 -0.12083309851E+04  0.12083309851E+04  0.50400001928E-02 0. -1.
    10030    2    1    2    0    0  0.00000000000E+00  0.00000000000E+00 -0.10406128887E+04  0.13760490816E+04  0.90035320339E+03 0.  0.
        5    1    3    3  502    0  0.35036199883E+03  0.10304969539E+03 -0.92253708297E+03  0.99220437884E+03  0.46999998093E+01 0. -1.
       -5    1    3    3    0  502 -0.35036199883E+03 -0.10304969539E+03 -0.11807580574E+03  0.38384470277E+03  0.46999998093E+01 0.  1.
</event>
<event>
 5   0  0.1536020E-03  0.8985387E+03  0.7818609E-02  0.9427410E-01
        2   -1    0    0  501    0  0.00000000000E+00  0.00000000000E+00  0.80639820830E+03  0.80639820831E+03  0.25500000920E-02 0. -1.
       -2   -1    0    0    0  501  0.00000000000E+00  0.00000000000E+00 -0.25030183777E+03  0.25030183778E+03  0.25500000920E-02 0.  1.
    10030    2    1    2    0    0  0.00000000000E+00  0.00000000000E+00  0.55609637053E+03  0.10567000461E+04  0.89853871039E+03 0.  0.
        2    1    3    3  502    0  0.11408295596E+03  0.60504029135E+02 -0.22800606379E+03  0.26203515702E+03  0.25500000920E-02 0.  1.
       -2    1    3    3    0  502 -0.11408295596E+03 -0.60504029135E+02  0.78410243433E+03  0.79466488906E+03  0.25500000920E-02 0. -1.
</event>
<event>
 5   0  0.9223454E-04  0.9015964E+03  0.7818609E-02  0.9423588E-01
       -1   -1    0    0    0  501  0.00000000000E+00  0.00000000000E+00  0.18193613632E+03  0.18193613638E+03  0.50400001928E-02 0.  1.
        1   -1    0    0  501    0  0.00000000000E+00  0.00000000000E+00 -0.11169798966E+04  0.11169798966E+04  0.50400001928E-02 0. -1.
    10030    2    1    2    0    0  0.00000000000E+00  0.00000000000E+00 -0.93504376028E+03  0.12989160330E+04  0.90159637706E+03 0.  0.
        1    1    3    3  502    0 -0.74847557452E+02 -0.37949535576E+03 -0.80106487217E+03  0.88956383209E+03  0.50400001928E-02 0. -1.
       -1    1    3    3    0  502  0.74847557452E+02  0.37949535576E+03 -0.13397888810E+03  0.40935220090E+03  0.50400001928E-02 0.  1.
</event>
<event>
 5   0  0.6375625E-04  0.9021093E+03  0.7818609E-02  0.9422948E-01
       -3   -1    0    0    0  501  0.00000000000E+00  0.00000000000E+00  0.17002731085E+03  0.17002734085E+03  0.10100000352E+00 0.  1.
        3   -1    0    0  501    0  0.00000000000E+00  0.00000000000E+00 -0.11965741820E+04  0.11965741862E+04  0.10100000352E+00 0. -1.
    10030    2    1    2    0    0  0.00000000000E+00  0.00000000000E+00 -0.10265468711E+04  0.13666015271E+04  0.90210933663E+03 0.  0.
        4    1    3    3  502    0 -0.18279976491E+03  0.28361199152E+03 -0.96672395820E+03  0.10239181315E+04  0.12699999809E+01 0. -1.
       -4    1    3    3    0  502  0.18279976491E+03 -0.28361199152E+03 -0.59822912914E+02  0.34268339557E+03  0.12699999809E+01 0.  1.
</event>
<event>
 5   0  0.1641516E-03  0.9015642E+03  0.7818609E-02  0.9423628E-01
       -2   -1    0    0    0  501  0.00000000000E+00  0.00000000000E+00  0.16916685281E+03  0.16916685283E+03  0.25500000920E-02 0.  1.
        2   -1    0    0  501    0  0.00000000000E+00  0.00000000000E+00 -0.12012076012E+04  0.12012076012E+04  0.25500000920E-02 0. -1.
    10030    2    1    2    0    0  0.00000000000E+00  0.00000000000E+00 -0.10320407484E+04  0.13703744540E+04  0.90156421730E+03 0.  0.
        1    1    3    3  502    0  0.10604431980E+03 -0.20215619123E+03 -0.11068514131E+04  0.11301471471E+04  0.50400001928E-02 0. -1.
       -1    1    3    3    0  502 -0.10604431980E+03  0.20215619123E+03  0.74810664704E+02  0.24022730692E+03  0.50400001928E-02 0.  1.
</event>
<event>
 5   0  0.1007561E-03  0.9024960E+03  0.7818609E-02  0.9422467E-01
        1   -1    0    0  501    0  0.00000000000E+00  0.00000000000E+00  0.75628370870E+03  0.75628370871E+03  0.50400001928E-02 0. -1.
       -1   -1    0    0    0  501  0.00000000000E+00  0.00000000000E+00 -0.26924388784E+03  0.26924388789E+03  0.50400001928E-02 0.  1.
    10030    2    1    2    0    0  0.00000000000E+00  0.00000000000E+00  0.48703982086E+03  0.10255275966E+04  0.90249601898E+03 0.  0.
        2    1    3    3  502    0  0.10514316502E+03 -0.19419780734E+03  0.69068441951E+03  0.72512953387E+03  0.25500000920E-02 0. -1.
       -2    1    3    3    0  502 -0.10514316502E+03  0.19419780734E+03 -0.20364459865E+03  0.30039806273E+03  0.25500000920E-02 0.  1.
</event>
<event>
 5   0  0.9321543E-04  0.8994291E+03  0.7818609E-02  0.9426295E-01
       -1   -1    0    0    0  501  0.00000000000E+00  0.00000000000E+00  0.19385649449E+03  0.19385649456E+03  0.50400001928E-02 0.  1.
        1   -1    0    0  501    0  0.00000000000E+00  0.00000000000E+00 -0.10432622706E+04  0.10432622706E+04  0.50400001928E-02 0. -1.
    10030    2    1    2    0    0  0.00000000000E+00  0.00000000000E+00 -0.84940577609E+03  0.12371187652E+04  0.89942907816E+03 0.  0.
        3    1    3    3  502    0 -0.34477351323E+03 -0.84511974025E+02 -0.44939202873E+02  0.35781362653E+03  0.10100000352E+00 0. -1.
       -3    1    3    3    0  502  0.34477351323E+03  0.84511974025E+02 -0.80446657322E+03  0.87930513862E+03  0.10100000352E+00 0.  1.
</event>
<event>
 5   0  0.9697941E-04  0.8999250E+03  0.7818609E-02  0.9425675E-01
        1   -1    0    0  501    0  0.00000000000E+00  0.00000000000E+00  0.39926016932E+03  0.39926016935E+03  0.50400001928E-02 0. -1.
       -1   -1    0    0    0  501  0.00000000000E+00  0.00000000000E+00 -0.50710360865E+03  0.50710360867E+03  0.50400001928E-02 0.  1.
    10030    2    1    2    0    0  0.00000000000E+00  0.00000000000E+00 -0.10784343933E+03  0.90636377802E+03  0.89992504727E+03 0.  0.
        5    1    3    3  502    0  0.41395722299E+03 -0.92711230754E+02 -0.20495540460E+03  0.47115258955E+03  0.46999998093E+01 0.  1.
       -5    1    3    3    0  502 -0.41395722299E+03  0.92711230754E+02  0.97111965271E+02  0.43521118847E+03  0.46999998093E+01 0. -1.
</event>
<event>
 5   0  0.1007561E-03  0.9000030E+03  0.7818609E-02  0.9425578E-01
       -1   -1    0    0    0  501  0.00000000000E+00  0.00000000000E+00  0.69476099073E+03  0.69476099075E+03  0.50400001928E-02 0.  1.
        1   -1    0    0  501    0  0.00000000000E+00  0.00000000000E+00 -0.29146906952E+03  0.29146906956E+03  0.50400001928E-02 0. -1.
    10030    2    1    2    0    0  0.00000000000E+00  0.00000000000E+00  0.40329192121E+03  0.98623006031E+03  0.90000297674E+03 0.  0.
        2    1    3    3  502    0  0.86100979460E+02 -0.31031587916E+03  0.54607139422E+03  0.63395843012E+03  0.25500000920E-02 0.  1.
       -2    1    3    3    0  502 -0.86100979460E+02  0.31031587916E+03 -0.14277947301E+03  0.35227163019E+03  0.25500000920E-02 0. -1.
</event>
<event>
 5   0  0.1630202E-03  0.9016565E+03  0.7818609E-02  0.9423513E-01
       -2   -1    0    0    0  501  0.00000000000E+00  0.00000000000E+00  0.18334293631E+03  0.18334293632E+03  0.25500000920E-02 0.  1.
        2   -1    0    0  501    0  0.00000000000E+00  0.00000000000E+00 -0.11085571236E+04  0.11085571236E+04  0.25500000920E-02 0. -1.
    10030    2    1    2    0    0  0.00000000000E+00  0.00000000000E+00 -0.92521418728E+03  0.12919000599E+04  0.90165651579E+03 0.  0.
        4    1    3    3  502    0  0.25684791153E+03 -0.35121309332E+03 -0.63167239975E+03  0.76702876092E+03  0.12699999809E+01 0. -1.
       -4    1    3    3    0  502 -0.25684791153E+03  0.35121309332E+03 -0.29354178753E+03  0.52487129899E+03  0.12699999809E+01 0.  1.
</event>
<event>
 5   0  0.9981885E-04  0.8998520E+03  0.7818609E-02  0.9425766E-01
       -1   -1    0    0    0  501  0.00000000000E+00  0.00000000000E+00  0.11448783984E+03  0.11448783995E+03  0.50400001928E-02 0.  1.
        1   -1    0    0  501    0  0.00000000000E+00  0.00000000000E+00 -0.17681650857E+04  0.17681650857E+04  0.50400001928E-02 0. -1.
    10030    2    1    2    0    0  0.00000000000E+00  0.00000000000E+00 -0.16536772459E+04  0.18826529257E+04  0.89985199063E+03 0.  0.
        4    1    3    3  502    0 -0.34273561739E+03 -0.17874505836E+03 -0.13085597043E+04  0.13644587249E+04  0.12699999809E+01 0. -1.
       -4    1    3    3    0  502  0.34273561739E+03  0.17874505836E+03 -0.34511754152E+03  0.51819420074E+03  0.12699999809E+01 0.  1.
</event>
<event>
 5   0  0.9321543E-04  0.8994668E+03  0.7818609E-02  0.9426248E-01
       -1   -1    0    0    0  501  0.00000000000E+00  0.00000000000E+00  0.25417918440E+03  0.25417918445E+03  0.50400001928E-02 0.  1.
        1   -1    0    0  501    0  0.00000000000E+00  0.00000000000E+00 -0.79573838251E+03  0.79573838253E+03  0.50400001928E-02 0. -1.
    10030    2    1    2    0    0  0.00000000000E+00  0.00000000000E+00 -0.54155919812E+03  0.10499175670E+04  0.89946680449E+03 0.  0.
        3    1    3    3  502    0 -0.10554319081E+03  0.14406760521E+03 -0.75257273867E+03  0.77347306171E+03  0.10100000352E+00 0. -1.
       -3    1    3    3    0  502  0.10554319081E+03 -0.14406760521E+03  0.21101354055E+03  0.27644450527E+03  0.10100000352E+00 0.  1.
</event>
<event>
 5   0  0.6375625E-04  0.8996646E+03  0.7818609E-02  0.9426001E-01
        4   -1    0    0  501    0  0.00000000000E+00  0.00000000000E+00  0.29892996008E+03  0.29893265786E+03  0.12699999809E+01 0.  1.
       -4   -1    0    0    0  501  0.00000000000E+00  0.00000000000E+00 -0.67690505546E+03  0.67690624683E+03  0.12699999809E+01 0. -1.
    10030    2    1    2    0    0  0.00000000000E+00  0.00000000000E+00 -0.37797509538E+03  0.97583890469E+03  0.89966460150E+03 0.  0.
        1    1    3    3  502    0  0.28187271095E+03 -0.31087592839E+03 -0.36473426396E+03  0.55599204253E+03  0.50400001928E-02 0.  1.
       -1    1    3    3    0  502 -0.28187271095E+03  0.31087592839E+03 -0.13240831419E+02  0.41984686216E+03  0.50400001928E-02 0. -1.
</event>
<event>
 5   0  0.1641516E-03  0.8993639E+03  0.7818609E-02  0.9426377E-01
        2   -1    0    0  501    0  0.00000000000E+00  0.00000000000E+00  0.59250112494E+03  0.59250112495E+03  0.25500000920E-02 0. -1.
       -2   -1    0    0    0  501  0.00000000000E+00  0.00000000000E+00 -0.34128858832E+03  0.34128858832E+03  0.25500000920E-02 0.  1.
    10030    2    1    2    0    0  0.00000000000E+00  0.00000000000E+00  0.25121253663E+03  0.93378971327E+03  0.89936393638E+03 0.  0.
        1    1    3    3  502    0  0.44815337791E+03 -0.26022908263E+02  0.15298277673E+03  0.47425981475E+03  0.50400001928E-02 0.  1.
       -1    1    3    3    0  502 -0.44815337791E+03  0.26022908263E+02  0.98229759895E+02  0.45952989852E+03  0.50400001928E-02 0. -1.
</event>
<event>
 5   0  0.1704416E-03  0.9007523E+03  0.7818609E-02  0.9424641E-01
       -2   -1    0    0    0  501  0.00000000000E+00  0.00000000000E+00  0.24591688674E+03  0.24591688676E+03  0.25500000920E-02 0. -1.
        2   -1    0    0  501    0  0.00000000000E+00  0.00000000000E+00 -0.82482620060E+03  0.82482620061E+03  0.25500000920E-02 0.  1.
    10030    2    1    2    0    0  0.00000000000E+00  0.00000000000E+00 -0.57890931386E+03  0.10707430874E+04  0.90075233303E+03 0.  0.
        3    1    3    3  502    0 -0.39988818755E+02  0.81735251201E+02  0.23487625440E+03  0.25188612903E+03  0.10100000352E+00 0. -1.
       -3    1    3    3    0  502  0.39988818755E+02 -0.81735251201E+02 -0.81378556826E+03  0.81885695834E+03  0.10100000352E+00 0.  1.
</event>
<event>
 5   0  0.1704416E-03  0.8998915E+03  0.7818609E-02  0.9425717E-01
        2   -1    0    0  501    0  0.00000000000E+00  0.00000000000E+00  0.54783023106E+03  0.54783023106E+03  0.25500000920E-02 0.  1.
       -2   -1    0    0    0  501  0.00000000000E+00  0.00000000000E+00 -0.36955095078E+03  0.36955095079E+03  0.25500000920E-02 0. -1.
    10030    2    1    2    0    0  0.00000000000E+00  0.00000000000E+00  0.17827928028E+03  0.91738118185E+03  0.89989151070E+03 0.  0.
        3    1    3    3  502    0  0.18379804204E+03  0.46562028722E+02  0.50511600562E+03  0.53952936167E+03  0.10100000352E+00 0.  1.
       -3    1    3    3    0  502 -0.18379804204E+03 -0.46562028722E+02 -0.32683672534E+03  0.37785182017E+03  0.10100000352E+00 0. -1.
</event>
<event>
 5   0  0.9981885E-04  0.8988235E+03  0.7818609E-02  0.9427053E-01
       -1   -1    0    0    0  501  0.00000000000E+00  0.00000000000E+00  0.24104203825E+03  0.24104203831E+03  0.50400001928E-02 0.  1.
        1   -1    0    0  501    0  0.00000000000E+00  0.00000000000E+00 -0.83790750873E+03  0.83790750875E+03  0.50400001928E-02 0. -1.
    10030    2    1    2    0    0  0.00000000000E+00  0.00000000000E+00 -0.59686547048E+03  0.10789495471E+04  0.89882352842E+03 0.  0.
        4    1    3    3  502    0 -0.28046693362E+03 -0.34667845965E+03 -0.36550143688E+03  0.57657659378E+03  0.12699999809E+01 0.  1.
       -4    1    3    3    0  502  0.28046693362E+03  0.34667845965E+03 -0.23136403360E+03  0.50237295327E+03  0.12699999809E+01 0. -1.
</event>
<event>
 5   0  0.1641516E-03  0.8994237E+03  0.7818609E-02  0.9426302E-01
       -2   -1    0    0    0  501  0.00000000000E+00  0.00000000000E+00  0.16351477491E+04  0.16351477491E+04  0.25500000920E-02 0. -1.
        2   -1    0    0  501    0  0.00000000000E+00  0.00000000000E+00 -0.12368347194E+03  0.12368347197E+03  0.25500000920E-02 0.  1.
    10030    2    1    2    0    0  0.00000000000E+00  0.00000000000E+00  0.15114642772E+04  0.17588312211E+04  0.89942370611E+03 0.  0.
        1    1    3    3  502    0 -0.30656486778E+03  0.18390176122E+03  0.12892632339E+04  0.13379093998E+04  0.50400001928E-02 0. -1.
       -1    1    3    3    0  502  0.30656486778E+03 -0.18390176122E+03  0.22220104331E+03  0.42092182126E+03  0.50400001928E-02 0.  1.
</event>
<event>
 5   0  0.1007561E-03  0.8998070E+03  0.7818609E-02  0.9425823E-01
       -1   -1    0    0    0  501  0.00000000000E+00  0.00000000000E+00  0.16538347201E+03  0.16538347208E+03  0.50400001928E-02 0.  1.
        1   -1    0    0  501    0  0.00000000000E+00  0.00000000000E+00 -0.12239020641E+04  0.12239020641E+04  0.50400001928E-02 0. -1.
    10030    2    1    2    0    0  0.00000000000E+00  0.00000000000E+00 -0.10585185921E+04  0.13892855362E+04  0.89980703002E+03 0.  0.
        2    1    3    3  502    0 -0.41958927884E+03  0.12911689284E+03 -0.37729794434E+03  0.57886101419E+03  0.25500000920E-02 0.  1.
       -2    1    3    3    0  502  0.41958927884E+03 -0.12911689284E+03 -0.68122064778E+03  0.81042452203E+03  0.25500000920E-02 0. -1.
</event>
<event>
 5   0  0.9223454E-04  0.8921425E+03  0.7818609E-02  0.9435457E-01
       -1   -1    0    0    0  501  0.00000000000E+00  0.00000000000E+00  0.35853026532E+03  0.35853026536E+03  0.50400001928E-02 0. -1.
        1   -1    0    0  501    0  0.00000000000E+00  0.00000000000E+00 -0.55498679668E+03  0.55498679671E+03  0.50400001928E-02 0.  1.
    10030    2    1    2    0    0  0.00000000000E+00  0.00000000000E+00 -0.19645653136E+03  0.91351706206E+03  0.89214250766E+03 0.  0.
        1    1    3    3  502    0  0.44089908450E+02 -0.39757979999E+03  0.10389906621E+03  0.41329001121E+03  0.50400001928E-02 0. -1.
       -1    1    3    3    0  502 -0.44089908450E+02  0.39757979999E+03 -0.30035559757E+03  0.50022705085E+03  0.50400001928E-02 0.  1.
</event>
<event>
 5   0  0.9697941E-04  0.9008405E+03  0.7818609E-02  0.9424531E-01
       -1   -1    0    0    0  501  0.00000000000E+00  0.00000000000E+00  0.11744686094E+03  0.11744686105E+03  0.50400001928E-02 0. -1.
        1   -1    0    0  501    0  0.00000000000E+00  0.00000000000E+00 -0.17274059079E+04  0.17274059080E+04  0.50400001928E-02 0.  1.
    10030    2    1    2    0    0  0.00000000000E+00  0.00000000000E+00 -0.16099590470E+04  0.18448527690E+04  0.90084049989E+03 0.  0.
        5    1    3    3  502    0 -0.53508189339E+02  0.59630912592E+02  0.10268598247E+03  0.13032832792E+03  0.46999998093E+01 0. -1.
       -5    1    3    3    0  502  0.53508189339E+02 -0.59630912592E+02 -0.17126450295E+04  0.17145244411E+04  0.46999998093E+01 0.  1.
</event>
<event>
 5   0  0.1536020E-03  0.8996960E+03  0.7818609E-02  0.9425961E-01
       -2   -1    0    0    0  501  0.00000000000E+00  0.00000000000E+00  0.80392507625E+03  0.80392507625E+03  0.25500000920E-02 0.  1.
        2   -1    0    0  501    0  0.00000000000E+00  0.00000000000E+00 -0.25171903483E+03  0.25171903485E+03  0.25500000920E-02 0. -1.
    10030    2    1    2    0    0  0.00000000000E+00  0.00000000000E+00  0.55220604142E+03  0.10556441111E+04  0.89969604708E+03 0.  0.
        2    1    3    3  502    0  0.36580877275E+03 -0.21554973819E+03  0.45047443889E+03  0.61903551429E+03  0.25500000920E-02 0.  1.
       -2    1    3    3    0  502 -0.36580877275E+03  0.21554973819E+03  0.10173160253E+03  0.43660859681E+03  0.25500000920E-02 0. -1.
</event>
<event>
 5   0  0.1630202E-03  0.8998725E+03  0.7818609E-02  0.9425741E-01
        2   -1    0    0  501    0  0.00000000000E+00  0.00000000000E+00  0.49432835513E+03  0.49432835513E+03  0.25500000920E-02 0. -1.
       -2   -1    0    0    0  501  0.00000000000E+00  0.00000000000E+00 -0.40953066173E+03  0.40953066174E+03  0.25500000920E-02 0.  1.
    10030    2    1    2    0    0  0.00000000000E+00  0.00000000000E+00  0.84797693397E+02  0.90385901687E+03  0.89987247628E+03 0.  0.
        4    1    3    3  502    0 -0.33431651452E+03 -0.91661554825E+02 -0.24570216615E+03  0.42490062351E+03  0.12699999809E+01 0.  1.
       -4    1    3    3    0  502  0.33431651452E+03  0.91661554825E+02  0.33049985954E+03  0.47895839336E+03  0.12699999809E+01 0. -1.
</event>
<event>
 5   0  0.1635686E-03  0.9004255E+03  0.7818609E-02  0.9425050E-01
        2   -1    0    0  501    0  0.00000000000E+00  0.00000000000E+00  0.24310600637E+03  0.24310600639E+03  0.25500000920E-02 0.  1.
       -2   -1    0    0    0  501  0.00000000000E+00  0.00000000000E+00 -0.83375780840E+03  0.83375780841E+03  0.25500000920E-02 0. -1.
    10030    2    1    2    0    0  0.00000000000E+00  0.00000000000E+00 -0.59065180203E+03  0.10768638148E+04  0.90042552406E+03 0.  0.
        5    1    3    3  502    0  0.35766079494E+03 -0.24816129768E+03 -0.15810834455E+03  0.46316909711E+03  0.46999998093E+01 0. -1.
       -5    1    3    3    0  502 -0.35766079494E+03  0.24816129768E+03 -0.43254345748E+03  0.61369471768E+03  0.46999998093E+01 0.  1.
</event>
<event>
 5   0  0.6375625E-04  0.8982876E+03  0.7818609E-02  0.9427725E-01
       -3   -1    0    0    0  501  0.00000000000E+00  0.00000000000E+00  0.34286861257E+03  0.34286862744E+03  0.10100000352E+00 0. -1.
        3   -1    0    0  501    0  0.00000000000E+00  0.00000000000E+00 -0.58835990048E+03  0.58835990914E+03  0.10100000352E+00 0.  1.
    10030    2    1    2    0    0  0.00000000000E+00  0.00000000000E+00 -0.24549128791E+03  0.93122853659E+03  0.89828760145E+03 0.  0.
        2    1    3    3  502    0  0.15424838455E+03  0.25180147142E+03 -0.47358422245E+03  0.55810264370E+03  0.25500000920E-02 0.  1.
       -2    1    3    3    0  502 -0.15424838455E+03 -0.25180147142E+03  0.22809293454E+03  0.37312589289E+03  0.25500000920E-02 0. -1.
</event>
<event>
 5   0  0.6375625E-04  0.9002400E+03  0.7818609E-02  0.9425281E-01
       -4   -1    0    0    0  501  0.00000000000E+00  0.00000000000E+00  0.19329751947E+03  0.19330169149E+03  0.12699999809E+01 0.  1.
        4   -1    0    0  501    0  0.00000000000E+00  0.00000000000E+00 -0.10481508963E+04  0.10481516657E+04  0.12699999809E+01 0. -1.
    10030    2    1    2    0    0  0.00000000000E+00  0.00000000000E+00 -0.85485337687E+03  0.12414533572E+04  0.90024004699E+03 0.  0.
        4    1    3    3  502    0  0.25101046868E+03 -0.34406394249E+03 -0.62831122885E+03  0.75905392767E+03  0.12699999809E+01 0. -1.
       -4    1    3    3    0  502 -0.25101046868E+03  0.34406394249E+03 -0.22654214802E+03  0.48239942955E+03  0.12699999809E+01 0.  1.
</event>
<event>
 5   0  0.1536020E-03  0.8924999E+03  0.7818609E-02  0.9435006E-01
       -2   -1    0    0    0  501  0.00000000000E+00  0.00000000000E+00  0.21964041905E+03  0.21964041906E+03  0.25500000920E-02 0.  1.
        2   -1    0    0  501    0  0.00000000000E+00  0.00000000000E+00 -0.90665917212E+03  0.90665917212E+03  0.25500000920E-02 0. -1.
    10030    2    1    2    0    0  0.00000000000E+00  0.00000000000E+00 -0.68701875307E+03  0.11262995912E+04  0.89249986108E+03 0.  0.
        2    1    3    3  502    0 -0.37467100599E+02  0.23374169070E+03  0.13387218992E+03  0.27195721141E+03  0.25500000920E-02 0.  1.
       -2    1    3    3    0  502  0.37467100599E+02 -0.23374169070E+03 -0.82089094299E+03  0.85434237978E+03  0.25500000920E-02 0. -1.
</event>
<event>
 5   0  0.1641516E-03  0.8967757E+03  0.7818609E-02  0.9429621E-01
        2   -1    0    0  501    0  0.00000000000E+00  0.00000000000E+00  0.10457943660E+04  0.10457943660E+04  0.25500000920E-02 0. -1.
       -2   -1    0    0    0  501  0.00000000000E+00  0.00000000000E+00 -0.19224778085E+03  0.19224778087E+03  0.25500000920E-02 0.  1.
    10030    2    1    2    0    0  0.00000000000E+00  0.00000000000E+00  0.85354658516E+03  0.12380421469E+04  0.89677566003E+03 0.  0.
        1    1    3    3  502    0 -0.33979259978E+03 -0.27865050974E+03  0.30370665251E+03  0.53417492289E+03  0.50400001928E-02 0.  1.
       -1    1    3    3    0  502  0.33979259978E+03  0.27865050974E+03  0.54983993265E+03  0.70386722399E+03  0.50400001928E-02 0. -1.
</event>
<event>
 5   0  0.9223454E-04  0.8990627E+03  0.7818609E-02  0.9426754E-01
        1   -1    0    0  501    0  0.00000000000E+00  0.00000000000E+00  0.95021801137E+03  0.95021801139E+03  0.50400001928E-02 0.  1.
       -1   -1    0    0    0  501  0.00000000000E+00  0.00000000000E+00 -0.21266534483E+03  0.21266534489E+03  0.50400001928E-02 0. -1.
    10030    2    1    2    0    0  0.00000000000E+00  0.00000000000E+00  0.73755266655E+03  0.11628833563E+04  0.89906271437E+03 0.  0.
        1    1    3    3  502    0 -0.16944525562E+03 -0.88984249618E+02 -0.15733499109E+03  0.24775833140E+03  0.50400001928E-02 0. -1.
       -1    1    3    3    0  502  0.16944525562E+03  0.88984249618E+02  0.89488765763E+03  0.91512502487E+03  0.50400001928E-02 0.  1.
</event>
<event>
 5   0  0.9697941E-04  0.9004832E+03  0.7818609E-02  0.9424978E-01
        1   -1    0    0  501    0  0.00000000000E+00  0.00000000000E+00  0.26752999681E+03  0.26752999686E+03  0.50400001928E-02 0. -1.
       -1   -1    0    0    0  501  0.00000000000E+00  0.00000000000E+00 -0.75773748359E+03  0.75773748360E+03  0.50400001928E-02 0.  1.
    10030    2    1    2    0    0  0.00000000000E+00  0.00000000000E+00 -0.49020748677E+03  0.10252674805E+04  0.90048321828E+03 0.  0.
        5    1    3    3  502    0  0.24698248710E+03 -0.20088110420E+03 -0.60756031004E+03  0.68593380679E+03  0.46999998093E+01 0.  1.
       -5    1    3    3    0  502 -0.24698248710E+03  0.20088110420E+03  0.11735282327E+03  0.33933367367E+03  0.46999998093E+01 0. -1.
</event>
<event>
 5   0  0.1635686E-03  0.9003002E+03  0.7818609E-02  0.9425206E-01
        2   -1    0    0  501    0  0.00000000000E+00  0.00000000000E+00  0.17596033931E+04  0.17596033931E+04  0.25500000920E-02 0.  1.
       -2   -1    0    0    0  501  0.00000000000E+00  0.00000000000E+00 -0.11515954777E+03  0.11515954779E+03  0.25500000920E-02 0. -1.
    10030    2    1    2    0    0  0.00000000000E+00  0.00000000000E+00  0.16444438454E+04  0.18747629409E+04  0.90030024109E+03 0.  0.
        5    1    3    3  502    0 -0.10598864393E+03 -0.42685666091E+03  0.62278255473E+03  0.76244370420E+03  0.46999998093E+01 0. -1.
       -5    1    3    3    0  502  0.10598864393E+03  0.42685666091E+03  0.10216612906E+04  0.11123192367E+04  0.46999998093E+01 0.  1.
</event>
<event>
 5   0  0.1635686E-03  0.9004197E+03  0.7818609E-02  0.9425057E-01
       -2   -1    0    0    0  501  0.00000000000E+00  0.00000000000E+00  0.27060734617E+03  0.27060734618E+03  0.25500000920E-02 0.  1.
        2   -1    0    0  501    0  0.00000000000E+00  0.00000000000E+00 -0.74901485829E+03  0.74901485830E+03  0.25500000920E-02 0. -1.
    10030    2    1    2    0    0  0.00000000000E+00  0.00000000000E+00 -0.47840751212E+03  0.10196222045E+04  0.90041973113E+03 0.  0.
        5    1    3    3  502    0  0.23059671266E+03  0.59194953946E+02  0.19346225668E+03  0.30680388072E+03  0.46999998093E+01 0.  1.
       -5    1    3    3    0  502 -0.23059671266E+03 -0.59194953946E+02 -0.67186976880E+03  0.71281832377E+03  0.46999998093E+01 0. -1.
</event>
<event>
 5   0  0.1635686E-03  0.9007375E+03  0.7818609E-02  0.9424660E-01
       -2   -1    0    0    0  501  0.00000000000E+00  0.00000000000E+00  0.35065109575E+03  0.35065109576E+03  0.25500000920E-02 0. -1.
        2   -1    0    0  501    0  0.00000000000E+00  0.00000000000E+00 -0.57844391672E+03  0.57844391673E+03  0.25500000920E-02 0.  1.
    10030    2    1    2    0    0  0.00000000000E+00  0.00000000000E+00 -0.22779282097E+03  0.92909501249E+03  0.90073746061E+03 0.  0.
        5    1    3    3  502    0 -0.20656943643E+03 -0.34880068068E+03 -0.31622759470E+03  0.51415447927E+03  0.46999998093E+01 0.  1.
       -5    1    3    3    0  502  0.20656943643E+03  0.34880068068E+03  0.88434773724E+02  0.41494053322E+03  0.46999998093E+01 0. -1.
</event>
<event>
 5   0  0.1630202E-03  0.9019323E+03  0.7818609E-02  0.9423169E-01
       -2   -1    0    0    0  501  0.00000000000E+00  0.00000000000E+00  0.73431163073E+03  0.73431163074E+03  0.25500000920E-02 0.  1.
        2   -1    0    0  501    0  0.00000000000E+00  0.00000000000E+00 -0.27695391670E+03  0.27695391671E+03  0.25500000920E-02 0. -1.
    10030    2    1    2    0    0  0.00000000000E+00  0.00000000000E+00  0.45735771403E+03  0.10112655474E+04  0.90193233054E+03 0.  0.
        4    1    3    3  502    0 -0.31194942455E+03 -0.30209599304E+03  0.36505565069E+03  0.56731091431E+03  0.12699999809E+01 0.  1.
       -4    1    3    3    0  502  0.31194942455E+03  0.30209599304E+03  0.92302063336E+02  0.44395463314E+03  0.12699999809E+01 0. -1.
</event>
<event>
 5   0  0.1630202E-03  0.8990677E+03  0.7818609E-02  0.9426748E-01
       -2   -1    0    0    0  501  0.00000000000E+00  0.00000000000E+00  0.17965014153E+03  0.17965014155E+03  0.25500000920E-02 0.  1.
        2   -1    0    0  501    0  0.00000000000E+00  0.00000000000E+00 -0.11248566711E+04  0.11248566711E+04  0.25500000920E-02 0. -1.
    10030    2    1    2    0    0  0.00000000000E+00  0.00000000000E+00 -0.94520652959E+03  0.13045068127E+04  0.89906765080E+03 0.  0.
        4    1    3    3  502    0 -0.38513607557E+03  0.62414711189E+02 -0.14863499296E+03  0.41751570858E+03  0.12699999809E+01 0.  1.
       -4    1    3    3    0  502  0.38513607557E+03 -0.62414711189E+02 -0.79657153662E+03  0.88699110409E+03  0.12699999809E+01 0. -1.
</event>
<event>
 5   0  0.9697941E-04  0.8959443E+03  0.7818609E-02  0.9430666E-01
       -1   -1    0    0    0  501  0.00000000000E+00  0.00000000000E+00  0.65965160284E+03  0.65965160285E+03  0.50400001928E-02 0.  1.
        1   -1    0    0  501    0  0.00000000000E+00  0.00000000000E+00 -0.30421973411E+03  0.30421973415E+03  0.50400001928E-02 0. -1.
    10030    2    1    2    0    0  0.00000000000E+00  0.00000000000E+00  0.35543186872E+03  0.96387133701E+03  0.89594427338E+03 0.  0.
        5    1    3    3  502    0  0.10428083371E+03  0.23685651419E+03 -0.21562906460E+03  0.33688793997E+03  0.46999998093E+01 0. -1.
       -5    1    3    3    0  502 -0.10428083371E+03 -0.23685651419E+03  0.57106093333E+03  0.62698339704E+03  0.46999998093E+01 0.  1.
</event>
<event>
 5   0  0.1704416E-03  0.9012472E+03  0.7818609E-02  0.9424024E-01
        2   -1    0    0  501    0  0.00000000000E+00  0.00000000000E+00  0.50872949844E+03  0.50872949844E+03  0.25500000920E-02 0.  1.
       -2   -1    0    0    0  501  0.00000000000E+00  0.00000000000E+00 -0.39915444877E+03  0.39915444878E+03  0.25500000920E-02 0. -1.
    10030    2    1    2    0    0  0.00000000000E+00  0.00000000000E+00  0.10957504967E+03  0.90788394722E+03  0.90124723029E+03 0.  0.
        3    1    3    3  502    0 -0.20133591125E+03  0.31317756013E+03 -0.20094267359E+03  0.42307718161E+03  0.10100000352E+00 0. -1.
       -3    1    3    3    0  502  0.20133591125E+03 -0.31317756013E+03  0.31051772326E+03  0.48480676561E+03  0.10100000352E+00 0.  1.
</event>
<event>
 5   0  0.1536020E-03  0.9007035E+03  0.7818609E-02  0.9424702E-01
       -2   -1    0    0    0  501  0.00000000000E+00  0.00000000000E+00  0.12417262309E+03  0.12417262311E+03  0.25500000920E-02 0.  1.
        2   -1    0    0  501    0  0.00000000000E+00  0.00000000000E+00 -0.16333445652E+04  0.16333445652E+04  0.25500000920E-02 0. -1.
    10030    2    1    2    0    0  0.00000000000E+00  0.00000000000E+00 -0.15091719421E+04  0.17575171883E+04  0.90070345640E+03 0.  0.
        2    1    3    3  502    0 -0.15856685770E+00 -0.41736603081E+03 -0.10847043009E+04  0.11622296886E+04  0.25500000920E-02 0. -1.
       -2    1    3    3    0  502  0.15856685770E+00  0.41736603081E+03 -0.42446764129E+03  0.59528749972E+03  0.25500000920E-02 0.  1.
</event>
<event>
 5   0  0.9223454E-04  0.9004362E+03  0.7818609E-02  0.9425036E-01
       -1   -1    0    0    0  501  0.00000000000E+00  0.00000000000E+00  0.12710374910E+03  0.12710374920E+03  0.50400001928E-02 0. -1.
        1   -1    0    0  501    0  0.00000000000E+00  0.00000000000E+00 -0.15947313021E+04  0.15947313021E+04  0.50400001928E-02 0.  1.
    10030    2    1    2    0    0  0.00000000000E+00  0.00000000000E+00 -0.14676275530E+04  0.17218350513E+04  0.90043617741E+03 0.  0.
        1    1    3    3  502    0 -0.26652857007E+03  0.35976628622E+03 -0.82405507759E+03  0.93783582268E+03  0.50400001928E-02 0. -1.
       -1    1    3    3    0  502  0.26652857007E+03 -0.35976628622E+03 -0.64357247536E+03  0.78399922859E+03  0.50400001928E-02 0.  1.
</event>
<event>
 5   0  0.1635686E-03  0.8976012E+03  0.7818609E-02  0.9428585E-01
        2   -1    0    0  501    0  0.00000000000E+00  0.00000000000E+00  0.65644256362E+03  0.65644256363E+03  0.25500000920E-02 0. -1.
       -2   -1    0    0    0  501  0.00000000000E+00  0.00000000000E+00 -0.30683868508E+03  0.30683868510E+03  0.25500000920E-02 0.  1.
    10030    2    1    2    0    0  0.00000000000E+00  0.00000000000E+00  0.34960387854E+03  0.96328124872E+03  0.89760118775E+03 0.  0.
        5    1    3    3  502    0 -0.30273574231E+03 -0.29851284610E+03  0.32898455650E+03  0.53759815604E+03  0.46999998093E+01 0.  1.
       -5    1    3    3    0  502  0.30273574231E+03  0.29851284610E+03  0.20619322036E+02  0.42568309269E+03  0.46999998093E+01 0. -1.
</event>
<event>
 5   0  0.1536020E-03  0.9009548E+03  0.7818609E-02  0.9424389E-01
        2   -1    0    0  501    0  0.00000000000E+00  0.00000000000E+00  0.12243997124E+04  0.12243997124E+04  0.25500000920E-02 0.  1.
       -2   -1    0    0    0  501  0.00000000000E+00  0.00000000000E+00 -0.16573826999E+03  0.16573827001E+03  0.25500000920E-02 0. -1.
    10030    2    1    2    0    0  0.00000000000E+00  0.00000000000E+00  0.10586614424E+04  0.13901379825E+04  0.90095480494E+03 0.  0.
        2    1    3    3  502    0  0.25303167198E+03 -0.34777205669E+03  0.73610739134E+03  0.85254004130E+03  0.25500000920E-02 0. -1.
       -2    1    3    3    0  502 -0.25303167198E+03  0.34777205669E+03  0.32255405110E+03  0.53759794115E+03  0.25500000920E-02 0.  1.
</event>
<event>
 5   0  0.9223454E-04  0.9005945E+03  0.7818609E-02  0.9424839E-01
        1   -1    0    0  501    0  0.00000000000E+00  0.00000000000E+00  0.49636711645E+03  0.49636711648E+03  0.50400001928E-02 0.  1.
       -1   -1    0    0    0  501  0.00000000000E+00  0.00000000000E+00 -0.40850332094E+03  0.40850332098E+03  0.50400001928E-02 0. -1.
    10030    2    1    2    0    0  0.00000000000E+00  0.00000000000E+00  0.87863795506E+02  0.90487043745E+03  0.90059450477E+03 0.  0.
        1    1    3    3  502    0  0.45029232137E+03  0.16177313815E+01  0.42575025649E+02  0.45230346513E+03  0.50400001928E-02 0.  1.
       -1    1    3    3    0  502 -0.45029232137E+03 -0.16177313815E+01  0.45288769857E+02  0.45256697232E+03  0.50400001928E-02 0. -1.
</event>
<event>
 5   0  0.1635686E-03  0.8991812E+03  0.7818609E-02  0.9426606E-01
        2   -1    0    0  501    0  0.00000000000E+00  0.00000000000E+00  0.67738287721E+03  0.67738287722E+03  0.25500000920E-02 0. -1.
       -2   -1    0    0    0  501  0.00000000000E+00  0.00000000000E+00 -0.29840098438E+03  0.29840098439E+03  0.25500000920E-02 0.  1.
    10030    2    1    2    0    0  0.00000000000E+00  0.00000000000E+00  0.37898189284E+03  0.97578386160E+03  0.89918122171E+03 0.  0.
        5    1    3    3  502    0 -0.17760082538E+03  0.39919054271E+03  0.74570827725E+02  0.44325843580E+03  0.46999998093E+01 0.  1.
       -5    1    3    3    0  502  0.17760082538E+03 -0.39919054271E+03  0.30441106511E+03  0.53252542580E+03  0.46999998093E+01 0. -1.
</event>
<event>
 5   0  0.6375625E-04  0.8978064E+03  0.7818609E-02  0.9428328E-01
       -4   -1    0    0    0  501  0.00000000000E+00  0.00000000000E+00  0.88241830932E+03  0.88241922323E+03  0.12699999809E+01 0.  1.
        4   -1    0    0  501    0  0.00000000000E+00  0.00000000000E+00 -0.22836293082E+03  0.22836646223E+03  0.12699999809E+01 0. -1.
    10030    2    1    2    0    0  0.00000000000E+00  0.00000000000E+00  0.65405537851E+03  0.11107856855E+04  0.89780643842E+03 0.  0.
        2    1    3    3  502    0  0.18061718523E+03  0.22987312012E+02 -0.18063007932E+03  0.25647262948E+03  0.25500000920E-02 0. -1.
       -2    1    3    3    0  502 -0.18061718523E+03 -0.22987312012E+02  0.83468545782E+03  0.85431305598E+03  0.25500000920E-02 0.  1.
</event>
<event>
 5   0  0.1704416E-03  0.8996111E+03  0.7818609E-02  0.9426068E-01
       -2   -1    0    0    0  501  0.00000000000E+00  0.00000000000E+00  0.10992919925E+04  0.10992919925E+04  0.25500000920E-02 0. -1.
        2   -1    0    0  501    0  0.00000000000E+00  0.00000000000E+00 -0.18405032829E+03  0.18405032831E+03  0.25500000920E-02 0.  1.
    10030    2    1    2    0    0  0.00000000000E+00  0.00000000000E+00  0.91524166422E+03  0.12833423208E+04  0.89961114293E+03 0.  0.
        3    1    3    3  502    0  0.22684789012E+03 -0.10769828663E+03 -0.74745379707E+02  0.26200337437E+03  0.10100000352E+00 0.  1.
       -3    1    3    3    0  502 -0.22684789012E+03  0.10769828663E+03  0.98998704393E+03  0.10213389464E+04  0.10100000352E+00 0. -1.
</event>
<event>
 5   0  0.6375625E-04  0.9014959E+03  0.7818609E-02  0.9423713E-01
        4   -1    0    0  501    0  0.00000000000E+00  0.00000000000E+00  0.16424087311E+03  0.16424578321E+03  0.12699999809E+01 0. -1.
       -4   -1    0    0    0  501  0.00000000000E+00  0.00000000000E+00 -0.12370235339E+04  0.12370241858E+04  0.12699999809E+01 0.  1.
    10030    2    1    2    0    0  0.00000000000E+00  0.00000000000E+00 -0.10727826607E+04  0.14012699690E+04  0.90149591724E+03 0.  0.
        5    1    3    3  502    0  0.24940679012E+03 -0.26457778303E+03 -0.12236926943E+03  0.38366844845E+03  0.46999998093E+01 0.  1.
       -5    1    3    3    0  502 -0.24940679012E+03  0.26457778303E+03 -0.95041339131E+03  0.10176015205E+04  0.46999998093E+01 0. -1.
</event>
<event>
 5   0  0.9697941E-04  0.8999775E+03  0.7818609E-02  0.9425610E-01
        1   -1    0    0  501    0  0.00000000000E+00  0.00000000000E+00  0.51894924122E+03  0.51894924125E+03  0.50400001928E-02 0. -1.
       -1   -1    0    0    0  501  0.00000000000E+00  0.00000000000E+00 -0.39019207274E+03  0.39019207277E+03  0.50400001928E-02 0.  1.
    10030    2    1    2    0    0  0.00000000000E+00  0.00000000000E+00  0.12875716848E+03  0.90914131401E+03  0.89997751106E+03 0.  0.
        5    1    3    3  502    0  0.26253521898E+02  0.38239477765E+03  0.30247487090E+03  0.48829105143E+03  0.46999998093E+01 0. -1.
       -5    1    3    3    0  502 -0.26253521898E+02 -0.38239477765E+03 -0.17371770242E+03  0.42085026258E+03  0.46999998093E+01 0.  1.
</event>
<event>
 5   0  0.1536020E-03  0.9005124E+03  0.7818609E-02  0.9424941E-01
        2   -1    0    0  501    0  0.00000000000E+00  0.00000000000E+00  0.20767122183E+03  0.20767122185E+03  0.25500000920E-02 0. -1.
       -2   -1    0    0    0  501  0.00000000000E+00  0.00000000000E+00 -0.97620963279E+03  0.97620963279E+03  0.25500000920E-02 0.  1.
    10030    2    1    2    0    0  0.00000000000E+00  0.00000000000E+00 -0.76853841096E+03  0.11838808546E+04  0.90051240350E+03 0.  0.
        2    1    3    3  502    0 -0.30217005316E+03 -0.33291035994E+03 -0.41632674430E+03  0.61275117854E+03  0.25500000920E-02 0.  1.
       -2    1    3    3    0  502  0.30217005316E+03  0.33291035994E+03 -0.35221166666E+03  0.57112967609E+03  0.25500000920E-02 0. -1.
</event>
<event>
 5   0  0.1641516E-03  0.8997300E+03  0.7818609E-02  0.9425919E-01
       -2   -1    0    0    0  501  0.00000000000E+00  0.00000000000E+00  0.58079209516E+03  0.58079209517E+03  0.25500000920E-02 0. -1.
        2   -1    0    0  501    0  0.00000000000E+00  0.00000000000E+00 -0.34845262552E+03  0.34845262553E+03  0.25500000920E-02 0.  1.
    10030    2    1    2    0    0  0.00000000000E+00  0.00000000000E+00  0.23233946964E+03  0.92924472070E+03  0.89973002717E+03 0.  0.
        1    1    3    3  502    0  0.39906119807E+03  0.20426839771E+03  0.77482819185E+02  0.45494945368E+03  0.50400001928E-02 0. -1.
       -1    1    3    3    0  502 -0.39906119807E+03 -0.20426839771E+03  0.15485665045E+03  0.47429526702E+03  0.50400001928E-02 0.  1.
</event>
<event>
 5   0  0.1007561E-03  0.9060773E+03  0.7818609E-02  0.9418016E-01
       -1   -1    0    0    0  501  0.00000000000E+00  0.00000000000E+00  0.30052498606E+03  0.30052498610E+03  0.50400001928E-02 0.  1.
        1   -1    0    0  501    0  0.00000000000E+00  0.00000000000E+00 -0.68295163248E+03  0.68295163250E+03  0.50400001928E-02 0. -1.
    10030    2    1    2    0    0  0.00000000000E+00  0.00000000000E+00 -0.38242664642E+03  0.98347661860E+03  0.90607732531E+03 0.  0.
        2    1    3    3  502    0  0.21256369015E+03  0.13340176280E+03 -0.60061283311E+03  0.65093404274E+03  0.25500000920E-02 0. -1.
       -2    1    3    3    0  502 -0.21256369015E+03 -0.13340176280E+03  0.21818618669E+03  0.33254257586E+03  0.25500000920E-02 0.  1.
</event>
<event>
 5   0  0.9321543E-04  0.8946013E+03  0.7818609E-02  0.9432355E-01
       -1   -1    0    0    0  501  0.00000000000E+00  0.00000000000E+00  0.57361140301E+03  0.57361140303E+03  0.50400001928E-02 0. -1.
        1   -1    0    0  501    0  0.00000000000E+00  0.00000000000E+00 -0.34880383187E+03  0.34880383190E+03  0.50400001928E-02 0.  1.
    10030    2    1    2    0    0  0.00000000000E+00  0.00000000000E+00  0.22480757114E+03  0.92241523494E+03  0.89460126403E+03 0.  0.
        3    1    3    3  502    0 -0.10919093428E+03 -0.20905192295E+03  0.50428952402E+03  0.55671653546E+03  0.10100000352E+00 0. -1.
       -3    1    3    3    0  502  0.10919093428E+03  0.20905192295E+03 -0.27948195288E+03  0.36569869948E+03  0.10100000352E+00 0.  1.
</event>
<event>
 5   0  0.1536020E-03  0.8985666E+03  0.7818609E-02  0.9427375E-01
        2   -1    0    0  501    0  0.00000000000E+00  0.00000000000E+00  0.58814302414E+03  0.58814302414E+03  0.25500000920E-02 0. -1.
       -2   -1    0    0    0  501  0.00000000000E+00  0.00000000000E+00 -0.34320814560E+03  0.34320814561E+03  0.25500000920E-02 0.  1.
    10030    2    1    2    0    0  0.00000000000E+00  0.00000000000E+00  0.24493487854E+03  0.93135116975E+03  0.89856658444E+03 0.  0.
        2    1    3    3  502    0 -0.38372144743E+03  0.13372220808E+03  0.32111521459E+03  0.51791771470E+03  0.25500000920E-02 0.  1.
       -2    1    3    3    0  502  0.38372144743E+03 -0.13372220808E+03 -0.76180336049E+02  0.41343345505E+03  0.25500000920E-02 0. -1.
</event>
<event>
 5   0  0.9223454E-04  0.9044578E+03  0.7818609E-02  0.9420026E-01
        1   -1    0    0  501    0  0.00000000000E+00  0.00000000000E+00  0.54437958444E+03  0.54437958446E+03  0.50400001928E-02 0.  1.
       -1   -1    0    0    0  501  0.00000000000E+00  0.00000000000E+00 -0.37567718725E+03  0.37567718729E+03  0.50400001928E-02 0. -1.
    10030    2    1    2    0    0  0.00000000000E+00  0.00000000000E+00  0.16870239719E+03  0.92005677175E+03  0.90445782899E+03 0.  0.
        1    1    3    3  502    0 -0.21118502253E+03  0.10829935232E+03 -0.30723347215E+03  0.38822708547E+03  0.50400001928E-02 0. -1.
       -1    1    3    3    0  502  0.21118502253E+03 -0.10829935232E+03  0.47593586934E+03  0.53182968628E+03  0.50400001928E-02 0.  1.
</event>
<event>
 5   0  0.9223454E-04  0.8997055E+03  0.7818609E-02  0.9425950E-01
        1   -1    0    0  501    0  0.00000000000E+00  0.00000000000E+00  0.48051479171E+03  0.48051479173E+03  0.50400001928E-02 0.  1.
       -1   -1    0    0    0  501  0.00000000000E+00  0.00000000000E+00 -0.42114728692E+03  0.42114728695E+03  0.50400001928E-02 0. -1.
    10030    2    1    2    0    0  0.00000000000E+00  0.00000000000E+00  0.59367504788E+02  0.90166207869E+03  0.89970550933E+03 0.  0.
        1    1    3    3  502    0  0.67065620069E+02  0.29444719991E+03 -0.30446381361E+03  0.42882999517E+03  0.50400001928E-02 0. -1.
       -1    1    3    3    0  502 -0.67065620069E+02 -0.29444719991E+03  0.36383131840E+03  0.47283208352E+03  0.50400001928E-02 0.  1.
</event>
<event>
 5   0  0.1007561E-03  0.8879023E+03  0.7818609E-02  0.9440832E-01
       -1   -1    0    0    0  501  0.00000000000E+00  0.00000000000E+00  0.10810976027E+03  0.10810976038E+03  0.50400001928E-02 0.  1.
        1   -1    0    0  501    0  0.00000000000E+00  0.00000000000E+00 -0.18230787759E+04  0.18230787759E+04  0.50400001928E-02 0. -1.
    10030    2    1    2    0    0  0.00000000000E+00  0.00000000000E+00 -0.17149690156E+04  0.19311885363E+04  0.88790226833E+03 0.  0.
        2    1    3    3  502    0 -0.63147740628E+00 -0.85877242681E+02 -0.18048400241E+04  0.18068820692E+04  0.25500000920E-02 0. -1.
       -2    1    3    3    0  502  0.63147740628E+00  0.85877242681E+02  0.89871008478E+02  0.12430646703E+03  0.25500000920E-02 0.  1.
</event>
<event>
 5   0  0.1630202E-03  0.9056151E+03  0.7818609E-02  0.9418589E-01
        2   -1    0    0  501    0  0.00000000000E+00  0.00000000000E+00  0.21066069274E+04  0.21066069274E+04  0.25500000920E-02 0. -1.
       -2   -1    0    0    0  501  0.00000000000E+00  0.00000000000E+00 -0.97329350713E+02  0.97329350746E+02  0.25500000920E-02 0.  1.
    10030    2    1    2    0    0  0.00000000000E+00  0.00000000000E+00  0.20092775767E+04  0.22039362782E+04  0.90561511580E+03 0.  0.
        4    1    3    3  502    0  0.35371725209E+03 -0.68850513454E+02  0.16719020935E+04  0.17102966148E+04  0.12699999809E+01 0. -1.
       -4    1    3    3    0  502 -0.35371725209E+03  0.68850513454E+02  0.33737548322E+03  0.49363966333E+03  0.12699999809E+01 0.  1.
</event>
<event>
 5   0  0.6375625E-04  0.9004570E+03  0.7818609E-02  0.9425010E-01
       -4   -1    0    0    0  501  0.00000000000E+00  0.00000000000E+00  0.20472905689E+03  0.20473299596E+03  0.12699999809E+01 0. -1.
        4   -1    0    0  501    0  0.00000000000E+00  0.00000000000E+00 -0.99010297792E+03  0.99010379244E+03  0.12699999809E+01 0.  1.
    10030    2    1    2    0    0  0.00000000000E+00  0.00000000000E+00 -0.78537392104E+03  0.11948367884E+04  0.90045697013E+03 0.  0.
        2    1    3    3  502    0 -0.26923818389E+03 -0.34944513162E+03 -0.51214382790E+03  0.67593816296E+03  0.25500000920E-02 0.  1.
       -2    1    3    3    0  502  0.26923818389E+03  0.34944513162E+03 -0.27323009314E+03  0.51889862544E+03  0.25500000920E-02 0. -1.
</event>
<event>
 5   0  0.1630202E-03  0.8990525E+03  0.7818609E-02  0.9426767E-01
        2   -1    0    0  501    0  0.00000000000E+00  0.00000000000E+00  0.41787272607E+03  0.41787272608E+03  0.25500000920E-02 0.  1.
       -2   -1    0    0    0  501  0.00000000000E+00  0.00000000000E+00 -0.48357752979E+03  0.48357752980E+03  0.25500000920E-02 0. -1.
    10030    2    1    2    0    0  0.00000000000E+00  0.00000000000E+00 -0.65704803724E+02  0.90145025587E+03  0.89905252493E+03 0.  0.
        4    1    3    3  502    0  0.16451188628E+01  0.93346361522E+02 -0.47374775924E+03  0.48286105860E+03  0.12699999809E+01 0. -1.
       -4    1    3    3    0  502 -0.16451188628E+01 -0.93346361522E+02  0.40804295552E+03  0.41858919727E+03  0.12699999809E+01 0.  1.
</event>
<event>
 5   0  0.1641516E-03  0.9032830E+03  0.7818609E-02  0.9421487E-01
        2   -1    0    0  501    0  0.00000000000E+00  0.00000000000E+00  0.12361461203E+04  0.12361461204E+04  0.25500000920E-02 0.  1.
       -2   -1    0    0    0  501  0.00000000000E+00  0.00000000000E+00 -0.16501287866E+03  0.16501287868E+03  0.25500000920E-02 0. -1.
    10030    2    1    2    0    0  0.00000000000E+00  0.00000000000E+00  0.10711332417E+04  0.14011589990E+04  0.90328296736E+03 0.  0.
        1    1    3    3  502    0  0.11446513558E+03 -0.39375580426E+03  0.24192877704E+03  0.47610443585E+03  0.50400001928E-02 0. -1.
       -1    1    3    3    0  502 -0.11446513558E+03  0.39375580426E+03  0.82920446464E+03  0.92505456318E+03  0.50400001928E-02 0.  1.
</event>
<event>
 5   0  0.1635686E-03  0.9009027E+03  0.7818609E-02  0.9424454E-01
       -2   -1    0    0    0  501  0.00000000000E+00  0.00000000000E+00  0.33956821047E+03  0.33956821048E+03  0.25500000920E-02 0.  1.
        2   -1    0    0  501    0  0.00000000000E+00  0.00000000000E+00 -0.59754238471E+03  0.59754238472E+03  0.25500000920E-02 0. -1.
    10030    2    1    2    0    0  0.00000000000E+00  0.00000000000E+00 -0.25797417424E+03  0.93711059520E+03  0.90090265460E+03 0.  0.
        5    1    3    3  502    0 -0.24337028155E+03 -0.31911426368E+03 -0.34170876563E+03  0.52711476714E+03  0.46999998093E+01 0. -1.
       -5    1    3    3    0  502  0.24337028155E+03  0.31911426368E+03  0.83734591393E+02  0.40999582806E+03  0.46999998093E+01 0.  1.
</event>
<event>
 5   0  0.1704416E-03  0.8986853E+03  0.7818609E-02  0.9427226E-01
        2   -1    0    0  501    0  0.00000000000E+00  0.00000000000E+00  0.83649421130E+03  0.83649421131E+03  0.25500000920E-02 0. -1.
       -2   -1    0    0    0  501  0.00000000000E+00  0.00000000000E+00 -0.24137503695E+03  0.24137503697E+03  0.25500000920E-02 0.  1.
    10030    2    1    2    0    0  0.00000000000E+00  0.00000000000E+00  0.59511917435E+03  0.10778692483E+04  0.89868530904E+03 0.  0.
        3    1    3    3  502    0  0.23235656918E+03 -0.34009896655E+03  0.51295491801E+03  0.65785989420E+03  0.10100000352E+00 0. -1.
       -3    1    3    3    0  502 -0.23235656918E+03  0.34009896655E+03  0.82164256340E+02  0.42000935407E+03  0.10100000352E+00 0.  1.
</event>
<event>
 5   0  0.1630202E-03  0.9011347E+03  0.7818609E-02  0.9424164E-01
       -2   -1    0    0    0  501  0.00000000000E+00  0.00000000000E+00  0.14436616128E+03  0.14436616131E+03  0.25500000920E-02 0. -1.
        2   -1    0    0  501    0  0.00000000000E+00  0.00000000000E+00 -0.14062224647E+04  0.14062224647E+04  0.25500000920E-02 0.  1.
    10030    2    1    2    0    0  0.00000000000E+00  0.00000000000E+00 -0.12618563034E+04  0.15505886260E+04  0.90113470505E+03 0.  0.
        4    1    3    3  502    0  0.54808966976E+02 -0.42419111707E+03 -0.38717498678E+03  0.57692998705E+03  0.12699999809E+01 0. -1.
       -4    1    3    3    0  502 -0.54808966976E+02  0.42419111707E+03 -0.87468131665E+03  0.97365863898E+03  0.12699999809E+01 0.  1.
</event>
<event>
 5   0  0.9321543E-04  0.8995478E+03  0.7818609E-02  0.9426147E-01
       -1   -1    0    0    0  501  0.00000000000E+00  0.00000000000E+00  0.44252802238E+03  0.44252802240E+03  0.50400001928E-02 0. -1.
        1   -1    0    0  501    0  0.00000000000E+00  0.00000000000E+00 -0.45713844487E+03  0.45713844490E+03  0.50400001928E-02 0.  1.
    10030    2    1    2    0    0  0.00000000000E+00  0.00000000000E+00 -0.14610422498E+02  0.89966646731E+03  0.89954782416E+03 0.  0.
        3    1    3    3  502    0  0.14622756050E+03  0.39554070925E+03  0.14911749383E+03  0.44729295690E+03  0.10100000352E+00 0. -1.
       -3    1    3    3    0  502 -0.14622756050E+03 -0.39554070925E+03 -0.16372791633E+03  0.45237351040E+03  0.10100000352E+00 0.  1.
</event>
<event>
 5   0  0.1007561E-03  0.8988527E+03  0.7818609E-02  0.9427017E-01
       -1   -1    0    0    0  501  0.00000000000E+00  0.00000000000E+00  0.17373439821E+03  0.17373439828E+03  0.50400001928E-02 0. -1.
        1   -1    0    0  501    0  0.00000000000E+00  0.00000000000E+00 -0.11626025149E+04  0.11626025149E+04  0.50400001928E-02 0.  1.
    10030    2    1    2    0    0  0.00000000000E+00  0.00000000000E+00 -0.98886811669E+03  0.13363369132E+04  0.89885270948E+03 0.  0.
        2    1    3    3  502    0  0.26389883274E+03 -0.33353024531E+03 -0.71038677737E+03  0.82797004289E+03  0.25500000920E-02 0.  1.
       -2    1    3    3    0  502 -0.26389883274E+03  0.33353024531E+03 -0.27848133933E+03  0.50836687030E+03  0.25500000920E-02 0. -1.
</event>
<event>
 5   0  0.9321543E-04  0.8999861E+03  0.7818609E-02  0.9425599E-01
        1   -1    0    0  501    0  0.00000000000E+00  0.00000000000E+00  0.73839444372E+03  0.73839444374E+03  0.50400001928E-02 0.  1.
       -1   -1    0    0    0  501  0.00000000000E+00  0.00000000000E+00 -0.27423521169E+03  0.27423521173E+03  0.50400001928E-02 0. -1.
    10030    2    1    2    0    0  0.00000000000E+00  0.00000000000E+00  0.46415923204E+03  0.10126296555E+04  0.89998612571E+03 0.  0.
        3    1    3    3  502    0  0.12852456415E+03 -0.38654124073E+03  0.44722110472E+03  0.60492926949E+03  0.10100000352E+00 0.  1.
       -3    1    3    3    0  502 -0.12852456415E+03  0.38654124073E+03  0.16938127319E+02  0.40770038599E+03  0.10100000352E+00 0. -1.
</event>
<event>
 5   0  0.1630202E-03  0.8997411E+03  0.7818609E-02  0.9425905E-01
        2   -1    0    0  501    0  0.00000000000E+00  0.00000000000E+00  0.12016951230E+04  0.12016951230E+04  0.25500000920E-02 0. -1.
       -2   -1    0    0    0  501  0.00000000000E+00  0.00000000000E+00 -0.16841501147E+03  0.16841501149E+03  0.25500000920E-02 0.  1.
    10030    2    1    2    0    0  0.00000000000E+00  0.00000000000E+00  0.10332801116E+04  0.13701101345E+04  0.89974106930E+03 0.  0.
        4    1    3    3  502    0 -0.46511340553E+01 -0.30895611314E+03  0.18742802772E+02  0.30956165533E+03  0.12699999809E+01 0.  1.
       -4    1    3    3    0  502  0.46511340553E+01  0.30895611314E+03  0.10145373088E+04  0.10605484792E+04  0.12699999809E+01 0. -1.
</event>
<event>
 5   0  0.9223454E-04  0.9011062E+03  0.7818609E-02  0.9424200E-01
       -1   -1    0    0    0  501  0.00000000000E+00  0.00000000000E+00  0.11972762223E+03  0.11972762234E+03  0.50400001928E-02 0. -1.
        1   -1    0    0  501    0  0.00000000000E+00  0.00000000000E+00 -0.16954994088E+04  0.16954994088E+04  0.50400001928E-02 0.  1.
    10030    2    1    2    0    0  0.00000000000E+00  0.00000000000E+00 -0.15757717866E+04  0.18152270311E+04  0.90110623750E+03 0.  0.
        1    1    3    3  502    0 -0.29231758183E+03 -0.25039735365E+02 -0.99071446730E+02  0.30966386386E+03  0.50400001928E-02 0. -1.
       -1    1    3    3    0  502  0.29231758183E+03  0.25039735365E+02 -0.14767003398E+04  0.15055631673E+04  0.50400001928E-02 0.  1.
</event>
<event>
 5   0  0.9697941E-04  0.8995401E+03  0.7818609E-02  0.9426156E-01
        1   -1    0    0  501    0  0.00000000000E+00  0.00000000000E+00  0.67486927703E+03  0.67486927705E+03  0.50400001928E-02 0.  1.
       -1   -1    0    0    0  501  0.00000000000E+00  0.00000000000E+00 -0.29975154537E+03  0.29975154541E+03  0.50400001928E-02 0. -1.
    10030    2    1    2    0    0  0.00000000000E+00  0.00000000000E+00  0.37511773166E+03  0.97462082246E+03  0.89954012415E+03 0.  0.
        5    1    3    3  502    0  0.43762233285E+03 -0.92634450111E+02  0.13701114434E+03  0.46785531014E+03  0.46999998093E+01 0. -1.
       -5    1    3    3    0  502 -0.43762233285E+03  0.92634450111E+02  0.23810658732E+03  0.50676551232E+03  0.46999998093E+01 0.  1.
</event>
<event>
 5   0  0.9223454E-04  0.9011034E+03  0.7818609E-02  0.9424203E-01
        1   -1    0    0  501    0  0.00000000000E+00  0.00000000000E+00  0.79756954387E+03  0.79756954389E+03  0.50400001928E-02 0.  1.
       -1   -1    0    0    0  501  0.00000000000E+00  0.00000000000E+00 -0.25451929116E+03  0.25451929121E+03  0.50400001928E-02 0. -1.
    10030    2    1    2    0    0  0.00000000000E+00  0.00000000000E+00  0.54305025271E+03  0.10520888351E+04  0.90110340137E+03 0.  0.
        1    1    3    3  502    0  0.17406365444E+03  0.31710533656E+03  0.58512402935E+03  0.68791284333E+03  0.50400001928E-02 0.  1.
       -1    1    3    3    0  502 -0.17406365444E+03 -0.31710533656E+03 -0.42073776636E+02  0.36417599177E+03  0.50400001928E-02 0. -1.
</event>
<event>
 5   0  0.1007561E-03  0.9083515E+03  0.7818609E-02  0.9415201E-01
        1   -1    0    0  501    0  0.00000000000E+00  0.00000000000E+00  0.57009410325E+03  0.57009410327E+03  0.50400001928E-02 0.  1.
       -1   -1    0    0    0  501  0.00000000000E+00  0.00000000000E+00 -0.36182733116E+03  0.36182733120E+03  0.50400001928E-02 0. -1.
    10030    2    1    2    0    0  0.00000000000E+00  0.00000000000E+00  0.20826677208E+03  0.93192143447E+03  0.90835153529E+03 0.  0.
        2    1    3    3  502    0 -0.20934841698E+03 -0.40255400357E+03  0.83636433639E+02  0.46138003698E+03  0.25500000920E-02 0.  1.
       -2    1    3    3    0  502  0.20934841698E+03  0.40255400357E+03  0.12463033844E+03  0.47054139749E+03  0.25500000920E-02 0. -1.
</event>
<event>
 5   0  0.1635686E-03  0.8955344E+03  0.7818609E-02  0.9431181E-01
       -2   -1    0    0    0  501  0.00000000000E+00  0.00000000000E+00  0.21297304598E+03  0.21297304600E+03  0.25500000920E-02 0. -1.
        2   -1    0    0  501    0  0.00000000000E+00  0.00000000000E+00 -0.94141230971E+03  0.94141230971E+03  0.25500000920E-02 0.  1.
    10030    2    1    2    0    0  0.00000000000E+00  0.00000000000E+00 -0.72843926373E+03  0.11543853557E+04  0.89553435921E+03 0.  0.
        5    1    3    3  502    0  0.93889818544E+02  0.42943817581E+03 -0.47390916758E+03  0.64640887524E+03  0.46999998093E+01 0.  1.
       -5    1    3    3    0  502 -0.93889818544E+02 -0.42943817581E+03 -0.25453009614E+03  0.50797648047E+03  0.46999998093E+01 0. -1.
</event>
<event>
 5   0  0.1630202E-03  0.9003947E+03  0.7818609E-02  0.9425088E-01
       -2   -1    0    0    0  501  0.00000000000E+00  0.00000000000E+00  0.67721825754E+03  0.67721825754E+03  0.25500000920E-02 0. -1.
        2   -1    0    0  501    0  0.00000000000E+00  0.00000000000E+00 -0.29927966362E+03  0.29927966363E+03  0.25500000920E-02 0.  1.
    10030    2    1    2    0    0  0.00000000000E+00  0.00000000000E+00  0.37793859392E+03  0.97649792117E+03  0.90039469638E+03 0.  0.
        4    1    3    3  502    0 -0.16347320748E+03  0.37522362864E+03  0.39232738933E+03  0.56695560176E+03  0.12699999809E+01 0. -1.
       -4    1    3    3    0  502  0.16347320748E+03 -0.37522362864E+03 -0.14388795410E+02  0.40954231941E+03  0.12699999809E+01 0.  1.
</event>
<event>
 5   0  0.9321543E-04  0.8993669E+03  0.7818609E-02  0.9426373E-01
        1   -1    0    0  501    0  0.00000000000E+00  0.00000000000E+00  0.92747224209E+03  0.92747224210E+03  0.50400001928E-02 0.  1.
       -1   -1    0    0    0  501  0.00000000000E+00  0.00000000000E+00 -0.21802831179E+03  0.21802831185E+03  0.50400001928E-02 0. -1.
    10030    2    1    2    0    0  0.00000000000E+00  0.00000000000E+00  0.70944393030E+03  0.11455005539E+04  0.89936690447E+03 0.  0.
        3    1    3    3  502    0  0.21799988754E+03  0.24691631766E+03  0.74464853717E+03  0.81424386581E+03  0.10100000352E+00 0.  1.
       -3    1    3    3    0  502 -0.21799988754E+03 -0.24691631766E+03 -0.35204606872E+02  0.33125668814E+03  0.10100000352E+00 0. -1.
</event>
<event>
 5   0  0.1007561E-03  0.9020907E+03  0.7818609E-02  0.9422972E-01
       -1   -1    0    0    0  501  0.00000000000E+00  0.00000000000E+00  0.13963137462E+03  0.13963137471E+03  0.50400001928E-02 0.  1.
        1   -1    0    0  501    0  0.00000000000E+00  0.00000000000E+00 -0.14569929050E+04  0.14569929051E+04  0.50400001928E-02 0. -1.
    10030    2    1    2    0    0  0.00000000000E+00  0.00000000000E+00 -0.13173615304E+04  0.15966242798E+04  0.90209073207E+03 0.  0.
        2    1    3    3  502    0  0.14359516195E+03 -0.33714981917E+03 -0.19324903927E+03  0.41428825989E+03  0.25500000920E-02 0.  1.
       -2    1    3    3    0  502 -0.14359516195E+03  0.33714981917E+03 -0.11241124912E+04  0.11823360199E+04  0.25500000920E-02 0. -1.
</event>
<event>
 5   0  0.1536020E-03  0.9020363E+03  0.7818609E-02  0.9423040E-01
       -2   -1    0    0    0  501  0.00000000000E+00  0.00000000000E+00  0.76407469722E+03  0.76407469722E+03  0.25500000920E-02 0.  1.
        2   -1    0    0  501    0  0.00000000000E+00  0.00000000000E+00 -0.26622707973E+03  0.26622707975E+03  0.25500000920E-02 0. -1.
    10030    2    1    2    0    0  0.00000000000E+00  0.00000000000E+00  0.49784761749E+03  0.10303017770E+04  0.90203630824E+03 0.  0.
        2    1    3    3  502    0 -0.13714703383E+03  0.42873847571E+03  0.21679204360E+03  0.49962463872E+03  0.25500000920E-02 0.  1.
       -2    1    3    3    0  502  0.13714703383E+03 -0.42873847571E+03  0.28105557389E+03  0.53067713825E+03  0.25500000920E-02 0. -1.
</event>
<event>
 5   0  0.9223454E-04  0.8994832E+03  0.7818609E-02  0.9426228E-01
       -1   -1    0    0    0  501  0.00000000000E+00  0.00000000000E+00  0.13826370655E+03  0.13826370664E+03  0.50400001928E-02 0. -1.
        1   -1    0    0  501    0  0.00000000000E+00  0.00000000000E+00 -0.14629109083E+04  0.14629109083E+04  0.50400001928E-02 0.  1.
    10030    2    1    2    0    0  0.00000000000E+00  0.00000000000E+00 -0.13246472018E+04  0.16011746150E+04  0.89948315073E+03 0.  0.
        1    1    3    3  502    0 -0.94011060628E+02 -0.43836661888E+03 -0.59903310053E+03  0.74822725667E+03  0.50400001928E-02 0. -1.
       -1    1    3    3    0  502  0.94011060628E+02  0.43836661888E+03 -0.72561410125E+03  0.85294735830E+03  0.50400001928E-02 0.  1.
</event>
<event>
 5   0  0.1630202E-03  0.8998975E+03  0.7818609E-02  0.9425710E-01
        2   -1    0    0  501    0  0.00000000000E+00  0.00000000000E+00  0.33123179501E+03  0.33123179502E+03  0.25500000920E-02 0. -1.
       -2   -1    0    0    0  501  0.00000000000E+00  0.00000000000E+00 -0.61121513819E+03  0.61121513820E+03  0.25500000920E-02 0.  1.
    10030    2    1    2    0    0  0.00000000000E+00  0.00000000000E+00 -0.27998334318E+03  0.94244693322E+03  0.89989752165E+03 0.  0.
        4    1    3    3  502    0 -0.65560822674E+02  0.25707832872E+03 -0.52058166510E+03  0.58428962981E+03  0.12699999809E+01 0.  1.
       -4    1    3    3    0  502  0.65560822674E+02 -0.25707832872E+03  0.24059832192E+03  0.35815730340E+03  0.12699999809E+01 0. -1.
</event>
<event>
 5   0  0.9223454E-04  0.9016588E+03  0.7818609E-02  0.9423510E-01
       -1   -1    0    0    0  501  0.00000000000E+00  0.00000000000E+00  0.16213798908E+03  0.16213798916E+03  0.50400001928E-02 0. -1.
        1   -1    0    0  501    0  0.00000000000E+00  0.00000000000E+00 -0.12535443843E+04  0.12535443843E+04  0.50400001928E-02 0.  1.
    10030    2    1    2    0    0  0.00000000000E+00  0.00000000000E+00 -0.10914063952E+04  0.14156823735E+04  0.90165883960E+03 0.  0.
        1    1    3    3  502    0  0.44790570805E+03 -0.10364386700E+02 -0.46688201034E+03  0.64707476803E+03  0.50400001928E-02 0.  1.
       -1    1    3    3    0  502 -0.44790570805E+03  0.10364386700E+02 -0.62452438490E+03  0.76860760546E+03  0.50400001928E-02 0. -1.
</event>
<event>
 5   0  0.9223454E-04  0.8900076E+03  0.7818609E-02  0.9438159E-01
       -1   -1    0    0    0  501  0.00000000000E+00  0.00000000000E+00  0.51681270827E+03  0.51681270830E+03  0.50400001928E-02 0.  1.
        1   -1    0    0  501    0  0.00000000000E+00  0.00000000000E+00 -0.38317241909E+03  0.38317241913E+03  0.50400001928E-02 0. -1.
    10030    2    1    2    0    0  0.00000000000E+00  0.00000000000E+00  0.13364028918E+03  0.89998512742E+03  0.89000758575E+03 0.  0.
        1    1    3    3  502    0  0.25959067012E+03  0.25799739775E+03  0.32279509175E+03  0.48800270957E+03  0.50400001928E-02 0.  1.
       -1    1    3    3    0  502 -0.25959067012E+03 -0.25799739775E+03 -0.18915480258E+03  0.41198241786E+03  0.50400001928E-02 0. -1.
</event>
<event>
 5   0  0.1704416E-03  0.8997816E+03  0.7818609E-02  0.9425854E-01
       -2   -1    0    0    0  501  0.00000000000E+00  0.00000000000E+00  0.19912898458E+03  0.19912898460E+03  0.25500000920E-02 0.  1.
        2   -1    0    0  501    0  0.00000000000E+00  0.00000000000E+00 -0.10164353162E+04  0.10164353162E+04  0.25500000920E-02 0. -1.
    10030    2    1    2    0    0  0.00000000000E+00  0.00000000000E+00 -0.81730633161E+03  0.12155643008E+04  0.89978160110E+03 0.  0.
        3    1    3    3  502    0 -0.86412664748E+02  0.40041893343E+03 -0.15736375996E+03  0.43882323779E+03  0.10100000352E+00 0.  1.
       -3    1    3    3    0  502  0.86412664748E+02 -0.40041893343E+03 -0.65994257165E+03  0.77674106300E+03  0.10100000352E+00 0. -1.
</event>
<event>
 5   0  0.9697941E-04  0.9001489E+03  0.7818609E-02  0.9425395E-01
       -1   -1    0    0    0  501  0.00000000000E+00  0.00000000000E+00  0.39640313066E+03  0.39640313069E+03  0.50400001928E-02 0. -1.
        1   -1    0    0  501    0  0.00000000000E+00  0.00000000000E+00 -0.51101261584E+03  0.51101261586E+03  0.50400001928E-02 0.  1.
    10030    2    1    2    0    0  0.00000000000E+00  0.00000000000E+00 -0.11460948518E+03  0.90741574656E+03  0.90014887825E+03 0.  0.
        5    1    3    3  502    0  0.20143526651E+02 -0.11968277276E+03 -0.49417986588E+03  0.50888658619E+03  0.46999998093E+01 0.  1.
       -5    1    3    3    0  502 -0.20143526651E+02  0.11968277276E+03  0.37957038070E+03  0.39852916037E+03  0.46999998093E+01 0. -1.
</event>
<event>
 5   0  0.1704416E-03  0.8940165E+03  0.7818609E-02  0.9433092E-01
       -2   -1    0    0    0  501  0.00000000000E+00  0.00000000000E+00  0.22445270014E+03  0.22445270016E+03  0.25500000920E-02 0.  1.
        2   -1    0    0  501    0  0.00000000000E+00  0.00000000000E+00 -0.89023819693E+03  0.89023819693E+03  0.25500000920E-02 0. -1.
    10030    2    1    2    0    0  0.00000000000E+00  0.00000000000E+00 -0.66578549678E+03  0.11146908971E+04  0.89401648101E+03 0.  0.
        3    1    3    3  502    0 -0.32651565180E+02  0.35943972096E+03 -0.66172004309E+03  0.75374827585E+03  0.10100000352E+00 0. -1.
       -3    1    3    3    0  502  0.32651565180E+02 -0.35943972096E+03 -0.40654536909E+01  0.36094262124E+03  0.10100000352E+00 0.  1.
</event>
<event>
 5   0  0.1630202E-03  0.8997314E+03  0.7818609E-02  0.9425917E-01
        2   -1    0    0  501    0  0.00000000000E+00  0.00000000000E+00  0.91258020182E+03  0.91258020182E+03  0.25500000920E-02 0.  1.
       -2   -1    0    0    0  501  0.00000000000E+00  0.00000000000E+00 -0.22176586296E+03  0.22176586298E+03  0.25500000920E-02 0. -1.
    10030    2    1    2    0    0  0.00000000000E+00  0.00000000000E+00  0.69081433886E+03  0.11343460648E+04  0.89973137322E+03 0.  0.
        4    1    3    3  502    0  0.40077736058E+02 -0.15287316012E+03  0.87642713783E+03  0.89056306281E+03  0.12699999809E+01 0.  1.
       -4    1    3    3    0  502 -0.40077736058E+02  0.15287316012E+03 -0.18561279898E+03  0.24378300198E+03  0.12699999809E+01 0. -1.
</event>
<event>
 5   0  0.1704416E-03  0.8990663E+03  0.7818609E-02  0.9426749E-01
        2   -1    0    0  501    0  0.00000000000E+00  0.00000000000E+00  0.42918462321E+03  0.42918462322E+03  0.25500000920E-02 0. -1.
       -2   -1    0    0    0  501  0.00000000000E+00  0.00000000000E+00 -0.47084641634E+03  0.47084641634E+03  0.25500000920E-02 0.  1.
    10030    2    1    2    0    0  0.00000000000E+00  0.00000000000E+00 -0.41661793125E+02  0.90003103956E+03  0.89906627518E+03 0.  0.
        3    1    3    3  502    0  0.36711280204E+03  0.81322973307E+02  0.22579660808E+03  0.43859930898E+03  0.10100000352E+00 0. -1.
       -3    1    3    3    0  502 -0.36711280204E+03 -0.81322973307E+02 -0.26745840121E+03  0.46143173058E+03  0.10100000352E+00 0.  1.
</event>
<event>
 5   0  0.1641516E-03  0.9017467E+03  0.7818609E-02  0.9423401E-01
        2   -1    0    0  501    0  0.00000000000E+00  0.00000000000E+00  0.13166600814E+04  0.13166600814E+04  0.25500000920E-02 0. -1.
       -2   -1    0    0    0  501  0.00000000000E+00  0.00000000000E+00 -0.15439579075E+03  0.15439579077E+03  0.25500000920E-02 0.  1.
    10030    2    1    2    0    0  0.00000000000E+00  0.00000000000E+00  0.11622642906E+04  0.14710558721E+04  0.90174669264E+03 0.  0.
        1    1    3    3  502    0  0.27837858064E+03 -0.25943157992E+03  0.97565825610E+03  0.10472384693E+04  0.50400001928E-02 0. -1.
       -1    1    3    3    0  502 -0.27837858064E+03  0.25943157992E+03  0.18660603452E+03  0.42381740285E+03  0.50400001928E-02 0.  1.
</event>
<event>
 5   0  0.1007561E-03  0.9000743E+03  0.7818609E-02  0.9425489E-01
        1   -1    0    0  501    0  0.00000000000E+00  0.00000000000E+00  0.64855745612E+03  0.64855745614E+03  0.50400001928E-02 0.  1.
       -1   -1    0    0    0  501  0.00000000000E+00  0.00000000000E+00 -0.31228294882E+03  0.31228294886E+03  0.50400001928E-02 0. -1.
    10030    2    1    2    0    0  0.00000000000E+00  0.00000000000E+00  0.33627450730E+03  0.96084040499E+03  0.90007429671E+03 0.  0.
        2    1    3    3  502    0 -0.38367502180E+03 -0.22574097950E+03  0.97585084520E+02  0.45572838501E+03  0.25500000920E-02 0. -1.
       -2    1    3    3    0  502  0.38367502180E+03  0.22574097950E+03  0.23868942278E+03  0.50511201998E+03  0.25500000920E-02 0.  1.
</event>
<event>
 5   0  0.9981885E-04  0.8990269E+03  0.7818609E-02  0.9426799E-01
       -1   -1    0    0    0  501  0.00000000000E+00  0.00000000000E+00  0.13492684152E+03  0.13492684161E+03  0.50400001928E-02 0. -1.
        1   -1    0    0  501    0  0.00000000000E+00  0.00000000000E+00 -0.14975697697E+04  0.14975697697E+04  0.50400001928E-02 0.  1.
    10030    2    1    2    0    0  0.00000000000E+00  0.00000000000E+00 -0.13626429281E+04  0.16324966113E+04  0.89902693855E+03 0.  0.
        4    1    3    3  502    0 -0.11396950069E+03 -0.22582331700E+03 -0.65791589595E+01  0.25304172743E+03  0.12699999809E+01 0. -1.
       -4    1    3    3    0  502  0.11396950069E+03  0.22582331700E+03 -0.13560637692E+04  0.13794548838E+04  0.12699999809E+01 0.  1.
</event>
<event>
 5   0  0.1635686E-03  0.8946187E+03  0.7818609E-02  0.9432333E-01
        2   -1    0    0  501    0  0.00000000000E+00  0.00000000000E+00  0.86968963310E+03  0.86968963311E+03  0.25500000920E-02 0.  1.
       -2   -1    0    0    0  501  0.00000000000E+00  0.00000000000E+00 -0.23006557260E+03  0.23006557261E+03  0.25500000920E-02 0. -1.
    10030    2    1    2    0    0  0.00000000000E+00  0.00000000000E+00  0.63962406051E+03  0.10997552057E+04  0.89461867503E+03 0.  0.
        5    1    3    3  502    0 -0.55647647056E+01  0.39544899183E+03  0.57665254458E+03  0.69925754834E+03  0.46999998093E+01 0.  1.
       -5    1    3    3    0  502  0.55647647056E+01 -0.39544899183E+03  0.62971515935E+02  0.40049765738E+03  0.46999998093E+01 0. -1.
</event>
<event>
 5   0  0.9223454E-04  0.9000018E+03  0.7818609E-02  0.9425579E-01
       -1   -1    0    0    0  501  0.00000000000E+00  0.00000000000E+00  0.69697569657E+03  0.69697569659E+03  0.50400001928E-02 0. -1.
        1   -1    0    0  501    0  0.00000000000E+00  0.00000000000E+00 -0.29054212467E+03  0.29054212471E+03  0.50400001928E-02 0.  1.
    10030    2    1    2    0    0  0.00000000000E+00  0.00000000000E+00  0.40643357190E+03  0.98751782130E+03  0.90000177723E+03 0.  0.
        1    1    3    3  502    0  0.28645736049E+03  0.11600018401E+02  0.58379996224E+03  0.65039586080E+03  0.50400001928E-02 0. -1.
       -1    1    3    3    0  502 -0.28645736049E+03 -0.11600018401E+02 -0.17736639034E+03  0.33712196050E+03  0.50400001928E-02 0.  1.
</event>
<event>
 5   0  0.9981885E-04  0.8982723E+03  0.7818609E-02  0.9427744E-01
        1   -1    0    0  501    0  0.00000000000E+00  0.00000000000E+00  0.11608828674E+04  0.11608828675E+04  0.50400001928E-02 0.  1.
       -1   -1    0    0    0  501  0.00000000000E+00  0.00000000000E+00 -0.17376713942E+03  0.17376713949E+03  0.50400001928E-02 0. -1.
    10030    2    1    2    0    0  0.00000000000E+00  0.00000000000E+00  0.98711572803E+03  0.13346500069E+04  0.89827233093E+03 0.  0.
        4    1    3    3  502    0  0.26231817425E+03  0.35469675360E+03  0.36835297490E+03  0.57472266231E+03  0.12699999809E+01 0. -1.
       -4    1    3    3    0  502 -0.26231817425E+03 -0.35469675360E+03  0.61876275313E+03  0.75992734463E+03  0.12699999809E+01 0.  1.
</event>
<event>
 5   0  0.9697941E-04  0.9000652E+03  0.7818609E-02  0.9425500E-01
        1   -1    0    0  501    0  0.00000000000E+00  0.00000000000E+00  0.12916704202E+04  0.12916704202E+04  0.50400001928E-02 0. -1.
       -1   -1    0    0    0  501  0.00000000000E+00  0.00000000000E+00 -0.15679644073E+03  0.15679644081E+03  0.50400001928E-02 0.  1.
    10030    2    1    2    0    0  0.00000000000E+00  0.00000000000E+00  0.11348739794E+04  0.14484668610E+04  0.90006516330E+03 0.  0.
        5    1    3    3  502    0 -0.13571810636E+03  0.14233098702E+03 -0.83937814502E+02  0.21388118422E+03  0.46999998093E+01 0.  1.
       -5    1    3    3    0  502  0.13571810636E+03 -0.14233098702E+03  0.12188117939E+04  0.12345856768E+04  0.46999998093E+01 0. -1.
</event>
<event>
 5   0  0.1630202E-03  0.8993459E+03  0.7818609E-02  0.9426400E-01
        2   -1    0    0  501    0  0.00000000000E+00  0.00000000000E+00  0.97173661158E+03  0.97173661158E+03  0.25500000920E-02 0. -1.
       -2   -1    0    0    0  501  0.00000000000E+00  0.00000000000E+00 -0.20808698273E+03  0.20808698274E+03  0.25500000920E-02 0.  1.
    10030    2    1    2    0    0  0.00000000000E+00  0.00000000000E+00  0.76364962885E+03  0.11798235943E+04  0.89934585010E+03 0.  0.
        4    1    3    3  502    0  0.30781857275E+03  0.22328276872E+03  0.69666414812E+03  0.79369390618E+03  0.12699999809E+01 0. -1.
       -4    1    3    3    0  502 -0.30781857275E+03 -0.22328276872E+03  0.66985480731E+02  0.38612968814E+03  0.12699999809E+01 0.  1.
</event>
<event>
 5   0  0.9223454E-04  0.9049688E+03  0.7818609E-02  0.9419391E-01
        1   -1    0    0  501    0  0.00000000000E+00  0.00000000000E+00  0.72187326103E+03  0.72187326105E+03  0.50400001928E-02 0.  1.
       -1   -1    0    0    0  501  0.00000000000E+00  0.00000000000E+00 -0.28362617671E+03  0.28362617675E+03  0.50400001928E-02 0. -1.
    10030    2    1    2    0    0  0.00000000000E+00  0.00000000000E+00  0.43824708432E+03  0.10054994378E+04  0.90496884615E+03 0.  0.
        1    1    3    3  502    0 -0.16836409316E+02 -0.33204103302E+03  0.56015214553E+03  0.65138708803E+03  0.50400001928E-02 0.  1.
       -1    1    3    3    0  502  0.16836409316E+02  0.33204103302E+03 -0.12190506121E+03  0.35411234977E+03  0.50400001928E-02 0. -1.
</event>
<event>
 5   0  0.1536020E-03  0.8979650E+03  0.7818609E-02  0.9428129E-01
       -2   -1    0    0    0  501  0.00000000000E+00  0.00000000000E+00  0.50257015694E+03  0.50257015695E+03  0.25500000920E-02 0.  1.
        2   -1    0    0  501    0  0.00000000000E+00  0.00000000000E+00 -0.40110874356E+03  0.40110874357E+03  0.25500000920E-02 0. -1.
    10030    2    1    2    0    0  0.00000000000E+00  0.00000000000E+00  0.10146141338E+03  0.90367890052E+03  0.89796499755E+03 0.  0.
        2    1    3    3  502    0  0.86772537463E+02 -0.30575045609E+03 -0.26841888354E+03  0.41600662459E+03  0.25500000920E-02 0. -1.
       -2    1    3    3    0  502 -0.86772537463E+02  0.30575045609E+03  0.36988029692E+03  0.48767227593E+03  0.25500000920E-02 0.  1.
</event>
<event>
 5   0  0.1635686E-03  0.8997914E+03  0.7818609E-02  0.9425842E-01
        2   -1    0    0  501    0  0.00000000000E+00  0.00000000000E+00  0.36047716467E+03  0.36047716468E+03  0.25500000920E-02 0. -1.
       -2   -1    0    0    0  501  0.00000000000E+00  0.00000000000E+00 -0.56149505242E+03  0.56149505242E+03  0.25500000920E-02 0.  1.
    10030    2    1    2    0    0  0.00000000000E+00  0.00000000000E+00 -0.20101788775E+03  0.92197221710E+03  0.89979140800E+03 0.  0.
        5    1    3    3  502    0 -0.72037865395E+02  0.20183205525E+03  0.30478999345E+03  0.37261865585E+03  0.46999998093E+01 0. -1.
       -5    1    3    3    0  502  0.72037865395E+02 -0.20183205525E+03 -0.50580788120E+03  0.54935356125E+03  0.46999998093E+01 0.  1.
</event>
<event>
 5   0  0.9321543E-04  0.8997712E+03  0.7818609E-02  0.9425867E-01
       -1   -1    0    0    0  501  0.00000000000E+00  0.00000000000E+00  0.34367386886E+03  0.34367386890E+03  0.50400001928E-02 0.  1.
        1   -1    0    0  501    0  0.00000000000E+00  0.00000000000E+00 -0.58892191710E+03  0.58892191712E+03  0.50400001928E-02 0. -1.
    10030    2    1    2    0    0  0.00000000000E+00  0.00000000000E+00 -0.24524804824E+03  0.93259578602E+03  0.89977124590E+03 0.  0.
        3    1    3    3  502    0 -0.28546111681E+03  0.22827026484E+03  0.14924574898E+03  0.39480332674E+03  0.10100000352E+00 0.  1.
       -3    1    3    3    0  502  0.28546111681E+03 -0.22827026484E+03 -0.39449379721E+03  0.53779245928E+03  0.10100000352E+00 0. -1.
</event>
<event>
 5   0  0.6375625E-04  0.9001946E+03  0.7818609E-02  0.9425338E-01
        3   -1    0    0  501    0  0.00000000000E+00  0.00000000000E+00  0.66999789415E+03  0.66999790177E+03  0.10100000352E+00 0.  1.
       -3   -1    0    0    0  501  0.00000000000E+00  0.00000000000E+00 -0.30237047289E+03  0.30237048976E+03  0.10100000352E+00 0. -1.
    10030    2    1    2    0    0  0.00000000000E+00  0.00000000000E+00  0.36762742127E+03  0.97236839152E+03  0.90019462783E+03 0.  0.
        1    1    3    3  502    0  0.79414389117E+02 -0.42162050017E+03  0.33080138183E+03  0.54175644491E+03  0.50400001928E-02 0.  1.
       -1    1    3    3    0  502 -0.79414389117E+02  0.42162050017E+03  0.36826039441E+02  0.43061194661E+03  0.50400001928E-02 0. -1.
</event>
<event>
 5   0  0.9697941E-04  0.9001901E+03  0.7818609E-02  0.9425344E-01
        1   -1    0    0  501    0  0.00000000000E+00  0.00000000000E+00  0.11071054384E+04  0.11071054384E+04  0.50400001928E-02 0. -1.
       -1   -1    0    0    0  501  0.00000000000E+00  0.00000000000E+00 -0.18298667077E+03  0.18298667084E+03  0.50400001928E-02 0.  1.
    10030    2    1    2    0    0  0.00000000000E+00  0.00000000000E+00  0.92411876758E+03  0.12900921092E+04  0.90019006527E+03 0.  0.
        5    1    3    3  502    0 -0.43026745086E+03  0.58050741320E+02  0.29210478838E+03  0.52330418041E+03  0.46999998093E+01 0.  1.
       -5    1    3    3    0  502  0.43026745086E+03 -0.58050741320E+02  0.63201397920E+03  0.76678792879E+03  0.46999998093E+01 0. -1.
</event>
<event>
 5   0  0.1536020E-03  0.9014418E+03  0.7818609E-02  0.9423781E-01
        2   -1    0    0  501    0  0.00000000000E+00  0.00000000000E+00  0.10335205475E+03  0.10335205478E+03  0.25500000920E-02 0. -1.
       -2   -1    0    0    0  501  0.00000000000E+00  0.00000000000E+00 -0.19656051894E+04  0.19656051894E+04  0.25500000920E-02 0.  1.
    10030    2    1    2    0    0  0.00000000000E+00  0.00000000000E+00 -0.18622531347E+04  0.20689572442E+04  0.90144181220E+03 0.  0.
        2    1    3    3  502    0  0.41126148894E+03  0.16654962128E+03 -0.74932191586E+03  0.87083759808E+03  0.25500000920E-02 0.  1.
       -2    1    3    3    0  502 -0.41126148894E+03 -0.16654962128E+03 -0.11129312188E+04  0.11981196461E+04  0.25500000920E-02 0. -1.
</event>
<event>
 5   0  0.9981885E-04  0.8997234E+03  0.7818609E-02  0.9425927E-01
        1   -1    0    0  501    0  0.00000000000E+00  0.00000000000E+00  0.29252526035E+04  0.29252526035E+04  0.50400001928E-02 0. -1.
       -1   -1    0    0    0  501  0.00000000000E+00  0.00000000000E+00 -0.69182243714E+02  0.69182243898E+02  0.50400001928E-02 0.  1.
    10030    2    1    2    0    0  0.00000000000E+00  0.00000000000E+00  0.28560703598E+04  0.29944348474E+04  0.89972337709E+03 0.  0.
        4    1    3    3  502    0  0.42589212015E+02 -0.41470096096E+03  0.86535544813E+03  0.96053755393E+03  0.12699999809E+01 0.  1.
       -4    1    3    3    0  502 -0.42589212015E+02  0.41470096096E+03  0.19907149117E+04  0.20338972935E+04  0.12699999809E+01 0. -1.
</event>
<event>
 5   0  0.1704416E-03  0.8990549E+03  0.7818609E-02  0.9426764E-01
        2   -1    0    0  501    0  0.00000000000E+00  0.00000000000E+00  0.14510244104E+04  0.14510244104E+04  0.25500000920E-02 0.  1.
       -2   -1    0    0    0  501  0.00000000000E+00  0.00000000000E+00 -0.13926363136E+03  0.13926363138E+03  0.25500000920E-02 0. -1.
    10030    2    1    2    0    0  0.00000000000E+00  0.00000000000E+00  0.13117607791E+04  0.15902880418E+04  0.89905490067E+03 0.  0.
        3    1    3    3  502    0 -0.32883183917E+02 -0.34107005059E+03  0.11705649190E+04  0.12196853377E+04  0.10100000352E+00 0.  1.
       -3    1    3    3    0  502  0.32883183917E+02  0.34107005059E+03  0.14119586007E+03  0.37060270411E+03  0.10100000352E+00 0. -1.
</event>
<event>
 5   0  0.1635686E-03  0.8999851E+03  0.7818609E-02  0.9425600E-01
       -2   -1    0    0    0  501  0.00000000000E+00  0.00000000000E+00  0.38836971819E+03  0.38836971820E+03  0.25500000920E-02 0. -1.
        2   -1    0    0  501    0  0.00000000000E+00  0.00000000000E+00 -0.52139308453E+03  0.52139308453E+03  0.25500000920E-02 0.  1.
    10030    2    1    2    0    0  0.00000000000E+00  0.00000000000E+00 -0.13302336633E+03  0.90976280274E+03  0.89998507835E+03 0.  0.
        5    1    3    3  502    0  0.22542319757E+03 -0.18733565969E+03  0.27860771075E+03  0.40441885945E+03  0.46999998093E+01 0. -1.
       -5    1    3    3    0  502 -0.22542319757E+03  0.18733565969E+03 -0.41163107708E+03  0.50534394328E+03  0.46999998093E+01 0.  1.
</event>
<event>
 5   0  0.1630202E-03  0.8982905E+03  0.7818609E-02  0.9427721E-01
       -2   -1    0    0    0  501  0.00000000000E+00  0.00000000000E+00  0.23060495926E+03  0.23060495928E+03  0.25500000920E-02 0.  1.
        2   -1    0    0  501    0  0.00000000000E+00  0.00000000000E+00 -0.87479238355E+03  0.87479238355E+03  0.25500000920E-02 0. -1.
    10030    2    1    2    0    0  0.00000000000E+00  0.00000000000E+00 -0.64418742428E+03  0.11053973428E+04  0.89829051422E+03 0.  0.
        4    1    3    3  502    0  0.33973703674E+03  0.21163673631E+02  0.38483934210E+02  0.34256646261E+03  0.12699999809E+01 0.  1.
       -4    1    3    3    0  502 -0.33973703674E+03 -0.21163673631E+02 -0.68267135849E+03  0.76283088022E+03  0.12699999809E+01 0. -1.
</event>
<event>
 5   0  0.9981885E-04  0.8996835E+03  0.7818609E-02  0.9425977E-01
        1   -1    0    0  501    0  0.00000000000E+00  0.00000000000E+00  0.49527278884E+03  0.49527278887E+03  0.50400001928E-02 0. -1.
       -1   -1    0    0    0  501  0.00000000000E+00  0.00000000000E+00 -0.40857803459E+03  0.40857803462E+03  0.50400001928E-02 0.  1.
    10030    2    1    2    0    0  0.00000000000E+00  0.00000000000E+00  0.86694754253E+02  0.90385082349E+03  0.89968346140E+03 0.  0.
        4    1    3    3  502    0 -0.26818197038E+03 -0.13314834551E+03 -0.29392469633E+03  0.41957525089E+03  0.12699999809E+01 0.  1.
       -4    1    3    3    0  502  0.26818197038E+03  0.13314834551E+03  0.38061945059E+03  0.48427557260E+03  0.12699999809E+01 0. -1.
</event>
<event>
 5   0  0.1641516E-03  0.9001265E+03  0.7818609E-02  0.9425423E-01
        2   -1    0    0  501    0  0.00000000000E+00  0.00000000000E+00  0.30723766241E+03  0.30723766242E+03  0.25500000920E-02 0.  1.
       -2   -1    0    0    0  501  0.00000000000E+00  0.00000000000E+00 -0.65928412144E+03  0.65928412145E+03  0.25500000920E-02 0. -1.
    10030    2    1    2    0    0  0.00000000000E+00  0.00000000000E+00 -0.35204645904E+03  0.96652178386E+03  0.90012646298E+03 0.  0.
        1    1    3    3  502    0  0.29780568095E+03 -0.31208196481E+03 -0.38206629663E+02  0.43306249311E+03  0.50400001928E-02 0.  1.
       -1    1    3    3    0  502 -0.29780568095E+03  0.31208196481E+03 -0.31383982937E+03  0.53345929075E+03  0.50400001928E-02 0. -1.
</event>
<event>
 5   0  0.9981885E-04  0.8982027E+03  0.7818609E-02  0.9427831E-01
       -1   -1    0    0    0  501  0.00000000000E+00  0.00000000000E+00  0.52858154473E+03  0.52858154476E+03  0.50400001928E-02 0.  1.
        1   -1    0    0  501    0  0.00000000000E+00  0.00000000000E+00 -0.38157216806E+03  0.38157216809E+03  0.50400001928E-02 0. -1.
    10030    2    1    2    0    0  0.00000000000E+00  0.00000000000E+00  0.14700937667E+03  0.91015371285E+03  0.89820266320E+03 0.  0.
        4    1    3    3  502    0 -0.26837188566E+03  0.34420311165E+03  0.18070044916E+03  0.47239127459E+03  0.12699999809E+01 0.  1.
       -4    1    3    3    0  502  0.26837188566E+03 -0.34420311165E+03 -0.33691072484E+02  0.43776243826E+03  0.12699999809E+01 0. -1.
</event>
<event>
 5   0  0.1630202E-03  0.8987440E+03  0.7818609E-02  0.9427153E-01
       -2   -1    0    0    0  501  0.00000000000E+00  0.00000000000E+00  0.41994553533E+03  0.41994553534E+03  0.25500000920E-02 0.  1.
        2   -1    0    0  501    0  0.00000000000E+00  0.00000000000E+00 -0.48086047453E+03  0.48086047453E+03  0.25500000920E-02 0. -1.
    10030    2    1    2    0    0  0.00000000000E+00  0.00000000000E+00 -0.60914939196E+02  0.90080600987E+03  0.89874403341E+03 0.  0.
        4    1    3    3  502    0 -0.24116152336E+02 -0.44472134785E+03  0.29470429676E+02  0.44635051827E+03  0.12699999809E+01 0.  1.
       -4    1    3    3    0  502  0.24116152336E+02  0.44472134785E+03 -0.90385368872E+02  0.45445549160E+03  0.12699999809E+01 0. -1.
</event>
<event>
 5   0  0.9223454E-04  0.8996957E+03  0.7818609E-02  0.9425962E-01
       -1   -1    0    0    0  501  0.00000000000E+00  0.00000000000E+00  0.11606807916E+03  0.11606807927E+03  0.50400001928E-02 0. -1.
        1   -1    0    0  501    0  0.00000000000E+00  0.00000000000E+00 -0.17434859527E+04  0.17434859527E+04  0.50400001928E-02 0.  1.
    10030    2    1    2    0    0  0.00000000000E+00  0.00000000000E+00 -0.16274178735E+04  0.18595540319E+04  0.89969565003E+03 0.  0.
        1    1    3    3  502    0  0.37054666863E+02  0.24694930327E+03 -0.15870776463E+04  0.16066027705E+04  0.50400001928E-02 0.  1.
       -1    1    3    3    0  502 -0.37054666863E+02 -0.24694930327E+03 -0.40340227228E+02  0.25295126147E+03  0.50400001928E-02 0. -1.
</event>
<event>
 5   0  0.1635686E-03  0.9006401E+03  0.7818609E-02  0.9424782E-01
        2   -1    0    0  501    0  0.00000000000E+00  0.00000000000E+00  0.56092229232E+03  0.56092229233E+03  0.25500000920E-02 0. -1.
       -2   -1    0    0    0  501  0.00000000000E+00  0.00000000000E+00 -0.36152627613E+03  0.36152627614E+03  0.25500000920E-02 0.  1.
    10030    2    1    2    0    0  0.00000000000E+00  0.00000000000E+00  0.19939601619E+03  0.92244856847E+03  0.90064010026E+03 0.  0.
        5    1    3    3  502    0 -0.31891754329E+03 -0.15852671436E+03 -0.18252266757E+03  0.40021960567E+03  0.46999998093E+01 0.  1.
       -5    1    3    3    0  502  0.31891754329E+03  0.15852671436E+03  0.38191868376E+03  0.52222896280E+03  0.46999998093E+01 0. -1.
</event>
<event>
 5   0  0.1635686E-03  0.9012182E+03  0.7818609E-02  0.9424060E-01
        2   -1    0    0  501    0  0.00000000000E+00  0.00000000000E+00  0.11146794133E+04  0.11146794133E+04  0.25500000920E-02 0.  1.
       -2   -1    0    0    0  501  0.00000000000E+00  0.00000000000E+00 -0.18215870793E+03  0.18215870795E+03  0.25500000920E-02 0. -1.
    10030    2    1    2    0    0  0.00000000000E+00  0.00000000000E+00  0.93252070532E+03  0.12968381212E+04  0.90121820153E+03 0.  0.
        5    1    3    3  502    0 -0.17156019097E+03 -0.27035042846E+03  0.92245266166E+03  0.97645443124E+03  0.46999998093E+01 0.  1.
       -5    1    3    3    0  502  0.17156019097E+03  0.27035042846E+03  0.10068043659E+02  0.32038368996E+03  0.46999998093E+01 0. -1.
</event>
<event>
 5   0  0.1536020E-03  0.9012414E+03  0.7818609E-02  0.9424031E-01
        2   -1    0    0  501    0  0.00000000000E+00  0.00000000000E+00  0.93363434876E+03  0.93363434876E+03  0.25500000920E-02 0.  1.
       -2   -1    0    0    0  501  0.00000000000E+00  0.00000000000E+00 -0.21749310483E+03  0.21749310484E+03  0.25500000920E-02 0. -1.
    10030    2    1    2    0    0  0.00000000000E+00  0.00000000000E+00  0.71614124393E+03  0.11511274536E+04  0.90124144001E+03 0.  0.
        2    1    3    3  502    0 -0.87336437244E+02 -0.18316207126E+03 -0.15583447934E+03  0.25585226709E+03  0.25500000920E-02 0. -1.
       -2    1    3    3    0  502  0.87336437244E+02  0.18316207126E+03  0.87197572327E+03  0.89527518652E+03  0.25500000920E-02 0.  1.
</event>
<event>
 5   0  0.1536020E-03  0.9033271E+03  0.7818609E-02  0.9421432E-01
        2   -1    0    0  501    0  0.00000000000E+00  0.00000000000E+00  0.12977462738E+04  0.12977462738E+04  0.25500000920E-02 0.  1.
       -2   -1    0    0    0  501  0.00000000000E+00  0.00000000000E+00 -0.15719557112E+03  0.15719557114E+03  0.25500000920E-02 0. -1.
    10030    2    1    2    0    0  0.00000000000E+00  0.00000000000E+00  0.11405507027E+04  0.14549418449E+04  0.90332710951E+03 0.  0.
        2    1    3    3  502    0 -0.31205138765E+03  0.18938802217E+03  0.99870790071E+03  0.10633256145E+04  0.25500000920E-02 0.  1.
       -2    1    3    3    0  502  0.31205138765E+03 -0.18938802217E+03  0.14184280196E+03  0.39161623045E+03  0.25500000920E-02 0. -1.
</event>
<event>
 5   0  0.1641516E-03  0.9013144E+03  0.7818609E-02  0.9423940E-01
       -2   -1    0    0    0  501  0.00000000000E+00  0.00000000000E+00  0.61197387817E+03  0.61197387817E+03  0.25500000920E-02 0.  1.
        2   -1    0    0  501    0  0.00000000000E+00  0.00000000000E+00 -0.33186370275E+03  0.33186370276E+03  0.25500000920E-02 0. -1.
    10030    2    1    2    0    0  0.00000000000E+00  0.00000000000E+00  0.28011017542E+03  0.94383758093E+03  0.90131441173E+03 0.  0.
        1    1    3    3  502    0  0.27994105312E+03 -0.19968571650E+03 -0.16497891384E+03  0.38139142706E+03  0.50400001928E-02 0. -1.
       -1    1    3    3    0  502 -0.27994105312E+03  0.19968571650E+03  0.44508908926E+03  0.56244615387E+03  0.50400001928E-02 0.  1.
</event>
<event>
 5   0  0.9321543E-04  0.8994274E+03  0.7818609E-02  0.9426298E-01
       -1   -1    0    0    0  501  0.00000000000E+00  0.00000000000E+00  0.13615748779E+04  0.13615748779E+04  0.50400001928E-02 0. -1.
        1   -1    0    0  501    0  0.00000000000E+00  0.00000000000E+00 -0.14853563804E+03  0.14853563813E+03  0.50400001928E-02 0.  1.
    10030    2    1    2    0    0  0.00000000000E+00  0.00000000000E+00  0.12130392399E+04  0.15101105161E+04  0.89942735850E+03 0.  0.
        3    1    3    3  502    0 -0.13358322828E+03  0.35339588482E+03  0.10160959846E+04  0.10840591268E+04  0.10100000352E+00 0. -1.
       -3    1    3    3    0  502  0.13358322828E+03 -0.35339588482E+03  0.19694325528E+03  0.42605138926E+03  0.10100000352E+00 0.  1.
</event>
<event>
 5   0  0.9321543E-04  0.8996307E+03  0.7818609E-02  0.9426043E-01
        1   -1    0    0  501    0  0.00000000000E+00  0.00000000000E+00  0.97157662906E+03  0.97157662908E+03  0.50400001928E-02 0.  1.
       -1   -1    0    0    0  501  0.00000000000E+00  0.00000000000E+00 -0.20825308411E+03  0.20825308417E+03  0.50400001928E-02 0. -1.
    10030    2    1    2    0    0  0.00000000000E+00  0.00000000000E+00  0.76332354495E+03  0.11798297133E+04  0.89963065643E+03 0.  0.
        3    1    3    3  502    0 -0.55352659002E+02  0.10105231696E+03 -0.18857207687E+03  0.22098625749E+03  0.10100000352E+00 0. -1.
       -3    1    3    3    0  502  0.55352659002E+02 -0.10105231696E+03  0.95189562182E+03  0.95884345576E+03  0.10100000352E+00 0.  1.
</event>
<event>
 5   0  0.6375625E-04  0.8995042E+03  0.7818609E-02  0.9426201E-01
        3   -1    0    0  501    0  0.00000000000E+00  0.00000000000E+00  0.24549131070E+03  0.24549133147E+03  0.10100000352E+00 0.  1.
       -3   -1    0    0    0  501  0.00000000000E+00  0.00000000000E+00 -0.82396774539E+03  0.82396775159E+03  0.10100000352E+00 0. -1.
    10030    2    1    2    0    0  0.00000000000E+00  0.00000000000E+00 -0.57847643470E+03  0.10694590831E+04  0.89950416610E+03 0.  0.
        4    1    3    3  502    0  0.52843251073E+02 -0.28714223824E+03  0.11749886588E+03  0.31472316494E+03  0.12699999809E+01 0.  1.
       -4    1    3    3    0  502 -0.52843251073E+02  0.28714223824E+03 -0.69597530058E+03  0.75473591811E+03  0.12699999809E+01 0. -1.
</event>
<event>
 5   0  0.1704416E-03  0.8994923E+03  0.7818609E-02  0.9426216E-01
        2   -1    0    0  501    0  0.00000000000E+00  0.00000000000E+00  0.33249027579E+03  0.33249027580E+03  0.25500000920E-02 0. -1.
       -2   -1    0    0    0  501  0.00000000000E+00  0.00000000000E+00 -0.60835344941E+03  0.60835344941E+03  0.25500000920E-02 0.  1.
    10030    2    1    2    0    0  0.00000000000E+00  0.00000000000E+00 -0.27586317362E+03  0.94084372521E+03  0.89949231498E+03 0.  0.
        3    1    3    3  502    0 -0.39299696580E+03  0.21776240159E+03 -0.11689435529E+03  0.46425357207E+03  0.10100000352E+00 0.  1.
       -3    1    3    3    0  502  0.39299696580E+03 -0.21776240159E+03 -0.15896881833E+03  0.47659015315E+03  0.10100000352E+00 0. -1.
</event>
<event>
 5   0  0.9223454E-04  0.8884074E+03  0.7818609E-02  0.9440190E-01
        1   -1    0    0  501    0  0.00000000000E+00  0.00000000000E+00  0.11455551658E+04  0.11455551658E+04  0.50400001928E-02 0.  1.
       -1   -1    0    0    0  501  0.00000000000E+00  0.00000000000E+00 -0.17224566554E+03  0.17224566561E+03  0.50400001928E-02 0. -1.
    10030    2    1    2    0    0  0.00000000000E+00  0.00000000000E+00  0.97330950025E+03  0.13178008314E+04  0.88840736602E+03 0.  0.
        1    1    3    3  502    0 -0.15270258279E+03  0.16312240001E+03 -0.82816117543E+02  0.23829709508E+03  0.50400001928E-02 0. -1.
       -1    1    3    3    0  502  0.15270258279E+03 -0.16312240001E+03  0.10561256178E+04  0.10795037363E+04  0.50400001928E-02 0.  1.
</event>
<event>
 5   0  0.1536020E-03  0.9122731E+03  0.7818609E-02  0.9410368E-01
       -2   -1    0    0    0  501  0.00000000000E+00  0.00000000000E+00  0.84359780409E+02  0.84359780447E+02  0.25500000920E-02 0. -1.
        2   -1    0    0  501    0  0.00000000000E+00  0.00000000000E+00 -0.24663476503E+04  0.24663476503E+04  0.25500000920E-02 0.  1.
    10030    2    1    2    0    0  0.00000000000E+00  0.00000000000E+00 -0.23819878698E+04  0.25507074307E+04  0.91227308683E+03 0.  0.
        2    1    3    3  502    0 -0.13458354146E+03 -0.91076386060E+02 -0.23826665587E+04  0.23882017436E+04  0.25500000920E-02 0.  1.
       -2    1    3    3    0  502  0.13458354146E+03  0.91076386060E+02  0.67868890260E+00  0.16250568715E+03  0.25500000920E-02 0. -1.
</event>
<event>
 5   0  0.9981885E-04  0.8980544E+03  0.7818609E-02  0.9428017E-01
        1   -1    0    0  501    0  0.00000000000E+00  0.00000000000E+00  0.71365296034E+03  0.71365296036E+03  0.50400001928E-02 0.  1.
       -1   -1    0    0    0  501  0.00000000000E+00  0.00000000000E+00 -0.28252586236E+03  0.28252586241E+03  0.50400001928E-02 0. -1.
    10030    2    1    2    0    0  0.00000000000E+00  0.00000000000E+00  0.43112709798E+03  0.99617882277E+03  0.89805438160E+03 0.  0.
        4    1    3    3  502    0 -0.15512331989E+03  0.42043438573E+03  0.18427744291E+03  0.48454938442E+03  0.12699999809E+01 0.  1.
       -4    1    3    3    0  502  0.15512331989E+03 -0.42043438573E+03  0.24684965507E+03  0.51162943835E+03  0.12699999809E+01 0. -1.
</event>
<event>
 5   0  0.9223454E-04  0.8967377E+03  0.7818609E-02  0.9429669E-01
       -1   -1    0    0    0  501  0.00000000000E+00  0.00000000000E+00  0.27755739393E+03  0.27755739398E+03  0.50400001928E-02 0.  1.
        1   -1    0    0  501    0  0.00000000000E+00  0.00000000000E+00 -0.72429925378E+03  0.72429925380E+03  0.50400001928E-02 0. -1.
    10030    2    1    2    0    0  0.00000000000E+00  0.00000000000E+00 -0.44674185985E+03  0.10018566478E+04  0.89673767254E+03 0.  0.
        1    1    3    3  502    0  0.40217581503E+03  0.17569679583E+03 -0.12085468665E+03  0.45521490043E+03  0.50400001928E-02 0.  1.
       -1    1    3    3    0  502 -0.40217581503E+03 -0.17569679583E+03 -0.32588717320E+03  0.54664174734E+03  0.50400001928E-02 0. -1.
</event>
<event>
 5   0  0.1007561E-03  0.8956187E+03  0.7818609E-02  0.9431075E-01
        1   -1    0    0  501    0  0.00000000000E+00  0.00000000000E+00  0.13040714836E+04  0.13040714836E+04  0.50400001928E-02 0.  1.
       -1   -1    0    0    0  501  0.00000000000E+00  0.00000000000E+00 -0.15377470438E+03  0.15377470446E+03  0.50400001928E-02 0. -1.
    10030    2    1    2    0    0  0.00000000000E+00  0.00000000000E+00  0.11502967792E+04  0.14578461881E+04  0.89561868436E+03 0.  0.
        2    1    3    3  502    0  0.22409581110E+03 -0.34738225939E+03  0.85538604424E+03  0.95004139456E+03  0.25500000920E-02 0.  1.
       -2    1    3    3    0  502 -0.22409581110E+03  0.34738225939E+03  0.29491073499E+03  0.50780479351E+03  0.25500000920E-02 0. -1.
</event>
<event>
 5   0  0.9321543E-04  0.8998085E+03  0.7818609E-02  0.9425821E-01
       -1   -1    0    0    0  501  0.00000000000E+00  0.00000000000E+00  0.92239411310E+02  0.92239411448E+02  0.50400001928E-02 0. -1.
        1   -1    0    0  501    0  0.00000000000E+00  0.00000000000E+00 -0.21944396548E+04  0.21944396548E+04  0.50400001928E-02 0.  1.
    10030    2    1    2    0    0  0.00000000000E+00  0.00000000000E+00 -0.21022002435E+04  0.22866790663E+04  0.89980847314E+03 0.  0.
        3    1    3    3  502    0  0.71732544427E+02 -0.65930830105E+02 -0.21673086003E+04  0.21694974098E+04  0.10100000352E+00 0.  1.
       -3    1    3    3    0  502 -0.71732544427E+02  0.65930830105E+02  0.65108356748E+02  0.11718165645E+03  0.10100000352E+00 0. -1.
</event>
<event>
 5   0  0.1630202E-03  0.8998170E+03  0.7818609E-02  0.9425810E-01
       -2   -1    0    0    0  501  0.00000000000E+00  0.00000000000E+00  0.25527253731E+03  0.25527253732E+03  0.25500000920E-02 0. -1.
        2   -1    0    0  501    0  0.00000000000E+00  0.00000000000E+00 -0.79294718251E+03  0.79294718251E+03  0.25500000920E-02 0.  1.
    10030    2    1    2    0    0  0.00000000000E+00  0.00000000000E+00 -0.53767464520E+03  0.10482197198E+04  0.89981695748E+03 0.  0.
        4    1    3    3  502    0 -0.28717192501E+03  0.24505302685E+03 -0.55394037635E+03  0.67035084391E+03  0.12699999809E+01 0.  1.
       -4    1    3    3    0  502  0.28717192501E+03 -0.24505302685E+03  0.16265731151E+02  0.37786887592E+03  0.12699999809E+01 0. -1.
</event>
<event>
 5   0  0.1630202E-03  0.9000325E+03  0.7818609E-02  0.9425541E-01
        2   -1    0    0  501    0  0.00000000000E+00  0.00000000000E+00  0.14548399799E+04  0.14548399799E+04  0.25500000920E-02 0. -1.
       -2   -1    0    0    0  501  0.00000000000E+00  0.00000000000E+00 -0.13920062681E+03  0.13920062684E+03  0.25500000920E-02 0.  1.
    10030    2    1    2    0    0  0.00000000000E+00  0.00000000000E+00  0.13156393531E+04  0.15940406067E+04  0.90003252637E+03 0.  0.
        4    1    3    3  502    0 -0.35296196163E+03  0.17134565293E+03  0.10481498595E+04  0.11191788150E+04  0.12699999809E+01 0. -1.
       -4    1    3    3    0  502  0.35296196163E+03 -0.17134565293E+03  0.26748949356E+03  0.47486179169E+03  0.12699999809E+01 0.  1.
</event>
<event>
 5   0  0.1007561E-03  0.9003230E+03  0.7818609E-02  0.9425178E-01
       -1   -1    0    0    0  501  0.00000000000E+00  0.00000000000E+00  0.58904165609E+03  0.58904165611E+03  0.50400001928E-02 0.  1.
        1   -1    0    0  501    0  0.00000000000E+00  0.00000000000E+00 -0.34402558003E+03  0.34402558007E+03  0.50400001928E-02 0. -1.
    10030    2    1    2    0    0  0.00000000000E+00  0.00000000000E+00  0.24501607605E+03  0.93306723618E+03  0.90032304741E+03 0.  0.
        2    1    3    3  502    0 -0.15558660289E+03 -0.41997223825E+03  0.75452696501E+02  0.45417725759E+03  0.25500000920E-02 0. -1.
       -2    1    3    3    0  502  0.15558660289E+03  0.41997223825E+03  0.16956337955E+03  0.47888997859E+03  0.25500000920E-02 0.  1.
</event>
<event>
 5   0  0.1630202E-03  0.8997661E+03  0.7818609E-02  0.9425874E-01
       -2   -1    0    0    0  501  0.00000000000E+00  0.00000000000E+00  0.47522828786E+03  0.47522828786E+03  0.25500000920E-02 0. -1.
        2   -1    0    0  501    0  0.00000000000E+00  0.00000000000E+00 -0.42588954740E+03  0.42588954740E+03  0.25500000920E-02 0.  1.
    10030    2    1    2    0    0  0.00000000000E+00  0.00000000000E+00  0.49338740459E+02  0.90111783527E+03  0.89976610390E+03 0.  0.
        4    1    3    3  502    0 -0.10085947370E+03  0.35130765770E+03 -0.23802879840E+03  0.43617545273E+03  0.12699999809E+01 0.  1.
       -4    1    3    3    0  502  0.10085947370E+03 -0.35130765770E+03  0.28736753886E+03  0.46494238254E+03  0.12699999809E+01 0. -1.
</event>
<event>
 5   0  0.1641516E-03  0.9011007E+03  0.7818609E-02  0.9424207E-01
       -2   -1    0    0    0  501  0.00000000000E+00  0.00000000000E+00  0.29731089936E+03  0.29731089937E+03  0.25500000920E-02 0. -1.
        2   -1    0    0  501    0  0.00000000000E+00  0.00000000000E+00 -0.68277215917E+03  0.68277215918E+03  0.25500000920E-02 0.  1.
    10030    2    1    2    0    0  0.00000000000E+00  0.00000000000E+00 -0.38546125981E+03  0.98008305855E+03  0.90110067076E+03 0.  0.
        1    1    3    3  502    0  0.22460517894E+03 -0.85890058879E+02 -0.60713996268E+03  0.65302643356E+03  0.50400001928E-02 0.  1.
       -1    1    3    3    0  502 -0.22460517894E+03  0.85890058879E+02  0.22167870287E+03  0.32705662499E+03  0.50400001928E-02 0. -1.
</event>
<event>
 5   0  0.6375625E-04  0.9002128E+03  0.7818609E-02  0.9425315E-01
       -3   -1    0    0    0  501  0.00000000000E+00  0.00000000000E+00  0.62889574300E+03  0.62889575111E+03  0.10100000352E+00 0.  1.
        3   -1    0    0  501    0  0.00000000000E+00  0.00000000000E+00 -0.32214520907E+03  0.32214522490E+03  0.10100000352E+00 0. -1.
    10030    2    1    2    0    0  0.00000000000E+00  0.00000000000E+00  0.30675053394E+03  0.95104097601E+03  0.90021277928E+03 0.  0.
        5    1    3    3  502    0 -0.28538926166E+03  0.26285632328E+02 -0.21325784765E+03  0.35726595796E+03  0.46999998093E+01 0. -1.
       -5    1    3    3    0  502  0.28538926166E+03 -0.26285632328E+02  0.52000838159E+03  0.59377501805E+03  0.46999998093E+01 0.  1.
</event>
<event>
 5   0  0.1630202E-03  0.9048522E+03  0.7818609E-02  0.9419536E-01
       -2   -1    0    0    0  501  0.00000000000E+00  0.00000000000E+00  0.99853011024E+03  0.99853011024E+03  0.25500000920E-02 0. -1.
        2   -1    0    0  501    0  0.00000000000E+00  0.00000000000E+00 -0.20499070029E+03  0.20499070031E+03  0.25500000920E-02 0.  1.
    10030    2    1    2    0    0  0.00000000000E+00  0.00000000000E+00  0.79353940995E+03  0.12035208106E+04  0.90485222346E+03 0.  0.
        4    1    3    3  502    0  0.47489215238E+02  0.47393290064E+02  0.99187423659E+03  0.99414157121E+03  0.12699999809E+01 0. -1.
       -4    1    3    3    0  502 -0.47489215238E+02 -0.47393290064E+02 -0.19833482664E+03  0.20937923934E+03  0.12699999809E+01 0.  1.
</event>
<event>
 5   0  0.9321543E-04  0.8994211E+03  0.7818609E-02  0.9426305E-01
       -1   -1    0    0    0  501  0.00000000000E+00  0.00000000000E+00  0.13037747368E+03  0.13037747378E+03  0.50400001928E-02 0. -1.
        1   -1    0    0  501    0  0.00000000000E+00  0.00000000000E+00 -0.15511850270E+04  0.15511850270E+04  0.50400001928E-02 0.  1.
    10030    2    1    2    0    0  0.00000000000E+00  0.00000000000E+00 -0.14208075534E+04  0.16815625008E+04  0.89942111411E+03 0.  0.
        3    1    3    3  502    0  0.77050543760E+02  0.36182496164E+03 -0.11884728092E+04  0.12447175253E+04  0.10100000352E+00 0.  1.
       -3    1    3    3    0  502 -0.77050543760E+02 -0.36182496164E+03 -0.23233474411E+03  0.43684497557E+03  0.10100000352E+00 0. -1.
</event>
<event>
 5   0  0.1635686E-03  0.9008608E+03  0.7818609E-02  0.9424506E-01
        2   -1    0    0  501    0  0.00000000000E+00  0.00000000000E+00  0.87023817733E+03  0.87023817734E+03  0.25500000920E-02 0.  1.
       -2   -1    0    0    0  501  0.00000000000E+00  0.00000000000E+00 -0.23314025271E+03  0.23314025272E+03  0.25500000920E-02 0. -1.
    10030    2    1    2    0    0  0.00000000000E+00  0.00000000000E+00  0.63709792462E+03  0.11033784301E+04  0.90086080743E+03 0.  0.
        5    1    3    3  502    0  0.36243744959E+03 -0.10467166140E+02 -0.87168744653E+01  0.36272377966E+03  0.46999998093E+01 0. -1.
       -5    1    3    3    0  502 -0.36243744959E+03  0.10467166140E+02  0.64581479909E+03  0.74065465040E+03  0.46999998093E+01 0.  1.
</event>
<event>
 5   0  0.9321543E-04  0.8996544E+03  0.7818609E-02  0.9426014E-01
        1   -1    0    0  501    0  0.00000000000E+00  0.00000000000E+00  0.41909931863E+03  0.41909931867E+03  0.50400001928E-02 0. -1.
       -1   -1    0    0    0  501  0.00000000000E+00  0.00000000000E+00 -0.48280799634E+03  0.48280799636E+03  0.50400001928E-02 0.  1.
    10030    2    1    2    0    0  0.00000000000E+00  0.00000000000E+00 -0.63708677702E+02  0.90190731503E+03  0.89965438324E+03 0.  0.
        3    1    3    3  502    0 -0.11854698555E+03  0.90100744045E+02 -0.45738515480E+03  0.48101218476E+03  0.10100000352E+00 0.  1.
       -3    1    3    3    0  502  0.11854698555E+03 -0.90100744045E+02  0.39367647710E+03  0.42089513026E+03  0.10100000352E+00 0. -1.
</event>
<event>
 5   0  0.9321543E-04  0.9020688E+03  0.7818609E-02  0.9422999E-01
       -1   -1    0    0    0  501  0.00000000000E+00  0.00000000000E+00  0.38008633124E+03  0.38008633128E+03  0.50400001928E-02 0.  1.
        1   -1    0    0  501    0  0.00000000000E+00  0.00000000000E+00 -0.53522589111E+03  0.53522589114E+03  0.50400001928E-02 0. -1.
    10030    2    1    2    0    0  0.00000000000E+00  0.00000000000E+00 -0.15513955987E+03  0.91531222241E+03  0.90206883411E+03 0.  0.
        3    1    3    3  502    0  0.52338657680E+02 -0.40889356534E+03 -0.26328346127E+03  0.48913339085E+03  0.10100000352E+00 0. -1.
       -3    1    3    3    0  502 -0.52338657680E+02  0.40889356534E+03  0.10814390140E+03  0.42617883157E+03  0.10100000352E+00 0.  1.
</event>
<event>
 5   0  0.1704416E-03  0.9003427E+03  0.7818609E-02  0.9425153E-01
        2   -1    0    0  501    0  0.00000000000E+00  0.00000000000E+00  0.10170799702E+04  0.10170799702E+04  0.25500000920E-02 0.  1.
       -2   -1    0    0    0  501  0.00000000000E+00  0.00000000000E+00 -0.19925105781E+03  0.19925105782E+03  0.25500000920E-02 0. -1.
    10030    2    1    2    0    0  0.00000000000E+00  0.00000000000E+00  0.81782891241E+03  0.12163310280E+04  0.90034273464E+03 0.  0.
        3    1    3    3  502    0  0.31379375799E+03 -0.78124289375E+02 -0.14186220286E+02  0.32368377499E+03  0.10100000352E+00 0. -1.
       -3    1    3    3    0  502 -0.31379375799E+03  0.78124289375E+02  0.83201513270E+03  0.89264725306E+03  0.10100000352E+00 0.  1.
</event>
<event>
 5   0  0.9223454E-04  0.9010952E+03  0.7818609E-02  0.9424213E-01
       -1   -1    0    0    0  501  0.00000000000E+00  0.00000000000E+00  0.19453610438E+03  0.19453610445E+03  0.50400001928E-02 0. -1.
        1   -1    0    0  501    0  0.00000000000E+00  0.00000000000E+00 -0.10434727222E+04  0.10434727222E+04  0.50400001928E-02 0.  1.
    10030    2    1    2    0    0  0.00000000000E+00  0.00000000000E+00 -0.84893661783E+03  0.12380088267E+04  0.90109515248E+03 0.  0.
        1    1    3    3  502    0 -0.18455139603E+02  0.56067609001E+02 -0.10381374411E+04  0.10398141736E+04  0.50400001928E-02 0.  1.
       -1    1    3    3    0  502  0.18455139603E+02 -0.56067609001E+02  0.18920082327E+03  0.19819465308E+03  0.50400001928E-02 0. -1.
</event>
<event>
 5   0  0.9981885E-04  0.9003739E+03  0.7818609E-02  0.9425114E-01
       -1   -1    0    0    0  501  0.00000000000E+00  0.00000000000E+00  0.32191401690E+03  0.32191401693E+03  0.50400001928E-02 0.  1.
        1   -1    0    0  501    0  0.00000000000E+00  0.00000000000E+00 -0.62957272979E+03  0.62957272981E+03  0.50400001928E-02 0. -1.
    10030    2    1    2    0    0  0.00000000000E+00  0.00000000000E+00 -0.30765871290E+03  0.95148674675E+03  0.90037389212E+03 0.  0.
        4    1    3    3  502    0 -0.28350844392E+03 -0.25733659423E+03  0.96398408154E+02  0.39483341614E+03  0.12699999809E+01 0.  1.
       -4    1    3    3    0  502  0.28350844392E+03  0.25733659423E+03 -0.40405712105E+03  0.55665333061E+03  0.12699999809E+01 0. -1.
</event>
<event>
 5   0  0.9697941E-04  0.9031012E+03  0.7818609E-02  0.9421713E-01
       -1   -1    0    0    0  501  0.00000000000E+00  0.00000000000E+00  0.83936409421E+03  0.83936409422E+03  0.50400001928E-02 0. -1.
        1   -1    0    0  501    0  0.00000000000E+00  0.00000000000E+00 -0.24291956220E+03  0.24291956225E+03  0.50400001928E-02 0.  1.
    10030    2    1    2    0    0  0.00000000000E+00  0.00000000000E+00  0.59644453201E+03  0.10822836565E+04  0.90310123092E+03 0.  0.
        5    1    3    3  502    0 -0.26157477677E+03  0.14661179941E+03 -0.10633490577E+03  0.31819111513E+03  0.46999998093E+01 0.  1.
       -5    1    3    3    0  502  0.26157477677E+03 -0.14661179941E+03  0.70277943778E+03  0.76409254134E+03  0.46999998093E+01 0. -1.
</event>
<event>
 5   0  0.9981885E-04  0.8973020E+03  0.7818609E-02  0.9428960E-01
       -1   -1    0    0    0  501  0.00000000000E+00  0.00000000000E+00  0.93977567373E+03  0.93977567375E+03  0.50400001928E-02 0. -1.
        1   -1    0    0  501    0  0.00000000000E+00  0.00000000000E+00 -0.21418697861E+03  0.21418697867E+03  0.50400001928E-02 0.  1.
    10030    2    1    2    0    0  0.00000000000E+00  0.00000000000E+00  0.72558869512E+03  0.11539626524E+04  0.89730198300E+03 0.  0.
        4    1    3    3  502    0  0.17100618067E+03 -0.25337430631E+03 -0.59535736009E+02  0.31142859484E+03  0.12699999809E+01 0.  1.
       -4    1    3    3    0  502 -0.17100618067E+03  0.25337430631E+03  0.78512443113E+03  0.84253405758E+03  0.12699999809E+01 0. -1.
</event>
<event>
 5   0  0.9223454E-04  0.9018461E+03  0.7818609E-02  0.9423277E-01
       -1   -1    0    0    0  501  0.00000000000E+00  0.00000000000E+00  0.35081579481E+03  0.35081579484E+03  0.50400001928E-02 0.  1.
        1   -1    0    0  501    0  0.00000000000E+00  0.00000000000E+00 -0.57959645580E+03  0.57959645582E+03  0.50400001928E-02 0. -1.
    10030    2    1    2    0    0  0.00000000000E+00  0.00000000000E+00 -0.22878066099E+03  0.93041225067E+03  0.90184608739E+03 0.  0.
        1    1    3    3  502    0 -0.35066893137E+03  0.14985647756E+03 -0.36264904810E+03  0.52625088637E+03  0.50400001928E-02 0. -1.
       -1    1    3    3    0  502  0.35066893137E+03 -0.14985647756E+03  0.13386838710E+03  0.40416136429E+03  0.50400001928E-02 0.  1.
</event>
<event>
 5   0  0.1630202E-03  0.8991675E+03  0.7818609E-02  0.9426623E-01
        2   -1    0    0  501    0  0.00000000000E+00  0.00000000000E+00  0.83256511008E+03  0.83256511008E+03  0.25500000920E-02 0. -1.
       -2   -1    0    0    0  501  0.00000000000E+00  0.00000000000E+00 -0.24277446981E+03  0.24277446982E+03  0.25500000920E-02 0.  1.
    10030    2    1    2    0    0  0.00000000000E+00  0.00000000000E+00  0.58979064027E+03  0.10753395799E+04  0.89916751096E+03 0.  0.
        4    1    3    3  502    0  0.12577478761E+03 -0.40395951007E+03  0.47674464264E+03  0.63740854258E+03  0.12699999809E+01 0. -1.
       -4    1    3    3    0  502 -0.12577478761E+03  0.40395951007E+03  0.11304599763E+03  0.43793103732E+03  0.12699999809E+01 0.  1.
</event>
<event>
 5   0  0.9981885E-04  0.8848543E+03  0.7818609E-02  0.9444715E-01
       -1   -1    0    0    0  501  0.00000000000E+00  0.00000000000E+00  0.35978062897E+03  0.35978062901E+03  0.50400001928E-02 0. -1.
        1   -1    0    0  501    0  0.00000000000E+00  0.00000000000E+00 -0.54405865507E+03  0.54405865509E+03  0.50400001928E-02 0.  1.
    10030    2    1    2    0    0  0.00000000000E+00  0.00000000000E+00 -0.18427802610E+03  0.90383928410E+03  0.88485425951E+03 0.  0.
        4    1    3    3  502    0  0.34083471454E+03  0.21769017146E+03  0.91105780013E+02  0.41455903010E+03  0.12699999809E+01 0.  1.
       -4    1    3    3    0  502 -0.34083471454E+03 -0.21769017146E+03 -0.27538380611E+03  0.48928025400E+03  0.12699999809E+01 0. -1.
</event>
<event>
 5   0  0.9223454E-04  0.9055801E+03  0.7818609E-02  0.9418633E-01
       -1   -1    0    0    0  501  0.00000000000E+00  0.00000000000E+00  0.22640998780E+03  0.22640998786E+03  0.50400001928E-02 0.  1.
        1   -1    0    0  501    0  0.00000000000E+00  0.00000000000E+00 -0.90552023315E+03  0.90552023317E+03  0.50400001928E-02 0. -1.
    10030    2    1    2    0    0  0.00000000000E+00  0.00000000000E+00 -0.67911024535E+03  0.11319302210E+04  0.90558009029E+03 0.  0.
        1    1    3    3  502    0 -0.90104884416E+02 -0.21011332611E+03 -0.82808002208E+03  0.85905938270E+03  0.50400001928E-02 0. -1.
       -1    1    3    3    0  502  0.90104884416E+02  0.21011332611E+03  0.14896977673E+03  0.27287083833E+03  0.50400001928E-02 0.  1.
</event>
<event>
 5   0  0.9321543E-04  0.9001614E+03  0.7818609E-02  0.9425380E-01
        1   -1    0    0  501    0  0.00000000000E+00  0.00000000000E+00  0.66116362443E+03  0.66116362445E+03  0.50400001928E-02 0. -1.
       -1   -1    0    0    0  501  0.00000000000E+00  0.00000000000E+00 -0.30638804520E+03  0.30638804525E+03  0.50400001928E-02 0.  1.
    10030    2    1    2    0    0  0.00000000000E+00  0.00000000000E+00  0.35477557923E+03  0.96755166969E+03  0.90016138659E+03 0.  0.
        3    1    3    3  502    0 -0.15615769499E+03 -0.41438311127E+03  0.26387287069E+03  0.51548762420E+03  0.10100000352E+00 0. -1.
       -3    1    3    3    0  502  0.15615769499E+03  0.41438311127E+03  0.90902708537E+02  0.45206404550E+03  0.10100000352E+00 0.  1.
</event>
<event>
 5   0  0.9321543E-04  0.8989259E+03  0.7818609E-02  0.9426925E-01
        1   -1    0    0  501    0  0.00000000000E+00  0.00000000000E+00  0.33227852859E+03  0.33227852863E+03  0.50400001928E-02 0. -1.
       -1   -1    0    0    0  501  0.00000000000E+00  0.00000000000E+00 -0.60797469221E+03  0.60797469223E+03  0.50400001928E-02 0.  1.
    10030    2    1    2    0    0  0.00000000000E+00  0.00000000000E+00 -0.27569616362E+03  0.94025322085E+03  0.89892588387E+03 0.  0.
        3    1    3    3  502    0  0.20813422915E+03  0.33826037000E+03  0.82246824743E+02  0.40559152560E+03  0.10100000352E+00 0. -1.
       -3    1    3    3    0  502 -0.20813422915E+03 -0.33826037000E+03 -0.35794298836E+03  0.53466169526E+03  0.10100000352E+00 0.  1.
</event>
<event>
 5   0  0.1630202E-03  0.9012534E+03  0.7818609E-02  0.9424016E-01
        2   -1    0    0  501    0  0.00000000000E+00  0.00000000000E+00  0.41822795465E+03  0.41822795465E+03  0.25500000920E-02 0. -1.
       -2   -1    0    0    0  501  0.00000000000E+00  0.00000000000E+00 -0.48553522709E+03  0.48553522710E+03  0.25500000920E-02 0.  1.
    10030    2    1    2    0    0  0.00000000000E+00  0.00000000000E+00 -0.67307272445E+02  0.90376318175E+03  0.90125336048E+03 0.  0.
        4    1    3    3  502    0 -0.18296362752E+03  0.38279254060E+03 -0.18592172677E+03  0.46322167428E+03  0.12699999809E+01 0. -1.
       -4    1    3    3    0  502  0.18296362752E+03 -0.38279254060E+03  0.11861445433E+03  0.44054150748E+03  0.12699999809E+01 0.  1.
</event>
<event>
 5   0  0.1007561E-03  0.9051561E+03  0.7818609E-02  0.9419159E-01
       -1   -1    0    0    0  501  0.00000000000E+00  0.00000000000E+00  0.18814243963E+03  0.18814243970E+03  0.50400001928E-02 0. -1.
        1   -1    0    0  501    0  0.00000000000E+00  0.00000000000E+00 -0.10886798045E+04  0.10886798045E+04  0.50400001928E-02 0.  1.
    10030    2    1    2    0    0  0.00000000000E+00  0.00000000000E+00 -0.90053736487E+03  0.12768222442E+04  0.90515606267E+03 0.  0.
        2    1    3    3  502    0 -0.44485756453E+03 -0.55848425686E+02 -0.36320335384E+03  0.57700431161E+03  0.25500000920E-02 0. -1.
       -2    1    3    3    0  502  0.44485756453E+03  0.55848425686E+02 -0.53733401103E+03  0.69981793260E+03  0.25500000920E-02 0.  1.
</event>
<event>
 5   0  0.9981885E-04  0.8923288E+03  0.7818609E-02  0.9435222E-01
        1   -1    0    0  501    0  0.00000000000E+00  0.00000000000E+00  0.27112919169E+03  0.27112919174E+03  0.50400001928E-02 0.  1.
       -1   -1    0    0    0  501  0.00000000000E+00  0.00000000000E+00 -0.73419863816E+03  0.73419863817E+03  0.50400001928E-02 0. -1.
    10030    2    1    2    0    0  0.00000000000E+00  0.00000000000E+00 -0.46306944647E+03  0.10053278299E+04  0.89232882580E+03 0.  0.
        4    1    3    3  502    0  0.17251068959E+03 -0.84731396816E+02  0.22209696822E+03  0.29371418730E+03  0.12699999809E+01 0.  1.
       -4    1    3    3    0  502 -0.17251068959E+03  0.84731396816E+02 -0.68516641469E+03  0.71161364261E+03  0.12699999809E+01 0. -1.
</event>
<event>
 5   0  0.1630202E-03  0.8944940E+03  0.7818609E-02  0.9432490E-01
       -2   -1    0    0    0  501  0.00000000000E+00  0.00000000000E+00  0.21146903955E+03  0.21146903956E+03  0.25500000920E-02 0. -1.
        2   -1    0    0  501    0  0.00000000000E+00  0.00000000000E+00 -0.94590618771E+03  0.94590618771E+03  0.25500000920E-02 0.  1.
    10030    2    1    2    0    0  0.00000000000E+00  0.00000000000E+00 -0.73443714816E+03  0.11573752273E+04  0.89449398662E+03 0.  0.
        4    1    3    3  502    0  0.14452102892E+03  0.83558939932E+02  0.16964344091E+03  0.23801036571E+03  0.12699999809E+01 0. -1.
       -4    1    3    3    0  502 -0.14452102892E+03 -0.83558939932E+02 -0.90408058907E+03  0.91936486156E+03  0.12699999809E+01 0.  1.
</event>
<event>
 5   0  0.1635686E-03  0.9001620E+03  0.7818609E-02  0.9425379E-01
        2   -1    0    0  501    0  0.00000000000E+00  0.00000000000E+00  0.76423835367E+03  0.76423835368E+03  0.25500000920E-02 0.  1.
       -2   -1    0    0    0  501  0.00000000000E+00  0.00000000000E+00 -0.26506507787E+03  0.26506507788E+03  0.25500000920E-02 0. -1.
    10030    2    1    2    0    0  0.00000000000E+00  0.00000000000E+00  0.49917327580E+03  0.10293034316E+04  0.90016198261E+03 0.  0.
        5    1    3    3  502    0 -0.19670264286E+02 -0.26913540326E+03  0.66144036746E+03  0.71438521421E+03  0.46999998093E+01 0.  1.
       -5    1    3    3    0  502  0.19670264286E+02  0.26913540326E+03 -0.16226709166E+03  0.31491821735E+03  0.46999998093E+01 0. -1.
</event>
<event>
 5   0  0.9981885E-04  0.9001593E+03  0.7818609E-02  0.9425382E-01
       -1   -1    0    0    0  501  0.00000000000E+00  0.00000000000E+00  0.24565191209E+03  0.24565191214E+03  0.50400001928E-02 0.  1.
        1   -1    0    0  501    0  0.00000000000E+00  0.00000000000E+00 -0.82462896528E+03  0.82462896529E+03  0.50400001928E-02 0. -1.
    10030    2    1    2    0    0  0.00000000000E+00  0.00000000000E+00 -0.57897705319E+03  0.10702808774E+04  0.90015927950E+03 0.  0.
        4    1    3    3  502    0  0.19552706770E+03  0.27654276723E+03  0.62949077155E+02  0.34448648090E+03  0.12699999809E+01 0.  1.
       -4    1    3    3    0  502 -0.19552706770E+03 -0.27654276723E+03 -0.64192613035E+03  0.72579439653E+03  0.12699999809E+01 0. -1.
</event>
<event>
 5   0  0.1630202E-03  0.9004626E+03  0.7818609E-02  0.9425003E-01
       -2   -1    0    0    0  501  0.00000000000E+00  0.00000000000E+00  0.35456731281E+03  0.35456731282E+03  0.25500000920E-02 0. -1.
        2   -1    0    0  501    0  0.00000000000E+00  0.00000000000E+00 -0.57170589207E+03  0.57170589207E+03  0.25500000920E-02 0.  1.
    10030    2    1    2    0    0  0.00000000000E+00  0.00000000000E+00 -0.21713857926E+03  0.92627320489E+03  0.90046259639E+03 0.  0.
        4    1    3    3  502    0  0.35907457783E+03 -0.13427335092E+03  0.13429715563E+03  0.40620342701E+03  0.12699999809E+01 0. -1.
       -4    1    3    3    0  502 -0.35907457783E+03  0.13427335092E+03 -0.35143573489E+03  0.52006977788E+03  0.12699999809E+01 0.  1.
</event>
<event>
 5   0  0.1704416E-03  0.9002326E+03  0.7818609E-02  0.9425291E-01
        2   -1    0    0  501    0  0.00000000000E+00  0.00000000000E+00  0.10781595387E+04  0.10781595387E+04  0.25500000920E-02 0. -1.
       -2   -1    0    0    0  501  0.00000000000E+00  0.00000000000E+00 -0.18791717155E+03  0.18791717157E+03  0.25500000920E-02 0.  1.
    10030    2    1    2    0    0  0.00000000000E+00  0.00000000000E+00  0.89024236718E+03  0.12660767103E+04  0.90023261663E+03 0.  0.
        3    1    3    3  502    0 -0.24049207328E+03  0.25289503032E+03  0.45319943962E+02  0.35191794667E+03  0.10100000352E+00 0.  1.
       -3    1    3    3    0  502  0.24049207328E+03 -0.25289503032E+03  0.84492242322E+03  0.91415876363E+03  0.10100000352E+00 0. -1.
</event>
<event>
 5   0  0.9697941E-04  0.8975230E+03  0.7818609E-02  0.9428683E-01
       -1   -1    0    0    0  501  0.00000000000E+00  0.00000000000E+00  0.33897992493E+03  0.33897992496E+03  0.50400001928E-02 0. -1.
        1   -1    0    0  501    0  0.00000000000E+00  0.00000000000E+00 -0.59409684222E+03  0.59409684224E+03  0.50400001928E-02 0.  1.
    10030    2    1    2    0    0  0.00000000000E+00  0.00000000000E+00 -0.25511691730E+03  0.93307676721E+03  0.89752304261E+03 0.  0.
        5    1    3    3  502    0 -0.17871132893E+03 -0.18589467882E+03  0.25423619063E+03  0.36215010883E+03  0.46999998093E+01 0. -1.
       -5    1    3    3    0  502  0.17871132893E+03  0.18589467882E+03 -0.50935310792E+03  0.57092665838E+03  0.46999998093E+01 0.  1.
</event>
<event>
 5   0  0.1536020E-03  0.9005676E+03  0.7818609E-02  0.9424872E-01
        2   -1    0    0  501    0  0.00000000000E+00  0.00000000000E+00  0.16117077449E+04  0.16117077449E+04  0.25500000920E-02 0.  1.
       -2   -1    0    0    0  501  0.00000000000E+00  0.00000000000E+00 -0.12580165005E+03  0.12580165007E+03  0.25500000920E-02 0. -1.
    10030    2    1    2    0    0  0.00000000000E+00  0.00000000000E+00  0.14859060949E+04  0.17375093950E+04  0.90056758487E+03 0.  0.
        2    1    3    3  502    0 -0.83985001391E+02  0.99379807957E+02 -0.88741206304E+02  0.15749548689E+03  0.25500000920E-02 0. -1.
       -2    1    3    3    0  502  0.83985001391E+02 -0.99379807957E+02  0.15746473012E+04  0.15800139081E+04  0.25500000920E-02 0.  1.
</event>
<event>
 5   0  0.9697941E-04  0.8998649E+03  0.7818609E-02  0.9425750E-01
        1   -1    0    0  501    0  0.00000000000E+00  0.00000000000E+00  0.16999276954E+03  0.16999276961E+03  0.50400001928E-02 0. -1.
       -1   -1    0    0    0  501  0.00000000000E+00  0.00000000000E+00 -0.11908695161E+04  0.11908695161E+04  0.50400001928E-02 0.  1.
    10030    2    1    2    0    0  0.00000000000E+00  0.00000000000E+00 -0.10208767465E+04  0.13608622857E+04  0.89986489486E+03 0.  0.
        5    1    3    3  502    0  0.40830858142E+03  0.13687434929E+03 -0.70742406875E+03  0.82820371178E+03  0.46999998093E+01 0.  1.
       -5    1    3    3    0  502 -0.40830858142E+03 -0.13687434929E+03 -0.31345267777E+03  0.53265857391E+03  0.46999998093E+01 0. -1.
</event>
<event>
 5   0  0.1536020E-03  0.9000981E+03  0.7818609E-02  0.9425459E-01
        2   -1    0    0  501    0  0.00000000000E+00  0.00000000000E+00  0.25519858286E+03  0.25519858287E+03  0.25500000920E-02 0.  1.
       -2   -1    0    0    0  501  0.00000000000E+00  0.00000000000E+00 -0.79367271161E+03  0.79367271162E+03  0.25500000920E-02 0. -1.
    10030    2    1    2    0    0  0.00000000000E+00  0.00000000000E+00 -0.53847412875E+03  0.10488712945E+04  0.90009810858E+03 0.  0.
        2    1    3    3  502    0  0.32519548586E+03  0.29720180151E+03 -0.16203626561E+03  0.46940043270E+03  0.25500000920E-02 0.  1.
       -2    1    3    3    0  502 -0.32519548586E+03 -0.29720180151E+03 -0.37643786315E+03  0.57947086179E+03  0.25500000920E-02 0. -1.
</event>
<event>
 5   0  0.9321543E-04  0.9015638E+03  0.7818609E-02  0.9423629E-01
       -1   -1    0    0    0  501  0.00000000000E+00  0.00000000000E+00  0.66745935215E+03  0.66745935217E+03  0.50400001928E-02 0. -1.
        1   -1    0    0  501    0  0.00000000000E+00  0.00000000000E+00 -0.30444448148E+03  0.30444448152E+03  0.50400001928E-02 0.  1.
    10030    2    1    2    0    0  0.00000000000E+00  0.00000000000E+00  0.36301487067E+03  0.97190383370E+03  0.90156378899E+03 0.  0.
        3    1    3    3  502    0  0.43734630893E+02 -0.16328274057E+03 -0.26898414511E+03  0.31768923782E+03  0.10100000352E+00 0.  1.
       -3    1    3    3    0  502 -0.43734630893E+02  0.16328274057E+03  0.63199901578E+03  0.65421459588E+03  0.10100000352E+00 0. -1.
</event>
<event>
 5   0  0.1704416E-03  0.8999723E+03  0.7818609E-02  0.9425616E-01
       -2   -1    0    0    0  501  0.00000000000E+00  0.00000000000E+00  0.60156424297E+03  0.60156424297E+03  0.25500000920E-02 0. -1.
        2   -1    0    0  501    0  0.00000000000E+00  0.00000000000E+00 -0.33660166185E+03  0.33660166186E+03  0.25500000920E-02 0.  1.
    10030    2    1    2    0    0  0.00000000000E+00  0.00000000000E+00  0.26496258112E+03  0.93816590483E+03  0.89997227490E+03 0.  0.
        3    1    3    3  502    0 -0.16748415231E+02  0.30767867901E+03  0.47433257558E+03  0.56563069346E+03  0.10100000352E+00 0. -1.
       -3    1    3    3    0  502  0.16748415231E+02 -0.30767867901E+03 -0.20936999446E+03  0.37253521137E+03  0.10100000352E+00 0.  1.
</event>
<event>
 5   0  0.1007561E-03  0.8985449E+03  0.7818609E-02  0.9427402E-01
       -1   -1    0    0    0  501  0.00000000000E+00  0.00000000000E+00  0.23452883354E+03  0.23452883359E+03  0.50400001928E-02 0.  1.
        1   -1    0    0  501    0  0.00000000000E+00  0.00000000000E+00 -0.86064362632E+03  0.86064362634E+03  0.50400001928E-02 0. -1.
    10030    2    1    2    0    0  0.00000000000E+00  0.00000000000E+00 -0.62611479278E+03  0.10951724599E+04  0.89854492556E+03 0.  0.
        2    1    3    3  502    0 -0.33785382753E+03 -0.29544958805E+03 -0.28837564756E+03  0.53347556829E+03  0.25500000920E-02 0. -1.
       -2    1    3    3    0  502  0.33785382753E+03  0.29544958805E+03 -0.33773914522E+03  0.56169689164E+03  0.25500000920E-02 0.  1.
</event>
<event>
 5   0  0.9223454E-04  0.8996372E+03  0.7818609E-02  0.9426035E-01
        1   -1    0    0  501    0  0.00000000000E+00  0.00000000000E+00  0.30897616930E+03  0.30897616935E+03  0.50400001928E-02 0. -1.
       -1   -1    0    0    0  501  0.00000000000E+00  0.00000000000E+00 -0.65486201114E+03  0.65486201116E+03  0.50400001928E-02 0.  1.
    10030    2    1    2    0    0  0.00000000000E+00  0.00000000000E+00 -0.34588584183E+03  0.96383818050E+03  0.89963716165E+03 0.  0.
        1    1    3    3  502    0  0.31351758723E+01  0.29697770340E+03  0.18899898917E+03  0.35203153776E+03  0.50400001928E-02 0. -1.
       -1    1    3    3    0  502 -0.31351758723E+01 -0.29697770340E+03 -0.53488483100E+03  0.61180664274E+03  0.50400001928E-02 0.  1.
</event>
<event>
 5   0  0.1536020E-03  0.8997066E+03  0.7818609E-02  0.9425948E-01
       -2   -1    0    0    0  501  0.00000000000E+00  0.00000000000E+00  0.27701222276E+03  0.27701222278E+03  0.25500000920E-02 0. -1.
        2   -1    0    0  501    0  0.00000000000E+00  0.00000000000E+00 -0.73053810298E+03  0.73053810298E+03  0.25500000920E-02 0.  1.
    10030    2    1    2    0    0  0.00000000000E+00  0.00000000000E+00 -0.45352588021E+03  0.10075503258E+04  0.89970658267E+03 0.  0.
        2    1    3    3  502    0 -0.70582959575E+02  0.40673291889E+02  0.26868319866E+03  0.28076134368E+03  0.25500000920E-02 0. -1.
       -2    1    3    3    0  502  0.70582959575E+02 -0.40673291889E+02 -0.72220907887E+03  0.72678898208E+03  0.25500000920E-02 0.  1.
</event>
<event>
 5   0  0.9321543E-04  0.8991202E+03  0.7818609E-02  0.9426682E-01
        1   -1    0    0  501    0  0.00000000000E+00  0.00000000000E+00  0.61625739359E+03  0.61625739361E+03  0.50400001928E-02 0. -1.
       -1   -1    0    0    0  501  0.00000000000E+00  0.00000000000E+00 -0.32795435582E+03  0.32795435586E+03  0.50400001928E-02 0.  1.
    10030    2    1    2    0    0  0.00000000000E+00  0.00000000000E+00  0.28830303777E+03  0.94421174947E+03  0.89912022903E+03 0.  0.
        3    1    3    3  502    0 -0.39090945665E+03 -0.13729405219E+03 -0.39082255977E+02  0.41615777417E+03  0.10100000352E+00 0. -1.
       -3    1    3    3    0  502  0.39090945665E+03  0.13729405219E+03  0.32738529375E+03  0.52805397530E+03  0.10100000352E+00 0.  1.
</event>
<event>
 5   0  0.1630202E-03  0.8953869E+03  0.7818609E-02  0.9431366E-01
       -2   -1    0    0    0  501  0.00000000000E+00  0.00000000000E+00  0.97881322328E+02  0.97881322361E+02  0.25500000920E-02 0.  1.
        2   -1    0    0  501    0  0.00000000000E+00  0.00000000000E+00 -0.20476778044E+04  0.20476778044E+04  0.25500000920E-02 0. -1.
    10030    2    1    2    0    0  0.00000000000E+00  0.00000000000E+00 -0.19497964821E+04  0.21455591268E+04  0.89538686887E+03 0.  0.
        4    1    3    3  502    0  0.34808795170E+03  0.52794254632E+02 -0.31223865837E+03  0.47058160623E+03  0.12699999809E+01 0.  1.
       -4    1    3    3    0  502 -0.34808795170E+03 -0.52794254632E+02 -0.16375578237E+04  0.16749775205E+04  0.12699999809E+01 0. -1.
</event>
<event>
 5   0  0.1704416E-03  0.8999618E+03  0.7818609E-02  0.9425629E-01
       -2   -1    0    0    0  501  0.00000000000E+00  0.00000000000E+00  0.89473617923E+02  0.89473617960E+02  0.25500000920E-02 0.  1.
        2   -1    0    0  501    0  0.00000000000E+00  0.00000000000E+00 -0.22630448673E+04  0.22630448673E+04  0.25500000920E-02 0. -1.
    10030    2    1    2    0    0  0.00000000000E+00  0.00000000000E+00 -0.21735712494E+04  0.23525184852E+04  0.89996180329E+03 0.  0.
        3    1    3    3  502    0  0.48178876726E+02  0.42523272723E+03 -0.14503010867E+04  0.15121234503E+04  0.10100000352E+00 0. -1.
       -3    1    3    3    0  502 -0.48178876726E+02 -0.42523272723E+03 -0.72327016262E+03  0.84039503497E+03  0.10100000352E+00 0.  1.
</event>
<event>
 5   0  0.1635686E-03  0.8993526E+03  0.7818609E-02  0.9426391E-01
       -2   -1    0    0    0  501  0.00000000000E+00  0.00000000000E+00  0.43781548920E+03  0.43781548921E+03  0.25500000920E-02 0. -1.
        2   -1    0    0  501    0  0.00000000000E+00  0.00000000000E+00 -0.46185843603E+03  0.46185843604E+03  0.25500000920E-02 0.  1.
    10030    2    1    2    0    0  0.00000000000E+00  0.00000000000E+00 -0.24042946832E+02  0.89967392525E+03  0.89935260520E+03 0.  0.
        5    1    3    3  502    0 -0.18613029691E+03  0.38958226374E+03 -0.13763647468E+03  0.45319390642E+03  0.46999998093E+01 0.  1.
       -5    1    3    3    0  502  0.18613029691E+03 -0.38958226374E+03  0.11359352784E+03  0.44648001884E+03  0.46999998093E+01 0. -1.
</event>
<event>
 5   0  0.9981885E-04  0.9002522E+03  0.7818609E-02  0.9425266E-01
        1   -1    0    0  501    0  0.00000000000E+00  0.00000000000E+00  0.16484825740E+04  0.16484825740E+04  0.50400001928E-02 0.  1.
       -1   -1    0    0    0  501  0.00000000000E+00  0.00000000000E+00 -0.12290910310E+03  0.12290910321E+03  0.50400001928E-02 0. -1.
    10030    2    1    2    0    0  0.00000000000E+00  0.00000000000E+00  0.15255734709E+04  0.17713916773E+04  0.90025221967E+03 0.  0.
        4    1    3    3  502    0 -0.17288244673E+03  0.40440099918E+03  0.57422568376E+03  0.72330163647E+03  0.12699999809E+01 0. -1.
       -4    1    3    3    0  502  0.17288244673E+03 -0.40440099918E+03  0.95134778718E+03  0.10480900408E+04  0.12699999809E+01 0.  1.
</event>
<event>
 5   0  0.9321543E-04  0.8995141E+03  0.7818609E-02  0.9426189E-01
       -1   -1    0    0    0  501  0.00000000000E+00  0.00000000000E+00  0.30264491157E+03  0.30264491161E+03  0.50400001928E-02 0. -1.
        1   -1    0    0  501    0  0.00000000000E+00  0.00000000000E+00 -0.66837870861E+03  0.66837870863E+03  0.50400001928E-02 0.  1.
    10030    2    1    2    0    0  0.00000000000E+00  0.00000000000E+00 -0.36573379704E+03  0.97102362024E+03  0.89951412483E+03 0.  0.
        3    1    3    3  502    0  0.21343369561E+03  0.15447542453E+02 -0.60990191383E+03  0.64635355935E+03  0.10100000352E+00 0.  1.
       -3    1    3    3    0  502 -0.21343369561E+03 -0.15447542453E+02  0.24416811678E+03  0.32467006090E+03  0.10100000352E+00 0. -1.
</event>
<event>
 5   0  0.9697941E-04  0.9001327E+03  0.7818609E-02  0.9425416E-01
        1   -1    0    0  501    0  0.00000000000E+00  0.00000000000E+00  0.55737359466E+03  0.55737359469E+03  0.50400001928E-02 0.  1.
       -1   -1    0    0    0  501  0.00000000000E+00  0.00000000000E+00 -0.36341818603E+03  0.36341818607E+03  0.50400001928E-02 0. -1.
    10030    2    1    2    0    0  0.00000000000E+00  0.00000000000E+00  0.19395540863E+03  0.92079178075E+03  0.90013265854E+03 0.  0.
        5    1    3    3  502    0 -0.13329657358E+03 -0.41486819421E+03 -0.18094146566E+02  0.43615717721E+03  0.46999998093E+01 0.  1.
       -5    1    3    3    0  502  0.13329657358E+03  0.41486819421E+03  0.21204955520E+03  0.48463460354E+03  0.46999998093E+01 0. -1.
</event>
<event>
 5   0  0.1536020E-03  0.9103932E+03  0.7818609E-02  0.9412682E-01
        2   -1    0    0  501    0  0.00000000000E+00  0.00000000000E+00  0.45418530809E+03  0.45418530810E+03  0.25500000920E-02 0.  1.
       -2   -1    0    0    0  501  0.00000000000E+00  0.00000000000E+00 -0.45621014945E+03  0.45621014946E+03  0.25500000920E-02 0. -1.
    10030    2    1    2    0    0  0.00000000000E+00  0.00000000000E+00 -0.20248413570E+01  0.91039545756E+03  0.91039320580E+03 0.  0.
        2    1    3    3  502    0  0.33523527622E+02 -0.45375939820E+03  0.12497939485E+02  0.45516767993E+03  0.25500000920E-02 0.  1.
       -2    1    3    3    0  502 -0.33523527622E+02  0.45375939820E+03 -0.14522780842E+02  0.45522777763E+03  0.25500000920E-02 0. -1.
</event>
<event>
 5   0  0.1630202E-03  0.8984982E+03  0.7818609E-02  0.9427461E-01
       -2   -1    0    0    0  501  0.00000000000E+00  0.00000000000E+00  0.26397222477E+03  0.26397222478E+03  0.25500000920E-02 0. -1.
        2   -1    0    0  501    0  0.00000000000E+00  0.00000000000E+00 -0.76456806735E+03  0.76456806735E+03  0.25500000920E-02 0.  1.
    10030    2    1    2    0    0  0.00000000000E+00  0.00000000000E+00 -0.50059584258E+03  0.10285402921E+04  0.89849815522E+03 0.  0.
        4    1    3    3  502    0 -0.10044892812E+03  0.38470963821E+03 -0.10910160739E+02  0.39775889356E+03  0.12699999809E+01 0. -1.
       -4    1    3    3    0  502  0.10044892812E+03 -0.38470963821E+03 -0.48968568184E+03  0.63078139858E+03  0.12699999809E+01 0.  1.
</event>
<event>
 5   0  0.1635686E-03  0.9001934E+03  0.7818609E-02  0.9425340E-01
       -2   -1    0    0    0  501  0.00000000000E+00  0.00000000000E+00  0.17702587415E+03  0.17702587417E+03  0.25500000920E-02 0.  1.
        2   -1    0    0  501    0  0.00000000000E+00  0.00000000000E+00 -0.11443923229E+04  0.11443923229E+04  0.25500000920E-02 0. -1.
    10030    2    1    2    0    0  0.00000000000E+00  0.00000000000E+00 -0.96736644872E+03  0.13214181970E+04  0.90019342665E+03 0.  0.
        5    1    3    3  502    0  0.10400815899E+02  0.19790607272E+03  0.10949363657E+03  0.22646398618E+03  0.46999998093E+01 0.  1.
       -5    1    3    3    0  502 -0.10400815899E+02 -0.19790607272E+03 -0.10768600853E+04  0.10949542109E+04  0.46999998093E+01 0. -1.
</event>
<event>
 5   0  0.1630202E-03  0.9000985E+03  0.7818609E-02  0.9425458E-01
       -2   -1    0    0    0  501  0.00000000000E+00  0.00000000000E+00  0.17039393918E+03  0.17039393919E+03  0.25500000920E-02 0.  1.
        2   -1    0    0  501    0  0.00000000000E+00  0.00000000000E+00 -0.11886826601E+04  0.11886826601E+04  0.25500000920E-02 0. -1.
    10030    2    1    2    0    0  0.00000000000E+00  0.00000000000E+00 -0.10182887209E+04  0.13590765993E+04  0.90009848549E+03 0.  0.
        4    1    3    3  502    0 -0.28381890798E+03  0.23112303344E+03 -0.11375380143E+03  0.38329175487E+03  0.12699999809E+01 0.  1.
       -4    1    3    3    0  502  0.28381890798E+03 -0.23112303344E+03 -0.90453491946E+03  0.97578484439E+03  0.12699999809E+01 0. -1.
</event>
<event>
 5   0  0.1536020E-03  0.9002238E+03  0.7818609E-02  0.9425302E-01
        2   -1    0    0  501    0  0.00000000000E+00  0.00000000000E+00  0.13881663788E+04  0.13881663788E+04  0.25500000920E-02 0. -1.
       -2   -1    0    0    0  501  0.00000000000E+00  0.00000000000E+00 -0.14594844563E+03  0.14594844565E+03  0.25500000920E-02 0.  1.
    10030    2    1    2    0    0  0.00000000000E+00  0.00000000000E+00  0.12422179332E+04  0.15341148245E+04  0.90022380614E+03 0.  0.
        2    1    3    3  502    0 -0.28120857274E+03  0.10135720879E+03  0.47620211946E+02  0.30268668578E+03  0.25500000920E-02 0.  1.
       -2    1    3    3    0  502  0.28120857274E+03 -0.10135720879E+03  0.11945977213E+04  0.12314281387E+04  0.25500000920E-02 0. -1.
</event>
<event>
 5   0  0.1635686E-03  0.8879314E+03  0.7818609E-02  0.9440795E-01
        2   -1    0    0  501    0  0.00000000000E+00  0.00000000000E+00  0.74931429349E+03  0.74931429349E+03  0.25500000920E-02 0. -1.
       -2   -1    0    0    0  501  0.00000000000E+00  0.00000000000E+00 -0.26304789830E+03  0.26304789831E+03  0.25500000920E-02 0.  1.
    10030    2    1    2    0    0  0.00000000000E+00  0.00000000000E+00  0.48626639519E+03  0.10123621918E+04  0.88793141645E+03 0.  0.
        5    1    3    3  502    0  0.29221478571E+02  0.42971283378E+03  0.36580482184E+03  0.56510377101E+03  0.46999998093E+01 0. -1.
       -5    1    3    3    0  502 -0.29221478571E+02 -0.42971283378E+03  0.12046157335E+03  0.44725842080E+03  0.46999998093E+01 0.  1.
</event>
<event>
 5   0  0.1635686E-03  0.9001312E+03  0.7818609E-02  0.9425417E-01
       -2   -1    0    0    0  501  0.00000000000E+00  0.00000000000E+00  0.13134870978E+04  0.13134870978E+04  0.25500000920E-02 0. -1.
        2   -1    0    0  501    0  0.00000000000E+00  0.00000000000E+00 -0.15421473304E+03  0.15421473306E+03  0.25500000920E-02 0.  1.
    10030    2    1    2    0    0  0.00000000000E+00  0.00000000000E+00  0.11592723648E+04  0.14677018309E+04  0.90013123966E+03 0.  0.
        5    1    3    3  502    0 -0.34890419099E+03 -0.27845580998E+03  0.48646387181E+03  0.66025825339E+03  0.46999998093E+01 0. -1.
       -5    1    3    3    0  502  0.34890419099E+03  0.27845580998E+03  0.67280849295E+03  0.80744357747E+03  0.46999998093E+01 0.  1.
</event>
<event>
 5   0  0.1007561E-03  0.9001825E+03  0.7818609E-02  0.9425353E-01
        1   -1    0    0  501    0  0.00000000000E+00  0.00000000000E+00  0.99375024143E+03  0.99375024145E+03  0.50400001928E-02 0.  1.
       -1   -1    0    0    0  501  0.00000000000E+00  0.00000000000E+00 -0.20385617998E+03  0.20385618004E+03  0.50400001928E-02 0. -1.
    10030    2    1    2    0    0  0.00000000000E+00  0.00000000000E+00  0.78989406146E+03  0.11976064215E+04  0.90018248842E+03 0.  0.
        2    1    3    3  502    0 -0.80277757736E+02 -0.44062483409E+03  0.33563778412E+03  0.55968516591E+03  0.25500000920E-02 0.  1.
       -2    1    3    3    0  502  0.80277757736E+02  0.44062483409E+03  0.45425627734E+03  0.63792125557E+03  0.25500000920E-02 0. -1.
</event>
<event>
 5   0  0.1007561E-03  0.8999169E+03  0.7818609E-02  0.9425685E-01
       -1   -1    0    0    0  501  0.00000000000E+00  0.00000000000E+00  0.38584094485E+03  0.38584094488E+03  0.50400001928E-02 0.  1.
        1   -1    0    0  501    0  0.00000000000E+00  0.00000000000E+00 -0.52473076409E+03  0.52473076411E+03  0.50400001928E-02 0. -1.
    10030    2    1    2    0    0  0.00000000000E+00  0.00000000000E+00 -0.13888981924E+03  0.91057170900E+03  0.89991691580E+03 0.  0.
        2    1    3    3  502    0  0.32921010718E+03 -0.13172641383E+03  0.21083921488E+03  0.41253401958E+03  0.25500000920E-02 0.  1.
       -2    1    3    3    0  502 -0.32921010718E+03  0.13172641383E+03 -0.34972903411E+03  0.49803768942E+03  0.25500000920E-02 0. -1.
</event>
<event>
 5   0  0.6375625E-04  0.8994530E+03  0.7818609E-02  0.9426265E-01
       -4   -1    0    0    0  501  0.00000000000E+00  0.00000000000E+00  0.24517464579E+03  0.24517793505E+03  0.12699999809E+01 0.  1.
        4   -1    0    0  501    0  0.00000000000E+00  0.00000000000E+00 -0.82492883150E+03  0.82492980910E+03  0.12699999809E+01 0. -1.
    10030    2    1    2    0    0  0.00000000000E+00  0.00000000000E+00 -0.57975418572E+03  0.10701077442E+04  0.89945298278E+03 0.  0.
        1    1    3    3  502    0 -0.39698090025E+03 -0.59178539263E+02 -0.53124308495E+03  0.66581915713E+03  0.50400001928E-02 0.  1.
       -1    1    3    3    0  502  0.39698090025E+03  0.59178539263E+02 -0.48511100765E+02  0.40428858702E+03  0.50400001928E-02 0. -1.
</event>
<event>
 5   0  0.9697941E-04  0.8999876E+03  0.7818609E-02  0.9425597E-01
        1   -1    0    0  501    0  0.00000000000E+00  0.00000000000E+00  0.10869746580E+04  0.10869746580E+04  0.50400001928E-02 0.  1.
       -1   -1    0    0    0  501  0.00000000000E+00  0.00000000000E+00 -0.18629176026E+03  0.18629176032E+03  0.50400001928E-02 0. -1.
    10030    2    1    2    0    0  0.00000000000E+00  0.00000000000E+00  0.90068289772E+03  0.12732664183E+04  0.89998760534E+03 0.  0.
        5    1    3    3  502    0 -0.64485982495E+02 -0.36453669128E+03  0.81221838041E+03  0.89261762737E+03  0.46999998093E+01 0.  1.
       -5    1    3    3    0  502  0.64485982495E+02  0.36453669128E+03  0.88464517315E+02  0.38064879094E+03  0.46999998093E+01 0. -1.
</event>
<event>
 5   0  0.1704416E-03  0.9038323E+03  0.7818609E-02  0.9420803E-01
       -2   -1    0    0    0  501  0.00000000000E+00  0.00000000000E+00  0.11936662391E+03  0.11936662394E+03  0.25500000920E-02 0. -1.
        2   -1    0    0  501    0  0.00000000000E+00  0.00000000000E+00 -0.17109322841E+04  0.17109322841E+04  0.25500000920E-02 0.  1.
    10030    2    1    2    0    0  0.00000000000E+00  0.00000000000E+00 -0.15915656602E+04  0.18302989080E+04  0.90383230861E+03 0.  0.
        3    1    3    3  502    0 -0.45915901941E+02  0.37399797471E+03 -0.29055420626E+03  0.47581983157E+03  0.10100000352E+00 0. -1.
       -3    1    3    3    0  502  0.45915901941E+02 -0.37399797471E+03 -0.13010114539E+04  0.13544790765E+04  0.10100000352E+00 0.  1.
</event>
<event>
 5   0  0.9223454E-04  0.9020134E+03  0.7818609E-02  0.9423068E-01
        1   -1    0    0  501    0  0.00000000000E+00  0.00000000000E+00  0.81590119328E+03  0.81590119330E+03  0.50400001928E-02 0.  1.
       -1   -1    0    0    0  501  0.00000000000E+00  0.00000000000E+00 -0.24930353348E+03  0.24930353353E+03  0.50400001928E-02 0. -1.
    10030    2    1    2    0    0  0.00000000000E+00  0.00000000000E+00  0.56659765980E+03  0.10652047268E+04  0.90201341562E+03 0.  0.
        1    1    3    3  502    0 -0.25103664757E+03 -0.26764358183E+03 -0.26351008667E+02  0.36789517664E+03  0.50400001928E-02 0. -1.
       -1    1    3    3    0  502  0.25103664757E+03  0.26764358183E+03  0.59294866847E+03  0.69730955018E+03  0.50400001928E-02 0.  1.
</event>
<event>
 5   0  0.1007561E-03  0.9013233E+03  0.7818609E-02  0.9423929E-01
        1   -1    0    0  501    0  0.00000000000E+00  0.00000000000E+00  0.26385727817E+03  0.26385727822E+03  0.50400001928E-02 0. -1.
       -1   -1    0    0    0  501  0.00000000000E+00  0.00000000000E+00 -0.76971894148E+03  0.76971894149E+03  0.50400001928E-02 0.  1.
    10030    2    1    2    0    0  0.00000000000E+00  0.00000000000E+00 -0.50586166331E+03  0.10335762197E+04  0.90132334905E+03 0.  0.
        2    1    3    3  502    0 -0.44219271469E+03  0.54305108333E+02 -0.33081159962E+03  0.55490517764E+03  0.25500000920E-02 0.  1.
       -2    1    3    3    0  502  0.44219271469E+03 -0.54305108333E+02 -0.17505006369E+03  0.47867104208E+03  0.25500000920E-02 0. -1.
</event>
<event>
 5   0  0.9697941E-04  0.9010937E+03  0.7818609E-02  0.9424215E-01
        1   -1    0    0  501    0  0.00000000000E+00  0.00000000000E+00  0.96447206569E+03  0.96447206570E+03  0.50400001928E-02 0.  1.
       -1   -1    0    0    0  501  0.00000000000E+00  0.00000000000E+00 -0.21047005070E+03  0.21047005076E+03  0.50400001928E-02 0. -1.
    10030    2    1    2    0    0  0.00000000000E+00  0.00000000000E+00  0.75400201499E+03  0.11749421165E+04  0.90109374564E+03 0.  0.
        5    1    3    3  502    0 -0.16835749708E+03  0.56859940976E+02 -0.16281176579E+03  0.24105406196E+03  0.46999998093E+01 0. -1.
       -5    1    3    3    0  502  0.16835749708E+03 -0.56859940976E+02  0.91681378078E+03  0.93388805450E+03  0.46999998093E+01 0.  1.
</event>
<event>
 5   0  0.1536020E-03  0.9006336E+03  0.7818609E-02  0.9424790E-01
       -2   -1    0    0    0  501  0.00000000000E+00  0.00000000000E+00  0.56452245990E+03  0.56452245991E+03  0.25500000920E-02 0.  1.
        2   -1    0    0  501    0  0.00000000000E+00  0.00000000000E+00 -0.35921554134E+03  0.35921554135E+03  0.25500000920E-02 0. -1.
    10030    2    1    2    0    0  0.00000000000E+00  0.00000000000E+00  0.20530691856E+03  0.92373800126E+03  0.90063364592E+03 0.  0.
        2    1    3    3  502    0  0.29943424599E+03 -0.31292584440E+03  0.22911195078E+03  0.48997524199E+03  0.25500000920E-02 0. -1.
       -2    1    3    3    0  502 -0.29943424599E+03  0.31292584440E+03 -0.23805032222E+02  0.43376275927E+03  0.25500000920E-02 0.  1.
</event>
<event>
 5   0  0.1630202E-03  0.8986756E+03  0.7818609E-02  0.9427238E-01
        2   -1    0    0  501    0  0.00000000000E+00  0.00000000000E+00  0.34971831089E+03  0.34971831090E+03  0.25500000920E-02 0.  1.
       -2   -1    0    0    0  501  0.00000000000E+00  0.00000000000E+00 -0.57733456514E+03  0.57733456514E+03  0.25500000920E-02 0. -1.
    10030    2    1    2    0    0  0.00000000000E+00  0.00000000000E+00 -0.22761625425E+03  0.92705287605E+03  0.89867562323E+03 0.  0.
        4    1    3    3  502    0  0.20093840784E+03  0.37420486425E+03 -0.26505758429E+03  0.50066222152E+03  0.12699999809E+01 0. -1.
       -4    1    3    3    0  502 -0.20093840784E+03 -0.37420486425E+03  0.37441330049E+02  0.42639065452E+03  0.12699999809E+01 0.  1.
</event>
<event>
 5   0  0.9321543E-04  0.9068925E+03  0.7818609E-02  0.9417006E-01
       -1   -1    0    0    0  501  0.00000000000E+00  0.00000000000E+00  0.16607485943E+03  0.16607485950E+03  0.50400001928E-02 0. -1.
        1   -1    0    0  501    0  0.00000000000E+00  0.00000000000E+00 -0.12380773332E+04  0.12380773332E+04  0.50400001928E-02 0.  1.
    10030    2    1    2    0    0  0.00000000000E+00  0.00000000000E+00 -0.10720024738E+04  0.14041521927E+04  0.90689253859E+03 0.  0.
        3    1    3    3  502    0  0.27888777299E+03 -0.35261681538E+03 -0.44444769450E+03  0.63217938258E+03  0.10100000352E+00 0.  1.
       -3    1    3    3    0  502 -0.27888777299E+03  0.35261681538E+03 -0.62755477930E+03  0.77197281017E+03  0.10100000352E+00 0. -1.
</event>
<event>
 5   0  0.1536020E-03  0.8994231E+03  0.7818609E-02  0.9426303E-01
       -2   -1    0    0    0  501  0.00000000000E+00  0.00000000000E+00  0.32601149604E+03  0.32601149605E+03  0.25500000920E-02 0.  1.
        2   -1    0    0  501    0  0.00000000000E+00  0.00000000000E+00 -0.62034762572E+03  0.62034762572E+03  0.25500000920E-02 0. -1.
    10030    2    1    2    0    0  0.00000000000E+00  0.00000000000E+00 -0.29433612968E+03  0.94635912177E+03  0.89942305404E+03 0.  0.
        2    1    3    3  502    0 -0.59174490304E+02  0.10741228488E+03  0.30807836424E+03  0.33158904952E+03  0.25500000920E-02 0.  1.
       -2    1    3    3    0  502  0.59174490304E+02 -0.10741228488E+03 -0.60241449392E+03  0.61477007225E+03  0.25500000920E-02 0. -1.
</event>
<event>
 5   0  0.9697941E-04  0.8998375E+03  0.7818609E-02  0.9425785E-01
       -1   -1    0    0    0  501  0.00000000000E+00  0.00000000000E+00  0.54932426001E+03  0.54932426004E+03  0.50400001928E-02 0.  1.
        1   -1    0    0  501    0  0.00000000000E+00  0.00000000000E+00 -0.36850165968E+03  0.36850165971E+03  0.50400001928E-02 0. -1.
    10030    2    1    2    0    0  0.00000000000E+00  0.00000000000E+00  0.18082260033E+03  0.91782591975E+03  0.89983754432E+03 0.  0.
        5    1    3    3  502    0  0.44642318320E+03 -0.24008739970E+02  0.39058709654E+02  0.44879589001E+03  0.46999998093E+01 0. -1.
       -5    1    3    3    0  502 -0.44642318320E+03  0.24008739970E+02  0.14176389068E+03  0.46903002974E+03  0.46999998093E+01 0.  1.
</event>
<event>
 5   0  0.6375625E-04  0.9077215E+03  0.7818609E-02  0.9415980E-01
        3   -1    0    0  501    0  0.00000000000E+00  0.00000000000E+00  0.52272369494E+03  0.52272370470E+03  0.10100000352E+00 0. -1.
       -3   -1    0    0    0  501  0.00000000000E+00  0.00000000000E+00 -0.39406972456E+03  0.39406973750E+03  0.10100000352E+00 0.  1.
    10030    2    1    2    0    0  0.00000000000E+00  0.00000000000E+00  0.12865397038E+03  0.91679344220E+03  0.90772152754E+03 0.  0.
        4    1    3    3  502    0  0.16350983094E+03  0.28609113618E+03 -0.25088890273E+03  0.41416235636E+03  0.12699999809E+01 0.  1.
       -4    1    3    3    0  502 -0.16350983094E+03 -0.28609113618E+03  0.37954287311E+03  0.50263108583E+03  0.12699999809E+01 0. -1.
</event>
<event>
 5   0  0.9981885E-04  0.9017011E+03  0.7818609E-02  0.9423457E-01
       -1   -1    0    0    0  501  0.00000000000E+00  0.00000000000E+00  0.55049099579E+03  0.55049099581E+03  0.50400001928E-02 0. -1.
        1   -1    0    0  501    0  0.00000000000E+00  0.00000000000E+00 -0.36924530013E+03  0.36924530016E+03  0.50400001928E-02 0.  1.
    10030    2    1    2    0    0  0.00000000000E+00  0.00000000000E+00  0.18124569567E+03  0.91973629597E+03  0.90170108791E+03 0.  0.
        4    1    3    3  502    0 -0.31706455580E+03 -0.28190162073E+03  0.24620613234E+03  0.49052780637E+03  0.12699999809E+01 0.  1.
       -4    1    3    3    0  502  0.31706455580E+03  0.28190162073E+03 -0.64960436673E+02  0.42920848961E+03  0.12699999809E+01 0. -1.
</event>
<event>
 5   0  0.1007561E-03  0.9011024E+03  0.7818609E-02  0.9424204E-01
        1   -1    0    0  501    0  0.00000000000E+00  0.00000000000E+00  0.32692116158E+03  0.32692116162E+03  0.50400001928E-02 0. -1.
       -1   -1    0    0    0  501  0.00000000000E+00  0.00000000000E+00 -0.62093371415E+03  0.62093371417E+03  0.50400001928E-02 0.  1.
    10030    2    1    2    0    0  0.00000000000E+00  0.00000000000E+00 -0.29401255257E+03  0.94785487579E+03  0.90110237181E+03 0.  0.
        2    1    3    3  502    0 -0.11739375305E+03 -0.15828421317E+03  0.27918342976E+03  0.34172880015E+03  0.25500000920E-02 0. -1.
       -2    1    3    3    0  502  0.11739375305E+03  0.15828421317E+03 -0.57319598233E+03  0.60612607563E+03  0.25500000920E-02 0.  1.
</event>
<event>
 5   0  0.9697941E-04  0.8952336E+03  0.7818609E-02  0.9431559E-01
       -1   -1    0    0    0  501  0.00000000000E+00  0.00000000000E+00  0.18379982351E+03  0.18379982358E+03  0.50400001928E-02 0. -1.
        1   -1    0    0  501    0  0.00000000000E+00  0.00000000000E+00 -0.10901032850E+04  0.10901032850E+04  0.50400001928E-02 0.  1.
    10030    2    1    2    0    0  0.00000000000E+00  0.00000000000E+00 -0.90630346147E+03  0.12739031086E+04  0.89523358167E+03 0.  0.
        5    1    3    3  502    0  0.15147944680E+03 -0.39561659977E+03 -0.24753085730E+03  0.49066498971E+03  0.46999998093E+01 0. -1.
       -5    1    3    3    0  502 -0.15147944680E+03  0.39561659977E+03 -0.65877260417E+03  0.78323811885E+03  0.46999998093E+01 0.  1.
</event>
<event>
 5   0  0.9223454E-04  0.9001927E+03  0.7818609E-02  0.9425341E-01
       -1   -1    0    0    0  501  0.00000000000E+00  0.00000000000E+00  0.33952334967E+03  0.33952334971E+03  0.50400001928E-02 0.  1.
        1   -1    0    0  501    0  0.00000000000E+00  0.00000000000E+00 -0.59667982433E+03  0.59667982435E+03  0.50400001928E-02 0. -1.
    10030    2    1    2    0    0  0.00000000000E+00  0.00000000000E+00 -0.25715647466E+03  0.93620317406E+03  0.90019271863E+03 0.  0.
        1    1    3    3  502    0 -0.12136934739E+03  0.42681774239E+03 -0.20697838938E+03  0.48963655644E+03  0.50400001928E-02 0. -1.
       -1    1    3    3    0  502  0.12136934739E+03 -0.42681774239E+03 -0.50178085281E+02  0.44656661762E+03  0.50400001928E-02 0.  1.
</event>
<event>
 5   0  0.1704416E-03  0.8994946E+03  0.7818609E-02  0.9426213E-01
       -2   -1    0    0    0  501  0.00000000000E+00  0.00000000000E+00  0.89660960463E+02  0.89660960499E+02  0.25500000920E-02 0.  1.
        2   -1    0    0  501    0  0.00000000000E+00  0.00000000000E+00 -0.22559721032E+04  0.22559721032E+04  0.25500000920E-02 0. -1.
    10030    2    1    2    0    0  0.00000000000E+00  0.00000000000E+00 -0.21663111428E+04  0.23456330637E+04  0.89949458163E+03 0.  0.
        3    1    3    3  502    0 -0.34258859050E+03 -0.17145148337E+03 -0.46876098691E+03  0.60539196108E+03  0.10100000352E+00 0.  1.
       -3    1    3    3    0  502  0.34258859050E+03  0.17145148337E+03 -0.16975501558E+04  0.17402411026E+04  0.10100000352E+00 0. -1.
</event>
<event>
 5   0  0.1704416E-03  0.8923188E+03  0.7818609E-02  0.9435235E-01
       -2   -1    0    0    0  501  0.00000000000E+00  0.00000000000E+00  0.63491870856E+03  0.63491870857E+03  0.25500000920E-02 0. -1.
        2   -1    0    0  501    0  0.00000000000E+00  0.00000000000E+00 -0.31351764087E+03  0.31351764088E+03  0.25500000920E-02 0.  1.
    10030    2    1    2    0    0  0.00000000000E+00  0.00000000000E+00  0.32140106770E+03  0.94843634944E+03  0.89231881221E+03 0.  0.
        3    1    3    3  502    0 -0.24274002931E+03 -0.31915278915E+03 -0.47248534209E+02  0.40374950011E+03  0.10100000352E+00 0.  1.
       -3    1    3    3    0  502  0.24274002931E+03  0.31915278915E+03  0.36864960191E+03  0.54468684934E+03  0.10100000352E+00 0. -1.
</event>
<event>
 5   0  0.9697941E-04  0.9008495E+03  0.7818609E-02  0.9424520E-01
        1   -1    0    0  501    0  0.00000000000E+00  0.00000000000E+00  0.66711551168E+03  0.66711551170E+03  0.50400001928E-02 0.  1.
       -1   -1    0    0    0  501  0.00000000000E+00  0.00000000000E+00 -0.30411891992E+03  0.30411891996E+03  0.50400001928E-02 0. -1.
    10030    2    1    2    0    0  0.00000000000E+00  0.00000000000E+00  0.36299659177E+03  0.97123443166E+03  0.90084948555E+03 0.  0.
        5    1    3    3  502    0 -0.35550068719E+02 -0.26854630919E+02 -0.30171090092E+03  0.30501891141E+03  0.46999998093E+01 0. -1.
       -5    1    3    3    0  502  0.35550068719E+02  0.26854630919E+02  0.66470749269E+03  0.66621552025E+03  0.46999998093E+01 0.  1.
</event>
<event>
 5   0  0.9321543E-04  0.8964451E+03  0.7818609E-02  0.9430036E-01
       -1   -1    0    0    0  501  0.00000000000E+00  0.00000000000E+00  0.28955028151E+03  0.28955028155E+03  0.50400001928E-02 0. -1.
        1   -1    0    0  501    0  0.00000000000E+00  0.00000000000E+00 -0.69384655999E+03  0.69384656001E+03  0.50400001928E-02 0.  1.
    10030    2    1    2    0    0  0.00000000000E+00  0.00000000000E+00 -0.40429627848E+03  0.98339684156E+03  0.89644512782E+03 0.  0.
        3    1    3    3  502    0 -0.29569853192E+03 -0.32960270256E+03 -0.12592550938E+03  0.46036160508E+03  0.10100000352E+00 0. -1.
       -3    1    3    3    0  502  0.29569853192E+03  0.32960270256E+03 -0.27837076910E+03  0.52303523649E+03  0.10100000352E+00 0.  1.
</event>
<event>
 5   0  0.9321543E-04  0.8991610E+03  0.7818609E-02  0.9426631E-01
        1   -1    0    0  501    0  0.00000000000E+00  0.00000000000E+00  0.25736561699E+03  0.25736561704E+03  0.50400001928E-02 0. -1.
       -1   -1    0    0    0  501  0.00000000000E+00  0.00000000000E+00 -0.78535216918E+03  0.78535216919E+03  0.50400001928E-02 0.  1.
    10030    2    1    2    0    0  0.00000000000E+00  0.00000000000E+00 -0.52798655219E+03  0.10427177862E+04  0.89916104366E+03 0.  0.
        3    1    3    3  502    0 -0.24126182083E+03 -0.30947788394E+03 -0.51842834349E+03  0.65019365144E+03  0.10100000352E+00 0.  1.
       -3    1    3    3    0  502  0.24126182083E+03  0.30947788394E+03 -0.95582086986E+01  0.39252413479E+03  0.10100000352E+00 0. -1.
</event>
<event>
 5   0  0.1536020E-03  0.8944955E+03  0.7818609E-02  0.9432489E-01
        2   -1    0    0  501    0  0.00000000000E+00  0.00000000000E+00  0.31304964212E+03  0.31304964213E+03  0.25500000920E-02 0. -1.
       -2   -1    0    0    0  501  0.00000000000E+00  0.00000000000E+00 -0.63897386970E+03  0.63897386970E+03  0.25500000920E-02 0.  1.
    10030    2    1    2    0    0  0.00000000000E+00  0.00000000000E+00 -0.32592422758E+03  0.95202351183E+03  0.89449548068E+03 0.  0.
        2    1    3    3  502    0  0.27603828002E+03 -0.33440572459E+03 -0.27958201842E+03  0.51593645511E+03  0.25500000920E-02 0. -1.
       -2    1    3    3    0  502 -0.27603828002E+03  0.33440572459E+03 -0.46342209161E+02  0.43608705672E+03  0.25500000920E-02 0.  1.
</event>
<event>
 5   0  0.1536020E-03  0.8995109E+03  0.7818609E-02  0.9426193E-01
        2   -1    0    0  501    0  0.00000000000E+00  0.00000000000E+00  0.11885603890E+03  0.11885603893E+03  0.25500000920E-02 0. -1.
       -2   -1    0    0    0  501  0.00000000000E+00  0.00000000000E+00 -0.17018906817E+04  0.17018906817E+04  0.25500000920E-02 0.  1.
    10030    2    1    2    0    0  0.00000000000E+00  0.00000000000E+00 -0.15830346428E+04  0.18207467207E+04  0.89951094514E+03 0.  0.
        2    1    3    3  502    0  0.52859799950E+01  0.42033054843E+03 -0.11152188405E+04  0.11918132294E+04  0.25500000920E-02 0.  1.
       -2    1    3    3    0  502 -0.52859799950E+01 -0.42033054843E+03 -0.46781580231E+03  0.62893349126E+03  0.25500000920E-02 0. -1.
</event>
<event>
 5   0  0.9981885E-04  0.9029733E+03  0.7818609E-02  0.9421872E-01
        1   -1    0    0  501    0  0.00000000000E+00  0.00000000000E+00  0.56017759006E+03  0.56017759008E+03  0.50400001928E-02 0.  1.
       -1   -1    0    0    0  501  0.00000000000E+00  0.00000000000E+00 -0.36388493705E+03  0.36388493708E+03  0.50400001928E-02 0. -1.
    10030    2    1    2    0    0  0.00000000000E+00  0.00000000000E+00  0.19629265301E+03  0.92406252717E+03  0.90297328227E+03 0.  0.
        4    1    3    3  502    0  0.76915915701E+02  0.28742599733E+03 -0.24935599309E+03  0.38821358325E+03  0.12699999809E+01 0. -1.
       -4    1    3    3    0  502 -0.76915915701E+02 -0.28742599733E+03  0.44564864610E+03  0.53584894392E+03  0.12699999809E+01 0.  1.
</event>
<event>
 5   0  0.1641516E-03  0.8723574E+03  0.7818609E-02  0.9460811E-01
       -2   -1    0    0    0  501  0.00000000000E+00  0.00000000000E+00  0.78791496541E+03  0.78791496541E+03  0.25500000920E-02 0.  1.
        2   -1    0    0  501    0  0.00000000000E+00  0.00000000000E+00 -0.24146241341E+03  0.24146241342E+03  0.25500000920E-02 0. -1.
    10030    2    1    2    0    0  0.00000000000E+00  0.00000000000E+00  0.54645255200E+03  0.10293773788E+04  0.87235737887E+03 0.  0.
        1    1    3    3  502    0 -0.55242300139E+02 -0.28575839930E+03  0.65657445629E+03  0.71819189022E+03  0.50400001928E-02 0.  1.
       -1    1    3    3    0  502  0.55242300139E+02  0.28575839930E+03 -0.11012190429E+03  0.31118548862E+03  0.50400001928E-02 0. -1.
</event>
<event>
 5   0  0.6375625E-04  0.9031297E+03  0.7818609E-02  0.9421678E-01
       -3   -1    0    0    0  501  0.00000000000E+00  0.00000000000E+00  0.14599692928E+04  0.14599692963E+04  0.10100000352E+00 0. -1.
        3   -1    0    0  501    0  0.00000000000E+00  0.00000000000E+00 -0.13966784442E+03  0.13966788094E+03  0.10100000352E+00 0.  1.
    10030    2    1    2    0    0  0.00000000000E+00  0.00000000000E+00  0.13203014484E+04  0.15996371772E+04  0.90312966078E+03 0.  0.
        2    1    3    3  502    0  0.14108787619E+03 -0.41655846229E+03  0.84150843404E+03  0.94950681192E+03  0.25500000920E-02 0. -1.
       -2    1    3    3    0  502 -0.14108787619E+03  0.41655846229E+03  0.47879301435E+03  0.65013036532E+03  0.25500000920E-02 0.  1.
</event>
<event>
 5   0  0.1635686E-03  0.8989736E+03  0.7818609E-02  0.9426865E-01
       -2   -1    0    0    0  501  0.00000000000E+00  0.00000000000E+00  0.83392184307E+03  0.83392184307E+03  0.25500000920E-02 0. -1.
        2   -1    0    0  501    0  0.00000000000E+00  0.00000000000E+00 -0.24227498401E+03  0.24227498402E+03  0.25500000920E-02 0.  1.
    10030    2    1    2    0    0  0.00000000000E+00  0.00000000000E+00  0.59164685906E+03  0.10761968271E+04  0.89897363966E+03 0.  0.
        5    1    3    3  502    0 -0.38443505276E+03  0.14292440739E+03  0.75736524449E+02  0.41710407233E+03  0.46999998093E+01 0.  1.
       -5    1    3    3    0  502  0.38443505276E+03 -0.14292440739E+03  0.51591033461E+03  0.65909275476E+03  0.46999998093E+01 0. -1.
</event>
<event>
 5   0  0.1635686E-03  0.8991620E+03  0.7818609E-02  0.9426630E-01
       -2   -1    0    0    0  501  0.00000000000E+00  0.00000000000E+00  0.13835820620E+03  0.13835820623E+03  0.25500000920E-02 0. -1.
        2   -1    0    0  501    0  0.00000000000E+00  0.00000000000E+00 -0.14608679291E+04  0.14608679291E+04  0.25500000920E-02 0.  1.
    10030    2    1    2    0    0  0.00000000000E+00  0.00000000000E+00 -0.13225097229E+04  0.15992261354E+04  0.89916197916E+03 0.  0.
        5    1    3    3  502    0 -0.45571767637E+02  0.40334673097E+02 -0.14534639629E+04  0.14547450819E+04  0.46999998093E+01 0.  1.
       -5    1    3    3    0  502  0.45571767637E+02 -0.40334673097E+02  0.13095423995E+03  0.14448105349E+03  0.46999998093E+01 0. -1.
</event>
<event>
 5   0  0.6375625E-04  0.9016370E+03  0.7818609E-02  0.9423537E-01
       -3   -1    0    0    0  501  0.00000000000E+00  0.00000000000E+00  0.48476430418E+03  0.48476431470E+03  0.10100000352E+00 0. -1.
        3   -1    0    0  501    0  0.00000000000E+00  0.00000000000E+00 -0.41924973082E+03  0.41924974299E+03  0.10100000352E+00 0.  1.
    10030    2    1    2    0    0  0.00000000000E+00  0.00000000000E+00  0.65514573358E+02  0.90401405769E+03  0.90163698747E+03 0.  0.
        5    1    3    3  502    0 -0.32710512511E+03 -0.19571937740E+03 -0.20852500380E+03  0.43452112120E+03  0.46999998093E+01 0. -1.
       -5    1    3    3    0  502  0.32710512511E+03  0.19571937740E+03  0.27403957716E+03  0.46949293649E+03  0.46999998093E+01 0.  1.
</event>
<event>
 5   0  0.1536020E-03  0.8977841E+03  0.7818609E-02  0.9428356E-01
       -2   -1    0    0    0  501  0.00000000000E+00  0.00000000000E+00  0.26048229602E+03  0.26048229603E+03  0.25500000920E-02 0.  1.
        2   -1    0    0  501    0  0.00000000000E+00  0.00000000000E+00 -0.77358062932E+03  0.77358062933E+03  0.25500000920E-02 0. -1.
    10030    2    1    2    0    0  0.00000000000E+00  0.00000000000E+00 -0.51309833331E+03  0.10340629254E+04  0.89778406867E+03 0.  0.
        2    1    3    3  502    0 -0.24186819805E+03  0.13433037352E+03 -0.66370359553E+03  0.71906003728E+03  0.25500000920E-02 0. -1.
       -2    1    3    3    0  502  0.24186819805E+03 -0.13433037352E+03  0.15060526223E+03  0.31500288808E+03  0.25500000920E-02 0.  1.
</event>
<event>
 5   0  0.9697941E-04  0.9007937E+03  0.7818609E-02  0.9424590E-01
        1   -1    0    0  501    0  0.00000000000E+00  0.00000000000E+00  0.68816434880E+03  0.68816434882E+03  0.50400001928E-02 0. -1.
       -1   -1    0    0    0  501  0.00000000000E+00  0.00000000000E+00 -0.29478035057E+03  0.29478035061E+03  0.50400001928E-02 0.  1.
    10030    2    1    2    0    0  0.00000000000E+00  0.00000000000E+00  0.39338399823E+03  0.98294469943E+03  0.90079371228E+03 0.  0.
        5    1    3    3  502    0 -0.55037158890E+02 -0.36681325904E+03 -0.82053532663E+02  0.37991568550E+03  0.46999998093E+01 0.  1.
       -5    1    3    3    0  502  0.55037158890E+02  0.36681325904E+03  0.47543753090E+03  0.60302901394E+03  0.46999998093E+01 0. -1.
</event>
<event>
 5   0  0.1704416E-03  0.8986459E+03  0.7818609E-02  0.9427276E-01
        2   -1    0    0  501    0  0.00000000000E+00  0.00000000000E+00  0.82184162666E+03  0.82184162667E+03  0.25500000920E-02 0.  1.
       -2   -1    0    0    0  501  0.00000000000E+00  0.00000000000E+00 -0.24565696644E+03  0.24565696645E+03  0.25500000920E-02 0. -1.
    10030    2    1    2    0    0  0.00000000000E+00  0.00000000000E+00  0.57618466022E+03  0.10674985931E+04  0.89864591672E+03 0.  0.
        3    1    3    3  502    0  0.11847399109E+03 -0.22533236364E+03  0.72790355414E+03  0.77113835010E+03  0.10100000352E+00 0.  1.
       -3    1    3    3    0  502 -0.11847399109E+03  0.22533236364E+03 -0.15171889392E+03  0.29636024302E+03  0.10100000352E+00 0. -1.
</event>
<event>
 5   0  0.9321543E-04  0.9005765E+03  0.7818609E-02  0.9424861E-01
        1   -1    0    0  501    0  0.00000000000E+00  0.00000000000E+00  0.22613778234E+04  0.22613778234E+04  0.50400001928E-02 0. -1.
       -1   -1    0    0    0  501  0.00000000000E+00  0.00000000000E+00 -0.89661928649E+02  0.89661928791E+02  0.50400001928E-02 0.  1.
    10030    2    1    2    0    0  0.00000000000E+00  0.00000000000E+00  0.21717158947E+04  0.23510397522E+04  0.90057647586E+03 0.  0.
        3    1    3    3  502    0  0.28826014934E+03  0.31210192190E+02  0.19852502741E+04  0.20063117033E+04  0.10100000352E+00 0. -1.
       -3    1    3    3    0  502 -0.28826014934E+03 -0.31210192190E+02  0.18646562061E+03  0.34472804885E+03  0.10100000352E+00 0.  1.
</event>
<event>
 5   0  0.1630202E-03  0.9107658E+03  0.7818609E-02  0.9412223E-01
       -2   -1    0    0    0  501  0.00000000000E+00  0.00000000000E+00  0.22293325889E+03  0.22293325891E+03  0.25500000920E-02 0. -1.
        2   -1    0    0  501    0  0.00000000000E+00  0.00000000000E+00 -0.93020486449E+03  0.93020486449E+03  0.25500000920E-02 0.  1.
    10030    2    1    2    0    0  0.00000000000E+00  0.00000000000E+00 -0.70727160559E+03  0.11531381234E+04  0.91076583574E+03 0.  0.
        4    1    3    3  502    0  0.50441912332E+02 -0.22078391730E+03  0.14657273408E+03  0.26976861184E+03  0.12699999809E+01 0. -1.
       -4    1    3    3    0  502 -0.50441912332E+02  0.22078391730E+03 -0.85384433968E+03  0.88336951156E+03  0.12699999809E+01 0.  1.
</event>
<event>
 5   0  0.1007561E-03  0.9001789E+03  0.7818609E-02  0.9425358E-01
       -1   -1    0    0    0  501  0.00000000000E+00  0.00000000000E+00  0.28758162721E+03  0.28758162726E+03  0.50400001928E-02 0. -1.
        1   -1    0    0  501    0  0.00000000000E+00  0.00000000000E+00 -0.70442783486E+03  0.70442783487E+03  0.50400001928E-02 0.  1.
    10030    2    1    2    0    0  0.00000000000E+00  0.00000000000E+00 -0.41684620765E+03  0.99200946213E+03  0.90017887785E+03 0.  0.
        2    1    3    3  502    0  0.13591683447E+03  0.40088723351E+02 -0.67920358051E+03  0.69382850577E+03  0.25500000920E-02 0.  1.
       -2    1    3    3    0  502 -0.13591683447E+03 -0.40088723351E+02  0.26235737287E+03  0.29818095636E+03  0.25500000920E-02 0. -1.
</event>
<event>
 5   0  0.9223454E-04  0.8967942E+03  0.7818609E-02  0.9429598E-01
       -1   -1    0    0    0  501  0.00000000000E+00  0.00000000000E+00  0.89362636935E+03  0.89362636936E+03  0.50400001928E-02 0. -1.
        1   -1    0    0  501    0  0.00000000000E+00  0.00000000000E+00 -0.22499332290E+03  0.22499332295E+03  0.50400001928E-02 0.  1.
    10030    2    1    2    0    0  0.00000000000E+00  0.00000000000E+00  0.66863304645E+03  0.11186196923E+04  0.89679421565E+03 0.  0.
        1    1    3    3  502    0 -0.51653912235E+01 -0.37553391825E+03  0.28759232513E+02  0.37666895081E+03  0.50400001928E-02 0.  1.
       -1    1    3    3    0  502  0.51653912235E+01  0.37553391825E+03  0.63987381394E+03  0.74195074150E+03  0.50400001928E-02 0. -1.
</event>
<event>
 5   0  0.1635686E-03  0.9025380E+03  0.7818609E-02  0.9422414E-01
        2   -1    0    0  501    0  0.00000000000E+00  0.00000000000E+00  0.13534380881E+04  0.13534380881E+04  0.25500000920E-02 0. -1.
       -2   -1    0    0    0  501  0.00000000000E+00  0.00000000000E+00 -0.15046399767E+03  0.15046399769E+03  0.25500000920E-02 0.  1.
    10030    2    1    2    0    0  0.00000000000E+00  0.00000000000E+00  0.12029740904E+04  0.15039020858E+04  0.90253798890E+03 0.  0.
        5    1    3    3  502    0  0.22468944648E+03  0.73657993468E+02 -0.38925968887E+02  0.23968347547E+03  0.46999998093E+01 0.  1.
       -5    1    3    3    0  502 -0.22468944648E+03 -0.73657993468E+02  0.12419000593E+04  0.12642186103E+04  0.46999998093E+01 0. -1.
</event>
<event>
 5   0  0.9697941E-04  0.9023047E+03  0.7818609E-02  0.9422705E-01
        1   -1    0    0  501    0  0.00000000000E+00  0.00000000000E+00  0.54118782914E+03  0.54118782916E+03  0.50400001928E-02 0. -1.
       -1   -1    0    0    0  501  0.00000000000E+00  0.00000000000E+00 -0.37609578536E+03  0.37609578539E+03  0.50400001928E-02 0.  1.
    10030    2    1    2    0    0  0.00000000000E+00  0.00000000000E+00  0.16509204378E+03  0.91728361455E+03  0.90230474154E+03 0.  0.
        5    1    3    3  502    0 -0.63154509946E+02 -0.40891505694E+03 -0.10020574575E+03  0.42575027586E+03  0.46999998093E+01 0.  1.
       -5    1    3    3    0  502  0.63154509946E+02  0.40891505694E+03  0.26529778953E+03  0.49153333869E+03  0.46999998093E+01 0. -1.
</event>
<event>
 5   0  0.1704416E-03  0.9005939E+03  0.7818609E-02  0.9424839E-01
       -2   -1    0    0    0  501  0.00000000000E+00  0.00000000000E+00  0.12276849040E+03  0.12276849042E+03  0.25500000920E-02 0.  1.
        2   -1    0    0  501    0  0.00000000000E+00  0.00000000000E+00 -0.16516236665E+04  0.16516236665E+04  0.25500000920E-02 0. -1.
    10030    2    1    2    0    0  0.00000000000E+00  0.00000000000E+00 -0.15288551761E+04  0.17743921569E+04  0.90059390242E+03 0.  0.
        3    1    3    3  502    0 -0.22229464878E+03 -0.57027991387E+02 -0.10994217823E+01  0.22949579867E+03  0.10100000352E+00 0.  1.
       -3    1    3    3    0  502  0.22229464878E+03  0.57027991387E+02 -0.15277557543E+04  0.15448963583E+04  0.10100000352E+00 0. -1.
</event>
<event>
 5   0  0.1641516E-03  0.8994525E+03  0.7818609E-02  0.9426266E-01
       -2   -1    0    0    0  501  0.00000000000E+00  0.00000000000E+00  0.20369195397E+03  0.20369195398E+03  0.25500000920E-02 0. -1.
        2   -1    0    0  501    0  0.00000000000E+00  0.00000000000E+00 -0.99293897052E+03  0.99293897052E+03  0.25500000920E-02 0.  1.
    10030    2    1    2    0    0  0.00000000000E+00  0.00000000000E+00 -0.78924701655E+03  0.11966309245E+04  0.89945245363E+03 0.  0.
        1    1    3    3  502    0  0.14191503834E+01 -0.28556970390E+03  0.67585644789E+02  0.29346190414E+03  0.50400001928E-02 0. -1.
       -1    1    3    3    0  502 -0.14191503834E+01  0.28556970390E+03 -0.85683266134E+03  0.90316902036E+03  0.50400001928E-02 0.  1.
</event>
<event>
 5   0  0.1007561E-03  0.9118946E+03  0.7818609E-02  0.9410834E-01
       -1   -1    0    0    0  501  0.00000000000E+00  0.00000000000E+00  0.13418777197E+03  0.13418777207E+03  0.50400001928E-02 0.  1.
        1   -1    0    0  501    0  0.00000000000E+00  0.00000000000E+00 -0.15492316711E+04  0.15492316711E+04  0.50400001928E-02 0. -1.
    10030    2    1    2    0    0  0.00000000000E+00  0.00000000000E+00 -0.14150438992E+04  0.16834194432E+04  0.91189461300E+03 0.  0.
        2    1    3    3  502    0 -0.44418042018E+03  0.92789242439E+02 -0.78970530302E+03  0.91079116971E+03  0.25500000920E-02 0.  1.
       -2    1    3    3    0  502  0.44418042018E+03 -0.92789242439E+02 -0.62533859614E+03  0.77262827351E+03  0.25500000920E-02 0. -1.
</event>
<event>
 5   0  0.1007561E-03  0.8990189E+03  0.7818609E-02  0.9426809E-01
        1   -1    0    0  501    0  0.00000000000E+00  0.00000000000E+00  0.15620904153E+04  0.15620904153E+04  0.50400001928E-02 0. -1.
       -1   -1    0    0    0  501  0.00000000000E+00  0.00000000000E+00 -0.12935149898E+03  0.12935149907E+03  0.50400001928E-02 0.  1.
    10030    2    1    2    0    0  0.00000000000E+00  0.00000000000E+00  0.14327389163E+04  0.16914419144E+04  0.89901888043E+03 0.  0.
        2    1    3    3  502    0  0.24034025949E+02 -0.59022196359E+02 -0.12080912625E+03  0.13658733125E+03  0.25500000920E-02 0.  1.
       -2    1    3    3    0  502 -0.24034025949E+02  0.59022196359E+02  0.15535480426E+04  0.15548545831E+04  0.25500000920E-02 0. -1.
</event>
<event>
 5   0  0.1704416E-03  0.8979346E+03  0.7818609E-02  0.9428167E-01
       -2   -1    0    0    0  501  0.00000000000E+00  0.00000000000E+00  0.68277454042E+03  0.68277454043E+03  0.25500000920E-02 0. -1.
        2   -1    0    0  501    0  0.00000000000E+00  0.00000000000E+00 -0.29522429388E+03  0.29522429389E+03  0.25500000920E-02 0.  1.
    10030    2    1    2    0    0  0.00000000000E+00  0.00000000000E+00  0.38755024654E+03  0.97799883431E+03  0.89793458911E+03 0.  0.
        3    1    3    3  502    0  0.10512035952E+03 -0.20131603228E+03  0.61559729348E+03  0.65615430561E+03  0.10100000352E+00 0. -1.
       -3    1    3    3    0  502 -0.10512035952E+03  0.20131603228E+03 -0.22804704693E+03  0.32184452870E+03  0.10100000352E+00 0.  1.
</event>
<event>
 5   0  0.1704416E-03  0.8997294E+03  0.7818609E-02  0.9425920E-01
        2   -1    0    0  501    0  0.00000000000E+00  0.00000000000E+00  0.32050937131E+03  0.32050937132E+03  0.25500000920E-02 0. -1.
       -2   -1    0    0    0  501  0.00000000000E+00  0.00000000000E+00 -0.63142699783E+03  0.63142699784E+03  0.25500000920E-02 0.  1.
    10030    2    1    2    0    0  0.00000000000E+00  0.00000000000E+00 -0.31091762653E+03  0.95193636915E+03  0.89972944846E+03 0.  0.
        3    1    3    3  502    0 -0.15215354030E+03  0.32268269701E+03  0.13449304122E+03  0.38126527656E+03  0.10100000352E+00 0. -1.
       -3    1    3    3    0  502  0.15215354030E+03 -0.32268269701E+03 -0.44541066775E+03  0.57067109259E+03  0.10100000352E+00 0.  1.
</event>
<event>
 5   0  0.9981885E-04  0.9225708E+03  0.7818609E-02  0.9397798E-01
        1   -1    0    0  501    0  0.00000000000E+00  0.00000000000E+00  0.51948958053E+03  0.51948958055E+03  0.50400001928E-02 0. -1.
       -1   -1    0    0    0  501  0.00000000000E+00  0.00000000000E+00 -0.40960250004E+03  0.40960250007E+03  0.50400001928E-02 0.  1.
    10030    2    1    2    0    0  0.00000000000E+00  0.00000000000E+00  0.10988708049E+03  0.92909208062E+03  0.92257082320E+03 0.  0.
        4    1    3    3  502    0 -0.31473697835E+03 -0.24246440585E+02  0.39367710237E+03  0.50460928375E+03  0.12699999809E+01 0. -1.
       -4    1    3    3    0  502  0.31473697835E+03  0.24246440585E+02 -0.28379002188E+03  0.42448279687E+03  0.12699999809E+01 0.  1.
</event>
<event>
 5   0  0.9981885E-04  0.8974874E+03  0.7818609E-02  0.9428728E-01
       -1   -1    0    0    0  501  0.00000000000E+00  0.00000000000E+00  0.10725368762E+04  0.10725368762E+04  0.50400001928E-02 0.  1.
        1   -1    0    0  501    0  0.00000000000E+00  0.00000000000E+00 -0.18775198783E+03  0.18775198790E+03  0.50400001928E-02 0. -1.
    10030    2    1    2    0    0  0.00000000000E+00  0.00000000000E+00  0.88478488833E+03  0.12602888641E+04  0.89748744965E+03 0.  0.
        4    1    3    3  502    0 -0.35210811730E+03  0.10150327490E+03  0.80610522204E+03  0.88548872550E+03  0.12699999809E+01 0.  1.
       -4    1    3    3    0  502  0.35210811730E+03 -0.10150327490E+03  0.78679666292E+02  0.37480013857E+03  0.12699999809E+01 0. -1.
</event>
<event>
 5   0  0.9223454E-04  0.8991111E+03  0.7818609E-02  0.9426693E-01
        1   -1    0    0  501    0  0.00000000000E+00  0.00000000000E+00  0.15021677815E+04  0.15021677816E+04  0.50400001928E-02 0.  1.
       -1   -1    0    0    0  501  0.00000000000E+00  0.00000000000E+00 -0.13453902690E+03  0.13453902700E+03  0.50400001928E-02 0. -1.
    10030    2    1    2    0    0  0.00000000000E+00  0.00000000000E+00  0.13676287546E+04  0.16367068085E+04  0.89911109804E+03 0.  0.
        1    1    3    3  502    0  0.72953786901E+02 -0.36816638046E+03  0.11342625329E+04  0.11947469323E+04  0.50400001928E-02 0.  1.
       -1    1    3    3    0  502 -0.72953786901E+02  0.36816638046E+03  0.23336622175E+03  0.44195987623E+03  0.50400001928E-02 0. -1.
</event>
<event>
 5   0  0.9223454E-04  0.9001681E+03  0.7818609E-02  0.9425371E-01
       -1   -1    0    0    0  501  0.00000000000E+00  0.00000000000E+00  0.84823469944E+03  0.84823469946E+03  0.50400001928E-02 0.  1.
        1   -1    0    0  501    0  0.00000000000E+00  0.00000000000E+00 -0.23882029685E+03  0.23882029691E+03  0.50400001928E-02 0. -1.
    10030    2    1    2    0    0  0.00000000000E+00  0.00000000000E+00  0.60941440259E+03  0.10870549964E+04  0.90016812376E+03 0.  0.
        1    1    3    3  502    0  0.65041057026E+02 -0.16049498371E+03 -0.19697827522E+03  0.26227737194E+03  0.50400001928E-02 0. -1.
       -1    1    3    3    0  502 -0.65041057026E+02  0.16049498371E+03  0.80639267781E+03  0.82477762442E+03  0.50400001928E-02 0.  1.
</event>
<event>
 5   0  0.1007561E-03  0.8983504E+03  0.7818609E-02  0.9427646E-01
        1   -1    0    0  501    0  0.00000000000E+00  0.00000000000E+00  0.60262586072E+03  0.60262586074E+03  0.50400001928E-02 0.  1.
       -1   -1    0    0    0  501  0.00000000000E+00  0.00000000000E+00 -0.33479871452E+03  0.33479871455E+03  0.50400001928E-02 0. -1.
    10030    2    1    2    0    0  0.00000000000E+00  0.00000000000E+00  0.26782714620E+03  0.93742457530E+03  0.89835040721E+03 0.  0.
        2    1    3    3  502    0 -0.40242523733E+03 -0.18803988230E+03  0.64277980448E+02  0.44881703149E+03  0.25500000920E-02 0. -1.
       -2    1    3    3    0  502  0.40242523733E+03  0.18803988230E+03  0.20354916576E+03  0.48860754381E+03  0.25500000920E-02 0.  1.
</event>
<event>
 5   0  0.9697941E-04  0.9000619E+03  0.7818609E-02  0.9425504E-01
        1   -1    0    0  501    0  0.00000000000E+00  0.00000000000E+00  0.14225660996E+04  0.14225660996E+04  0.50400001928E-02 0.  1.
       -1   -1    0    0    0  501  0.00000000000E+00  0.00000000000E+00 -0.14236796659E+03  0.14236796668E+03  0.50400001928E-02 0. -1.
    10030    2    1    2    0    0  0.00000000000E+00  0.00000000000E+00  0.12801981330E+04  0.15649340663E+04  0.90006187123E+03 0.  0.
        5    1    3    3  502    0 -0.40397857218E+03  0.11744731304E+03  0.36237973991E+03  0.55527806009E+03  0.46999998093E+01 0.  1.
       -5    1    3    3    0  502  0.40397857218E+03 -0.11744731304E+03  0.91781839310E+03  0.10096560062E+04  0.46999998093E+01 0. -1.
</event>
<event>
 5   0  0.6375625E-04  0.9002720E+03  0.7818609E-02  0.9425241E-01
       -3   -1    0    0    0  501  0.00000000000E+00  0.00000000000E+00  0.77180644381E+03  0.77180645041E+03  0.10100000352E+00 0. -1.
        3   -1    0    0  501    0  0.00000000000E+00  0.00000000000E+00 -0.26253007765E+03  0.26253009708E+03  0.10100000352E+00 0.  1.
    10030    2    1    2    0    0  0.00000000000E+00  0.00000000000E+00  0.50927636615E+03  0.10343365475E+04  0.90027200132E+03 0.  0.
        5    1    3    3  502    0  0.17023060386E+03  0.11621856718E+03 -0.20509334974E+03  0.29081022326E+03  0.46999998093E+01 0.  1.
       -5    1    3    3    0  502 -0.17023060386E+03 -0.11621856718E+03  0.71436971589E+03  0.74352632423E+03  0.46999998093E+01 0. -1.
</event>
<event>
 5   0  0.1007561E-03  0.8978131E+03  0.7818609E-02  0.9428319E-01
        1   -1    0    0  501    0  0.00000000000E+00  0.00000000000E+00  0.87441523842E+03  0.87441523844E+03  0.50400001928E-02 0. -1.
       -1   -1    0    0    0  501  0.00000000000E+00  0.00000000000E+00 -0.23045928421E+03  0.23045928426E+03  0.50400001928E-02 0.  1.
    10030    2    1    2    0    0  0.00000000000E+00  0.00000000000E+00  0.64395595422E+03  0.11048745227E+04  0.89781314311E+03 0.  0.
        2    1    3    3  502    0 -0.11046136608E+03  0.11506584244E+03 -0.19441003964E+03  0.25146992864E+03  0.25500000920E-02 0.  1.
       -2    1    3    3    0  502  0.11046136608E+03 -0.11506584244E+03  0.83836599386E+03  0.85340459406E+03  0.25500000920E-02 0. -1.
</event>
<event>
 5   0  0.1641516E-03  0.9004374E+03  0.7818609E-02  0.9425035E-01
        2   -1    0    0  501    0  0.00000000000E+00  0.00000000000E+00  0.17568324719E+04  0.17568324719E+04  0.25500000920E-02 0.  1.
       -2   -1    0    0    0  501  0.00000000000E+00  0.00000000000E+00 -0.11537631787E+03  0.11537631790E+03  0.25500000920E-02 0. -1.
    10030    2    1    2    0    0  0.00000000000E+00  0.00000000000E+00  0.16414561540E+04  0.18722087898E+04  0.90043736428E+03 0.  0.
        1    1    3    3  502    0 -0.77161431970E+02  0.19745672319E+03  0.16465581821E+04  0.16601496593E+04  0.50400001928E-02 0.  1.
       -1    1    3    3    0  502  0.77161431970E+02 -0.19745672319E+03 -0.51020280800E+01  0.21205913051E+03  0.50400001928E-02 0. -1.
</event>
<event>
 5   0  0.1641516E-03  0.8996420E+03  0.7818609E-02  0.9426029E-01
       -2   -1    0    0    0  501  0.00000000000E+00  0.00000000000E+00  0.20426926459E+03  0.20426926461E+03  0.25500000920E-02 0. -1.
        2   -1    0    0  501    0  0.00000000000E+00  0.00000000000E+00 -0.99054995342E+03  0.99054995342E+03  0.25500000920E-02 0.  1.
    10030    2    1    2    0    0  0.00000000000E+00  0.00000000000E+00 -0.78628068882E+03  0.11948192180E+04  0.89964195219E+03 0.  0.
        1    1    3    3  502    0  0.13088798475E+03 -0.32080666871E+03 -0.12156206123E+02  0.34669346203E+03  0.50400001928E-02 0. -1.
       -1    1    3    3    0  502 -0.13088798475E+03  0.32080666871E+03 -0.77412448270E+03  0.84812575600E+03  0.50400001928E-02 0.  1.
</event>
<event>
 5   0  0.1536020E-03  0.8981589E+03  0.7818609E-02  0.9427886E-01
       -2   -1    0    0    0  501  0.00000000000E+00  0.00000000000E+00  0.28272682277E+03  0.28272682278E+03  0.25500000920E-02 0.  1.
        2   -1    0    0  501    0  0.00000000000E+00  0.00000000000E+00 -0.71331174394E+03  0.71331174394E+03  0.25500000920E-02 0. -1.
    10030    2    1    2    0    0  0.00000000000E+00  0.00000000000E+00 -0.43058492116E+03  0.99603856673E+03  0.89815892362E+03 0.  0.
        2    1    3    3  502    0 -0.41472032020E+03 -0.46046343333E+02 -0.39939335597E+03  0.57760562889E+03  0.25500000920E-02 0. -1.
       -2    1    3    3    0  502  0.41472032020E+03  0.46046343333E+02 -0.31191565193E+02  0.41843293784E+03  0.25500000920E-02 0.  1.
</event>
<event>
 5   0  0.9981885E-04  0.9023955E+03  0.7818609E-02  0.9422592E-01
       -1   -1    0    0    0  501  0.00000000000E+00  0.00000000000E+00  0.11740643986E+03  0.11740643997E+03  0.50400001928E-02 0.  1.
        1   -1    0    0  501    0  0.00000000000E+00  0.00000000000E+00 -0.17339715030E+04  0.17339715030E+04  0.50400001928E-02 0. -1.
    10030    2    1    2    0    0  0.00000000000E+00  0.00000000000E+00 -0.16165650632E+04  0.18513779430E+04  0.90239552547E+03 0.  0.
        4    1    3    3  502    0  0.31709128566E+03 -0.27008502607E+03 -0.45242743933E+03  0.61496748329E+03  0.12699999809E+01 0. -1.
       -4    1    3    3    0  502 -0.31709128566E+03  0.27008502607E+03 -0.11641376238E+04  0.12364104597E+04  0.12699999809E+01 0.  1.
</event>
<event>
 5   0  0.9981885E-04  0.8987914E+03  0.7818609E-02  0.9427093E-01
        1   -1    0    0  501    0  0.00000000000E+00  0.00000000000E+00  0.48802182806E+03  0.48802182809E+03  0.50400001928E-02 0.  1.
       -1   -1    0    0    0  501  0.00000000000E+00  0.00000000000E+00 -0.41382677403E+03  0.41382677406E+03  0.50400001928E-02 0. -1.
    10030    2    1    2    0    0  0.00000000000E+00  0.00000000000E+00  0.74195054026E+02  0.90184860215E+03  0.89879140804E+03 0.  0.
        4    1    3    3  502    0  0.10211073395E+03 -0.41942671932E+02 -0.40000917849E+03  0.41496354718E+03  0.12699999809E+01 0. -1.
       -4    1    3    3    0  502 -0.10211073395E+03  0.41942671932E+02  0.47420423251E+03  0.48688505497E+03  0.12699999809E+01 0.  1.
</event>
<event>
 5   0  0.9223454E-04  0.9043545E+03  0.7818609E-02  0.9420154E-01
        1   -1    0    0  501    0  0.00000000000E+00  0.00000000000E+00  0.94885526360E+03  0.94885526362E+03  0.50400001928E-02 0.  1.
       -1   -1    0    0    0  501  0.00000000000E+00  0.00000000000E+00 -0.21548517736E+03  0.21548517742E+03  0.50400001928E-02 0. -1.
    10030    2    1    2    0    0  0.00000000000E+00  0.00000000000E+00  0.73337008625E+03  0.11643404410E+04  0.90435445441E+03 0.  0.
        1    1    3    3  502    0  0.23145194829E+03  0.38779735907E+03  0.39568767267E+03  0.60043778229E+03  0.50400001928E-02 0. -1.
       -1    1    3    3    0  502 -0.23145194829E+03 -0.38779735907E+03  0.33768241357E+03  0.56390265874E+03  0.50400001928E-02 0.  1.
</event>
<event>
 5   0  0.1007561E-03  0.9006732E+03  0.7818609E-02  0.9424740E-01
        1   -1    0    0  501    0  0.00000000000E+00  0.00000000000E+00  0.12044562345E+04  0.12044562345E+04  0.50400001928E-02 0. -1.
       -1   -1    0    0    0  501  0.00000000000E+00  0.00000000000E+00 -0.16837728003E+03  0.16837728011E+03  0.50400001928E-02 0.  1.
    10030    2    1    2    0    0  0.00000000000E+00  0.00000000000E+00  0.10360789545E+04  0.13728335146E+04  0.90067322540E+03 0.  0.
        2    1    3    3  502    0  0.18483936247E+03 -0.28456384327E+03  0.96932725112E+03  0.10270041337E+04  0.25500000920E-02 0. -1.
       -2    1    3    3    0  502 -0.18483936247E+03  0.28456384327E+03  0.66751703347E+02  0.34582938094E+03  0.25500000920E-02 0.  1.
</event>
<event>
 5   0  0.1007561E-03  0.8971545E+03  0.7818609E-02  0.9429145E-01
        1   -1    0    0  501    0  0.00000000000E+00  0.00000000000E+00  0.53501728016E+03  0.53501728018E+03  0.50400001928E-02 0.  1.
       -1   -1    0    0    0  501  0.00000000000E+00  0.00000000000E+00 -0.37610287765E+03  0.37610287768E+03  0.50400001928E-02 0. -1.
    10030    2    1    2    0    0  0.00000000000E+00  0.00000000000E+00  0.15891440251E+03  0.91112015786E+03  0.89715447652E+03 0.  0.
        2    1    3    3  502    0  0.12515440528E+03  0.39469657069E+03 -0.95775962457E+02  0.42499652124E+03  0.25500000920E-02 0. -1.
       -2    1    3    3    0  502 -0.12515440528E+03 -0.39469657069E+03  0.25469036496E+03  0.48612363663E+03  0.25500000920E-02 0.  1.
</event>
<event>
 5   0  0.1704416E-03  0.9023231E+03  0.7818609E-02  0.9422682E-01
       -2   -1    0    0    0  501  0.00000000000E+00  0.00000000000E+00  0.20773228349E+03  0.20773228351E+03  0.25500000920E-02 0. -1.
        2   -1    0    0  501    0  0.00000000000E+00  0.00000000000E+00 -0.97985129482E+03  0.97985129482E+03  0.25500000920E-02 0.  1.
    10030    2    1    2    0    0  0.00000000000E+00  0.00000000000E+00 -0.77211901133E+03  0.11875835783E+04  0.90232310613E+03 0.  0.
        3    1    3    3  502    0 -0.23008847659E+03 -0.17641930141E+02  0.12417998790E+03  0.26205462094E+03  0.10100000352E+00 0. -1.
       -3    1    3    3    0  502  0.23008847659E+03  0.17641930141E+02 -0.89629899922E+03  0.92552895739E+03  0.10100000352E+00 0.  1.
</event>
<event>
 5   0  0.1641516E-03  0.8991341E+03  0.7818609E-02  0.9426664E-01
        2   -1    0    0  501    0  0.00000000000E+00  0.00000000000E+00  0.25587548661E+03  0.25587548662E+03  0.25500000920E-02 0.  1.
       -2   -1    0    0    0  501  0.00000000000E+00  0.00000000000E+00 -0.78987846248E+03  0.78987846248E+03  0.25500000920E-02 0. -1.
    10030    2    1    2    0    0  0.00000000000E+00  0.00000000000E+00 -0.53400297587E+03  0.10457539491E+04  0.89913410780E+03 0.  0.
        1    1    3    3  502    0  0.25452478186E+03 -0.27327747956E+03  0.24107419150E+02  0.37422535069E+03  0.50400001928E-02 0. -1.
       -1    1    3    3    0  502 -0.25452478186E+03  0.27327747956E+03 -0.55811039502E+03  0.67152859841E+03  0.50400001928E-02 0.  1.
</event>
<event>
 5   0  0.1704416E-03  0.8995392E+03  0.7818609E-02  0.9426158E-01
        2   -1    0    0  501    0  0.00000000000E+00  0.00000000000E+00  0.10800120063E+04  0.10800120063E+04  0.25500000920E-02 0.  1.
       -2   -1    0    0    0  501  0.00000000000E+00  0.00000000000E+00 -0.18730598494E+03  0.18730598496E+03  0.25500000920E-02 0. -1.
    10030    2    1    2    0    0  0.00000000000E+00  0.00000000000E+00  0.89270602137E+03  0.12673179913E+04  0.89953924339E+03 0.  0.
        3    1    3    3  502    0 -0.13649693914E+03 -0.36750235896E+03  0.75695081619E+03  0.85244586137E+03  0.10100000352E+00 0.  1.
       -3    1    3    3    0  502  0.13649693914E+03  0.36750235896E+03  0.13575520518E+03  0.41487212990E+03  0.10100000352E+00 0. -1.
</event>
<event>
 5   0  0.9223454E-04  0.9031626E+03  0.7818609E-02  0.9421637E-01
        1   -1    0    0  501    0  0.00000000000E+00  0.00000000000E+00  0.71159187429E+03  0.71159187430E+03  0.50400001928E-02 0.  1.
       -1   -1    0    0    0  501  0.00000000000E+00  0.00000000000E+00 -0.28657672748E+03  0.28657672753E+03  0.50400001928E-02 0. -1.
    10030    2    1    2    0    0  0.00000000000E+00  0.00000000000E+00  0.42501514680E+03  0.99816860183E+03  0.90316260035E+03 0.  0.
        1    1    3    3  502    0 -0.34996758049E+03 -0.13738551829E+03  0.48896831575E+03  0.61679988802E+03  0.50400001928E-02 0.  1.
       -1    1    3    3    0  502  0.34996758049E+03  0.13738551829E+03 -0.63953168948E+02  0.38136871381E+03  0.50400001928E-02 0. -1.
</event>
<event>
 5   0  0.1536020E-03  0.8985229E+03  0.7818609E-02  0.9427430E-01
        2   -1    0    0  501    0  0.00000000000E+00  0.00000000000E+00  0.43803663588E+03  0.43803663589E+03  0.25500000920E-02 0.  1.
       -2   -1    0    0    0  501  0.00000000000E+00  0.00000000000E+00 -0.46077393528E+03  0.46077393529E+03  0.25500000920E-02 0. -1.
    10030    2    1    2    0    0  0.00000000000E+00  0.00000000000E+00 -0.22737299399E+02  0.89881057118E+03  0.89852293131E+03 0.  0.
        2    1    3    3  502    0  0.24722002427E+03 -0.16337561230E+03  0.32641760024E+03  0.44086027361E+03  0.25500000920E-02 0.  1.
       -2    1    3    3    0  502 -0.24722002427E+03  0.16337561230E+03 -0.34915489964E+03  0.45795029757E+03  0.25500000920E-02 0. -1.
</event>
<event>
 5   0  0.1536020E-03  0.8989628E+03  0.7818609E-02  0.9426879E-01
       -2   -1    0    0    0  501  0.00000000000E+00  0.00000000000E+00  0.23369109569E+03  0.23369109570E+03  0.25500000920E-02 0. -1.
        2   -1    0    0  501    0  0.00000000000E+00  0.00000000000E+00 -0.86453236919E+03  0.86453236919E+03  0.25500000920E-02 0.  1.
    10030    2    1    2    0    0  0.00000000000E+00  0.00000000000E+00 -0.63084127350E+03  0.10982234649E+04  0.89896277258E+03 0.  0.
        2    1    3    3  502    0  0.31025183390E+03  0.18960648357E+03  0.73988649063E+01  0.36367782756E+03  0.25500000920E-02 0. -1.
       -2    1    3    3    0  502 -0.31025183390E+03 -0.18960648357E+03 -0.63824013840E+03  0.73454563733E+03  0.25500000920E-02 0.  1.
</event>
<event>
 5   0  0.9981885E-04  0.9048946E+03  0.7818609E-02  0.9419484E-01
       -1   -1    0    0    0  501  0.00000000000E+00  0.00000000000E+00  0.13190983997E+03  0.13190984006E+03  0.50400001928E-02 0.  1.
        1   -1    0    0  501    0  0.00000000000E+00  0.00000000000E+00 -0.15518823001E+04  0.15518823001E+04  0.50400001928E-02 0. -1.
    10030    2    1    2    0    0  0.00000000000E+00  0.00000000000E+00 -0.14199724602E+04  0.16837921402E+04  0.90489457053E+03 0.  0.
        4    1    3    3  502    0  0.37062732159E+03  0.25376744787E+02 -0.11905466693E+04  0.12471614071E+04  0.12699999809E+01 0. -1.
       -4    1    3    3    0  502 -0.37062732159E+03 -0.25376744787E+02 -0.22942579088E+03  0.43663073312E+03  0.12699999809E+01 0.  1.
</event>
<event>
 5   0  0.1007561E-03  0.8976894E+03  0.7818609E-02  0.9428474E-01
        1   -1    0    0  501    0  0.00000000000E+00  0.00000000000E+00  0.50169029987E+03  0.50169029990E+03  0.50400001928E-02 0. -1.
       -1   -1    0    0    0  501  0.00000000000E+00  0.00000000000E+00 -0.40156555637E+03  0.40156555640E+03  0.50400001928E-02 0.  1.
    10030    2    1    2    0    0  0.00000000000E+00  0.00000000000E+00  0.10012474350E+03  0.90325585630E+03  0.89768935477E+03 0.  0.
        2    1    3    3  502    0 -0.35834806897E+03 -0.27023114618E+03  0.54922802570E+02  0.45216670062E+03  0.25500000920E-02 0.  1.
       -2    1    3    3    0  502  0.35834806897E+03  0.27023114618E+03  0.45201940931E+02  0.45108915568E+03  0.25500000920E-02 0. -1.
</event>
<event>
 5   0  0.9697941E-04  0.8984274E+03  0.7818609E-02  0.9427549E-01
        1   -1    0    0  501    0  0.00000000000E+00  0.00000000000E+00  0.99174510567E+03  0.99174510568E+03  0.50400001928E-02 0.  1.
       -1   -1    0    0    0  501  0.00000000000E+00  0.00000000000E+00 -0.20347259103E+03  0.20347259110E+03  0.50400001928E-02 0. -1.
    10030    2    1    2    0    0  0.00000000000E+00  0.00000000000E+00  0.78827251464E+03  0.11952176968E+04  0.89842739571E+03 0.  0.
        5    1    3    3  502    0  0.30064383056E+03 -0.30284496785E+03  0.58071232248E+03  0.72065989127E+03  0.46999998093E+01 0.  1.
       -5    1    3    3    0  502 -0.30064383056E+03  0.30284496785E+03  0.20756019216E+03  0.47455780551E+03  0.46999998093E+01 0. -1.
</event>
<event>
 5   0  0.1630202E-03  0.9022218E+03  0.7818609E-02  0.9422808E-01
       -2   -1    0    0    0  501  0.00000000000E+00  0.00000000000E+00  0.28310130096E+03  0.28310130097E+03  0.25500000920E-02 0. -1.
        2   -1    0    0  501    0  0.00000000000E+00  0.00000000000E+00 -0.71882760118E+03  0.71882760119E+03  0.25500000920E-02 0.  1.
    10030    2    1    2    0    0  0.00000000000E+00  0.00000000000E+00 -0.43572630022E+03  0.10019289022E+04  0.90222176668E+03 0.  0.
        4    1    3    3  502    0  0.26735915355E+03 -0.36560317113E+01  0.18561406356E+03  0.32549727656E+03  0.12699999809E+01 0. -1.
       -4    1    3    3    0  502 -0.26735915355E+03  0.36560317113E+01 -0.62134036378E+03  0.67643162560E+03  0.12699999809E+01 0.  1.
</event>
<event>
 5   0  0.9697941E-04  0.9013221E+03  0.7818609E-02  0.9423930E-01
       -1   -1    0    0    0  501  0.00000000000E+00  0.00000000000E+00  0.78735306247E+03  0.78735306249E+03  0.50400001928E-02 0. -1.
        1   -1    0    0  501    0  0.00000000000E+00  0.00000000000E+00 -0.25794704885E+03  0.25794704889E+03  0.50400001928E-02 0.  1.
    10030    2    1    2    0    0  0.00000000000E+00  0.00000000000E+00  0.52940601363E+03  0.10453001114E+04  0.90132213752E+03 0.  0.
        5    1    3    3  502    0  0.33752310174E+02  0.36627202693E+03 -0.37228332604E+02  0.36973295079E+03  0.46999998093E+01 0.  1.
       -5    1    3    3    0  502 -0.33752310174E+02 -0.36627202693E+03  0.56663434623E+03  0.67556716060E+03  0.46999998093E+01 0. -1.
</event>
<event>
 5   0  0.1641516E-03  0.8993795E+03  0.7818609E-02  0.9426357E-01
       -2   -1    0    0    0  501  0.00000000000E+00  0.00000000000E+00  0.89872689463E+02  0.89872689499E+02  0.25500000920E-02 0.  1.
        2   -1    0    0  501    0  0.00000000000E+00  0.00000000000E+00 -0.22500814172E+04  0.22500814172E+04  0.25500000920E-02 0. -1.
    10030    2    1    2    0    0  0.00000000000E+00  0.00000000000E+00 -0.21602087278E+04  0.23399541067E+04  0.89937949392E+03 0.  0.
        1    1    3    3  502    0  0.10045627086E+03  0.43831715603E+03 -0.10872185339E+04  0.11765447430E+04  0.50400001928E-02 0.  1.
       -1    1    3    3    0  502 -0.10045627086E+03 -0.43831715603E+03 -0.10729901939E+04  0.11634093638E+04  0.50400001928E-02 0. -1.
</event>
<event>
 5   0  0.9697941E-04  0.8994502E+03  0.7818609E-02  0.9426269E-01
        1   -1    0    0  501    0  0.00000000000E+00  0.00000000000E+00  0.67539190137E+03  0.67539190139E+03  0.50400001928E-02 0.  1.
       -1   -1    0    0    0  501  0.00000000000E+00  0.00000000000E+00 -0.29945970097E+03  0.29945970102E+03  0.50400001928E-02 0. -1.
    10030    2    1    2    0    0  0.00000000000E+00  0.00000000000E+00  0.37593220040E+03  0.97485160240E+03  0.89945018062E+03 0.  0.
        5    1    3    3  502    0 -0.17339158974E+02 -0.33889694950E+02 -0.29768362279E+03  0.30014461037E+03  0.46999998093E+01 0. -1.
       -5    1    3    3    0  502  0.17339158974E+02  0.33889694950E+02  0.67361582319E+03  0.67470699204E+03  0.46999998093E+01 0.  1.
</event>
<event>
 5   0  0.9321543E-04  0.8995516E+03  0.7818609E-02  0.9426142E-01
       -1   -1    0    0    0  501  0.00000000000E+00  0.00000000000E+00  0.74998121846E+03  0.74998121848E+03  0.50400001928E-02 0. -1.
        1   -1    0    0  501    0  0.00000000000E+00  0.00000000000E+00 -0.26973775334E+03  0.26973775339E+03  0.50400001928E-02 0.  1.
    10030    2    1    2    0    0  0.00000000000E+00  0.00000000000E+00  0.48024346512E+03  0.10197189719E+04  0.89955155261E+03 0.  0.
        3    1    3    3  502    0  0.10631437863E+03  0.42892858739E+03  0.33507103084E+03  0.55457649255E+03  0.10100000352E+00 0. -1.
       -3    1    3    3    0  502 -0.10631437863E+03 -0.42892858739E+03  0.14517243428E+03  0.46514247931E+03  0.10100000352E+00 0.  1.
</event>
<event>
 5   0  0.9321543E-04  0.9004066E+03  0.7818609E-02  0.9425073E-01
       -1   -1    0    0    0  501  0.00000000000E+00  0.00000000000E+00  0.45689233324E+03  0.45689233327E+03  0.50400001928E-02 0. -1.
        1   -1    0    0  501    0  0.00000000000E+00  0.00000000000E+00 -0.44361217946E+03  0.44361217949E+03  0.50400001928E-02 0.  1.
    10030    2    1    2    0    0  0.00000000000E+00  0.00000000000E+00  0.13280153783E+02  0.90050451276E+03  0.90040658317E+03 0.  0.
        3    1    3    3  502    0  0.15350260359E+03  0.27724883501E+03 -0.31316497517E+03  0.44553594434E+03  0.10100000352E+00 0.  1.
       -3    1    3    3    0  502 -0.15350260359E+03 -0.27724883501E+03  0.32644512896E+03  0.45496856841E+03  0.10100000352E+00 0. -1.
</event>
<event>
 5   0  0.9697941E-04  0.9000188E+03  0.7818609E-02  0.9425558E-01
        1   -1    0    0  501    0  0.00000000000E+00  0.00000000000E+00  0.12588151005E+04  0.12588151005E+04  0.50400001928E-02 0. -1.
       -1   -1    0    0    0  501  0.00000000000E+00  0.00000000000E+00 -0.16087227369E+03  0.16087227377E+03  0.50400001928E-02 0.  1.
    10030    2    1    2    0    0  0.00000000000E+00  0.00000000000E+00  0.10979428268E+04  0.14196873743E+04  0.90001877190E+03 0.  0.
        5    1    3    3  502    0 -0.20803463417E+03 -0.23129677971E+03  0.10618312284E+04  0.11064737940E+04  0.46999998093E+01 0. -1.
       -5    1    3    3    0  502  0.20803463417E+03  0.23129677971E+03  0.36111598444E+02  0.31321358026E+03  0.46999998093E+01 0.  1.
</event>
<event>
 5   0  0.1630202E-03  0.8989358E+03  0.7818609E-02  0.9426913E-01
        2   -1    0    0  501    0  0.00000000000E+00  0.00000000000E+00  0.62989450424E+03  0.62989450425E+03  0.25500000920E-02 0. -1.
       -2   -1    0    0    0  501  0.00000000000E+00  0.00000000000E+00 -0.32072256261E+03  0.32072256262E+03  0.25500000920E-02 0.  1.
    10030    2    1    2    0    0  0.00000000000E+00  0.00000000000E+00  0.30917194164E+03  0.95061706686E+03  0.89893576985E+03 0.  0.
        4    1    3    3  502    0 -0.32042200456E+03 -0.29349179261E+03  0.27613806153E+03  0.51484127191E+03  0.12699999809E+01 0. -1.
       -4    1    3    3    0  502  0.32042200456E+03  0.29349179261E+03  0.33033880104E+02  0.43577579495E+03  0.12699999809E+01 0.  1.
</event>
<event>
 5   0  0.1704416E-03  0.8991208E+03  0.7818609E-02  0.9426681E-01
       -2   -1    0    0    0  501  0.00000000000E+00  0.00000000000E+00  0.38397926792E+03  0.38397926793E+03  0.25500000920E-02 0.  1.
        2   -1    0    0  501    0  0.00000000000E+00  0.00000000000E+00 -0.52634238506E+03  0.52634238507E+03  0.25500000920E-02 0. -1.
    10030    2    1    2    0    0  0.00000000000E+00  0.00000000000E+00 -0.14236311714E+03  0.91032165300E+03  0.89912082325E+03 0.  0.
        3    1    3    3  502    0 -0.12598404453E+03 -0.36902145042E+02 -0.50650392782E+03  0.52323989420E+03  0.10100000352E+00 0. -1.
       -3    1    3    3    0  502  0.12598404453E+03  0.36902145042E+02  0.36414081069E+03  0.38708175880E+03  0.10100000352E+00 0.  1.
</event>
<event>
 5   0  0.1536020E-03  0.9004531E+03  0.7818609E-02  0.9425015E-01
        2   -1    0    0  501    0  0.00000000000E+00  0.00000000000E+00  0.13796716055E+04  0.13796716055E+04  0.25500000920E-02 0.  1.
       -2   -1    0    0    0  501  0.00000000000E+00  0.00000000000E+00 -0.14692187457E+03  0.14692187460E+03  0.25500000920E-02 0. -1.
    10030    2    1    2    0    0  0.00000000000E+00  0.00000000000E+00  0.12327497309E+04  0.15265934801E+04  0.90045308283E+03 0.  0.
        2    1    3    3  502    0  0.18313691065E+03 -0.10052495295E+03  0.12925235088E+04  0.13092980620E+04  0.25500000920E-02 0.  1.
       -2    1    3    3    0  502 -0.18313691065E+03  0.10052495295E+03 -0.59773777899E+02  0.21729541813E+03  0.25500000920E-02 0. -1.
</event>
<event>
 5   0  0.1641516E-03  0.8950775E+03  0.7818609E-02  0.9431756E-01
       -2   -1    0    0    0  501  0.00000000000E+00  0.00000000000E+00  0.11035395582E+03  0.11035395585E+03  0.25500000920E-02 0.  1.
        2   -1    0    0  501    0  0.00000000000E+00  0.00000000000E+00 -0.18149862865E+04  0.18149862865E+04  0.25500000920E-02 0. -1.
    10030    2    1    2    0    0  0.00000000000E+00  0.00000000000E+00 -0.17046323307E+04  0.19253402424E+04  0.89507746371E+03 0.  0.
        1    1    3    3  502    0 -0.16305462317E+03 -0.30845795306E+03 -0.14552109336E+04  0.14964531333E+04  0.50400001928E-02 0. -1.
       -1    1    3    3    0  502  0.16305462317E+03  0.30845795306E+03 -0.24942139707E+03  0.42888710902E+03  0.50400001928E-02 0.  1.
</event>
<event>
 5   0  0.1635686E-03  0.9009996E+03  0.7818609E-02  0.9424333E-01
       -2   -1    0    0    0  501  0.00000000000E+00  0.00000000000E+00  0.44259812961E+03  0.44259812962E+03  0.25500000920E-02 0. -1.
        2   -1    0    0  501    0  0.00000000000E+00  0.00000000000E+00 -0.45854250608E+03  0.45854250609E+03  0.25500000920E-02 0.  1.
    10030    2    1    2    0    0  0.00000000000E+00  0.00000000000E+00 -0.15944376471E+02  0.90114063571E+03  0.90099956836E+03 0.  0.
        5    1    3    3  502    0 -0.35573338749E+03  0.23141740219E+03 -0.15908425677E+03  0.45324402672E+03  0.46999998093E+01 0.  1.
       -5    1    3    3    0  502  0.35573338749E+03 -0.23141740219E+03  0.14313988030E+03  0.44789660898E+03  0.46999998093E+01 0. -1.
</event>
<event>
 5   0  0.1704416E-03  0.8984592E+03  0.7818609E-02  0.9427510E-01
       -2   -1    0    0    0  501  0.00000000000E+00  0.00000000000E+00  0.54557615165E+03  0.54557615166E+03  0.25500000920E-02 0. -1.
        2   -1    0    0  501    0  0.00000000000E+00  0.00000000000E+00 -0.36989746999E+03  0.36989747000E+03  0.25500000920E-02 0.  1.
    10030    2    1    2    0    0  0.00000000000E+00  0.00000000000E+00  0.17567868166E+03  0.91547362166E+03  0.89845921041E+03 0.  0.
        3    1    3    3  502    0 -0.11803730769E+03  0.37904452942E+03  0.30205783749E+03  0.49884517506E+03  0.10100000352E+00 0. -1.
       -3    1    3    3    0  502  0.11803730769E+03 -0.37904452942E+03 -0.12637915583E+03  0.41662844660E+03  0.10100000352E+00 0.  1.
</event>
<event>
 5   0  0.9223454E-04  0.9009725E+03  0.7818609E-02  0.9424367E-01
        1   -1    0    0  501    0  0.00000000000E+00  0.00000000000E+00  0.16874918995E+03  0.16874919002E+03  0.50400001928E-02 0. -1.
       -1   -1    0    0    0  501  0.00000000000E+00  0.00000000000E+00 -0.12026005948E+04  0.12026005948E+04  0.50400001928E-02 0.  1.
    10030    2    1    2    0    0  0.00000000000E+00  0.00000000000E+00 -0.10338514049E+04  0.13713497849E+04  0.90097253292E+03 0.  0.
        1    1    3    3  502    0  0.15180168408E+03  0.30286100528E+03 -0.96888099615E+03  0.10264009570E+04  0.50400001928E-02 0.  1.
       -1    1    3    3    0  502 -0.15180168408E+03 -0.30286100528E+03 -0.64970408736E+02  0.34494882787E+03  0.50400001928E-02 0. -1.
</event>
<event>
 5   0  0.9321543E-04  0.8973723E+03  0.7818609E-02  0.9428872E-01
       -1   -1    0    0    0  501  0.00000000000E+00  0.00000000000E+00  0.39146436545E+03  0.39146436548E+03  0.50400001928E-02 0.  1.
        1   -1    0    0  501    0  0.00000000000E+00  0.00000000000E+00 -0.51427224565E+03  0.51427224568E+03  0.50400001928E-02 0. -1.
    10030    2    1    2    0    0  0.00000000000E+00  0.00000000000E+00 -0.12280788020E+03  0.90573661116E+03  0.89737229362E+03 0.  0.
        3    1    3    3  502    0  0.41986533344E+03 -0.90014996352E+02 -0.19273070942E+03  0.47067476494E+03  0.10100000352E+00 0.  1.
       -3    1    3    3    0  502 -0.41986533344E+03  0.90014996352E+02  0.69922829215E+02  0.43506184623E+03  0.10100000352E+00 0. -1.
</event>
<event>
 5   0  0.9697941E-04  0.8991738E+03  0.7818609E-02  0.9426615E-01
       -1   -1    0    0    0  501  0.00000000000E+00  0.00000000000E+00  0.57869947046E+03  0.57869947049E+03  0.50400001928E-02 0. -1.
        1   -1    0    0  501    0  0.00000000000E+00  0.00000000000E+00 -0.34928042148E+03  0.34928042151E+03  0.50400001928E-02 0.  1.
    10030    2    1    2    0    0  0.00000000000E+00  0.00000000000E+00  0.22941904899E+03  0.92797989200E+03  0.89917383187E+03 0.  0.
        5    1    3    3  502    0 -0.44384365322E+03 -0.38077740476E+02  0.17713877314E+03  0.47942396453E+03  0.46999998093E+01 0. -1.
       -5    1    3    3    0  502  0.44384365322E+03  0.38077740476E+02  0.52280275848E+02  0.44855592746E+03  0.46999998093E+01 0.  1.
</event>
<event>
 5   0  0.9321543E-04  0.8986831E+03  0.7818609E-02  0.9427229E-01
       -1   -1    0    0    0  501  0.00000000000E+00  0.00000000000E+00  0.32657960030E+03  0.32657960034E+03  0.50400001928E-02 0.  1.
        1   -1    0    0  501    0  0.00000000000E+00  0.00000000000E+00 -0.61825001932E+03  0.61825001934E+03  0.50400001928E-02 0. -1.
    10030    2    1    2    0    0  0.00000000000E+00  0.00000000000E+00 -0.29167041902E+03  0.94482961967E+03  0.89868313486E+03 0.  0.
        3    1    3    3  502    0  0.31968681516E+03 -0.50764955845E+02  0.18182676729E+03  0.37126503206E+03  0.10100000352E+00 0.  1.
       -3    1    3    3    0  502 -0.31968681516E+03  0.50764955845E+02 -0.47349718631E+03  0.57356458762E+03  0.10100000352E+00 0. -1.
</event>
<event>
 5   0  0.1536020E-03  0.9008540E+03  0.7818609E-02  0.9424515E-01
        2   -1    0    0  501    0  0.00000000000E+00  0.00000000000E+00  0.77200777386E+03  0.77200777387E+03  0.25500000920E-02 0. -1.
       -2   -1    0    0    0  501  0.00000000000E+00  0.00000000000E+00 -0.26280106830E+03  0.26280106831E+03  0.25500000920E-02 0.  1.
    10030    2    1    2    0    0  0.00000000000E+00  0.00000000000E+00  0.50920670557E+03  0.10348088422E+04  0.90085396755E+03 0.  0.
        2    1    3    3  502    0  0.58006316397E+02 -0.36162540979E+03  0.55578740544E+03  0.66561047903E+03  0.25500000920E-02 0. -1.
       -2    1    3    3    0  502 -0.58006316397E+02  0.36162540979E+03 -0.46580699871E+02  0.36919836315E+03  0.25500000920E-02 0.  1.
</event>
<event>
 5   0  0.1704416E-03  0.9014048E+03  0.7818609E-02  0.9423827E-01
       -2   -1    0    0    0  501  0.00000000000E+00  0.00000000000E+00  0.13065083735E+04  0.13065083735E+04  0.25500000920E-02 0.  1.
        2   -1    0    0  501    0  0.00000000000E+00  0.00000000000E+00 -0.15547749601E+03  0.15547749603E+03  0.25500000920E-02 0. -1.
    10030    2    1    2    0    0  0.00000000000E+00  0.00000000000E+00  0.11510308775E+04  0.14619858695E+04  0.90140479351E+03 0.  0.
        3    1    3    3  502    0 -0.37304240826E+03 -0.19470022229E+03  0.83735929599E+03  0.93714428756E+03  0.10100000352E+00 0.  1.
       -3    1    3    3    0  502  0.37304240826E+03  0.19470022229E+03  0.31367158149E+03  0.52484158196E+03  0.10100000352E+00 0. -1.
</event>
<event>
 5   0  0.9321543E-04  0.8991262E+03  0.7818609E-02  0.9426674E-01
       -1   -1    0    0    0  501  0.00000000000E+00  0.00000000000E+00  0.69524911905E+03  0.69524911907E+03  0.50400001928E-02 0.  1.
        1   -1    0    0  501    0  0.00000000000E+00  0.00000000000E+00 -0.29069719607E+03  0.29069719611E+03  0.50400001928E-02 0. -1.
    10030    2    1    2    0    0  0.00000000000E+00  0.00000000000E+00  0.40455192299E+03  0.98594631518E+03  0.89912617470E+03 0.  0.
        3    1    3    3  502    0  0.41962603675E+02 -0.25551295011E+03 -0.20071449801E+03  0.32761875358E+03  0.10100000352E+00 0. -1.
       -3    1    3    3    0  502 -0.41962603675E+02  0.25551295011E+03  0.60526642100E+03  0.65832756161E+03  0.10100000352E+00 0.  1.
</event>
<event>
 5   0  0.1007561E-03  0.9014247E+03  0.7818609E-02  0.9423802E-01
       -1   -1    0    0    0  501  0.00000000000E+00  0.00000000000E+00  0.40166306339E+03  0.40166306342E+03  0.50400001928E-02 0. -1.
        1   -1    0    0  501    0  0.00000000000E+00  0.00000000000E+00 -0.50575128407E+03  0.50575128410E+03  0.50400001928E-02 0.  1.
    10030    2    1    2    0    0  0.00000000000E+00  0.00000000000E+00 -0.10408822068E+03  0.90741434751E+03  0.90142467261E+03 0.  0.
        2    1    3    3  502    0  0.28242586330E+02  0.20587412077E+03 -0.45465140979E+03  0.49988968955E+03  0.25500000920E-02 0.  1.
       -2    1    3    3    0  502 -0.28242586330E+02 -0.20587412077E+03  0.35056318911E+03  0.40752465796E+03  0.25500000920E-02 0. -1.
</event>
<event>
 5   0  0.1536020E-03  0.8990996E+03  0.7818609E-02  0.9426708E-01
       -2   -1    0    0    0  501  0.00000000000E+00  0.00000000000E+00  0.13295362072E+03  0.13295362074E+03  0.25500000920E-02 0. -1.
        2   -1    0    0  501    0  0.00000000000E+00  0.00000000000E+00 -0.15200415352E+04  0.15200415352E+04  0.25500000920E-02 0.  1.
    10030    2    1    2    0    0  0.00000000000E+00  0.00000000000E+00 -0.13870879144E+04  0.16529951559E+04  0.89909960686E+03 0.  0.
        2    1    3    3  502    0 -0.10309831213E+02  0.23351540844E+02  0.13162016404E+03  0.13407257239E+03  0.25500000920E-02 0. -1.
       -2    1    3    3    0  502  0.10309831213E+02 -0.23351540844E+02 -0.15187080785E+04  0.15189225835E+04  0.25500000920E-02 0.  1.
</event>
<event>
 5   0  0.9981885E-04  0.9002392E+03  0.7818609E-02  0.9425283E-01
       -1   -1    0    0    0  501  0.00000000000E+00  0.00000000000E+00  0.30584172697E+03  0.30584172701E+03  0.50400001928E-02 0. -1.
        1   -1    0    0  501    0  0.00000000000E+00  0.00000000000E+00 -0.66245909063E+03  0.66245909065E+03  0.50400001928E-02 0.  1.
    10030    2    1    2    0    0  0.00000000000E+00  0.00000000000E+00 -0.35661736366E+03  0.96830081766E+03  0.90023915124E+03 0.  0.
        4    1    3    3  502    0 -0.44246500512E+03 -0.80911016173E+02 -0.16017761760E+03  0.47747288444E+03  0.12699999809E+01 0. -1.
       -4    1    3    3    0  502  0.44246500512E+03  0.80911016173E+02 -0.19643974606E+03  0.49082793322E+03  0.12699999809E+01 0.  1.
</event>
<event>
 5   0  0.6375625E-04  0.9021905E+03  0.7818609E-02  0.9422847E-01
       -3   -1    0    0    0  501  0.00000000000E+00  0.00000000000E+00  0.95739748960E+03  0.95739749493E+03  0.10100000352E+00 0. -1.
        3   -1    0    0  501    0  0.00000000000E+00  0.00000000000E+00 -0.21254173721E+03  0.21254176121E+03  0.10100000352E+00 0.  1.
    10030    2    1    2    0    0  0.00000000000E+00  0.00000000000E+00  0.74485575239E+03  0.11699392561E+04  0.90219054040E+03 0.  0.
        4    1    3    3  502    0  0.37151171066E+03 -0.99818110478E+02  0.67793009368E+03  0.77947125101E+03  0.12699999809E+01 0. -1.
       -4    1    3    3    0  502 -0.37151171066E+03  0.99818110478E+02  0.66925658713E+02  0.39046800513E+03  0.12699999809E+01 0.  1.
</event>
<event>
 5   0  0.1641516E-03  0.8968985E+03  0.7818609E-02  0.9429467E-01
        2   -1    0    0  501    0  0.00000000000E+00  0.00000000000E+00  0.18628805004E+04  0.18628805004E+04  0.25500000920E-02 0.  1.
       -2   -1    0    0    0  501  0.00000000000E+00  0.00000000000E+00 -0.10795471821E+03  0.10795471824E+03  0.25500000920E-02 0. -1.
    10030    2    1    2    0    0  0.00000000000E+00  0.00000000000E+00  0.17549257822E+04  0.19708352186E+04  0.89689852159E+03 0.  0.
        1    1    3    3  502    0  0.80853406371E+02 -0.23929736241E+03  0.16917023431E+04  0.17104552957E+04  0.50400001928E-02 0.  1.
       -1    1    3    3    0  502 -0.80853406371E+02  0.23929736241E+03  0.63223439080E+02  0.26037992291E+03  0.50400001928E-02 0. -1.
</event>
<event>
 5   0  0.9981885E-04  0.9011563E+03  0.7818609E-02  0.9424137E-01
        1   -1    0    0  501    0  0.00000000000E+00  0.00000000000E+00  0.25615392080E+03  0.25615392085E+03  0.50400001928E-02 0. -1.
       -1   -1    0    0    0  501  0.00000000000E+00  0.00000000000E+00 -0.79257303953E+03  0.79257303955E+03  0.50400001928E-02 0.  1.
    10030    2    1    2    0    0  0.00000000000E+00  0.00000000000E+00 -0.53641911874E+03  0.10487269604E+04  0.90115634965E+03 0.  0.
        4    1    3    3  502    0  0.51187596926E+02 -0.43203453890E+03 -0.40464767042E+03  0.59415095974E+03  0.12699999809E+01 0.  1.
       -4    1    3    3    0  502 -0.51187596926E+02  0.43203453890E+03 -0.13177144832E+03  0.45457600066E+03  0.12699999809E+01 0. -1.
</event>
<event>
 5   0  0.9223454E-04  0.9019581E+03  0.7818609E-02  0.9423137E-01
        1   -1    0    0  501    0  0.00000000000E+00  0.00000000000E+00  0.15303758060E+04  0.15303758060E+04  0.50400001928E-02 0. -1.
       -1   -1    0    0    0  501  0.00000000000E+00  0.00000000000E+00 -0.13289682284E+03  0.13289682293E+03  0.50400001928E-02 0.  1.
    10030    2    1    2    0    0  0.00000000000E+00  0.00000000000E+00  0.13974789832E+04  0.16632726290E+04  0.90195805324E+03 0.  0.
        1    1    3    3  502    0  0.16990827995E+03  0.41573292300E+03  0.77431021865E+03  0.89513071761E+03  0.50400001928E-02 0. -1.
       -1    1    3    3    0  502 -0.16990827995E+03 -0.41573292300E+03  0.62316876454E+03  0.76814191136E+03  0.50400001928E-02 0.  1.
</event>
<event>
 5   0  0.1007561E-03  0.9001076E+03  0.7818609E-02  0.9425447E-01
       -1   -1    0    0    0  501  0.00000000000E+00  0.00000000000E+00  0.32003673822E+03  0.32003673826E+03  0.50400001928E-02 0. -1.
        1   -1    0    0  501    0  0.00000000000E+00  0.00000000000E+00 -0.63289121930E+03  0.63289121932E+03  0.50400001928E-02 0.  1.
    10030    2    1    2    0    0  0.00000000000E+00  0.00000000000E+00 -0.31285448108E+03  0.95292795758E+03  0.90010764134E+03 0.  0.
        2    1    3    3  502    0  0.36003903673E+03  0.21541144897E+02  0.12854577256E+03  0.38290487663E+03  0.25500000920E-02 0. -1.
       -2    1    3    3    0  502 -0.36003903673E+03 -0.21541144897E+02 -0.44140025364E+03  0.57002308095E+03  0.25500000920E-02 0.  1.
</event>
<event>
 5   0  0.1641516E-03  0.8996737E+03  0.7818609E-02  0.9425989E-01
        2   -1    0    0  501    0  0.00000000000E+00  0.00000000000E+00  0.62862808155E+03  0.62862808156E+03  0.25500000920E-02 0. -1.
       -2   -1    0    0    0  501  0.00000000000E+00  0.00000000000E+00 -0.32189653265E+03  0.32189653266E+03  0.25500000920E-02 0.  1.
    10030    2    1    2    0    0  0.00000000000E+00  0.00000000000E+00  0.30673154891E+03  0.95052461421E+03  0.89967371815E+03 0.  0.
        1    1    3    3  502    0  0.16436025588E+03  0.33486064562E+03  0.41898640025E+03  0.56097731622E+03  0.50400001928E-02 0. -1.
       -1    1    3    3    0  502 -0.16436025588E+03 -0.33486064562E+03 -0.11225485134E+03  0.38954729799E+03  0.50400001928E-02 0.  1.
</event>
<event>
 5   0  0.1635686E-03  0.9003319E+03  0.7818609E-02  0.9425167E-01
       -2   -1    0    0    0  501  0.00000000000E+00  0.00000000000E+00  0.21142276475E+03  0.21142276477E+03  0.25500000920E-02 0. -1.
        2   -1    0    0  501    0  0.00000000000E+00  0.00000000000E+00 -0.95850306373E+03  0.95850306373E+03  0.25500000920E-02 0.  1.
    10030    2    1    2    0    0  0.00000000000E+00  0.00000000000E+00 -0.74708029897E+03  0.11699258285E+04  0.90033186719E+03 0.  0.
        5    1    3    3  502    0  0.16513419206E+03  0.37261115769E+03 -0.62186178487E+03  0.74353382284E+03  0.46999998093E+01 0.  1.
       -5    1    3    3    0  502 -0.16513419206E+03 -0.37261115769E+03 -0.12521851410E+03  0.42639200566E+03  0.46999998093E+01 0. -1.
</event>
<event>
 5   0  0.9321543E-04  0.9002122E+03  0.7818609E-02  0.9425316E-01
       -1   -1    0    0    0  501  0.00000000000E+00  0.00000000000E+00  0.13909745032E+04  0.13909745032E+04  0.50400001928E-02 0. -1.
        1   -1    0    0  501    0  0.00000000000E+00  0.00000000000E+00 -0.14565004988E+03  0.14565004997E+03  0.50400001928E-02 0.  1.
    10030    2    1    2    0    0  0.00000000000E+00  0.00000000000E+00  0.12453244533E+04  0.15366245532E+04  0.90021221020E+03 0.  0.
        3    1    3    3  502    0  0.14156832037E+03  0.25105063192E+03  0.12128045507E+04  0.12465804817E+04  0.10100000352E+00 0. -1.
       -3    1    3    3    0  502 -0.14156832037E+03 -0.25105063192E+03  0.32519902670E+02  0.29004407146E+03  0.10100000352E+00 0.  1.
</event>
<event>
 5   0  0.1630202E-03  0.8993033E+03  0.7818609E-02  0.9426453E-01
       -2   -1    0    0    0  501  0.00000000000E+00  0.00000000000E+00  0.32457529142E+03  0.32457529143E+03  0.25500000920E-02 0. -1.
        2   -1    0    0  501    0  0.00000000000E+00  0.00000000000E+00 -0.62292662470E+03  0.62292662470E+03  0.25500000920E-02 0.  1.
    10030    2    1    2    0    0  0.00000000000E+00  0.00000000000E+00 -0.29835133328E+03  0.94750191613E+03  0.89930326531E+03 0.  0.
        4    1    3    3  502    0 -0.23773805146E+03  0.25870195526E+03 -0.44481933657E+03  0.56684383904E+03  0.12699999809E+01 0.  1.
       -4    1    3    3    0  502  0.23773805146E+03 -0.25870195526E+03  0.14646800329E+03  0.38065807709E+03  0.12699999809E+01 0. -1.
</event>
<event>
 5   0  0.9223454E-04  0.9001238E+03  0.7818609E-02  0.9425427E-01
        1   -1    0    0  501    0  0.00000000000E+00  0.00000000000E+00  0.52208720294E+03  0.52208720296E+03  0.50400001928E-02 0. -1.
       -1   -1    0    0    0  501  0.00000000000E+00  0.00000000000E+00 -0.38797291405E+03  0.38797291408E+03  0.50400001928E-02 0.  1.
    10030    2    1    2    0    0  0.00000000000E+00  0.00000000000E+00  0.13411428889E+03  0.91006011704E+03  0.90012375490E+03 0.  0.
        1    1    3    3  502    0  0.11385341494E+03 -0.65987661673E+02 -0.36808760418E+03  0.39090338443E+03  0.50400001928E-02 0.  1.
       -1    1    3    3    0  502 -0.11385341494E+03  0.65987661673E+02  0.50220189307E+03  0.51915673261E+03  0.50400001928E-02 0. -1.
</event>
<event>
 5   0  0.9697941E-04  0.9023230E+03  0.7818609E-02  0.9422682E-01
        1   -1    0    0  501    0  0.00000000000E+00  0.00000000000E+00  0.22174821179E+03  0.22174821185E+03  0.50400001928E-02 0. -1.
       -1   -1    0    0    0  501  0.00000000000E+00  0.00000000000E+00 -0.91791811896E+03  0.91791811897E+03  0.50400001928E-02 0.  1.
    10030    2    1    2    0    0  0.00000000000E+00  0.00000000000E+00 -0.69616990717E+03  0.11396663308E+04  0.90232300534E+03 0.  0.
        5    1    3    3  502    0  0.11297655637E+03  0.40003897383E+02 -0.89741205583E+03  0.90539190522E+03  0.46999998093E+01 0.  1.
       -5    1    3    3    0  502 -0.11297655637E+03 -0.40003897383E+02  0.20124214866E+03  0.23427442560E+03  0.46999998093E+01 0. -1.
</event>
<event>
 5   0  0.1007561E-03  0.9037710E+03  0.7818609E-02  0.9420880E-01
       -1   -1    0    0    0  501  0.00000000000E+00  0.00000000000E+00  0.14335914059E+03  0.14335914068E+03  0.50400001928E-02 0. -1.
        1   -1    0    0  501    0  0.00000000000E+00  0.00000000000E+00 -0.14243983445E+04  0.14243983445E+04  0.50400001928E-02 0.  1.
    10030    2    1    2    0    0  0.00000000000E+00  0.00000000000E+00 -0.12810392039E+04  0.15677574852E+04  0.90377103871E+03 0.  0.
        2    1    3    3  502    0  0.72103920171E+02  0.14520682363E+03 -0.13722121084E+04  0.13817561534E+04  0.25500000920E-02 0.  1.
       -2    1    3    3    0  502 -0.72103920171E+02 -0.14520682363E+03  0.91172904463E+02  0.18600133184E+03  0.25500000920E-02 0. -1.
</event>
<event>
 5   0  0.1007561E-03  0.8987570E+03  0.7818609E-02  0.9427137E-01
       -1   -1    0    0    0  501  0.00000000000E+00  0.00000000000E+00  0.12749706123E+03  0.12749706133E+03  0.50400001928E-02 0.  1.
        1   -1    0    0  501    0  0.00000000000E+00  0.00000000000E+00 -0.15838878383E+04  0.15838878383E+04  0.50400001928E-02 0. -1.
    10030    2    1    2    0    0  0.00000000000E+00  0.00000000000E+00 -0.14563907771E+04  0.17113848996E+04  0.89875701897E+03 0.  0.
        2    1    3    3  502    0 -0.35411231941E+03  0.76068693934E+02 -0.22167557332E+03  0.42464342780E+03  0.25500000920E-02 0.  1.
       -2    1    3    3    0  502  0.35411231941E+03 -0.76068693934E+02 -0.12347152038E+04  0.12867414718E+04  0.25500000920E-02 0. -1.
</event>
<event>
 5   0  0.9697941E-04  0.9053710E+03  0.7818609E-02  0.9418892E-01
       -1   -1    0    0    0  501  0.00000000000E+00  0.00000000000E+00  0.89774855559E+02  0.89774855701E+02  0.50400001928E-02 0. -1.
        1   -1    0    0  501    0  0.00000000000E+00  0.00000000000E+00 -0.22826452208E+04  0.22826452208E+04  0.50400001928E-02 0.  1.
    10030    2    1    2    0    0  0.00000000000E+00  0.00000000000E+00 -0.21928703653E+04  0.23724200765E+04  0.90537096301E+03 0.  0.
        5    1    3    3  502    0  0.18616362273E+03 -0.18376155812E+03 -0.12839245950E+03  0.29143081225E+03  0.46999998093E+01 0. -1.
       -5    1    3    3    0  502 -0.18616362273E+03  0.18376155812E+03 -0.20644779058E+04  0.20809892643E+04  0.46999998093E+01 0.  1.
</event>
<event>
 5   0  0.9697941E-04  0.8984161E+03  0.7818609E-02  0.9427563E-01
        1   -1    0    0  501    0  0.00000000000E+00  0.00000000000E+00  0.75125445084E+03  0.75125445085E+03  0.50400001928E-02 0. -1.
       -1   -1    0    0    0  501  0.00000000000E+00  0.00000000000E+00 -0.26860125801E+03  0.26860125806E+03  0.50400001928E-02 0.  1.
    10030    2    1    2    0    0  0.00000000000E+00  0.00000000000E+00  0.48265319282E+03  0.10198557089E+04  0.89841614103E+03 0.  0.
        5    1    3    3  502    0  0.39632014373E+03 -0.18176504718E+01  0.13437700352E+01  0.39635445740E+03  0.46999998093E+01 0.  1.
       -5    1    3    3    0  502 -0.39632014373E+03  0.18176504718E+01  0.48130942279E+03  0.62350125152E+03  0.46999998093E+01 0. -1.
</event>
<event>
 5   0  0.1007561E-03  0.8992749E+03  0.7818609E-02  0.9426488E-01
       -1   -1    0    0    0  501  0.00000000000E+00  0.00000000000E+00  0.71516895720E+03  0.71516895722E+03  0.50400001928E-02 0.  1.
        1   -1    0    0  501    0  0.00000000000E+00  0.00000000000E+00 -0.28269382173E+03  0.28269382177E+03  0.50400001928E-02 0. -1.
    10030    2    1    2    0    0  0.00000000000E+00  0.00000000000E+00  0.43247513547E+03  0.99786277899E+03  0.89927492064E+03 0.  0.
        2    1    3    3  502    0 -0.34333576751E+02 -0.24849237121E+03 -0.19782944207E+03  0.31947416358E+03  0.25500000920E-02 0. -1.
       -2    1    3    3    0  502  0.34333576751E+02  0.24849237121E+03  0.63030457754E+03  0.67838861541E+03  0.25500000920E-02 0.  1.
</event>
<event>
 5   0  0.1007561E-03  0.9016312E+03  0.7818609E-02  0.9423545E-01
       -1   -1    0    0    0  501  0.00000000000E+00  0.00000000000E+00  0.19759391991E+03  0.19759391997E+03  0.50400001928E-02 0.  1.
        1   -1    0    0  501    0  0.00000000000E+00  0.00000000000E+00 -0.10285472951E+04  0.10285472951E+04  0.50400001928E-02 0. -1.
    10030    2    1    2    0    0  0.00000000000E+00  0.00000000000E+00 -0.83095337515E+03  0.12261412150E+04  0.90163117046E+03 0.  0.
        2    1    3    3  502    0  0.14629254561E+03 -0.20433329276E+03  0.93504027249E+02  0.26813542576E+03  0.25500000920E-02 0.  1.
       -2    1    3    3    0  502 -0.14629254561E+03  0.20433329276E+03 -0.92445740240E+03  0.95800578928E+03  0.25500000920E-02 0. -1.
</event>
<event>
 5   0  0.6375625E-04  0.9001007E+03  0.7818609E-02  0.9425455E-01
       -4   -1    0    0    0  501  0.00000000000E+00  0.00000000000E+00  0.29390655064E+03  0.29390929452E+03  0.12699999809E+01 0.  1.
        4   -1    0    0  501    0  0.00000000000E+00  0.00000000000E+00 -0.68914222376E+03  0.68914339398E+03  0.12699999809E+01 0. -1.
    10030    2    1    2    0    0  0.00000000000E+00  0.00000000000E+00 -0.39523567312E+03  0.98305268851E+03  0.90010074495E+03 0.  0.
        1    1    3    3  502    0  0.16439553954E+03 -0.26322509436E+02 -0.65427407231E+03  0.67512467711E+03  0.50400001928E-02 0. -1.
       -1    1    3    3    0  502 -0.16439553954E+03  0.26322509436E+02  0.25903839918E+03  0.30792801139E+03  0.50400001928E-02 0.  1.
</event>
<event>
 5   0  0.1641516E-03  0.8995133E+03  0.7818609E-02  0.9426190E-01
        2   -1    0    0  501    0  0.00000000000E+00  0.00000000000E+00  0.17625913332E+04  0.17625913332E+04  0.25500000920E-02 0.  1.
       -2   -1    0    0    0  501  0.00000000000E+00  0.00000000000E+00 -0.11476344473E+03  0.11476344475E+03  0.25500000920E-02 0. -1.
    10030    2    1    2    0    0  0.00000000000E+00  0.00000000000E+00  0.16478278885E+04  0.18773547780E+04  0.89951331969E+03 0.  0.
        1    1    3    3  502    0 -0.38676423584E+03  0.22656160572E+03  0.90100367288E+03  0.10063420660E+04  0.50400001928E-02 0. -1.
       -1    1    3    3    0  502  0.38676423584E+03 -0.22656160572E+03  0.74682421563E+03  0.87101271195E+03  0.50400001928E-02 0.  1.
</event>
<event>
 5   0  0.9697941E-04  0.8990990E+03  0.7818609E-02  0.9426708E-01
       -1   -1    0    0    0  501  0.00000000000E+00  0.00000000000E+00  0.19215369832E+03  0.19215369839E+03  0.50400001928E-02 0. -1.
        1   -1    0    0  501    0  0.00000000000E+00  0.00000000000E+00 -0.10517348517E+04  0.10517348517E+04  0.50400001928E-02 0.  1.
    10030    2    1    2    0    0  0.00000000000E+00  0.00000000000E+00 -0.85958115339E+03  0.12438885501E+04  0.89909897444E+03 0.  0.
        5    1    3    3  502    0  0.27799795762E+03 -0.21614249522E+03 -0.43225869447E+02  0.35481122935E+03  0.46999998093E+01 0. -1.
       -5    1    3    3    0  502 -0.27799795762E+03  0.21614249522E+03 -0.81635528394E+03  0.88907732077E+03  0.46999998093E+01 0.  1.
</event>
<event>
 5   0  0.1007561E-03  0.9000215E+03  0.7818609E-02  0.9425555E-01
        1   -1    0    0  501    0  0.00000000000E+00  0.00000000000E+00  0.12078891855E+03  0.12078891866E+03  0.50400001928E-02 0.  1.
       -1   -1    0    0    0  501  0.00000000000E+00  0.00000000000E+00 -0.16765584916E+04  0.16765584916E+04  0.50400001928E-02 0. -1.
    10030    2    1    2    0    0  0.00000000000E+00  0.00000000000E+00 -0.15557695730E+04  0.17973474103E+04  0.90002152684E+03 0.  0.
        2    1    3    3  502    0 -0.30564430287E+03 -0.24261584138E+03 -0.12254491899E+04  0.12860818806E+04  0.25500000920E-02 0. -1.
       -2    1    3    3    0  502  0.30564430287E+03  0.24261584138E+03 -0.33032038309E+03  0.51126552969E+03  0.25500000920E-02 0.  1.
</event>
<event>
 5   0  0.9223454E-04  0.9045822E+03  0.7818609E-02  0.9419872E-01
        1   -1    0    0  501    0  0.00000000000E+00  0.00000000000E+00  0.11447886351E+04  0.11447886351E+04  0.50400001928E-02 0.  1.
       -1   -1    0    0    0  501  0.00000000000E+00  0.00000000000E+00 -0.17869431652E+03  0.17869431660E+03  0.50400001928E-02 0. -1.
    10030    2    1    2    0    0  0.00000000000E+00  0.00000000000E+00  0.96609431858E+03  0.13234829517E+04  0.90458216381E+03 0.  0.
        1    1    3    3  502    0 -0.13737621311E+03  0.35427166822E+03  0.84198577058E+03  0.92375358008E+03  0.50400001928E-02 0.  1.
       -1    1    3    3    0  502  0.13737621311E+03 -0.35427166822E+03  0.12410854801E+03  0.39972937163E+03  0.50400001928E-02 0. -1.
</event>
<event>
 5   0  0.1635686E-03  0.9000067E+03  0.7818609E-02  0.9425573E-01
       -2   -1    0    0    0  501  0.00000000000E+00  0.00000000000E+00  0.30812019038E+03  0.30812019039E+03  0.25500000920E-02 0.  1.
        2   -1    0    0  501    0  0.00000000000E+00  0.00000000000E+00 -0.65722083420E+03  0.65722083421E+03  0.25500000920E-02 0. -1.
    10030    2    1    2    0    0  0.00000000000E+00  0.00000000000E+00 -0.34910064382E+03  0.96534102460E+03  0.90000668567E+03 0.  0.
        5    1    3    3  502    0 -0.73165233065E+02 -0.90451550151E+02 -0.64078460551E+03  0.65127692644E+03  0.46999998093E+01 0. -1.
       -5    1    3    3    0  502  0.73165233065E+02  0.90451550151E+02  0.29168396168E+03  0.31406409816E+03  0.46999998093E+01 0.  1.
</event>
<event>
 5   0  0.1635686E-03  0.9015242E+03  0.7818609E-02  0.9423678E-01
       -2   -1    0    0    0  501  0.00000000000E+00  0.00000000000E+00  0.48343159663E+03  0.48343159664E+03  0.25500000920E-02 0.  1.
        2   -1    0    0  501    0  0.00000000000E+00  0.00000000000E+00 -0.42030033453E+03  0.42030033453E+03  0.25500000920E-02 0. -1.
    10030    2    1    2    0    0  0.00000000000E+00  0.00000000000E+00  0.63131262107E+02  0.90373193118E+03  0.90152418003E+03 0.  0.
        5    1    3    3  502    0  0.17023642276E+03 -0.39863614053E+03 -0.92321641886E+02  0.44321167372E+03  0.46999998093E+01 0.  1.
       -5    1    3    3    0  502 -0.17023642276E+03  0.39863614053E+03  0.15545290399E+03  0.46052025745E+03  0.46999998093E+01 0. -1.
</event>
<event>
 5   0  0.1630202E-03  0.8944647E+03  0.7818609E-02  0.9432527E-01
       -2   -1    0    0    0  501  0.00000000000E+00  0.00000000000E+00  0.18387326707E+04  0.18387326707E+04  0.25500000920E-02 0.  1.
        2   -1    0    0  501    0  0.00000000000E+00  0.00000000000E+00 -0.10877969941E+03  0.10877969944E+03  0.25500000920E-02 0. -1.
    10030    2    1    2    0    0  0.00000000000E+00  0.00000000000E+00  0.17299529713E+04  0.19475123702E+04  0.89446472765E+03 0.  0.
        4    1    3    3  502    0 -0.14694751170E+03 -0.19043379910E+03  0.16858958037E+04  0.17029694293E+04  0.12699999809E+01 0.  1.
       -4    1    3    3    0  502  0.14694751170E+03  0.19043379910E+03  0.44057167583E+02  0.24454294091E+03  0.12699999809E+01 0. -1.
</event>
<event>
 5   0  0.9697941E-04  0.8995663E+03  0.7818609E-02  0.9426124E-01
       -1   -1    0    0    0  501  0.00000000000E+00  0.00000000000E+00  0.70034697116E+03  0.70034697117E+03  0.50400001928E-02 0. -1.
        1   -1    0    0  501    0  0.00000000000E+00  0.00000000000E+00 -0.28886380656E+03  0.28886380661E+03  0.50400001928E-02 0.  1.
    10030    2    1    2    0    0  0.00000000000E+00  0.00000000000E+00  0.41148316459E+03  0.98921077778E+03  0.89956632226E+03 0.  0.
        5    1    3    3  502    0 -0.13008802534E+03  0.42664229902E+03  0.26925790709E+03  0.52102634883E+03  0.46999998093E+01 0. -1.
       -5    1    3    3    0  502  0.13008802534E+03 -0.42664229902E+03  0.14222525750E+03  0.46818442895E+03  0.46999998093E+01 0.  1.
</event>
<event>
 5   0  0.1536020E-03  0.8941495E+03  0.7818609E-02  0.9432924E-01
        2   -1    0    0  501    0  0.00000000000E+00  0.00000000000E+00  0.70109442720E+03  0.70109442720E+03  0.25500000920E-02 0. -1.
       -2   -1    0    0    0  501  0.00000000000E+00  0.00000000000E+00 -0.28509120025E+03  0.28509120027E+03  0.25500000920E-02 0.  1.
    10030    2    1    2    0    0  0.00000000000E+00  0.00000000000E+00  0.41600322694E+03  0.98618562747E+03  0.89414954398E+03 0.  0.
        2    1    3    3  502    0  0.19534435241E+01 -0.42667407135E+03  0.35523892087E+03  0.55520200829E+03  0.25500000920E-02 0. -1.
       -2    1    3    3    0  502 -0.19534435241E+01  0.42667407135E+03  0.60764306078E+02  0.43098361918E+03  0.25500000920E-02 0.  1.
</event>
<event>
 5   0  0.1007561E-03  0.9000487E+03  0.7818609E-02  0.9425521E-01
        1   -1    0    0  501    0  0.00000000000E+00  0.00000000000E+00  0.68503023911E+03  0.68503023913E+03  0.50400001928E-02 0.  1.
       -1   -1    0    0    0  501  0.00000000000E+00  0.00000000000E+00 -0.29563939952E+03  0.29563939956E+03  0.50400001928E-02 0. -1.
    10030    2    1    2    0    0  0.00000000000E+00  0.00000000000E+00  0.38939083959E+03  0.98066963869E+03  0.90004872884E+03 0.  0.
        2    1    3    3  502    0  0.83176418171E+02  0.42753129539E+03  0.31806581081E+03  0.53932104084E+03  0.25500000920E-02 0.  1.
       -2    1    3    3    0  502 -0.83176418171E+02 -0.42753129539E+03  0.71325028783E+02  0.44134859784E+03  0.25500000920E-02 0. -1.
</event>
<event>
 5   0  0.1536020E-03  0.9004904E+03  0.7818609E-02  0.9424969E-01
        2   -1    0    0  501    0  0.00000000000E+00  0.00000000000E+00  0.16739784551E+04  0.16739784551E+04  0.25500000920E-02 0. -1.
       -2   -1    0    0    0  501  0.00000000000E+00  0.00000000000E+00 -0.12110117345E+03  0.12110117347E+03  0.25500000920E-02 0.  1.
    10030    2    1    2    0    0  0.00000000000E+00  0.00000000000E+00  0.15528772816E+04  0.17950796285E+04  0.90049043362E+03 0.  0.
        2    1    3    3  502    0  0.34360378775E+03  0.18906683972E+03  0.33557169204E+03  0.51615714017E+03  0.25500000920E-02 0.  1.
       -2    1    3    3    0  502 -0.34360378775E+03 -0.18906683972E+03  0.12173055896E+04  0.12789224884E+04  0.25500000920E-02 0. -1.
</event>
<event>
 5   0  0.9697941E-04  0.9016285E+03  0.7818609E-02  0.9423548E-01
        1   -1    0    0  501    0  0.00000000000E+00  0.00000000000E+00  0.87679598560E+03  0.87679598561E+03  0.50400001928E-02 0. -1.
       -1   -1    0    0    0  501  0.00000000000E+00  0.00000000000E+00 -0.23179107889E+03  0.23179107894E+03  0.50400001928E-02 0.  1.
    10030    2    1    2    0    0  0.00000000000E+00  0.00000000000E+00  0.64500490671E+03  0.11085870646E+04  0.90162849889E+03 0.  0.
        5    1    3    3  502    0 -0.12524674251E+03  0.28072469590E+03 -0.82906648525E+02  0.31841592889E+03  0.46999998093E+01 0.  1.
       -5    1    3    3    0  502  0.12524674251E+03 -0.28072469590E+03  0.72791155524E+03  0.79017113567E+03  0.46999998093E+01 0. -1.
</event>
<event>
 5   0  0.1630202E-03  0.8967142E+03  0.7818609E-02  0.9429698E-01
       -2   -1    0    0    0  501  0.00000000000E+00  0.00000000000E+00  0.31957971434E+03  0.31957971435E+03  0.25500000920E-02 0.  1.
        2   -1    0    0  501    0  0.00000000000E+00  0.00000000000E+00 -0.62902645190E+03  0.62902645191E+03  0.25500000920E-02 0. -1.
    10030    2    1    2    0    0  0.00000000000E+00  0.00000000000E+00 -0.30944673757E+03  0.94860616625E+03  0.89671421047E+03 0.  0.
        4    1    3    3  502    0  0.11148286915E+03 -0.71830423501E+02  0.29835396019E+03  0.32650381057E+03  0.12699999809E+01 0.  1.
       -4    1    3    3    0  502 -0.11148286915E+03  0.71830423501E+02 -0.60780069776E+03  0.62210235569E+03  0.12699999809E+01 0. -1.
</event>
<event>
 5   0  0.9223454E-04  0.9005566E+03  0.7818609E-02  0.9424886E-01
        1   -1    0    0  501    0  0.00000000000E+00  0.00000000000E+00  0.97275309810E+03  0.97275309811E+03  0.50400001928E-02 0. -1.
       -1   -1    0    0    0  501  0.00000000000E+00  0.00000000000E+00 -0.20842962896E+03  0.20842962902E+03  0.50400001928E-02 0.  1.
    10030    2    1    2    0    0  0.00000000000E+00  0.00000000000E+00  0.76432346913E+03  0.11811827271E+04  0.90055664420E+03 0.  0.
        1    1    3    3  502    0 -0.15559728859E+03  0.28642169838E+03  0.78961302634E+03  0.85424623904E+03  0.50400001928E-02 0. -1.
       -1    1    3    3    0  502  0.15559728859E+03 -0.28642169838E+03 -0.25289557205E+02  0.32693648810E+03  0.50400001928E-02 0.  1.
</event>
<event>
 5   0  0.9697941E-04  0.9027956E+03  0.7818609E-02  0.9422094E-01
       -1   -1    0    0    0  501  0.00000000000E+00  0.00000000000E+00  0.74449962552E+03  0.74449962554E+03  0.50400001928E-02 0. -1.
        1   -1    0    0  501    0  0.00000000000E+00  0.00000000000E+00 -0.27368712010E+03  0.27368712015E+03  0.50400001928E-02 0.  1.
    10030    2    1    2    0    0  0.00000000000E+00  0.00000000000E+00  0.47081250542E+03  0.10181867457E+04  0.90279556592E+03 0.  0.
        5    1    3    3  502    0  0.11329055611E+03  0.13869020556E+03  0.70269237075E+03  0.72516782963E+03  0.46999998093E+01 0. -1.
       -5    1    3    3    0  502 -0.11329055611E+03 -0.13869020556E+03 -0.23187986533E+03  0.29301891606E+03  0.46999998093E+01 0.  1.
</event>
<event>
 5   0  0.9223454E-04  0.8990464E+03  0.7818609E-02  0.9426774E-01
        1   -1    0    0  501    0  0.00000000000E+00  0.00000000000E+00  0.14646693538E+03  0.14646693546E+03  0.50400001928E-02 0. -1.
       -1   -1    0    0    0  501  0.00000000000E+00  0.00000000000E+00 -0.13796364160E+04  0.13796364160E+04  0.50400001928E-02 0.  1.
    10030    2    1    2    0    0  0.00000000000E+00  0.00000000000E+00 -0.12331694807E+04  0.15261033515E+04  0.89904642342E+03 0.  0.
        1    1    3    3  502    0 -0.24774009242E+02  0.57337965548E+02  0.13906490131E+03  0.15244815718E+03  0.50400001928E-02 0. -1.
       -1    1    3    3    0  502  0.24774009242E+02 -0.57337965548E+02 -0.13722343820E+04  0.13736551943E+04  0.50400001928E-02 0.  1.
</event>
<event>
 5   0  0.1536020E-03  0.9010037E+03  0.7818609E-02  0.9424328E-01
       -2   -1    0    0    0  501  0.00000000000E+00  0.00000000000E+00  0.22298816822E+03  0.22298816824E+03  0.25500000920E-02 0.  1.
        2   -1    0    0  501    0  0.00000000000E+00  0.00000000000E+00 -0.91014661253E+03  0.91014661254E+03  0.25500000920E-02 0. -1.
    10030    2    1    2    0    0  0.00000000000E+00  0.00000000000E+00 -0.68715844431E+03  0.11331347808E+04  0.90100372019E+03 0.  0.
        2    1    3    3  502    0 -0.18292317282E+03  0.13954620960E+03 -0.83068863108E+03  0.86196150353E+03  0.25500000920E-02 0. -1.
       -2    1    3    3    0  502  0.18292317282E+03 -0.13954620960E+03  0.14353018676E+03  0.27117327724E+03  0.25500000920E-02 0.  1.
</event>
<event>
 5   0  0.1704416E-03  0.8995934E+03  0.7818609E-02  0.9426090E-01
        2   -1    0    0  501    0  0.00000000000E+00  0.00000000000E+00  0.10481613928E+04  0.10481613928E+04  0.25500000920E-02 0.  1.
       -2   -1    0    0    0  501  0.00000000000E+00  0.00000000000E+00 -0.19302089460E+03  0.19302089462E+03  0.25500000920E-02 0. -1.
    10030    2    1    2    0    0  0.00000000000E+00  0.00000000000E+00  0.85514049825E+03  0.12411822875E+04  0.89959335201E+03 0.  0.
        3    1    3    3  502    0 -0.31253322353E+02 -0.32709350180E+03  0.85136984516E+03  0.91257742276E+03  0.10100000352E+00 0.  1.
       -3    1    3    3    0  502  0.31253322353E+02  0.32709350180E+03  0.37706530839E+01  0.32860486470E+03  0.10100000352E+00 0. -1.
</event>
<event>
 5   0  0.9697941E-04  0.9001001E+03  0.7818609E-02  0.9425456E-01
        1   -1    0    0  501    0  0.00000000000E+00  0.00000000000E+00  0.12834815464E+04  0.12834815464E+04  0.50400001928E-02 0.  1.
       -1   -1    0    0    0  501  0.00000000000E+00  0.00000000000E+00 -0.15780906982E+03  0.15780906990E+03  0.50400001928E-02 0. -1.
    10030    2    1    2    0    0  0.00000000000E+00  0.00000000000E+00  0.11256724765E+04  0.14412906163E+04  0.90010005895E+03 0.  0.
        5    1    3    3  502    0 -0.14482486142E+02 -0.11609857967E+03  0.12586631624E+04  0.12640979665E+04  0.46999998093E+01 0.  1.
       -5    1    3    3    0  502  0.14482486142E+02  0.11609857967E+03 -0.13299068585E+03  0.17719264975E+03  0.46999998093E+01 0. -1.
</event>
<event>
 5   0  0.1635686E-03  0.8992391E+03  0.7818609E-02  0.9426533E-01
        2   -1    0    0  501    0  0.00000000000E+00  0.00000000000E+00  0.50875980135E+03  0.50875980136E+03  0.25500000920E-02 0.  1.
       -2   -1    0    0    0  501  0.00000000000E+00  0.00000000000E+00 -0.39735400438E+03  0.39735400438E+03  0.25500000920E-02 0. -1.
    10030    2    1    2    0    0  0.00000000000E+00  0.00000000000E+00  0.11140579698E+03  0.90611380574E+03  0.89923911023E+03 0.  0.
        5    1    3    3  502    0 -0.18487684394E+03  0.12004729486E+03 -0.33914078340E+03  0.40451126238E+03  0.46999998093E+01 0. -1.
       -5    1    3    3    0  502  0.18487684394E+03 -0.12004729486E+03  0.45054658037E+03  0.50160254337E+03  0.46999998093E+01 0.  1.
</event>
<event>
 5   0  0.1635686E-03  0.8997608E+03  0.7818609E-02  0.9425881E-01
        2   -1    0    0  501    0  0.00000000000E+00  0.00000000000E+00  0.43707357738E+03  0.43707357739E+03  0.25500000920E-02 0. -1.
       -2   -1    0    0    0  501  0.00000000000E+00  0.00000000000E+00 -0.46306243669E+03  0.46306243670E+03  0.25500000920E-02 0.  1.
    10030    2    1    2    0    0  0.00000000000E+00  0.00000000000E+00 -0.25988859310E+02  0.90013601409E+03  0.89976075879E+03 0.  0.
        5    1    3    3  502    0 -0.24173037986E+03 -0.36702251130E+03  0.83124595209E+02  0.44729284443E+03  0.46999998093E+01 0. -1.
       -5    1    3    3    0  502  0.24173037986E+03  0.36702251130E+03 -0.10911345452E+03  0.45284316966E+03  0.46999998093E+01 0.  1.
</event>
<event>
 5   0  0.1635686E-03  0.8994576E+03  0.7818609E-02  0.9426260E-01
        2   -1    0    0  501    0  0.00000000000E+00  0.00000000000E+00  0.80060548372E+03  0.80060548372E+03  0.25500000920E-02 0. -1.
       -2   -1    0    0    0  501  0.00000000000E+00  0.00000000000E+00 -0.25262881172E+03  0.25262881173E+03  0.25500000920E-02 0.  1.
    10030    2    1    2    0    0  0.00000000000E+00  0.00000000000E+00  0.54797667200E+03  0.10532342955E+04  0.89945764106E+03 0.  0.
        5    1    3    3  502    0  0.27578446589E+03  0.26110322909E+03  0.55599903788E+03  0.67334165770E+03  0.46999998093E+01 0. -1.
       -5    1    3    3    0  502 -0.27578446589E+03 -0.26110322909E+03 -0.80223658827E+01  0.37989263776E+03  0.46999998093E+01 0.  1.
</event>
<event>
 5   0  0.9223454E-04  0.9002033E+03  0.7818609E-02  0.9425327E-01
        1   -1    0    0  501    0  0.00000000000E+00  0.00000000000E+00  0.13966950826E+04  0.13966950826E+04  0.50400001928E-02 0. -1.
       -1   -1    0    0    0  501  0.00000000000E+00  0.00000000000E+00 -0.14505062457E+03  0.14505062466E+03  0.50400001928E-02 0.  1.
    10030    2    1    2    0    0  0.00000000000E+00  0.00000000000E+00  0.12516444580E+04  0.15417457072E+04  0.90020329735E+03 0.  0.
        1    1    3    3  502    0 -0.15837477973E+03  0.17495217313E+03 -0.30601123068E+02  0.23796483458E+03  0.50400001928E-02 0.  1.
       -1    1    3    3    0  502  0.15837477973E+03 -0.17495217313E+03  0.12822455810E+04  0.13037808726E+04  0.50400001928E-02 0. -1.
</event>
<event>
 5   0  0.1630202E-03  0.8997642E+03  0.7818609E-02  0.9425876E-01
        2   -1    0    0  501    0  0.00000000000E+00  0.00000000000E+00  0.69013425614E+03  0.69013425615E+03  0.25500000920E-02 0.  1.
       -2   -1    0    0    0  501  0.00000000000E+00  0.00000000000E+00 -0.29326741885E+03  0.29326741886E+03  0.25500000920E-02 0. -1.
    10030    2    1    2    0    0  0.00000000000E+00  0.00000000000E+00  0.39686683730E+03  0.98340167501E+03  0.89976417347E+03 0.  0.
        4    1    3    3  502    0  0.14144982777E+03  0.27981987158E+03  0.55104490509E+03  0.63400261406E+03  0.12699999809E+01 0.  1.
       -4    1    3    3    0  502 -0.14144982777E+03 -0.27981987158E+03 -0.15417806780E+03  0.34939906095E+03  0.12699999809E+01 0. -1.
</event>
<event>
 5   0  0.9223454E-04  0.8808657E+03  0.7818609E-02  0.9449821E-01
        1   -1    0    0  501    0  0.00000000000E+00  0.00000000000E+00  0.23508020268E+03  0.23508020273E+03  0.50400001928E-02 0.  1.
       -1   -1    0    0    0  501  0.00000000000E+00  0.00000000000E+00 -0.82516993915E+03  0.82516993916E+03  0.50400001928E-02 0. -1.
    10030    2    1    2    0    0  0.00000000000E+00  0.00000000000E+00 -0.59008973647E+03  0.10602501419E+04  0.88086574818E+03 0.  0.
        1    1    3    3  502    0  0.20296726025E+01  0.42309975980E+03 -0.44228171897E+03  0.61207078453E+03  0.50400001928E-02 0. -1.
       -1    1    3    3    0  502 -0.20296726025E+01 -0.42309975980E+03 -0.14780801749E+03  0.44817935737E+03  0.50400001928E-02 0.  1.
</event>
<event>
 5   0  0.6375625E-04  0.8988023E+03  0.7818609E-02  0.9427080E-01
       -3   -1    0    0    0  501  0.00000000000E+00  0.00000000000E+00  0.49660913701E+03  0.49660914728E+03  0.10100000352E+00 0. -1.
        3   -1    0    0  501    0  0.00000000000E+00  0.00000000000E+00 -0.40668079174E+03  0.40668080428E+03  0.10100000352E+00 0.  1.
    10030    2    1    2    0    0  0.00000000000E+00  0.00000000000E+00  0.89928345271E+02  0.90328995157E+03  0.89880233050E+03 0.  0.
        3    1    3    3  502    0 -0.16847329711E+03  0.30549847093E+03  0.32966081330E+03  0.47998836403E+03  0.10100000352E+00 0. -1.
       -3    1    3    3    0  502  0.16847329711E+03 -0.30549847093E+03 -0.23973246802E+03  0.42330158753E+03  0.10100000352E+00 0.  1.
</event>
<event>
 5   0  0.9223454E-04  0.9011629E+03  0.7818609E-02  0.9424129E-01
       -1   -1    0    0    0  501  0.00000000000E+00  0.00000000000E+00  0.13299340997E+03  0.13299341006E+03  0.50400001928E-02 0.  1.
        1   -1    0    0  501    0  0.00000000000E+00  0.00000000000E+00 -0.15265693659E+04  0.15265693659E+04  0.50400001928E-02 0. -1.
    10030    2    1    2    0    0  0.00000000000E+00  0.00000000000E+00 -0.13935759559E+04  0.16595627759E+04  0.90116294998E+03 0.  0.
        1    1    3    3  502    0  0.30183042598E+03 -0.20549981791E+02 -0.81855658803E+02  0.31340749305E+03  0.50400001928E-02 0.  1.
       -1    1    3    3    0  502 -0.30183042598E+03  0.20549981791E+02 -0.13117202971E+04  0.13461552829E+04  0.50400001928E-02 0. -1.
</event>
<event>
 5   0  0.1007561E-03  0.9037793E+03  0.7818609E-02  0.9420869E-01
        1   -1    0    0  501    0  0.00000000000E+00  0.00000000000E+00  0.17425855697E+04  0.17425855698E+04  0.50400001928E-02 0.  1.
       -1   -1    0    0    0  501  0.00000000000E+00  0.00000000000E+00 -0.11718464709E+03  0.11718464720E+03  0.50400001928E-02 0. -1.
    10030    2    1    2    0    0  0.00000000000E+00  0.00000000000E+00  0.16254009227E+04  0.18597702170E+04  0.90377934281E+03 0.  0.
        2    1    3    3  502    0 -0.28803151492E+02  0.24517671263E+03  0.33832304227E+02  0.24917035692E+03  0.25500000920E-02 0. -1.
       -2    1    3    3    0  502  0.28803151492E+02 -0.24517671263E+03  0.15915686184E+04  0.16105998600E+04  0.25500000920E-02 0.  1.
</event>
<event>
 5   0  0.1630202E-03  0.8933600E+03  0.7818609E-02  0.9433920E-01
        2   -1    0    0  501    0  0.00000000000E+00  0.00000000000E+00  0.88627368587E+03  0.88627368587E+03  0.25500000920E-02 0.  1.
       -2   -1    0    0    0  501  0.00000000000E+00  0.00000000000E+00 -0.22512575037E+03  0.22512575038E+03  0.25500000920E-02 0. -1.
    10030    2    1    2    0    0  0.00000000000E+00  0.00000000000E+00  0.66114793550E+03  0.11113994363E+04  0.89336001382E+03 0.  0.
        4    1    3    3  502    0 -0.16532812437E+03  0.77306303563E+02 -0.17662053707E+03  0.25398047226E+03  0.12699999809E+01 0. -1.
       -4    1    3    3    0  502  0.16532812437E+03 -0.77306303563E+02  0.83776847257E+03  0.85741896399E+03  0.12699999809E+01 0.  1.
</event>
<event>
 5   0  0.9981885E-04  0.8995433E+03  0.7818609E-02  0.9426153E-01
       -1   -1    0    0    0  501  0.00000000000E+00  0.00000000000E+00  0.26012161899E+03  0.26012161903E+03  0.50400001928E-02 0.  1.
        1   -1    0    0  501    0  0.00000000000E+00  0.00000000000E+00 -0.77769211630E+03  0.77769211632E+03  0.50400001928E-02 0. -1.
    10030    2    1    2    0    0  0.00000000000E+00  0.00000000000E+00 -0.51757049731E+03  0.10378137354E+04  0.89954328945E+03 0.  0.
        4    1    3    3  502    0 -0.37848112807E+03 -0.21339295494E+03 -0.12469433995E+03  0.45203407929E+03  0.12699999809E+01 0. -1.
       -4    1    3    3    0  502  0.37848112807E+03  0.21339295494E+03 -0.39287615737E+03  0.58577965606E+03  0.12699999809E+01 0.  1.
</event>
<event>
 5   0  0.9321543E-04  0.8981408E+03  0.7818609E-02  0.9427909E-01
       -1   -1    0    0    0  501  0.00000000000E+00  0.00000000000E+00  0.79125923195E+02  0.79125923356E+02  0.50400001928E-02 0.  1.
        1   -1    0    0  501    0  0.00000000000E+00  0.00000000000E+00 -0.25486489580E+04  0.25486489580E+04  0.50400001928E-02 0. -1.
    10030    2    1    2    0    0  0.00000000000E+00  0.00000000000E+00 -0.24695230348E+04  0.26277748814E+04  0.89814075049E+03 0.  0.
        3    1    3    3  502    0 -0.34929113334E+03  0.20658431844E+03 -0.67210450046E+03  0.78511518020E+03  0.10100000352E+00 0.  1.
       -3    1    3    3    0  502  0.34929113334E+03 -0.20658431844E+03 -0.17974185344E+04  0.18426597012E+04  0.10100000352E+00 0. -1.
</event>
<event>
 5   0  0.1641516E-03  0.8996868E+03  0.7818609E-02  0.9425973E-01
       -2   -1    0    0    0  501  0.00000000000E+00  0.00000000000E+00  0.13623298592E+03  0.13623298595E+03  0.25500000920E-02 0.  1.
        2   -1    0    0  501    0  0.00000000000E+00  0.00000000000E+00 -0.14853896115E+04  0.14853896115E+04  0.25500000920E-02 0. -1.
    10030    2    1    2    0    0  0.00000000000E+00  0.00000000000E+00 -0.13491566256E+04  0.16216225974E+04  0.89968675006E+03 0.  0.
        1    1    3    3  502    0  0.27794903629E+03  0.31381404371E+02 -0.13095829576E+04  0.13391220938E+04  0.50400001928E-02 0. -1.
       -1    1    3    3    0  502 -0.27794903629E+03 -0.31381404371E+02 -0.39573667949E+02  0.28250050360E+03  0.50400001928E-02 0.  1.
</event>
<event>
 5   0  0.1635686E-03  0.9010362E+03  0.7818609E-02  0.9424287E-01
        2   -1    0    0  501    0  0.00000000000E+00  0.00000000000E+00  0.44796377903E+03  0.44796377904E+03  0.25500000920E-02 0. -1.
       -2   -1    0    0    0  501  0.00000000000E+00  0.00000000000E+00 -0.45308699861E+03  0.45308699862E+03  0.25500000920E-02 0.  1.
    10030    2    1    2    0    0  0.00000000000E+00  0.00000000000E+00 -0.51232195792E+01  0.90105077765E+03  0.90103621266E+03 0.  0.
        5    1    3    3  502    0  0.20018432676E+03 -0.74553377875E+02  0.39407120424E+03  0.44827020294E+03  0.46999998093E+01 0. -1.
       -5    1    3    3    0  502 -0.20018432676E+03  0.74553377875E+02 -0.39919442382E+03  0.45278057472E+03  0.46999998093E+01 0.  1.
</event>
<event>
 5   0  0.9981885E-04  0.9022141E+03  0.7818609E-02  0.9422818E-01
       -1   -1    0    0    0  501  0.00000000000E+00  0.00000000000E+00  0.20921407156E+03  0.20921407162E+03  0.50400001928E-02 0. -1.
        1   -1    0    0  501    0  0.00000000000E+00  0.00000000000E+00 -0.97267631027E+03  0.97267631028E+03  0.50400001928E-02 0.  1.
    10030    2    1    2    0    0  0.00000000000E+00  0.00000000000E+00 -0.76346223870E+03  0.11818903819E+04  0.90221410148E+03 0.  0.
        4    1    3    3  502    0 -0.36340020137E+03  0.10559880028E+02 -0.31876438408E+02  0.36495059617E+03  0.12699999809E+01 0. -1.
       -4    1    3    3    0  502  0.36340020137E+03 -0.10559880028E+02 -0.73158580030E+03  0.81693978573E+03  0.12699999809E+01 0.  1.
</event>
<event>
 5   0  0.1630202E-03  0.9004659E+03  0.7818609E-02  0.9424999E-01
       -2   -1    0    0    0  501  0.00000000000E+00  0.00000000000E+00  0.13823845195E+03  0.13823845197E+03  0.25500000920E-02 0. -1.
        2   -1    0    0  501    0  0.00000000000E+00  0.00000000000E+00 -0.14663772328E+04  0.14663772329E+04  0.25500000920E-02 0.  1.
    10030    2    1    2    0    0  0.00000000000E+00  0.00000000000E+00 -0.13281387809E+04  0.16046156848E+04  0.90046592087E+03 0.  0.
        4    1    3    3  502    0 -0.40317548112E+03  0.19942137963E+03 -0.69920433320E+03  0.83138899902E+03  0.12699999809E+01 0.  1.
       -4    1    3    3    0  502  0.40317548112E+03 -0.19942137963E+03 -0.62893444770E+03  0.77322668580E+03  0.12699999809E+01 0. -1.
</event>
<event>
 5   0  0.1536020E-03  0.8891659E+03  0.7818609E-02  0.9439227E-01
       -2   -1    0    0    0  501  0.00000000000E+00  0.00000000000E+00  0.18632075796E+03  0.18632075798E+03  0.25500000920E-02 0.  1.
        2   -1    0    0  501    0  0.00000000000E+00  0.00000000000E+00 -0.10608264321E+04  0.10608264321E+04  0.25500000920E-02 0. -1.
    10030    2    1    2    0    0  0.00000000000E+00  0.00000000000E+00 -0.87450567414E+03  0.12471471901E+04  0.88916586734E+03 0.  0.
        2    1    3    3  502    0  0.21995563714E+03 -0.96432479916E+02  0.87505140730E+02  0.25561074929E+03  0.25500000920E-02 0.  1.
       -2    1    3    3    0  502 -0.21995563714E+03  0.96432479916E+02 -0.96201081487E+03  0.99153644079E+03  0.25500000920E-02 0. -1.
</event>
<event>
 5   0  0.9223454E-04  0.8980940E+03  0.7818609E-02  0.9427967E-01
        1   -1    0    0  501    0  0.00000000000E+00  0.00000000000E+00  0.70906409033E+03  0.70906409035E+03  0.50400001928E-02 0.  1.
       -1   -1    0    0    0  501  0.00000000000E+00  0.00000000000E+00 -0.28437935915E+03  0.28437935920E+03  0.50400001928E-02 0. -1.
    10030    2    1    2    0    0  0.00000000000E+00  0.00000000000E+00  0.42468473118E+03  0.99344344955E+03  0.89809396310E+03 0.  0.
        1    1    3    3  502    0  0.39746000259E+03 -0.19496849692E+03  0.12915124714E+03  0.46115855528E+03  0.50400001928E-02 0. -1.
       -1    1    3    3    0  502 -0.39746000259E+03  0.19496849692E+03  0.29553348404E+03  0.53228489426E+03  0.50400001928E-02 0.  1.
</event>
<event>
 5   0  0.1536020E-03  0.8993514E+03  0.7818609E-02  0.9426393E-01
        2   -1    0    0  501    0  0.00000000000E+00  0.00000000000E+00  0.52147819234E+03  0.52147819235E+03  0.25500000920E-02 0. -1.
       -2   -1    0    0    0  501  0.00000000000E+00  0.00000000000E+00 -0.38775969438E+03  0.38775969439E+03  0.25500000920E-02 0.  1.
    10030    2    1    2    0    0  0.00000000000E+00  0.00000000000E+00  0.13371849796E+03  0.90923788673E+03  0.89935137625E+03 0.  0.
        2    1    3    3  502    0  0.22381169284E+03 -0.10944233662E+02 -0.32729417730E+03  0.39665215063E+03  0.25500000920E-02 0.  1.
       -2    1    3    3    0  502 -0.22381169284E+03  0.10944233662E+02  0.46101267526E+03  0.51258573610E+03  0.25500000920E-02 0. -1.
</event>
<event>
 5   0  0.1007561E-03  0.9000780E+03  0.7818609E-02  0.9425484E-01
        1   -1    0    0  501    0  0.00000000000E+00  0.00000000000E+00  0.44092258063E+03  0.44092258066E+03  0.50400001928E-02 0.  1.
       -1   -1    0    0    0  501  0.00000000000E+00  0.00000000000E+00 -0.45934389208E+03  0.45934389211E+03  0.50400001928E-02 0. -1.
    10030    2    1    2    0    0  0.00000000000E+00  0.00000000000E+00 -0.18421311445E+02  0.90026647277E+03  0.90007798400E+03 0.  0.
        2    1    3    3  502    0 -0.25236836798E+03 -0.14067991565E+02  0.36322117456E+03  0.44251251192E+03  0.25500000920E-02 0.  1.
       -2    1    3    3    0  502  0.25236836798E+03  0.14067991565E+02 -0.38164248601E+03  0.45775396085E+03  0.25500000920E-02 0. -1.
</event>
<event>
 5   0  0.9981885E-04  0.9006100E+03  0.7818609E-02  0.9424819E-01
        1   -1    0    0  501    0  0.00000000000E+00  0.00000000000E+00  0.65356037639E+03  0.65356037640E+03  0.50400001928E-02 0.  1.
       -1   -1    0    0    0  501  0.00000000000E+00  0.00000000000E+00 -0.31026143642E+03  0.31026143646E+03  0.50400001928E-02 0. -1.
    10030    2    1    2    0    0  0.00000000000E+00  0.00000000000E+00  0.34329893997E+03  0.96382181286E+03  0.90060997372E+03 0.  0.
        4    1    3    3  502    0  0.82272916890E+02 -0.43085958968E+03  0.62699571109E+02  0.44310457906E+03  0.12699999809E+01 0. -1.
       -4    1    3    3    0  502 -0.82272916890E+02  0.43085958968E+03  0.28059936886E+03  0.52071723380E+03  0.12699999809E+01 0.  1.
</event>
<event>
 5   0  0.1641516E-03  0.9019245E+03  0.7818609E-02  0.9423179E-01
       -2   -1    0    0    0  501  0.00000000000E+00  0.00000000000E+00  0.11970160293E+03  0.11970160295E+03  0.25500000920E-02 0.  1.
        2   -1    0    0  501    0  0.00000000000E+00  0.00000000000E+00 -0.16989493476E+04  0.16989493476E+04  0.25500000920E-02 0. -1.
    10030    2    1    2    0    0  0.00000000000E+00  0.00000000000E+00 -0.15792477447E+04  0.18186509506E+04  0.90192452063E+03 0.  0.
        1    1    3    3  502    0  0.31464174448E+02  0.47160089177E+02  0.11248736843E+03  0.12596617151E+03  0.50400001928E-02 0.  1.
       -1    1    3    3    0  502 -0.31464174448E+02 -0.47160089177E+02 -0.16917351131E+04  0.16926847791E+04  0.50400001928E-02 0. -1.
</event>
<event>
 5   0  0.1536020E-03  0.9014093E+03  0.7818609E-02  0.9423821E-01
        2   -1    0    0  501    0  0.00000000000E+00  0.00000000000E+00  0.47829929384E+03  0.47829929385E+03  0.25500000920E-02 0. -1.
       -2   -1    0    0    0  501  0.00000000000E+00  0.00000000000E+00 -0.42470201048E+03  0.42470201048E+03  0.25500000920E-02 0.  1.
    10030    2    1    2    0    0  0.00000000000E+00  0.00000000000E+00  0.53597283366E+02  0.90300130433E+03  0.90140927821E+03 0.  0.
        2    1    3    3  502    0  0.25971263764E+02 -0.40274162517E+03  0.22780033916E+03  0.46343102800E+03  0.25500000920E-02 0. -1.
       -2    1    3    3    0  502 -0.25971263764E+02  0.40274162517E+03 -0.17420305579E+03  0.43957027634E+03  0.25500000920E-02 0.  1.
</event>
<event>
 5   0  0.9223454E-04  0.9003390E+03  0.7818609E-02  0.9425158E-01
        1   -1    0    0  501    0  0.00000000000E+00  0.00000000000E+00  0.55658125735E+03  0.55658125737E+03  0.50400001928E-02 0. -1.
       -1   -1    0    0    0  501  0.00000000000E+00  0.00000000000E+00 -0.36410244296E+03  0.36410244300E+03  0.50400001928E-02 0.  1.
    10030    2    1    2    0    0  0.00000000000E+00  0.00000000000E+00  0.19247881439E+03  0.92068370037E+03  0.90033903733E+03 0.  0.
        1    1    3    3  502    0  0.27445257528E+03  0.19705815584E+03  0.40044509467E+03  0.52393931588E+03  0.50400001928E-02 0. -1.
       -1    1    3    3    0  502 -0.27445257528E+03 -0.19705815584E+03 -0.20796628028E+03  0.39674438448E+03  0.50400001928E-02 0.  1.
</event>
<event>
 5   0  0.1007561E-03  0.8952095E+03  0.7818609E-02  0.9431590E-01
        1   -1    0    0  501    0  0.00000000000E+00  0.00000000000E+00  0.13950826506E+04  0.13950826506E+04  0.50400001928E-02 0. -1.
       -1   -1    0    0    0  501  0.00000000000E+00  0.00000000000E+00 -0.14361158407E+03  0.14361158415E+03  0.50400001928E-02 0.  1.
    10030    2    1    2    0    0  0.00000000000E+00  0.00000000000E+00  0.12514710665E+04  0.15386942347E+04  0.89520953844E+03 0.  0.
        2    1    3    3  502    0 -0.14467831336E+03 -0.24682886072E+03  0.12173997554E+04  0.12505672574E+04  0.25500000920E-02 0. -1.
       -2    1    3    3    0  502  0.14467831336E+03  0.24682886072E+03  0.34071311151E+02  0.28812697737E+03  0.25500000920E-02 0.  1.
</event>
<event>
 5   0  0.1641516E-03  0.8988996E+03  0.7818609E-02  0.9426958E-01
       -2   -1    0    0    0  501  0.00000000000E+00  0.00000000000E+00  0.68714919324E+03  0.68714919325E+03  0.25500000920E-02 0.  1.
        2   -1    0    0  501    0  0.00000000000E+00  0.00000000000E+00 -0.29397563168E+03  0.29397563169E+03  0.25500000920E-02 0. -1.
    10030    2    1    2    0    0  0.00000000000E+00  0.00000000000E+00  0.39317356157E+03  0.98112482494E+03  0.89889958983E+03 0.  0.
        1    1    3    3  502    0 -0.21198161491E+03  0.34228695105E+03  0.41463175981E+03  0.57794122382E+03  0.50400001928E-02 0.  1.
       -1    1    3    3    0  502  0.21198161491E+03 -0.34228695105E+03 -0.21458198246E+02  0.40318360112E+03  0.50400001928E-02 0. -1.
</event>
<event>
 5   0  0.1007561E-03  0.9012408E+03  0.7818609E-02  0.9424032E-01
       -1   -1    0    0    0  501  0.00000000000E+00  0.00000000000E+00  0.13738655796E+04  0.13738655796E+04  0.50400001928E-02 0.  1.
        1   -1    0    0  501    0  0.00000000000E+00  0.00000000000E+00 -0.14780103096E+03  0.14780103104E+03  0.50400001928E-02 0. -1.
    10030    2    1    2    0    0  0.00000000000E+00  0.00000000000E+00  0.12260645486E+04  0.15216666106E+04  0.90124080940E+03 0.  0.
        2    1    3    3  502    0 -0.13173274489E+03 -0.37464756611E+03  0.25349770345E+03  0.47114265412E+03  0.25500000920E-02 0. -1.
       -2    1    3    3    0  502  0.13173274489E+03  0.37464756611E+03  0.97256684517E+03  0.10505239565E+04  0.25500000920E-02 0.  1.
</event>
<event>
 5   0  0.9321543E-04  0.8975055E+03  0.7818609E-02  0.9428705E-01
       -1   -1    0    0    0  501  0.00000000000E+00  0.00000000000E+00  0.16090488632E+03  0.16090488640E+03  0.50400001928E-02 0.  1.
        1   -1    0    0  501    0  0.00000000000E+00  0.00000000000E+00 -0.12515408366E+04  0.12515408366E+04  0.50400001928E-02 0. -1.
    10030    2    1    2    0    0  0.00000000000E+00  0.00000000000E+00 -0.10906359503E+04  0.14124457230E+04  0.89750551219E+03 0.  0.
        3    1    3    3  502    0  0.23750434184E+03 -0.20129978515E+03 -0.36705491828E+02  0.31349197633E+03  0.10100000352E+00 0.  1.
       -3    1    3    3    0  502 -0.23750434184E+03  0.20129978515E+03 -0.10539304584E+04  0.10989537467E+04  0.10100000352E+00 0. -1.
</event>
<event>
 5   0  0.1630202E-03  0.8989977E+03  0.7818609E-02  0.9426835E-01
       -2   -1    0    0    0  501  0.00000000000E+00  0.00000000000E+00  0.15078334859E+03  0.15078334861E+03  0.25500000920E-02 0.  1.
        2   -1    0    0  501    0  0.00000000000E+00  0.00000000000E+00 -0.13399967884E+04  0.13399967884E+04  0.25500000920E-02 0. -1.
    10030    2    1    2    0    0  0.00000000000E+00  0.00000000000E+00 -0.11892134398E+04  0.14907801370E+04  0.89899767044E+03 0.  0.
        4    1    3    3  502    0 -0.23431751369E+03  0.39366134145E+02  0.38133698527E+02  0.24064534403E+03  0.12699999809E+01 0.  1.
       -4    1    3    3    0  502  0.23431751369E+03 -0.39366134145E+02 -0.12273471383E+04  0.12501347929E+04  0.12699999809E+01 0. -1.
</event>
<event>
 5   0  0.1630202E-03  0.8992760E+03  0.7818609E-02  0.9426487E-01
       -2   -1    0    0    0  501  0.00000000000E+00  0.00000000000E+00  0.73102156807E+03  0.73102156807E+03  0.25500000920E-02 0. -1.
        2   -1    0    0  501    0  0.00000000000E+00  0.00000000000E+00 -0.27656410645E+03  0.27656410646E+03  0.25500000920E-02 0.  1.
    10030    2    1    2    0    0  0.00000000000E+00  0.00000000000E+00  0.45445746162E+03  0.10075856745E+04  0.89927599051E+03 0.  0.
        4    1    3    3  502    0 -0.17281954070E+01  0.39764213501E+03 -0.79316788934E+01  0.39772701520E+03  0.12699999809E+01 0.  1.
       -4    1    3    3    0  502  0.17281954070E+01 -0.39764213501E+03  0.46238914051E+03  0.60985865933E+03  0.12699999809E+01 0. -1.
</event>
<event>
 5   0  0.1630202E-03  0.8991589E+03  0.7818609E-02  0.9426633E-01
        2   -1    0    0  501    0  0.00000000000E+00  0.00000000000E+00  0.92851966725E+03  0.92851966725E+03  0.25500000920E-02 0. -1.
       -2   -1    0    0    0  501  0.00000000000E+00  0.00000000000E+00 -0.21768162841E+03  0.21768162843E+03  0.25500000920E-02 0.  1.
    10030    2    1    2    0    0  0.00000000000E+00  0.00000000000E+00  0.71083803883E+03  0.11462012957E+04  0.89915888071E+03 0.  0.
        4    1    3    3  502    0 -0.40396773019E+03 -0.11440518267E+03  0.56033887979E+03  0.70018550825E+03  0.12699999809E+01 0. -1.
       -4    1    3    3    0  502  0.40396773019E+03  0.11440518267E+03  0.15049915905E+03  0.44601578743E+03  0.12699999809E+01 0.  1.
</event>
<event>
 5   0  0.1704416E-03  0.9018993E+03  0.7818609E-02  0.9423210E-01
        2   -1    0    0  501    0  0.00000000000E+00  0.00000000000E+00  0.12444070223E+04  0.12444070223E+04  0.25500000920E-02 0.  1.
       -2   -1    0    0    0  501  0.00000000000E+00  0.00000000000E+00 -0.16341565779E+03  0.16341565781E+03  0.25500000920E-02 0. -1.
    10030    2    1    2    0    0  0.00000000000E+00  0.00000000000E+00  0.10809913645E+04  0.14078226801E+04  0.90189931174E+03 0.  0.
        3    1    3    3  502    0 -0.42946851047E+03  0.95159005652E+02  0.69547204164E+03  0.82290935634E+03  0.10100000352E+00 0.  1.
       -3    1    3    3    0  502  0.42946851047E+03 -0.95159005652E+02  0.38551932289E+03  0.58491332380E+03  0.10100000352E+00 0. -1.
</event>
<event>
 5   0  0.9223454E-04  0.9009380E+03  0.7818609E-02  0.9424410E-01
       -1   -1    0    0    0  501  0.00000000000E+00  0.00000000000E+00  0.97377725097E+02  0.97377725228E+02  0.50400001928E-02 0. -1.
        1   -1    0    0  501    0  0.00000000000E+00  0.00000000000E+00 -0.20838678398E+04  0.20838678398E+04  0.50400001928E-02 0.  1.
    10030    2    1    2    0    0  0.00000000000E+00  0.00000000000E+00 -0.19864901147E+04  0.21812455650E+04  0.90093797742E+03 0.  0.
        1    1    3    3  502    0 -0.37938954817E+03 -0.13235599953E+03 -0.14862655905E+04  0.15396233129E+04  0.50400001928E-02 0.  1.
       -1    1    3    3    0  502  0.37938954817E+03  0.13235599953E+03 -0.50022452415E+03  0.64162225216E+03  0.50400001928E-02 0. -1.
</event>
<event>
 5   0  0.1536020E-03  0.9002296E+03  0.7818609E-02  0.9425294E-01
       -2   -1    0    0    0  501  0.00000000000E+00  0.00000000000E+00  0.95423506279E+02  0.95423506313E+02  0.25500000920E-02 0.  1.
        2   -1    0    0  501    0  0.00000000000E+00  0.00000000000E+00 -0.21232013791E+04  0.21232013791E+04  0.25500000920E-02 0. -1.
    10030    2    1    2    0    0  0.00000000000E+00  0.00000000000E+00 -0.20277778728E+04  0.22186248854E+04  0.90022957109E+03 0.  0.
        2    1    3    3  502    0 -0.63419124246E+02  0.44137613873E+03 -0.86259854369E+03  0.97103611094E+03  0.25500000920E-02 0. -1.
       -2    1    3    3    0  502  0.63419124246E+02 -0.44137613873E+03 -0.11651793291E+04  0.12475887744E+04  0.25500000920E-02 0.  1.
</event>
<event>
 5   0  0.1641516E-03  0.9022747E+03  0.7818609E-02  0.9422742E-01
        2   -1    0    0  501    0  0.00000000000E+00  0.00000000000E+00  0.65965202751E+03  0.65965202752E+03  0.25500000920E-02 0. -1.
       -2   -1    0    0    0  501  0.00000000000E+00  0.00000000000E+00 -0.30853374293E+03  0.30853374294E+03  0.25500000920E-02 0.  1.
    10030    2    1    2    0    0  0.00000000000E+00  0.00000000000E+00  0.35111828458E+03  0.96818577045E+03  0.90227470115E+03 0.  0.
        1    1    3    3  502    0  0.56752800424E+02 -0.13284078663E+03  0.63416383702E+03  0.65040858479E+03  0.50400001928E-02 0. -1.
       -1    1    3    3    0  502 -0.56752800424E+02  0.13284078663E+03 -0.28304555244E+03  0.31777718567E+03  0.50400001928E-02 0.  1.
</event>
<event>
 5   0  0.1007561E-03  0.8997696E+03  0.7818609E-02  0.9425870E-01
        1   -1    0    0  501    0  0.00000000000E+00  0.00000000000E+00  0.44006746020E+03  0.44006746023E+03  0.50400001928E-02 0.  1.
       -1   -1    0    0    0  501  0.00000000000E+00  0.00000000000E+00 -0.45992110220E+03  0.45992110222E+03  0.50400001928E-02 0. -1.
    10030    2    1    2    0    0  0.00000000000E+00  0.00000000000E+00 -0.19853641999E+02  0.89998856245E+03  0.89976955130E+03 0.  0.
        2    1    3    3  502    0  0.46094543708E+02  0.24851591840E+03  0.36233502301E+03  0.44178222866E+03  0.25500000920E-02 0.  1.
       -2    1    3    3    0  502 -0.46094543708E+02 -0.24851591840E+03 -0.38218866501E+03  0.45820633379E+03  0.25500000920E-02 0. -1.
</event>
<event>
 5   0  0.1007561E-03  0.9000305E+03  0.7818609E-02  0.9425543E-01
        1   -1    0    0  501    0  0.00000000000E+00  0.00000000000E+00  0.75677554898E+03  0.75677554900E+03  0.50400001928E-02 0.  1.
       -1   -1    0    0    0  501  0.00000000000E+00  0.00000000000E+00 -0.26760077709E+03  0.26760077714E+03  0.50400001928E-02 0. -1.
    10030    2    1    2    0    0  0.00000000000E+00  0.00000000000E+00  0.48917477189E+03  0.10243763261E+04  0.90003049954E+03 0.  0.
        2    1    3    3  502    0 -0.10029836908E+03  0.24947083822E+03  0.65530020248E+03  0.70831759638E+03  0.25500000920E-02 0.  1.
       -2    1    3    3    0  502  0.10029836908E+03 -0.24947083822E+03 -0.16612543059E+03  0.31605872976E+03  0.25500000920E-02 0. -1.
</event>
<event>
 5   0  0.1630202E-03  0.9010689E+03  0.7818609E-02  0.9424246E-01
       -2   -1    0    0    0  501  0.00000000000E+00  0.00000000000E+00  0.11211987186E+03  0.11211987189E+03  0.25500000920E-02 0. -1.
        2   -1    0    0  501    0  0.00000000000E+00  0.00000000000E+00 -0.18103952526E+04  0.18103952526E+04  0.25500000920E-02 0.  1.
    10030    2    1    2    0    0  0.00000000000E+00  0.00000000000E+00 -0.16982753807E+04  0.19225151245E+04  0.90106888473E+03 0.  0.
        4    1    3    3  502    0 -0.74405954496E+02  0.32036820842E+03 -0.15060893747E+04  0.15415832292E+04  0.12699999809E+01 0.  1.
       -4    1    3    3    0  502  0.74405954496E+02 -0.32036820842E+03 -0.19218600602E+03  0.38093189528E+03  0.12699999809E+01 0. -1.
</event>
<event>
 5   0  0.1630202E-03  0.8991727E+03  0.7818609E-02  0.9426616E-01
        2   -1    0    0  501    0  0.00000000000E+00  0.00000000000E+00  0.10667035989E+04  0.10667035990E+04  0.25500000920E-02 0.  1.
       -2   -1    0    0    0  501  0.00000000000E+00  0.00000000000E+00 -0.18948834213E+03  0.18948834215E+03  0.25500000920E-02 0. -1.
    10030    2    1    2    0    0  0.00000000000E+00  0.00000000000E+00  0.87721525681E+03  0.12561919411E+04  0.89917272318E+03 0.  0.
        4    1    3    3  502    0 -0.23111560575E+03  0.14242894063E+03 -0.62048014810E+02  0.27848158897E+03  0.12699999809E+01 0. -1.
       -4    1    3    3    0  502  0.23111560575E+03 -0.14242894063E+03  0.93926327162E+03  0.97771035214E+03  0.12699999809E+01 0.  1.
</event>
<event>
 5   0  0.1630202E-03  0.8997315E+03  0.7818609E-02  0.9425917E-01
        2   -1    0    0  501    0  0.00000000000E+00  0.00000000000E+00  0.51073376116E+03  0.51073376117E+03  0.25500000920E-02 0.  1.
       -2   -1    0    0    0  501  0.00000000000E+00  0.00000000000E+00 -0.39625181736E+03  0.39625181737E+03  0.25500000920E-02 0. -1.
    10030    2    1    2    0    0  0.00000000000E+00  0.00000000000E+00  0.11448194380E+03  0.90698557854E+03  0.89973147340E+03 0.  0.
        4    1    3    3  502    0  0.29936929202E+03  0.20875397926E+02 -0.28060259573E+03  0.41084934572E+03  0.12699999809E+01 0. -1.
       -4    1    3    3    0  502 -0.29936929202E+03 -0.20875397926E+02  0.39508453953E+03  0.49613623282E+03  0.12699999809E+01 0.  1.
</event>
<event>
 5   0  0.9321543E-04  0.8992332E+03  0.7818609E-02  0.9426540E-01
        1   -1    0    0  501    0  0.00000000000E+00  0.00000000000E+00  0.10155848293E+04  0.10155848294E+04  0.50400001928E-02 0.  1.
       -1   -1    0    0    0  501  0.00000000000E+00  0.00000000000E+00 -0.19905288786E+03  0.19905288792E+03  0.50400001928E-02 0. -1.
    10030    2    1    2    0    0  0.00000000000E+00  0.00000000000E+00  0.81653194149E+03  0.12146377173E+04  0.89923321378E+03 0.  0.
        3    1    3    3  502    0  0.23981703266E+03  0.38021029291E+03  0.39595954949E+03  0.59904595068E+03  0.10100000352E+00 0. -1.
       -3    1    3    3    0  502 -0.23981703266E+03 -0.38021029291E+03  0.42057239199E+03  0.61559176660E+03  0.10100000352E+00 0.  1.
</event>
<event>
 5   0  0.6375625E-04  0.9001960E+03  0.7818609E-02  0.9425336E-01
       -3   -1    0    0    0  501  0.00000000000E+00  0.00000000000E+00  0.36383615565E+03  0.36383616967E+03  0.10100000352E+00 0. -1.
        3   -1    0    0  501    0  0.00000000000E+00  0.00000000000E+00 -0.55681165246E+03  0.55681166162E+03  0.10100000352E+00 0.  1.
    10030    2    1    2    0    0  0.00000000000E+00  0.00000000000E+00 -0.19297549681E+03  0.92064783129E+03  0.90019602692E+03 0.  0.
        1    1    3    3  502    0  0.40603908105E+03 -0.15327983573E+03  0.25493889622E+02  0.43475554259E+03  0.50400001928E-02 0.  1.
       -1    1    3    3    0  502 -0.40603908105E+03  0.15327983573E+03 -0.21846938643E+03  0.48589228870E+03  0.50400001928E-02 0. -1.
</event>
<event>
 5   0  0.9321543E-04  0.9003230E+03  0.7818609E-02  0.9425178E-01
       -1   -1    0    0    0  501  0.00000000000E+00  0.00000000000E+00  0.28164209802E+03  0.28164209807E+03  0.50400001928E-02 0.  1.
        1   -1    0    0  501    0  0.00000000000E+00  0.00000000000E+00 -0.71951381941E+03  0.71951381943E+03  0.50400001928E-02 0. -1.
    10030    2    1    2    0    0  0.00000000000E+00  0.00000000000E+00 -0.43787172139E+03  0.10011559175E+04  0.90032301245E+03 0.  0.
        3    1    3    3  502    0  0.25379980623E+03  0.94528576681E+02  0.18091208389E+03  0.32569799777E+03  0.10100000352E+00 0.  1.
       -3    1    3    3    0  502 -0.25379980623E+03 -0.94528576681E+02 -0.61878380528E+03  0.67545791973E+03  0.10100000352E+00 0. -1.
</event>
<event>
 5   0  0.1536020E-03  0.8955202E+03  0.7818609E-02  0.9431199E-01
        2   -1    0    0  501    0  0.00000000000E+00  0.00000000000E+00  0.10209608382E+04  0.10209608382E+04  0.25500000920E-02 0. -1.
       -2   -1    0    0    0  501  0.00000000000E+00  0.00000000000E+00 -0.19637295116E+03  0.19637295118E+03  0.25500000920E-02 0.  1.
    10030    2    1    2    0    0  0.00000000000E+00  0.00000000000E+00  0.82458788706E+03  0.12173337894E+04  0.89552016802E+03 0.  0.
        2    1    3    3  502    0  0.24695086552E+03 -0.34890015342E+03  0.59351774479E+03  0.73142283286E+03  0.25500000920E-02 0. -1.
       -2    1    3    3    0  502 -0.24695086552E+03  0.34890015342E+03  0.23107014227E+03  0.48591095655E+03  0.25500000920E-02 0.  1.
</event>
<event>
 5   0  0.1007561E-03  0.9003022E+03  0.7818609E-02  0.9425204E-01
       -1   -1    0    0    0  501  0.00000000000E+00  0.00000000000E+00  0.33864273948E+03  0.33864273952E+03  0.50400001928E-02 0.  1.
        1   -1    0    0  501    0  0.00000000000E+00  0.00000000000E+00 -0.59837697645E+03  0.59837697648E+03  0.50400001928E-02 0. -1.
    10030    2    1    2    0    0  0.00000000000E+00  0.00000000000E+00 -0.25973423697E+03  0.93701971599E+03  0.90030221276E+03 0.  0.
        2    1    3    3  502    0  0.38971854795E+03  0.21406265318E+03 -0.56769930423E+02  0.44824791255E+03  0.25500000920E-02 0. -1.
       -2    1    3    3    0  502 -0.38971854795E+03 -0.21406265318E+03 -0.20296430655E+03  0.48877180344E+03  0.25500000920E-02 0.  1.
</event>
<event>
 5   0  0.1007561E-03  0.8995051E+03  0.7818609E-02  0.9426200E-01
        1   -1    0    0  501    0  0.00000000000E+00  0.00000000000E+00  0.77717509481E+03  0.77717509482E+03  0.50400001928E-02 0.  1.
       -1   -1    0    0    0  501  0.00000000000E+00  0.00000000000E+00 -0.26027254841E+03  0.26027254846E+03  0.50400001928E-02 0. -1.
    10030    2    1    2    0    0  0.00000000000E+00  0.00000000000E+00  0.51690254640E+03  0.10374476433E+04  0.89950506951E+03 0.  0.
        2    1    3    3  502    0 -0.41377293983E+03 -0.15437606839E+03  0.16033260393E+03  0.46983673773E+03  0.25500000920E-02 0. -1.
       -2    1    3    3    0  502  0.41377293983E+03  0.15437606839E+03  0.35656994247E+03  0.56761090555E+03  0.25500000920E-02 0.  1.
</event>
<event>
 5   0  0.9223454E-04  0.8916611E+03  0.7818609E-02  0.9436066E-01
       -1   -1    0    0    0  501  0.00000000000E+00  0.00000000000E+00  0.43042936242E+03  0.43042936245E+03  0.50400001928E-02 0. -1.
        1   -1    0    0  501    0  0.00000000000E+00  0.00000000000E+00 -0.46178285540E+03  0.46178285543E+03  0.50400001928E-02 0.  1.
    10030    2    1    2    0    0  0.00000000000E+00  0.00000000000E+00 -0.31353492981E+02  0.89221221788E+03  0.89166114652E+03 0.  0.
        1    1    3    3  502    0 -0.44741996147E+02 -0.24021501463E+03 -0.38881444133E+03  0.45921865085E+03  0.50400001928E-02 0.  1.
       -1    1    3    3    0  502  0.44741996147E+02  0.24021501463E+03  0.35746094835E+03  0.43299356703E+03  0.50400001928E-02 0. -1.
</event>
<event>
 5   0  0.1536020E-03  0.8992882E+03  0.7818609E-02  0.9426472E-01
       -2   -1    0    0    0  501  0.00000000000E+00  0.00000000000E+00  0.39578497597E+03  0.39578497598E+03  0.25500000920E-02 0.  1.
        2   -1    0    0  501    0  0.00000000000E+00  0.00000000000E+00 -0.51083245790E+03  0.51083245790E+03  0.25500000920E-02 0. -1.
    10030    2    1    2    0    0  0.00000000000E+00  0.00000000000E+00 -0.11504748193E+03  0.90661743388E+03  0.89928818980E+03 0.  0.
        2    1    3    3  502    0 -0.25899539328E+03  0.46728180417E+02  0.31002635879E+03  0.40666752973E+03  0.25500000920E-02 0.  1.
       -2    1    3    3    0  502  0.25899539328E+03 -0.46728180417E+02 -0.42507384072E+03  0.49994990415E+03  0.25500000920E-02 0. -1.
</event>
<event>
 5   0  0.1630202E-03  0.9023068E+03  0.7818609E-02  0.9422702E-01
       -2   -1    0    0    0  501  0.00000000000E+00  0.00000000000E+00  0.97236006145E+02  0.97236006179E+02  0.25500000920E-02 0.  1.
        2   -1    0    0  501    0  0.00000000000E+00  0.00000000000E+00 -0.20932511769E+04  0.20932511769E+04  0.25500000920E-02 0. -1.
    10030    2    1    2    0    0  0.00000000000E+00  0.00000000000E+00 -0.19960151707E+04  0.21904871831E+04  0.90230678671E+03 0.  0.
        4    1    3    3  502    0  0.46540759415E+02  0.21721610976E+03 -0.19512712394E+04  0.19638762546E+04  0.12699999809E+01 0. -1.
       -4    1    3    3    0  502 -0.46540759415E+02 -0.21721610976E+03 -0.44743931340E+02  0.22661092850E+03  0.12699999809E+01 0.  1.
</event>
<event>
 5   0  0.9223454E-04  0.9011111E+03  0.7818609E-02  0.9424194E-01
       -1   -1    0    0    0  501  0.00000000000E+00  0.00000000000E+00  0.21934999569E+03  0.21934999575E+03  0.50400001928E-02 0. -1.
        1   -1    0    0  501    0  0.00000000000E+00  0.00000000000E+00 -0.92546290850E+03  0.92546290851E+03  0.50400001928E-02 0.  1.
    10030    2    1    2    0    0  0.00000000000E+00  0.00000000000E+00 -0.70611291281E+03  0.11448129043E+04  0.90111105871E+03 0.  0.
        1    1    3    3  502    0 -0.27181700640E+03  0.22884411428E+02 -0.80863508958E+03  0.85340429421E+03  0.50400001928E-02 0.  1.
       -1    1    3    3    0  502  0.27181700640E+03 -0.22884411428E+02  0.10252217677E+03  0.29140861005E+03  0.50400001928E-02 0. -1.
</event>
<event>
 5   0  0.1641516E-03  0.8991116E+03  0.7818609E-02  0.9426693E-01
        2   -1    0    0  501    0  0.00000000000E+00  0.00000000000E+00  0.11764367844E+04  0.11764367844E+04  0.25500000920E-02 0. -1.
       -2   -1    0    0    0  501  0.00000000000E+00  0.00000000000E+00 -0.17179028202E+03  0.17179028204E+03  0.25500000920E-02 0.  1.
    10030    2    1    2    0    0  0.00000000000E+00  0.00000000000E+00  0.10046465024E+04  0.13482270665E+04  0.89911157703E+03 0.  0.
        1    1    3    3  502    0  0.80439336711E+02  0.36925957884E+03  0.86740792224E+03  0.94616046580E+03  0.50400001928E-02 0. -1.
       -1    1    3    3    0  502 -0.80439336711E+02 -0.36925957884E+03  0.13723858017E+03  0.40206660066E+03  0.50400001928E-02 0.  1.
</event>
<event>
 5   0  0.1007561E-03  0.8980147E+03  0.7818609E-02  0.9428067E-01
       -1   -1    0    0    0  501  0.00000000000E+00  0.00000000000E+00  0.43212050602E+03  0.43212050605E+03  0.50400001928E-02 0.  1.
        1   -1    0    0  501    0  0.00000000000E+00  0.00000000000E+00 -0.46655414520E+03  0.46655414523E+03  0.50400001928E-02 0. -1.
    10030    2    1    2    0    0  0.00000000000E+00  0.00000000000E+00 -0.34433639186E+02  0.89867465128E+03  0.89801472891E+03 0.  0.
        2    1    3    3  502    0  0.92404073727E+02  0.29248604020E+03  0.31092812150E+03  0.43676411632E+03  0.25500000920E-02 0.  1.
       -2    1    3    3    0  502 -0.92404073727E+02 -0.29248604020E+03 -0.34536176069E+03  0.46191053496E+03  0.25500000920E-02 0. -1.
</event>
<event>
 5   0  0.9223454E-04  0.8997292E+03  0.7818609E-02  0.9425920E-01
        1   -1    0    0  501    0  0.00000000000E+00  0.00000000000E+00  0.34053297006E+03  0.34053297010E+03  0.50400001928E-02 0. -1.
       -1   -1    0    0    0  501  0.00000000000E+00  0.00000000000E+00 -0.59429834571E+03  0.59429834573E+03  0.50400001928E-02 0.  1.
    10030    2    1    2    0    0  0.00000000000E+00  0.00000000000E+00 -0.25376537565E+03  0.93483131584E+03  0.89972924993E+03 0.  0.
        1    1    3    3  502    0  0.33499472925E+03  0.15234698227E+03  0.14195325159E+03  0.39443858494E+03  0.50400001928E-02 0. -1.
       -1    1    3    3    0  502 -0.33499472925E+03 -0.15234698227E+03 -0.39571862724E+03  0.54039273089E+03  0.50400001928E-02 0.  1.
</event>
<event>
 5   0  0.9223454E-04  0.9043350E+03  0.7818609E-02  0.9420179E-01
       -1   -1    0    0    0  501  0.00000000000E+00  0.00000000000E+00  0.85021992860E+03  0.85021992861E+03  0.50400001928E-02 0.  1.
        1   -1    0    0  501    0  0.00000000000E+00  0.00000000000E+00 -0.24047362421E+03  0.24047362426E+03  0.50400001928E-02 0. -1.
    10030    2    1    2    0    0  0.00000000000E+00  0.00000000000E+00  0.60974630439E+03  0.10906935529E+04  0.90433504332E+03 0.  0.
        1    1    3    3  502    0 -0.41627218156E+03 -0.35900743043E+02  0.51336702453E+03  0.66190414291E+03  0.50400001928E-02 0. -1.
       -1    1    3    3    0  502  0.41627218156E+03  0.35900743043E+02  0.96379279855E+02  0.42878940997E+03  0.50400001928E-02 0.  1.
</event>
<event>
 5   0  0.9223454E-04  0.8992317E+03  0.7818609E-02  0.9426542E-01
       -1   -1    0    0    0  501  0.00000000000E+00  0.00000000000E+00  0.14237912619E+03  0.14237912627E+03  0.50400001928E-02 0. -1.
        1   -1    0    0  501    0  0.00000000000E+00  0.00000000000E+00 -0.14198317226E+04  0.14198317226E+04  0.50400001928E-02 0.  1.
    10030    2    1    2    0    0  0.00000000000E+00  0.00000000000E+00 -0.12774525964E+04  0.15622108489E+04  0.89923167219E+03 0.  0.
        1    1    3    3  502    0  0.37009471169E+03 -0.21994215120E+03 -0.86396796916E+03  0.96529026580E+03  0.50400001928E-02 0. -1.
       -1    1    3    3    0  502 -0.37009471169E+03  0.21994215120E+03 -0.41348462724E+03  0.59692058306E+03  0.50400001928E-02 0.  1.
</event>
<event>
 5   0  0.9223454E-04  0.9012436E+03  0.7818609E-02  0.9424028E-01
        1   -1    0    0  501    0  0.00000000000E+00  0.00000000000E+00  0.53129605275E+03  0.53129605277E+03  0.50400001928E-02 0. -1.
       -1   -1    0    0    0  501  0.00000000000E+00  0.00000000000E+00 -0.38219748517E+03  0.38219748520E+03  0.50400001928E-02 0.  1.
    10030    2    1    2    0    0  0.00000000000E+00  0.00000000000E+00  0.14909856758E+03  0.91349353798E+03  0.90124361916E+03 0.  0.
        1    1    3    3  502    0  0.37374685450E+03  0.11355850604E+03 -0.15317710303E+03  0.41957772875E+03  0.50400001928E-02 0.  1.
       -1    1    3    3    0  502 -0.37374685450E+03 -0.11355850604E+03  0.30227567061E+03  0.49391580923E+03  0.50400001928E-02 0. -1.
</event>
<event>
 5   0  0.1007561E-03  0.8996094E+03  0.7818609E-02  0.9426070E-01
       -1   -1    0    0    0  501  0.00000000000E+00  0.00000000000E+00  0.38252474839E+03  0.38252474843E+03  0.50400001928E-02 0.  1.
        1   -1    0    0  501    0  0.00000000000E+00  0.00000000000E+00 -0.52891809847E+03  0.52891809849E+03  0.50400001928E-02 0. -1.
    10030    2    1    2    0    0  0.00000000000E+00  0.00000000000E+00 -0.14639335007E+03  0.91144284692E+03  0.89960938760E+03 0.  0.
        2    1    3    3  502    0 -0.19138823881E+03  0.29950646995E+03  0.20609347856E+03  0.41086263570E+03  0.25500000920E-02 0.  1.
       -2    1    3    3    0  502  0.19138823881E+03 -0.29950646995E+03 -0.35248682864E+03  0.50058021122E+03  0.25500000920E-02 0. -1.
</event>
<event>
 5   0  0.9981885E-04  0.9032516E+03  0.7818609E-02  0.9421526E-01
        1   -1    0    0  501    0  0.00000000000E+00  0.00000000000E+00  0.12541596261E+04  0.12541596261E+04  0.50400001928E-02 0.  1.
       -1   -1    0    0    0  501  0.00000000000E+00  0.00000000000E+00 -0.16263151484E+03  0.16263151492E+03  0.50400001928E-02 0. -1.
    10030    2    1    2    0    0  0.00000000000E+00  0.00000000000E+00  0.10915281113E+04  0.14167911410E+04  0.90325163694E+03 0.  0.
        4    1    3    3  502    0 -0.41080387598E+03  0.17892821729E+03  0.63434362499E+03  0.77663928495E+03  0.12699999809E+01 0. -1.
       -4    1    3    3    0  502  0.41080387598E+03 -0.17892821729E+03  0.45718448628E+03  0.64015185609E+03  0.12699999809E+01 0.  1.
</event>
<event>
 5   0  0.1536020E-03  0.9024075E+03  0.7818609E-02  0.9422577E-01
       -2   -1    0    0    0  501  0.00000000000E+00  0.00000000000E+00  0.50753422666E+03  0.50753422667E+03  0.25500000920E-02 0.  1.
        2   -1    0    0  501    0  0.00000000000E+00  0.00000000000E+00 -0.40112534459E+03  0.40112534460E+03  0.25500000920E-02 0. -1.
    10030    2    1    2    0    0  0.00000000000E+00  0.00000000000E+00  0.10640888207E+03  0.90865957126E+03  0.90240753890E+03 0.  0.
        2    1    3    3  502    0 -0.39081048029E+03  0.16045555168E+03 -0.10634213107E+03  0.43564603111E+03  0.25500000920E-02 0. -1.
       -2    1    3    3    0  502  0.39081048029E+03 -0.16045555168E+03  0.21275101314E+03  0.47301354016E+03  0.25500000920E-02 0.  1.
</event>
<event>
 5   0  0.1007561E-03  0.8995833E+03  0.7818609E-02  0.9426102E-01
        1   -1    0    0  501    0  0.00000000000E+00  0.00000000000E+00  0.24104781232E+03  0.24104781237E+03  0.50400001928E-02 0.  1.
       -1   -1    0    0    0  501  0.00000000000E+00  0.00000000000E+00 -0.83930463387E+03  0.83930463389E+03  0.50400001928E-02 0. -1.
    10030    2    1    2    0    0  0.00000000000E+00  0.00000000000E+00 -0.59825682155E+03  0.10803524463E+04  0.89958333888E+03 0.  0.
        2    1    3    3  502    0  0.60971288742E+02 -0.19010025509E+03  0.18492489658E+03  0.27212648239E+03  0.25500000920E-02 0.  1.
       -2    1    3    3    0  502 -0.60971288742E+02  0.19010025509E+03 -0.78318171814E+03  0.80822596387E+03  0.25500000920E-02 0. -1.
</event>
<event>
 5   0  0.9697941E-04  0.8988234E+03  0.7818609E-02  0.9427053E-01
       -1   -1    0    0    0  501  0.00000000000E+00  0.00000000000E+00  0.15955174961E+03  0.15955174969E+03  0.50400001928E-02 0.  1.
        1   -1    0    0  501    0  0.00000000000E+00  0.00000000000E+00 -0.12658643991E+04  0.12658643991E+04  0.50400001928E-02 0. -1.
    10030    2    1    2    0    0  0.00000000000E+00  0.00000000000E+00 -0.11063126495E+04  0.14254161488E+04  0.89882340805E+03 0.  0.
        5    1    3    3  502    0 -0.22947662307E+03  0.27513589722E+03 -0.12295152850E+03  0.37881189373E+03  0.46999998093E+01 0.  1.
       -5    1    3    3    0  502  0.22947662307E+03 -0.27513589722E+03 -0.98336112099E+03  0.10466042551E+04  0.46999998093E+01 0. -1.
</event>
<event>
 5   0  0.1641516E-03  0.9008533E+03  0.7818609E-02  0.9424515E-01
        2   -1    0    0  501    0  0.00000000000E+00  0.00000000000E+00  0.12849129047E+04  0.12849129047E+04  0.25500000920E-02 0. -1.
       -2   -1    0    0    0  501  0.00000000000E+00  0.00000000000E+00 -0.15789722571E+03  0.15789722573E+03  0.25500000920E-02 0.  1.
    10030    2    1    2    0    0  0.00000000000E+00  0.00000000000E+00  0.11270156790E+04  0.14428101304E+04  0.90085333533E+03 0.  0.
        1    1    3    3  502    0  0.11878373656E+03 -0.37421248046E+03  0.20992092058E+03  0.44520933225E+03  0.50400001928E-02 0.  1.
       -1    1    3    3    0  502 -0.11878373656E+03  0.37421248046E+03  0.91709475837E+03  0.99760079815E+03  0.50400001928E-02 0. -1.
</event>
<event>
 5   0  0.1641516E-03  0.9004107E+03  0.7818609E-02  0.9425068E-01
       -2   -1    0    0    0  501  0.00000000000E+00  0.00000000000E+00  0.15697519464E+03  0.15697519466E+03  0.25500000920E-02 0. -1.
        2   -1    0    0  501    0  0.00000000000E+00  0.00000000000E+00 -0.12911902420E+04  0.12911902420E+04  0.25500000920E-02 0.  1.
    10030    2    1    2    0    0  0.00000000000E+00  0.00000000000E+00 -0.11342150473E+04  0.14481654366E+04  0.90041066090E+03 0.  0.
        1    1    3    3  502    0  0.40878872228E+03 -0.13319293429E+03 -0.78190514870E+03  0.89231397994E+03  0.50400001928E-02 0. -1.
       -1    1    3    3    0  502 -0.40878872228E+03  0.13319293429E+03 -0.35230989863E+03  0.55585145669E+03  0.50400001928E-02 0.  1.
</event>
<event>
 5   0  0.1536020E-03  0.8969221E+03  0.7818609E-02  0.9429437E-01
        2   -1    0    0  501    0  0.00000000000E+00  0.00000000000E+00  0.20713970160E+04  0.20713970160E+04  0.25500000920E-02 0.  1.
       -2   -1    0    0    0  501  0.00000000000E+00  0.00000000000E+00 -0.97092599974E+02  0.97092600007E+02  0.25500000920E-02 0. -1.
    10030    2    1    2    0    0  0.00000000000E+00  0.00000000000E+00  0.19743044160E+04  0.21684896160E+04  0.89692211902E+03 0.  0.
        2    1    3    3  502    0 -0.41838808201E+03  0.15134405899E+03  0.11231403319E+04  0.12080553864E+04  0.25500000920E-02 0.  1.
       -2    1    3    3    0  502  0.41838808201E+03 -0.15134405899E+03  0.85116408410E+03  0.96043422962E+03  0.25500000920E-02 0. -1.
</event>
<event>
 5   0  0.1635686E-03  0.9013125E+03  0.7818609E-02  0.9423942E-01
        2   -1    0    0  501    0  0.00000000000E+00  0.00000000000E+00  0.76171899838E+03  0.76171899838E+03  0.25500000920E-02 0. -1.
       -2   -1    0    0    0  501  0.00000000000E+00  0.00000000000E+00 -0.26662200024E+03  0.26662200025E+03  0.25500000920E-02 0.  1.
    10030    2    1    2    0    0  0.00000000000E+00  0.00000000000E+00  0.49509699814E+03  0.10283409986E+04  0.90131247184E+03 0.  0.
        5    1    3    3  502    0  0.39598805939E+03  0.13395954605E+03  0.43954234417E+03  0.60660635133E+03  0.46999998093E+01 0.  1.
       -5    1    3    3    0  502 -0.39598805939E+03 -0.13395954605E+03  0.55554653969E+02  0.42173464730E+03  0.46999998093E+01 0. -1.
</event>
<event>
 5   0  0.9981885E-04  0.8986804E+03  0.7818609E-02  0.9427233E-01
       -1   -1    0    0    0  501  0.00000000000E+00  0.00000000000E+00  0.18404467988E+03  0.18404467994E+03  0.50400001928E-02 0.  1.
        1   -1    0    0  501    0  0.00000000000E+00  0.00000000000E+00 -0.10970521013E+04  0.10970521013E+04  0.50400001928E-02 0. -1.
    10030    2    1    2    0    0  0.00000000000E+00  0.00000000000E+00 -0.91300742145E+03  0.12810967813E+04  0.89868037220E+03 0.  0.
        4    1    3    3  502    0  0.37856609889E+03 -0.23942933161E+03 -0.40577615488E+03  0.60439605958E+03  0.12699999809E+01 0. -1.
       -4    1    3    3    0  502 -0.37856609889E+03  0.23942933161E+03 -0.50723126657E+03  0.67670072171E+03  0.12699999809E+01 0.  1.
</event>
<event>
 5   0  0.1641516E-03  0.8994893E+03  0.7818609E-02  0.9426220E-01
       -2   -1    0    0    0  501  0.00000000000E+00  0.00000000000E+00  0.28481783242E+03  0.28481783243E+03  0.25500000920E-02 0. -1.
        2   -1    0    0  501    0  0.00000000000E+00  0.00000000000E+00 -0.71017409889E+03  0.71017409889E+03  0.25500000920E-02 0.  1.
    10030    2    1    2    0    0  0.00000000000E+00  0.00000000000E+00 -0.42535626647E+03  0.99499193132E+03  0.89948929397E+03 0.  0.
        1    1    3    3  502    0 -0.17469344436E+03  0.21195559840E+03 -0.60661795706E+03  0.66590413803E+03  0.50400001928E-02 0.  1.
       -1    1    3    3    0  502  0.17469344436E+03 -0.21195559840E+03  0.18126169059E+03  0.32908779329E+03  0.50400001928E-02 0. -1.
</event>
<event>
 5   0  0.9223454E-04  0.9026196E+03  0.7818609E-02  0.9422313E-01
       -1   -1    0    0    0  501  0.00000000000E+00  0.00000000000E+00  0.30803715965E+03  0.30803715969E+03  0.50400001928E-02 0.  1.
        1   -1    0    0  501    0  0.00000000000E+00  0.00000000000E+00 -0.66122061199E+03  0.66122061201E+03  0.50400001928E-02 0. -1.
    10030    2    1    2    0    0  0.00000000000E+00  0.00000000000E+00 -0.35318345235E+03  0.96925777170E+03  0.90261956382E+03 0.  0.
        1    1    3    3  502    0 -0.71993841342E+02 -0.44296909242E+03 -0.22781891984E+03  0.50329533108E+03  0.50400001928E-02 0.  1.
       -1    1    3    3    0  502  0.71993841342E+02  0.44296909242E+03 -0.12536453251E+03  0.46596244062E+03  0.50400001928E-02 0. -1.
</event>
<event>
 5   0  0.6375625E-04  0.9035987E+03  0.7818609E-02  0.9421094E-01
        4   -1    0    0  501    0  0.00000000000E+00  0.00000000000E+00  0.41489489430E+03  0.41489683804E+03  0.12699999809E+01 0. -1.
       -4   -1    0    0    0  501  0.00000000000E+00  0.00000000000E+00 -0.49198250297E+03  0.49198414216E+03  0.12699999809E+01 0.  1.
    10030    2    1    2    0    0  0.00000000000E+00  0.00000000000E+00 -0.77087608673E+02  0.90688098020E+03  0.90359870121E+03 0.  0.
        5    1    3    3  502    0 -0.26861699283E+03  0.35436389087E+03  0.41569123065E+02  0.44663065051E+03  0.46999998093E+01 0. -1.
       -5    1    3    3    0  502  0.26861699283E+03 -0.35436389087E+03 -0.11865673174E+03  0.46025032968E+03  0.46999998093E+01 0.  1.
</event>
<event>
 5   0  0.9223454E-04  0.8998156E+03  0.7818609E-02  0.9425812E-01
       -1   -1    0    0    0  501  0.00000000000E+00  0.00000000000E+00  0.13550845379E+03  0.13550845389E+03  0.50400001928E-02 0.  1.
        1   -1    0    0  501    0  0.00000000000E+00  0.00000000000E+00 -0.14937593320E+04  0.14937593320E+04  0.50400001928E-02 0. -1.
    10030    2    1    2    0    0  0.00000000000E+00  0.00000000000E+00 -0.13582508782E+04  0.16292677859E+04  0.89981557555E+03 0.  0.
        1    1    3    3  502    0  0.36784759661E+03 -0.15553109357E+03 -0.10542234383E+04  0.11273370540E+04  0.50400001928E-02 0. -1.
       -1    1    3    3    0  502 -0.36784759661E+03  0.15553109357E+03 -0.30402743991E+03  0.50193073192E+03  0.50400001928E-02 0.  1.
</event>
<event>
 5   0  0.9697941E-04  0.8996278E+03  0.7818609E-02  0.9426047E-01
        1   -1    0    0  501    0  0.00000000000E+00  0.00000000000E+00  0.19944929388E+04  0.19944929388E+04  0.50400001928E-02 0. -1.
       -1   -1    0    0    0  501  0.00000000000E+00  0.00000000000E+00 -0.10144561058E+03  0.10144561071E+03  0.50400001928E-02 0.  1.
    10030    2    1    2    0    0  0.00000000000E+00  0.00000000000E+00  0.18930473283E+04  0.20959385496E+04  0.89962782109E+03 0.  0.
        5    1    3    3  502    0  0.41471452216E+03  0.13382703341E+03  0.68695754786E+03  0.81352969972E+03  0.46999998093E+01 0. -1.
       -5    1    3    3    0  502 -0.41471452216E+03 -0.13382703341E+03  0.12060897804E+04  0.12824088498E+04  0.46999998093E+01 0.  1.
</event>
<event>
 5   0  0.1007561E-03  0.8993692E+03  0.7818609E-02  0.9426370E-01
       -1   -1    0    0    0  501  0.00000000000E+00  0.00000000000E+00  0.26008685577E+03  0.26008685581E+03  0.50400001928E-02 0.  1.
        1   -1    0    0  501    0  0.00000000000E+00  0.00000000000E+00 -0.77749497400E+03  0.77749497402E+03  0.50400001928E-02 0. -1.
    10030    2    1    2    0    0  0.00000000000E+00  0.00000000000E+00 -0.51740811823E+03  0.10375818298E+04  0.89936916379E+03 0.  0.
        2    1    3    3  502    0  0.20910937042E+03 -0.39348526775E+03 -0.18892003936E+03  0.48399190696E+03  0.25500000920E-02 0.  1.
       -2    1    3    3    0  502 -0.20910937042E+03  0.39348526775E+03 -0.32848807888E+03  0.55358992287E+03  0.25500000920E-02 0. -1.
</event>
<event>
 5   0  0.1641516E-03  0.8998603E+03  0.7818609E-02  0.9425756E-01
       -2   -1    0    0    0  501  0.00000000000E+00  0.00000000000E+00  0.55254191203E+03  0.55254191203E+03  0.25500000920E-02 0. -1.
        2   -1    0    0  501    0  0.00000000000E+00  0.00000000000E+00 -0.36637424183E+03  0.36637424184E+03  0.25500000920E-02 0.  1.
    10030    2    1    2    0    0  0.00000000000E+00  0.00000000000E+00  0.18616767019E+03  0.91891615387E+03  0.89986026495E+03 0.  0.
        1    1    3    3  502    0 -0.41881893015E+02 -0.13223281715E+03  0.53016349660E+03  0.54800816056E+03  0.50400001928E-02 0. -1.
       -1    1    3    3    0  502  0.41881893015E+02  0.13223281715E+03 -0.34399582640E+03  0.37090799331E+03  0.50400001928E-02 0.  1.
</event>
<event>
 5   0  0.1704416E-03  0.9008435E+03  0.7818609E-02  0.9424528E-01
        2   -1    0    0  501    0  0.00000000000E+00  0.00000000000E+00  0.81093616197E+03  0.81093616197E+03  0.25500000920E-02 0. -1.
       -2   -1    0    0    0  501  0.00000000000E+00  0.00000000000E+00 -0.25017970556E+03  0.25017970557E+03  0.25500000920E-02 0.  1.
    10030    2    1    2    0    0  0.00000000000E+00  0.00000000000E+00  0.56075645641E+03  0.10611158675E+04  0.90084353856E+03 0.  0.
        3    1    3    3  502    0  0.92109266294E+02  0.34537400421E+03 -0.42448419976E+02  0.35995721730E+03  0.10100000352E+00 0.  1.
       -3    1    3    3    0  502 -0.92109266294E+02 -0.34537400421E+03  0.60320487639E+03  0.70115865025E+03  0.10100000352E+00 0. -1.
</event>
<event>
 5   0  0.9223454E-04  0.9040991E+03  0.7818609E-02  0.9420472E-01
       -1   -1    0    0    0  501  0.00000000000E+00  0.00000000000E+00  0.99094669421E+02  0.99094669549E+02  0.50400001928E-02 0.  1.
        1   -1    0    0  501    0  0.00000000000E+00  0.00000000000E+00 -0.20621572140E+04  0.20621572140E+04  0.50400001928E-02 0. -1.
    10030    2    1    2    0    0  0.00000000000E+00  0.00000000000E+00 -0.19630625446E+04  0.21612518836E+04  0.90409908210E+03 0.  0.
        1    1    3    3  502    0 -0.60422636641E+02 -0.21769605529E+03 -0.45545200962E+02  0.23047089375E+03  0.50400001928E-02 0.  1.
       -1    1    3    3    0  502  0.60422636641E+02  0.21769605529E+03 -0.19175173436E+04  0.19307809898E+04  0.50400001928E-02 0. -1.
</event>
<event>
 5   0  0.1007561E-03  0.8980604E+03  0.7818609E-02  0.9428009E-01
       -1   -1    0    0    0  501  0.00000000000E+00  0.00000000000E+00  0.90390159209E+02  0.90390159350E+02  0.50400001928E-02 0. -1.
        1   -1    0    0  501    0  0.00000000000E+00  0.00000000000E+00 -0.22306424727E+04  0.22306424727E+04  0.50400001928E-02 0.  1.
    10030    2    1    2    0    0  0.00000000000E+00  0.00000000000E+00 -0.21402523134E+04  0.23210326320E+04  0.89806041759E+03 0.  0.
        2    1    3    3  502    0 -0.35101208033E+03 -0.22027143731E+03 -0.62323161273E+03  0.74842944206E+03  0.25500000920E-02 0.  1.
       -2    1    3    3    0  502  0.35101208033E+03  0.22027143731E+03 -0.15170207007E+04  0.15726031899E+04  0.25500000920E-02 0. -1.
</event>
<event>
 5   0  0.6375625E-04  0.8985785E+03  0.7818609E-02  0.9427360E-01
       -3   -1    0    0    0  501  0.00000000000E+00  0.00000000000E+00  0.34125872048E+03  0.34125873542E+03  0.10100000352E+00 0. -1.
        3   -1    0    0  501    0  0.00000000000E+00  0.00000000000E+00 -0.59151837215E+03  0.59151838077E+03  0.10100000352E+00 0.  1.
    10030    2    1    2    0    0  0.00000000000E+00  0.00000000000E+00 -0.25025965167E+03  0.93277711620E+03  0.89857846360E+03 0.  0.
        4    1    3    3  502    0 -0.14189496815E+03 -0.18576829264E+03  0.27315902145E+03  0.35952955989E+03  0.12699999809E+01 0. -1.
       -4    1    3    3    0  502  0.14189496815E+03  0.18576829264E+03 -0.52341867312E+03  0.57324755631E+03  0.12699999809E+01 0.  1.
</event>
<event>
 5   0  0.9223454E-04  0.8982309E+03  0.7818609E-02  0.9427796E-01
        1   -1    0    0  501    0  0.00000000000E+00  0.00000000000E+00  0.51323536434E+03  0.51323536436E+03  0.50400001928E-02 0. -1.
       -1   -1    0    0    0  501  0.00000000000E+00  0.00000000000E+00 -0.39300625715E+03  0.39300625718E+03  0.50400001928E-02 0.  1.
    10030    2    1    2    0    0  0.00000000000E+00  0.00000000000E+00  0.12022910719E+03  0.90624162154E+03  0.89823094937E+03 0.  0.
        1    1    3    3  502    0  0.21025639982E+03  0.10087723088E+03 -0.32713233369E+03  0.40174560750E+03  0.50400001928E-02 0.  1.
       -1    1    3    3    0  502 -0.21025639982E+03 -0.10087723088E+03  0.44736144088E+03  0.50449601404E+03  0.50400001928E-02 0. -1.
</event>
<event>
 5   0  0.1007561E-03  0.9015357E+03  0.7818609E-02  0.9423664E-01
       -1   -1    0    0    0  501  0.00000000000E+00  0.00000000000E+00  0.34916189059E+03  0.34916189063E+03  0.50400001928E-02 0. -1.
        1   -1    0    0  501    0  0.00000000000E+00  0.00000000000E+00 -0.58194112216E+03  0.58194112218E+03  0.50400001928E-02 0.  1.
    10030    2    1    2    0    0  0.00000000000E+00  0.00000000000E+00 -0.23277923156E+03  0.93110301281E+03  0.90153571743E+03 0.  0.
        2    1    3    3  502    0  0.25471700019E+03 -0.26857322229E+03 -0.38208009914E+03  0.53197511979E+03  0.25500000920E-02 0.  1.
       -2    1    3    3    0  502 -0.25471700019E+03  0.26857322229E+03  0.14930086757E+03  0.39912789301E+03  0.25500000920E-02 0. -1.
</event>
<event>
 5   0  0.9321543E-04  0.8939526E+03  0.7818609E-02  0.9433173E-01
        1   -1    0    0  501    0  0.00000000000E+00  0.00000000000E+00  0.24916627687E+04  0.24916627687E+04  0.50400001928E-02 0. -1.
       -1   -1    0    0    0  501  0.00000000000E+00  0.00000000000E+00 -0.80182522495E+02  0.80182522653E+02  0.50400001928E-02 0.  1.
    10030    2    1    2    0    0  0.00000000000E+00  0.00000000000E+00  0.24114802462E+04  0.25718452913E+04  0.89395258534E+03 0.  0.
        3    1    3    3  502    0 -0.21099573751E+03 -0.77464093671E+02  0.23172506494E+04  0.23281259565E+04  0.10100000352E+00 0. -1.
       -3    1    3    3    0  502  0.21099573751E+03  0.77464093671E+02  0.94229596790E+02  0.24371933483E+03  0.10100000352E+00 0.  1.
</event>
<event>
 5   0  0.1641516E-03  0.9002642E+03  0.7818609E-02  0.9425251E-01
       -2   -1    0    0    0  501  0.00000000000E+00  0.00000000000E+00  0.28941901981E+03  0.28941901982E+03  0.25500000920E-02 0.  1.
        2   -1    0    0  501    0  0.00000000000E+00  0.00000000000E+00 -0.70008845135E+03  0.70008845135E+03  0.25500000920E-02 0. -1.
    10030    2    1    2    0    0  0.00000000000E+00  0.00000000000E+00 -0.41066943154E+03  0.98950747117E+03  0.90026421317E+03 0.  0.
        1    1    3    3  502    0 -0.22425418920E+03  0.15690749011E+02 -0.63397116775E+03  0.67264818631E+03  0.50400001928E-02 0. -1.
       -1    1    3    3    0  502  0.22425418920E+03 -0.15690749011E+02  0.22330173622E+03  0.31685928486E+03  0.50400001928E-02 0.  1.
</event>
<event>
 5   0  0.9697941E-04  0.9002895E+03  0.7818609E-02  0.9425220E-01
        1   -1    0    0  501    0  0.00000000000E+00  0.00000000000E+00  0.70310252929E+03  0.70310252931E+03  0.50400001928E-02 0. -1.
       -1   -1    0    0    0  501  0.00000000000E+00  0.00000000000E+00 -0.28819454718E+03  0.28819454723E+03  0.50400001928E-02 0.  1.
    10030    2    1    2    0    0  0.00000000000E+00  0.00000000000E+00  0.41490798211E+03  0.99129707654E+03  0.90028954250E+03 0.  0.
        5    1    3    3  502    0  0.26109033120E+03  0.70556851067E+02  0.60363388523E+03  0.66146986907E+03  0.46999998093E+01 0. -1.
       -5    1    3    3    0  502 -0.26109033120E+03 -0.70556851067E+02 -0.18872590312E+03  0.32982720747E+03  0.46999998093E+01 0.  1.
</event>
<event>
 5   0  0.1536020E-03  0.8998849E+03  0.7818609E-02  0.9425725E-01
        2   -1    0    0  501    0  0.00000000000E+00  0.00000000000E+00  0.11581817255E+04  0.11581817255E+04  0.25500000920E-02 0.  1.
       -2   -1    0    0    0  501  0.00000000000E+00  0.00000000000E+00 -0.17479830125E+03  0.17479830127E+03  0.25500000920E-02 0. -1.
    10030    2    1    2    0    0  0.00000000000E+00  0.00000000000E+00  0.98338342421E+03  0.13329800267E+04  0.89988487745E+03 0.  0.
        2    1    3    3  502    0 -0.43161280584E+03  0.11964730607E+03  0.42809833887E+03  0.61957508001E+03  0.25500000920E-02 0.  1.
       -2    1    3    3    0  502  0.43161280584E+03 -0.11964730607E+03  0.55528508533E+03  0.71340494673E+03  0.25500000920E-02 0. -1.
</event>
<event>
 5   0  0.1007561E-03  0.9003653E+03  0.7818609E-02  0.9425125E-01
        1   -1    0    0  501    0  0.00000000000E+00  0.00000000000E+00  0.77095424843E+03  0.77095424845E+03  0.50400001928E-02 0.  1.
       -1   -1    0    0    0  501  0.00000000000E+00  0.00000000000E+00 -0.26287478229E+03  0.26287478234E+03  0.50400001928E-02 0. -1.
    10030    2    1    2    0    0  0.00000000000E+00  0.00000000000E+00  0.50807946614E+03  0.10338290308E+04  0.90036532640E+03 0.  0.
        2    1    3    3  502    0  0.42135250628E+03  0.15780837522E+03  0.27118698248E+03  0.52534160059E+03  0.25500000920E-02 0.  1.
       -2    1    3    3    0  502 -0.42135250628E+03 -0.15780837522E+03  0.23689248366E+03  0.50848743019E+03  0.25500000920E-02 0. -1.
</event>
<event>
 5   0  0.1704416E-03  0.9011484E+03  0.7818609E-02  0.9424147E-01
       -2   -1    0    0    0  501  0.00000000000E+00  0.00000000000E+00  0.16347539484E+03  0.16347539486E+03  0.25500000920E-02 0.  1.
        2   -1    0    0  501    0  0.00000000000E+00  0.00000000000E+00 -0.12418817983E+04  0.12418817983E+04  0.25500000920E-02 0. -1.
    10030    2    1    2    0    0  0.00000000000E+00  0.00000000000E+00 -0.10784064035E+04  0.14053571932E+04  0.90114841694E+03 0.  0.
        3    1    3    3  502    0 -0.13102262822E+03 -0.41697153125E+03 -0.70993246622E+03  0.83368837330E+03  0.10100000352E+00 0. -1.
       -3    1    3    3    0  502  0.13102262822E+03  0.41697153125E+03 -0.36847393727E+03  0.57166881989E+03  0.10100000352E+00 0.  1.
</event>
<event>
 5   0  0.9223454E-04  0.8989757E+03  0.7818609E-02  0.9426863E-01
        1   -1    0    0  501    0  0.00000000000E+00  0.00000000000E+00  0.62060362248E+03  0.62060362250E+03  0.50400001928E-02 0.  1.
       -1   -1    0    0    0  501  0.00000000000E+00  0.00000000000E+00 -0.32555289591E+03  0.32555289595E+03  0.50400001928E-02 0. -1.
    10030    2    1    2    0    0  0.00000000000E+00  0.00000000000E+00  0.29505072657E+03  0.94615651846E+03  0.89897565382E+03 0.  0.
        1    1    3    3  502    0 -0.24557159524E+03 -0.15279092419E+03  0.50966029802E+03  0.58600690637E+03  0.50400001928E-02 0.  1.
       -1    1    3    3    0  502  0.24557159524E+03  0.15279092419E+03 -0.21460957146E+03  0.36014961209E+03  0.50400001928E-02 0. -1.
</event>
<event>
 5   0  0.1704416E-03  0.9004488E+03  0.7818609E-02  0.9425021E-01
        2   -1    0    0  501    0  0.00000000000E+00  0.00000000000E+00  0.70565874456E+03  0.70565874457E+03  0.25500000920E-02 0. -1.
       -2   -1    0    0    0  501  0.00000000000E+00  0.00000000000E+00 -0.28725218493E+03  0.28725218495E+03  0.25500000920E-02 0.  1.
    10030    2    1    2    0    0  0.00000000000E+00  0.00000000000E+00  0.41840655963E+03  0.99291092951E+03  0.90044881299E+03 0.  0.
        3    1    3    3  502    0  0.56351056388E+02  0.13212766335E+03 -0.26130696047E+03  0.29818534298E+03  0.10100000352E+00 0.  1.
       -3    1    3    3    0  502 -0.56351056388E+02 -0.13212766335E+03  0.67971352010E+03  0.69472558653E+03  0.10100000352E+00 0. -1.
</event>
<event>
 5   0  0.9321543E-04  0.8998670E+03  0.7818609E-02  0.9425748E-01
       -1   -1    0    0    0  501  0.00000000000E+00  0.00000000000E+00  0.63087396775E+03  0.63087396777E+03  0.50400001928E-02 0.  1.
        1   -1    0    0  501    0  0.00000000000E+00  0.00000000000E+00 -0.32088842170E+03  0.32088842174E+03  0.50400001928E-02 0. -1.
    10030    2    1    2    0    0  0.00000000000E+00  0.00000000000E+00  0.30998554605E+03  0.95176238951E+03  0.89986699424E+03 0.  0.
        3    1    3    3  502    0 -0.99367086482E+02  0.20659852881E+03 -0.25448180413E+03  0.34251681538E+03  0.10100000352E+00 0. -1.
       -3    1    3    3    0  502  0.99367086482E+02 -0.20659852881E+03  0.56446735018E+03  0.60924557413E+03  0.10100000352E+00 0.  1.
</event>
<event>
 5   0  0.9697941E-04  0.9038633E+03  0.7818609E-02  0.9420765E-01
        1   -1    0    0  501    0  0.00000000000E+00  0.00000000000E+00  0.21479707535E+04  0.21479707535E+04  0.50400001928E-02 0.  1.
       -1   -1    0    0    0  501  0.00000000000E+00  0.00000000000E+00 -0.95086126881E+02  0.95086127015E+02  0.50400001928E-02 0. -1.
    10030    2    1    2    0    0  0.00000000000E+00  0.00000000000E+00  0.20528846266E+04  0.22430568805E+04  0.90386330771E+03 0.  0.
        5    1    3    3  502    0 -0.64273544876E+02 -0.11846606755E+03  0.20968716596E+04  0.21012039750E+04  0.46999998093E+01 0.  1.
       -5    1    3    3    0  502  0.64273544876E+02  0.11846606755E+03 -0.43987032993E+02  0.14185290551E+03  0.46999998093E+01 0. -1.
</event>
<event>
 5   0  0.9321543E-04  0.9125624E+03  0.7818609E-02  0.9410013E-01
       -1   -1    0    0    0  501  0.00000000000E+00  0.00000000000E+00  0.30988096434E+03  0.30988096438E+03  0.50400001928E-02 0.  1.
        1   -1    0    0  501    0  0.00000000000E+00  0.00000000000E+00 -0.67184686141E+03  0.67184686143E+03  0.50400001928E-02 0. -1.
    10030    2    1    2    0    0  0.00000000000E+00  0.00000000000E+00 -0.36196589708E+03  0.98172782581E+03  0.91256244352E+03 0.  0.
        3    1    3    3  502    0 -0.38713574502E+02  0.41753769600E+03 -0.37449429017E+03  0.56221210588E+03  0.10100000352E+00 0. -1.
       -3    1    3    3    0  502  0.38713574502E+02 -0.41753769600E+03  0.12528393092E+02  0.41951571993E+03  0.10100000352E+00 0.  1.
</event>
<event>
 5   0  0.1635686E-03  0.9005976E+03  0.7818609E-02  0.9424835E-01
       -2   -1    0    0    0  501  0.00000000000E+00  0.00000000000E+00  0.16661177116E+03  0.16661177118E+03  0.25500000920E-02 0. -1.
        2   -1    0    0  501    0  0.00000000000E+00  0.00000000000E+00 -0.12170148553E+04  0.12170148553E+04  0.25500000920E-02 0.  1.
    10030    2    1    2    0    0  0.00000000000E+00  0.00000000000E+00 -0.10504030841E+04  0.13836266265E+04  0.90059758067E+03 0.  0.
        5    1    3    3  502    0  0.29788883676E+03  0.26018475927E+03 -0.85582966503E+03  0.94281513223E+03  0.46999998093E+01 0.  1.
       -5    1    3    3    0  502 -0.29788883676E+03 -0.26018475927E+03 -0.19457341909E+03  0.44081149422E+03  0.46999998093E+01 0. -1.
</event>
<event>
 5   0  0.1641516E-03  0.9002976E+03  0.7818609E-02  0.9425209E-01
        2   -1    0    0  501    0  0.00000000000E+00  0.00000000000E+00  0.96549760983E+03  0.96549760983E+03  0.25500000920E-02 0.  1.
       -2   -1    0    0    0  501  0.00000000000E+00  0.00000000000E+00 -0.20987515057E+03  0.20987515059E+03  0.25500000920E-02 0. -1.
    10030    2    1    2    0    0  0.00000000000E+00  0.00000000000E+00  0.75562245925E+03  0.11753727604E+04  0.90029763135E+03 0.  0.
        1    1    3    3  502    0  0.28268950960E+02 -0.20249446597E+03  0.90138049416E+03  0.92427806293E+03  0.50400001928E-02 0.  1.
       -1    1    3    3    0  502 -0.28268950960E+02  0.20249446597E+03 -0.14575803491E+03  0.25109469748E+03  0.50400001928E-02 0. -1.
</event>
<event>
 5   0  0.1641516E-03  0.8993798E+03  0.7818609E-02  0.9426357E-01
        2   -1    0    0  501    0  0.00000000000E+00  0.00000000000E+00  0.17687295015E+04  0.17687295015E+04  0.25500000920E-02 0. -1.
       -2   -1    0    0    0  501  0.00000000000E+00  0.00000000000E+00 -0.11433121599E+03  0.11433121602E+03  0.25500000920E-02 0.  1.
    10030    2    1    2    0    0  0.00000000000E+00  0.00000000000E+00  0.16543982855E+04  0.18830607175E+04  0.89937977450E+03 0.  0.
        1    1    3    3  502    0 -0.21685359635E+03 -0.35207531302E+03  0.11972540759E+04  0.12666490558E+04  0.50400001928E-02 0. -1.
       -1    1    3    3    0  502  0.21685359635E+03  0.35207531302E+03  0.45714420958E+03  0.61641166169E+03  0.50400001928E-02 0.  1.
</event>
<event>
 5   0  0.1007561E-03  0.8995823E+03  0.7818609E-02  0.9426104E-01
        1   -1    0    0  501    0  0.00000000000E+00  0.00000000000E+00  0.23046014291E+03  0.23046014297E+03  0.50400001928E-02 0. -1.
       -1   -1    0    0    0  501  0.00000000000E+00  0.00000000000E+00 -0.87786137289E+03  0.87786137290E+03  0.50400001928E-02 0.  1.
    10030    2    1    2    0    0  0.00000000000E+00  0.00000000000E+00 -0.64740122998E+03  0.11083215159E+04  0.89958225303E+03 0.  0.
        2    1    3    3  502    0  0.28254620752E+03 -0.32484805829E+03 -0.48411886160E+03  0.64786548953E+03  0.25500000920E-02 0.  1.
       -2    1    3    3    0  502 -0.28254620752E+03  0.32484805829E+03 -0.16328236837E+03  0.46045602634E+03  0.25500000920E-02 0. -1.
</event>
<event>
 5   0  0.6375625E-04  0.9009476E+03  0.7818609E-02  0.9424398E-01
       -4   -1    0    0    0  501  0.00000000000E+00  0.00000000000E+00  0.16139795149E+04  0.16139800146E+04  0.12699999809E+01 0. -1.
        4   -1    0    0  501    0  0.00000000000E+00  0.00000000000E+00 -0.12572688611E+03  0.12573330025E+03  0.12699999809E+01 0.  1.
    10030    2    1    2    0    0  0.00000000000E+00  0.00000000000E+00  0.14882526288E+04  0.17397133148E+04  0.90094757375E+03 0.  0.
        4    1    3    3  502    0  0.44860115242E+03 -0.39599467324E+02  0.72351739228E+03  0.85222657878E+03  0.12699999809E+01 0. -1.
       -4    1    3    3    0  502 -0.44860115242E+03  0.39599467324E+02  0.76473523651E+03  0.88748673603E+03  0.12699999809E+01 0.  1.
</event>
<event>
 5   0  0.1536020E-03  0.8982344E+03  0.7818609E-02  0.9427791E-01
       -2   -1    0    0    0  501  0.00000000000E+00  0.00000000000E+00  0.53042406057E+03  0.53042406058E+03  0.25500000920E-02 0.  1.
        2   -1    0    0  501    0  0.00000000000E+00  0.00000000000E+00 -0.38027355323E+03  0.38027355324E+03  0.25500000920E-02 0. -1.
    10030    2    1    2    0    0  0.00000000000E+00  0.00000000000E+00  0.15015050734E+03  0.91069761382E+03  0.89823436194E+03 0.  0.
        2    1    3    3  502    0  0.30660119209E+03 -0.31798691655E+03 -0.72066573269E+01  0.44178264566E+03  0.25500000920E-02 0. -1.
       -2    1    3    3    0  502 -0.30660119209E+03  0.31798691655E+03  0.15735716467E+03  0.46891496816E+03  0.25500000920E-02 0.  1.
</event>
<event>
 5   0  0.9697941E-04  0.8951225E+03  0.7818609E-02  0.9431699E-01
       -1   -1    0    0    0  501  0.00000000000E+00  0.00000000000E+00  0.20582693213E+03  0.20582693220E+03  0.50400001928E-02 0. -1.
        1   -1    0    0  501    0  0.00000000000E+00  0.00000000000E+00 -0.97320143948E+03  0.97320143950E+03  0.50400001928E-02 0.  1.
    10030    2    1    2    0    0  0.00000000000E+00  0.00000000000E+00 -0.76737450735E+03  0.11790283717E+04  0.89512248700E+03 0.  0.
        5    1    3    3  502    0 -0.29908720893E+03  0.27113809033E+03 -0.12923146279E+03  0.42390079446E+03  0.46999998093E+01 0. -1.
       -5    1    3    3    0  502  0.29908720893E+03 -0.27113809033E+03 -0.63814304456E+03  0.75512757723E+03  0.46999998093E+01 0.  1.
</event>
<event>
 5   0  0.9981885E-04  0.8937210E+03  0.7818609E-02  0.9433465E-01
       -1   -1    0    0    0  501  0.00000000000E+00  0.00000000000E+00  0.19706926289E+03  0.19706926295E+03  0.50400001928E-02 0.  1.
        1   -1    0    0  501    0  0.00000000000E+00  0.00000000000E+00 -0.10132697529E+04  0.10132697529E+04  0.50400001928E-02 0. -1.
    10030    2    1    2    0    0  0.00000000000E+00  0.00000000000E+00 -0.81620049004E+03  0.12103390159E+04  0.89372103783E+03 0.  0.
        4    1    3    3  502    0 -0.39113281083E+02  0.19644573260E+03 -0.94906590877E+03  0.96997344639E+03  0.12699999809E+01 0. -1.
       -4    1    3    3    0  502  0.39113281083E+02 -0.19644573260E+03  0.13286541872E+03  0.24036556951E+03  0.12699999809E+01 0.  1.
</event>
<event>
 5   0  0.9321543E-04  0.9026400E+03  0.7818609E-02  0.9422287E-01
        1   -1    0    0  501    0  0.00000000000E+00  0.00000000000E+00  0.59527914111E+03  0.59527914113E+03  0.50400001928E-02 0. -1.
       -1   -1    0    0    0  501  0.00000000000E+00  0.00000000000E+00 -0.34217515796E+03  0.34217515800E+03  0.50400001928E-02 0.  1.
    10030    2    1    2    0    0  0.00000000000E+00  0.00000000000E+00  0.25310398315E+03  0.93745429913E+03  0.90263998176E+03 0.  0.
        3    1    3    3  502    0 -0.49460973546E+02  0.22858060091E+03  0.52743743381E+03  0.57696250814E+03  0.10100000352E+00 0. -1.
       -3    1    3    3    0  502  0.49460973546E+02 -0.22858060091E+03 -0.27433345066E+03  0.36049179099E+03  0.10100000352E+00 0.  1.
</event>
<event>
 5   0  0.9321543E-04  0.9043220E+03  0.7818609E-02  0.9420195E-01
       -1   -1    0    0    0  501  0.00000000000E+00  0.00000000000E+00  0.40672848017E+03  0.40672848020E+03  0.50400001928E-02 0. -1.
        1   -1    0    0  501    0  0.00000000000E+00  0.00000000000E+00 -0.50266848732E+03  0.50266848735E+03  0.50400001928E-02 0.  1.
    10030    2    1    2    0    0  0.00000000000E+00  0.00000000000E+00 -0.95940007149E+02  0.90939696755E+03  0.90432204419E+03 0.  0.
        3    1    3    3  502    0 -0.86283371301E+02 -0.77258539218E+01 -0.49424539735E+03  0.50177986407E+03  0.10100000352E+00 0.  1.
       -3    1    3    3    0  502  0.86283371301E+02  0.77258539218E+01  0.39830539020E+03  0.40761710348E+03  0.10100000352E+00 0. -1.
</event>
<event>
 5   0  0.1536020E-03  0.8991652E+03  0.7818609E-02  0.9426626E-01
        2   -1    0    0  501    0  0.00000000000E+00  0.00000000000E+00  0.51282748993E+03  0.51282748994E+03  0.25500000920E-02 0. -1.
       -2   -1    0    0    0  501  0.00000000000E+00  0.00000000000E+00 -0.39413740151E+03  0.39413740152E+03  0.25500000920E-02 0.  1.
    10030    2    1    2    0    0  0.00000000000E+00  0.00000000000E+00  0.11869008842E+03  0.90696489146E+03  0.89916515572E+03 0.  0.
        2    1    3    3  502    0 -0.25115182776E+03 -0.33843693987E+03 -0.98562256249E+02  0.43281788459E+03  0.25500000920E-02 0. -1.
       -2    1    3    3    0  502  0.25115182776E+03  0.33843693987E+03  0.21725234467E+03  0.47414700687E+03  0.25500000920E-02 0.  1.
</event>
<event>
 5   0  0.1536020E-03  0.8986881E+03  0.7818609E-02  0.9427223E-01
       -2   -1    0    0    0  501  0.00000000000E+00  0.00000000000E+00  0.28052438792E+03  0.28052438793E+03  0.25500000920E-02 0. -1.
        2   -1    0    0  501    0  0.00000000000E+00  0.00000000000E+00 -0.71975943666E+03  0.71975943666E+03  0.25500000920E-02 0.  1.
    10030    2    1    2    0    0  0.00000000000E+00  0.00000000000E+00 -0.43923504874E+03  0.10002838246E+04  0.89868810034E+03 0.  0.
        2    1    3    3  502    0  0.15466881243E+03  0.41443323969E+03 -0.13174498182E+03  0.46155616337E+03  0.25500000920E-02 0.  1.
       -2    1    3    3    0  502 -0.15466881243E+03 -0.41443323969E+03 -0.30749006692E+03  0.53872766122E+03  0.25500000920E-02 0. -1.
</event>
<event>
 5   0  0.9981885E-04  0.8995970E+03  0.7818609E-02  0.9426085E-01
       -1   -1    0    0    0  501  0.00000000000E+00  0.00000000000E+00  0.17684009439E+03  0.17684009446E+03  0.50400001928E-02 0.  1.
        1   -1    0    0  501    0  0.00000000000E+00  0.00000000000E+00 -0.11440769281E+04  0.11440769281E+04  0.50400001928E-02 0. -1.
    10030    2    1    2    0    0  0.00000000000E+00  0.00000000000E+00 -0.96723683373E+03  0.13209170226E+04  0.89959695866E+03 0.  0.
        4    1    3    3  502    0  0.12692406082E+03  0.24866969678E+03 -0.10014477397E+04  0.10396372076E+04  0.12699999809E+01 0. -1.
       -4    1    3    3    0  502 -0.12692406082E+03 -0.24866969678E+03  0.34210905943E+02  0.28127981495E+03  0.12699999809E+01 0.  1.
</event>
<event>
 5   0  0.9223454E-04  0.8996635E+03  0.7818609E-02  0.9426002E-01
        1   -1    0    0  501    0  0.00000000000E+00  0.00000000000E+00  0.76919306923E+03  0.76919306925E+03  0.50400001928E-02 0. -1.
       -1   -1    0    0    0  501  0.00000000000E+00  0.00000000000E+00 -0.26306609129E+03  0.26306609134E+03  0.50400001928E-02 0.  1.
    10030    2    1    2    0    0  0.00000000000E+00  0.00000000000E+00  0.50612697794E+03  0.10322591606E+04  0.89966352422E+03 0.  0.
        1    1    3    3  502    0  0.20803765714E+03 -0.15079295020E+03 -0.17058439415E+03  0.30841079127E+03  0.50400001928E-02 0.  1.
       -1    1    3    3    0  502 -0.20803765714E+03  0.15079295020E+03  0.67671137209E+03  0.72384836931E+03  0.50400001928E-02 0. -1.
</event>
<event>
 5   0  0.9223454E-04  0.9011319E+03  0.7818609E-02  0.9424168E-01
        1   -1    0    0  501    0  0.00000000000E+00  0.00000000000E+00  0.79692023351E+03  0.79692023353E+03  0.50400001928E-02 0.  1.
       -1   -1    0    0    0  501  0.00000000000E+00  0.00000000000E+00 -0.25474278378E+03  0.25474278383E+03  0.50400001928E-02 0. -1.
    10030    2    1    2    0    0  0.00000000000E+00  0.00000000000E+00  0.54217744974E+03  0.10516630174E+04  0.90113190770E+03 0.  0.
        1    1    3    3  502    0 -0.43427323097E+03  0.36915885320E+02  0.40442684652E+03  0.59457303668E+03  0.50400001928E-02 0.  1.
       -1    1    3    3    0  502  0.43427323097E+03 -0.36915885320E+02  0.13775060321E+03  0.45708998068E+03  0.50400001928E-02 0. -1.
</event>
<event>
 5   0  0.6375625E-04  0.9001432E+03  0.7818609E-02  0.9425402E-01
        3   -1    0    0  501    0  0.00000000000E+00  0.00000000000E+00  0.42939743403E+03  0.42939744591E+03  0.10100000352E+00 0.  1.
       -3   -1    0    0    0  501  0.00000000000E+00  0.00000000000E+00 -0.47174117060E+03  0.47174118141E+03  0.10100000352E+00 0. -1.
    10030    2    1    2    0    0  0.00000000000E+00  0.00000000000E+00 -0.42343736572E+02  0.90113862732E+03  0.90014322951E+03 0.  0.
        1    1    3    3  502    0 -0.22283608414E+03 -0.69388958161E+02 -0.40642687735E+03  0.46867211840E+03  0.50400001928E-02 0. -1.
       -1    1    3    3    0  502  0.22283608414E+03  0.69388958161E+02  0.36408314078E+03  0.43246650892E+03  0.50400001928E-02 0.  1.
</event>
<event>
 5   0  0.9697941E-04  0.8978019E+03  0.7818609E-02  0.9428333E-01
       -1   -1    0    0    0  501  0.00000000000E+00  0.00000000000E+00  0.33332408036E+03  0.33332408040E+03  0.50400001928E-02 0. -1.
        1   -1    0    0  501    0  0.00000000000E+00  0.00000000000E+00 -0.60455302075E+03  0.60455302077E+03  0.50400001928E-02 0.  1.
    10030    2    1    2    0    0  0.00000000000E+00  0.00000000000E+00 -0.27122894039E+03  0.93787710117E+03  0.89780193740E+03 0.  0.
        5    1    3    3  502    0 -0.26493850032E+03  0.15012075906E+03 -0.48012513127E+03  0.56856915404E+03  0.46999998093E+01 0.  1.
       -5    1    3    3    0  502  0.26493850032E+03 -0.15012075906E+03  0.20889619088E+03  0.36930794713E+03  0.46999998093E+01 0. -1.
</event>
<event>
 5   0  0.1630202E-03  0.9005541E+03  0.7818609E-02  0.9424889E-01
        2   -1    0    0  501    0  0.00000000000E+00  0.00000000000E+00  0.34444033195E+03  0.34444033196E+03  0.25500000920E-02 0. -1.
       -2   -1    0    0    0  501  0.00000000000E+00  0.00000000000E+00 -0.58863437644E+03  0.58863437644E+03  0.25500000920E-02 0.  1.
    10030    2    1    2    0    0  0.00000000000E+00  0.00000000000E+00 -0.24419404449E+03  0.93307470840E+03  0.90055409615E+03 0.  0.
        4    1    3    3  502    0  0.33667551425E+03  0.21874981438E+01  0.18768588063E+03  0.38546438192E+03  0.12699999809E+01 0. -1.
       -4    1    3    3    0  502 -0.33667551425E+03 -0.21874981438E+01 -0.43187992512E+03  0.54761032648E+03  0.12699999809E+01 0.  1.
</event>
<event>
 5   0  0.1704416E-03  0.8976668E+03  0.7818609E-02  0.9428503E-01
       -2   -1    0    0    0  501  0.00000000000E+00  0.00000000000E+00  0.60946115875E+03  0.60946115875E+03  0.25500000920E-02 0.  1.
        2   -1    0    0  501    0  0.00000000000E+00  0.00000000000E+00 -0.33054018243E+03  0.33054018244E+03  0.25500000920E-02 0. -1.
    10030    2    1    2    0    0  0.00000000000E+00  0.00000000000E+00  0.27892097632E+03  0.94000134120E+03  0.89766675911E+03 0.  0.
        3    1    3    3  502    0 -0.24856391759E+03  0.33034041460E+03  0.32246685633E+03  0.52430305576E+03  0.10100000352E+00 0.  1.
       -3    1    3    3    0  502  0.24856391759E+03 -0.33034041460E+03 -0.43545880011E+02  0.41569828544E+03  0.10100000352E+00 0. -1.
</event>
<event>
 5   0  0.1641516E-03  0.9005669E+03  0.7818609E-02  0.9424873E-01
        2   -1    0    0  501    0  0.00000000000E+00  0.00000000000E+00  0.92453641272E+03  0.92453641272E+03  0.25500000920E-02 0.  1.
       -2   -1    0    0    0  501  0.00000000000E+00  0.00000000000E+00 -0.21930471122E+03  0.21930471124E+03  0.25500000920E-02 0. -1.
    10030    2    1    2    0    0  0.00000000000E+00  0.00000000000E+00  0.70523170150E+03  0.11438411240E+04  0.90056691260E+03 0.  0.
        1    1    3    3  502    0 -0.99585898924E+02  0.19668005800E+03  0.85130307025E+03  0.87938462229E+03  0.50400001928E-02 0.  1.
       -1    1    3    3    0  502  0.99585898924E+02 -0.19668005800E+03 -0.14607136876E+03  0.26445650167E+03  0.50400001928E-02 0. -1.
</event>
<event>
 5   0  0.6375625E-04  0.8997517E+03  0.7818609E-02  0.9425892E-01
       -3   -1    0    0    0  501  0.00000000000E+00  0.00000000000E+00  0.55264417044E+03  0.55264417967E+03  0.10100000352E+00 0. -1.
        3   -1    0    0  501    0  0.00000000000E+00  0.00000000000E+00 -0.36621803744E+03  0.36621805137E+03  0.10100000352E+00 0.  1.
    10030    2    1    2    0    0  0.00000000000E+00  0.00000000000E+00  0.18642613300E+03  0.91886223104E+03  0.89975168606E+03 0.  0.
        5    1    3    3  502    0 -0.72028879612E+02 -0.84772152426E+02  0.53835145952E+03  0.54974435994E+03  0.46999998093E+01 0. -1.
       -5    1    3    3    0  502  0.72028879612E+02  0.84772152426E+02 -0.35192532652E+03  0.36911787110E+03  0.46999998093E+01 0.  1.
</event>
<event>
 5   0  0.1704416E-03  0.8909301E+03  0.7818609E-02  0.9436991E-01
       -2   -1    0    0    0  501  0.00000000000E+00  0.00000000000E+00  0.11263561644E+03  0.11263561647E+03  0.25500000920E-02 0.  1.
        2   -1    0    0  501    0  0.00000000000E+00  0.00000000000E+00 -0.17617792386E+04  0.17617792386E+04  0.25500000920E-02 0. -1.
    10030    2    1    2    0    0  0.00000000000E+00  0.00000000000E+00 -0.16491436222E+04  0.18744148551E+04  0.89093005474E+03 0.  0.
        3    1    3    3  502    0  0.18517825969E+03 -0.39746946434E+03 -0.65936497858E+03  0.79185550963E+03  0.10100000352E+00 0.  1.
       -3    1    3    3    0  502 -0.18517825969E+03  0.39746946434E+03 -0.98977864362E+03  0.10825593455E+04  0.10100000352E+00 0. -1.
</event>
<event>
 5   0  0.1635686E-03  0.8997006E+03  0.7818609E-02  0.9425956E-01
       -2   -1    0    0    0  501  0.00000000000E+00  0.00000000000E+00  0.21803720173E+03  0.21803720174E+03  0.25500000920E-02 0. -1.
        2   -1    0    0  501    0  0.00000000000E+00  0.00000000000E+00 -0.92812285842E+03  0.92812285842E+03  0.25500000920E-02 0.  1.
    10030    2    1    2    0    0  0.00000000000E+00  0.00000000000E+00 -0.71008565669E+03  0.11461600602E+04  0.89970064114E+03 0.  0.
        5    1    3    3  502    0 -0.22779409681E+03 -0.29887854631E+03 -0.67000294127E+03  0.76820867432E+03  0.46999998093E+01 0.  1.
       -5    1    3    3    0  502  0.22779409681E+03  0.29887854631E+03 -0.40082715423E+02  0.37795138584E+03  0.46999998093E+01 0. -1.
</event>
<event>
 5   0  0.6375625E-04  0.8961021E+03  0.7818609E-02  0.9430467E-01
        4   -1    0    0  501    0  0.00000000000E+00  0.00000000000E+00  0.87632714033E+03  0.87632806059E+03  0.12699999809E+01 0.  1.
       -4   -1    0    0    0  501  0.00000000000E+00  0.00000000000E+00 -0.22907801350E+03  0.22908153389E+03  0.12699999809E+01 0. -1.
    10030    2    1    2    0    0  0.00000000000E+00  0.00000000000E+00  0.64724912683E+03  0.11054095945E+04  0.89610208089E+03 0.  0.
        4    1    3    3  502    0 -0.14052208127E+03  0.96239492098E+02 -0.18758739135E+03  0.25337548709E+03  0.12699999809E+01 0. -1.
       -4    1    3    3    0  502  0.14052208127E+03 -0.96239492098E+02  0.83483651818E+03  0.85203410739E+03  0.12699999809E+01 0.  1.
</event>
<event>
 5   0  0.9223454E-04  0.8999927E+03  0.7818609E-02  0.9425590E-01
       -1   -1    0    0    0  501  0.00000000000E+00  0.00000000000E+00  0.26580449905E+03  0.26580449910E+03  0.50400001928E-02 0. -1.
        1   -1    0    0  501    0  0.00000000000E+00  0.00000000000E+00 -0.76182583318E+03  0.76182583319E+03  0.50400001928E-02 0.  1.
    10030    2    1    2    0    0  0.00000000000E+00  0.00000000000E+00 -0.49602133413E+03  0.10276303323E+04  0.89999274216E+03 0.  0.
        1    1    3    3  502    0 -0.33727925944E+03  0.22506485811E+03 -0.47084201277E+03  0.62137242473E+03  0.50400001928E-02 0. -1.
       -1    1    3    3    0  502  0.33727925944E+03 -0.22506485811E+03 -0.25179321357E+02  0.40625790756E+03  0.50400001928E-02 0.  1.
</event>
<event>
 5   0  0.1630202E-03  0.8992759E+03  0.7818609E-02  0.9426487E-01
        2   -1    0    0  501    0  0.00000000000E+00  0.00000000000E+00  0.45020276669E+03  0.45020276670E+03  0.25500000920E-02 0. -1.
       -2   -1    0    0    0  501  0.00000000000E+00  0.00000000000E+00 -0.44907384365E+03  0.44907384366E+03  0.25500000920E-02 0.  1.
    10030    2    1    2    0    0  0.00000000000E+00  0.00000000000E+00  0.11289230416E+01  0.89927661036E+03  0.89927590175E+03 0.  0.
        4    1    3    3  502    0 -0.15292360785E+03 -0.70463886278E+02  0.41748430849E+03  0.45016169299E+03  0.12699999809E+01 0. -1.
       -4    1    3    3    0  502  0.15292360785E+03  0.70463886278E+02 -0.41635538544E+03  0.44911491736E+03  0.12699999809E+01 0.  1.
</event>
<event>
 5   0  0.9321543E-04  0.8994196E+03  0.7818609E-02  0.9426307E-01
       -1   -1    0    0    0  501  0.00000000000E+00  0.00000000000E+00  0.11948079509E+04  0.11948079509E+04  0.50400001928E-02 0. -1.
        1   -1    0    0  501    0  0.00000000000E+00  0.00000000000E+00 -0.16926478526E+03  0.16926478533E+03  0.50400001928E-02 0.  1.
    10030    2    1    2    0    0  0.00000000000E+00  0.00000000000E+00  0.10255431656E+04  0.13640727362E+04  0.89941961572E+03 0.  0.
        3    1    3    3  502    0 -0.71899356385E+02  0.11430248346E+03  0.11633343293E+04  0.11711453142E+04  0.10100000352E+00 0. -1.
       -3    1    3    3    0  502  0.71899356385E+02 -0.11430248346E+03 -0.13779116365E+03  0.19292742199E+03  0.10100000352E+00 0.  1.
</event>
<event>
 5   0  0.1007561E-03  0.9030712E+03  0.7818609E-02  0.9421750E-01
       -1   -1    0    0    0  501  0.00000000000E+00  0.00000000000E+00  0.17143026498E+03  0.17143026505E+03  0.50400001928E-02 0.  1.
        1   -1    0    0  501    0  0.00000000000E+00  0.00000000000E+00 -0.11893137965E+04  0.11893137965E+04  0.50400001928E-02 0. -1.
    10030    2    1    2    0    0  0.00000000000E+00  0.00000000000E+00 -0.10178835315E+04  0.13607440615E+04  0.90307115849E+03 0.  0.
        2    1    3    3  502    0  0.14902887927E+03  0.22884182067E+03  0.32889596239E+02  0.27506346775E+03  0.25500000920E-02 0.  1.
       -2    1    3    3    0  502 -0.14902887927E+03 -0.22884182067E+03 -0.10507731277E+04  0.10856805938E+04  0.25500000920E-02 0. -1.
</event>
<event>
 5   0  0.9981885E-04  0.8977207E+03  0.7818609E-02  0.9428435E-01
       -1   -1    0    0    0  501  0.00000000000E+00  0.00000000000E+00  0.15448755940E+03  0.15448755948E+03  0.50400001928E-02 0. -1.
        1   -1    0    0  501    0  0.00000000000E+00  0.00000000000E+00 -0.13041543662E+04  0.13041543662E+04  0.50400001928E-02 0.  1.
    10030    2    1    2    0    0  0.00000000000E+00  0.00000000000E+00 -0.11496668068E+04  0.14586419257E+04  0.89772072535E+03 0.  0.
        4    1    3    3  502    0 -0.21204983777E+03 -0.14782011604E+03  0.21410111877E+02  0.25937603242E+03  0.12699999809E+01 0. -1.
       -4    1    3    3    0  502  0.21204983777E+03  0.14782011604E+03 -0.11710769187E+04  0.11992658933E+04  0.12699999809E+01 0.  1.
</event>
<event>
 5   0  0.1630202E-03  0.9006430E+03  0.7818609E-02  0.9424778E-01
       -2   -1    0    0    0  501  0.00000000000E+00  0.00000000000E+00  0.21502300343E+03  0.21502300344E+03  0.25500000920E-02 0.  1.
        2   -1    0    0  501    0  0.00000000000E+00  0.00000000000E+00 -0.94310587877E+03  0.94310587878E+03  0.25500000920E-02 0. -1.
    10030    2    1    2    0    0  0.00000000000E+00  0.00000000000E+00 -0.72808287535E+03  0.11581288822E+04  0.90064301166E+03 0.  0.
        4    1    3    3  502    0  0.55109007395E+02 -0.23610819574E+02 -0.93794860816E+03  0.93986364860E+03  0.12699999809E+01 0. -1.
       -4    1    3    3    0  502 -0.55109007395E+02  0.23610819574E+02  0.20986573282E+03  0.21826523362E+03  0.12699999809E+01 0.  1.
</event>
<event>
 5   0  0.9697941E-04  0.9005026E+03  0.7818609E-02  0.9424953E-01
       -1   -1    0    0    0  501  0.00000000000E+00  0.00000000000E+00  0.16750250178E+03  0.16750250186E+03  0.50400001928E-02 0. -1.
        1   -1    0    0  501    0  0.00000000000E+00  0.00000000000E+00 -0.12102879121E+04  0.12102879122E+04  0.50400001928E-02 0.  1.
    10030    2    1    2    0    0  0.00000000000E+00  0.00000000000E+00 -0.10427854104E+04  0.13777904140E+04  0.90050264458E+03 0.  0.
        5    1    3    3  502    0  0.14327198680E+03  0.42436147099E+03 -0.45136769678E+03  0.63589653872E+03  0.46999998093E+01 0. -1.
       -5    1    3    3    0  502 -0.14327198680E+03 -0.42436147099E+03 -0.59141771358E+03  0.74189387530E+03  0.46999998093E+01 0.  1.
</event>
<event>
 5   0  0.9321543E-04  0.9021279E+03  0.7818609E-02  0.9422925E-01
        1   -1    0    0  501    0  0.00000000000E+00  0.00000000000E+00  0.13544639696E+04  0.13544639696E+04  0.50400001928E-02 0. -1.
       -1   -1    0    0    0  501  0.00000000000E+00  0.00000000000E+00 -0.15021342289E+03  0.15021342297E+03  0.50400001928E-02 0.  1.
    10030    2    1    2    0    0  0.00000000000E+00  0.00000000000E+00  0.12042505467E+04  0.15046773926E+04  0.90212786040E+03 0.  0.
        3    1    3    3  502    0 -0.29729900676E+03 -0.22918590460E+03  0.18499250358E+03  0.41849147527E+03  0.10100000352E+00 0.  1.
       -3    1    3    3    0  502  0.29729900676E+03  0.22918590460E+03  0.10192580431E+04  0.10861859173E+04  0.10100000352E+00 0. -1.
</event>
<event>
 5   0  0.9697941E-04  0.9005175E+03  0.7818609E-02  0.9424935E-01
        1   -1    0    0  501    0  0.00000000000E+00  0.00000000000E+00  0.16225189075E+04  0.16225189075E+04  0.50400001928E-02 0.  1.
       -1   -1    0    0    0  501  0.00000000000E+00  0.00000000000E+00 -0.12494949683E+03  0.12494949693E+03  0.50400001928E-02 0. -1.
    10030    2    1    2    0    0  0.00000000000E+00  0.00000000000E+00  0.14975694107E+04  0.17474684044E+04  0.90051745387E+03 0.  0.
        5    1    3    3  502    0  0.24753367824E+03  0.24769511096E+03  0.12979371223E+04  0.13443543630E+04  0.46999998093E+01 0.  1.
       -5    1    3    3    0  502 -0.24753367824E+03 -0.24769511096E+03  0.19963228838E+03  0.40311404145E+03  0.46999998093E+01 0. -1.
</event>
<event>
 5   0  0.1635686E-03  0.9037204E+03  0.7818609E-02  0.9420943E-01
        2   -1    0    0  501    0  0.00000000000E+00  0.00000000000E+00  0.13065297792E+04  0.13065297792E+04  0.25500000920E-02 0.  1.
       -2   -1    0    0    0  501  0.00000000000E+00  0.00000000000E+00 -0.15627475642E+03  0.15627475644E+03  0.25500000920E-02 0. -1.
    10030    2    1    2    0    0  0.00000000000E+00  0.00000000000E+00  0.11502550227E+04  0.14628045356E+04  0.90372036163E+03 0.  0.
        5    1    3    3  502    0  0.18769833902E+03 -0.37149007726E+03  0.85975175951E+03  0.95521239625E+03  0.46999998093E+01 0.  1.
       -5    1    3    3    0  502 -0.18769833902E+03  0.37149007726E+03  0.29050326323E+03  0.50759213934E+03  0.46999998093E+01 0. -1.
</event>
<event>
 5   0  0.1641516E-03  0.9024660E+03  0.7818609E-02  0.9422504E-01
       -2   -1    0    0    0  501  0.00000000000E+00  0.00000000000E+00  0.41043648020E+03  0.41043648021E+03  0.25500000920E-02 0. -1.
        2   -1    0    0  501    0  0.00000000000E+00  0.00000000000E+00 -0.49608460884E+03  0.49608460885E+03  0.25500000920E-02 0.  1.
    10030    2    1    2    0    0  0.00000000000E+00  0.00000000000E+00 -0.85648128639E+02  0.90652108906E+03  0.90246600100E+03 0.  0.
        1    1    3    3  502    0 -0.35666488048E+03 -0.19723068740E+03  0.15169896881E+03  0.43488200489E+03  0.50400001928E-02 0. -1.
       -1    1    3    3    0  502  0.35666488048E+03  0.19723068740E+03 -0.23734709745E+03  0.47163908416E+03  0.50400001928E-02 0.  1.
</event>
<event>
 5   0  0.1007561E-03  0.9014493E+03  0.7818609E-02  0.9423772E-01
        1   -1    0    0  501    0  0.00000000000E+00  0.00000000000E+00  0.21310051492E+04  0.21310051492E+04  0.50400001928E-02 0.  1.
       -1   -1    0    0    0  501  0.00000000000E+00  0.00000000000E+00 -0.95331877391E+02  0.95331877524E+02  0.50400001928E-02 0. -1.
    10030    2    1    2    0    0  0.00000000000E+00  0.00000000000E+00  0.20356732718E+04  0.22263370267E+04  0.90144932582E+03 0.  0.
        2    1    3    3  502    0 -0.43247355047E+03 -0.47477810971E+01  0.70449400954E+03  0.82666058498E+03  0.25500000920E-02 0. -1.
       -2    1    3    3    0  502  0.43247355047E+03  0.47477810971E+01  0.13311792622E+04  0.13996764417E+04  0.25500000920E-02 0.  1.
</event>
<event>
 5   0  0.6375625E-04  0.9050493E+03  0.7818609E-02  0.9419291E-01
        4   -1    0    0  501    0  0.00000000000E+00  0.00000000000E+00  0.67164955647E+03  0.67165075717E+03  0.12699999809E+01 0. -1.
       -4   -1    0    0    0  501  0.00000000000E+00  0.00000000000E+00 -0.30488619214E+03  0.30488883721E+03  0.12699999809E+01 0.  1.
    10030    2    1    2    0    0  0.00000000000E+00  0.00000000000E+00  0.36676336433E+03  0.97653959438E+03  0.90504928815E+03 0.  0.
        2    1    3    3  502    0  0.25235430295E+03  0.21904209721E+03  0.51263545363E+03  0.61192911591E+03  0.25500000920E-02 0. -1.
       -2    1    3    3    0  502 -0.25235430295E+03 -0.21904209721E+03 -0.14587208930E+03  0.36461047847E+03  0.25500000920E-02 0.  1.
</event>
<event>
 5   0  0.1641516E-03  0.9062563E+03  0.7818609E-02  0.9417794E-01
       -2   -1    0    0    0  501  0.00000000000E+00  0.00000000000E+00  0.22952826481E+03  0.22952826483E+03  0.25500000920E-02 0. -1.
        2   -1    0    0  501    0  0.00000000000E+00  0.00000000000E+00 -0.89455265016E+03  0.89455265017E+03  0.25500000920E-02 0.  1.
    10030    2    1    2    0    0  0.00000000000E+00  0.00000000000E+00 -0.66502438535E+03  0.11240809150E+04  0.90625629396E+03 0.  0.
        1    1    3    3  502    0 -0.23467144872E+03  0.25939319734E+03  0.24765607057E+02  0.35066915317E+03  0.50400001928E-02 0. -1.
       -1    1    3    3    0  502  0.23467144872E+03 -0.25939319734E+03 -0.68978999241E+03  0.77341176182E+03  0.50400001928E-02 0.  1.
</event>
<event>
 5   0  0.6375625E-04  0.8926779E+03  0.7818609E-02  0.9434781E-01
       -3   -1    0    0    0  501  0.00000000000E+00  0.00000000000E+00  0.87638458309E+02  0.87638516508E+02  0.10100000352E+00 0. -1.
        3   -1    0    0  501    0  0.00000000000E+00  0.00000000000E+00 -0.22731844175E+04  0.22731844197E+04  0.10100000352E+00 0.  1.
    10030    2    1    2    0    0  0.00000000000E+00  0.00000000000E+00 -0.21855459591E+04  0.23608229362E+04  0.89267787952E+03 0.  0.
        4    1    3    3  502    0  0.32489313484E+02  0.36975676391E+03 -0.43723396350E+03  0.57354230157E+03  0.12699999809E+01 0. -1.
       -4    1    3    3    0  502 -0.32489313484E+02 -0.36975676391E+03 -0.17483119956E+04  0.17872806346E+04  0.12699999809E+01 0.  1.
</event>
<event>
 5   0  0.1641516E-03  0.8997412E+03  0.7818609E-02  0.9425905E-01
       -2   -1    0    0    0  501  0.00000000000E+00  0.00000000000E+00  0.37451478156E+03  0.37451478156E+03  0.25500000920E-02 0.  1.
        2   -1    0    0  501    0  0.00000000000E+00  0.00000000000E+00 -0.54038872191E+03  0.54038872191E+03  0.25500000920E-02 0. -1.
    10030    2    1    2    0    0  0.00000000000E+00  0.00000000000E+00 -0.16587394035E+03  0.91490350348E+03  0.89974121645E+03 0.  0.
        1    1    3    3  502    0  0.39393736643E+02 -0.44622518846E+03 -0.12504469053E+03  0.46508597050E+03  0.50400001928E-02 0. -1.
       -1    1    3    3    0  502 -0.39393736643E+02  0.44622518846E+03 -0.40829249819E+02  0.44981753297E+03  0.50400001928E-02 0.  1.
</event>
<event>
 5   0  0.1704416E-03  0.8992922E+03  0.7818609E-02  0.9426467E-01
        2   -1    0    0  501    0  0.00000000000E+00  0.00000000000E+00  0.88928829871E+03  0.88928829872E+03  0.25500000920E-02 0.  1.
       -2   -1    0    0    0  501  0.00000000000E+00  0.00000000000E+00 -0.22735214773E+03  0.22735214774E+03  0.25500000920E-02 0. -1.
    10030    2    1    2    0    0  0.00000000000E+00  0.00000000000E+00  0.66193615099E+03  0.11166404465E+04  0.89929217648E+03 0.  0.
        3    1    3    3  502    0  0.40092907768E+03 -0.14670103831E+03  0.50620135588E+03  0.66219720844E+03  0.10100000352E+00 0.  1.
       -3    1    3    3    0  502 -0.40092907768E+03  0.14670103831E+03  0.15573479510E+03  0.45444323802E+03  0.10100000352E+00 0. -1.
</event>
<event>
 5   0  0.9981885E-04  0.8976046E+03  0.7818609E-02  0.9428581E-01
       -1   -1    0    0    0  501  0.00000000000E+00  0.00000000000E+00  0.38955445387E+03  0.38955445390E+03  0.50400001928E-02 0.  1.
        1   -1    0    0  501    0  0.00000000000E+00  0.00000000000E+00 -0.51706121960E+03  0.51706121962E+03  0.50400001928E-02 0. -1.
    10030    2    1    2    0    0  0.00000000000E+00  0.00000000000E+00 -0.12750676573E+03  0.90661567352E+03  0.89760459233E+03 0.  0.
        4    1    3    3  502    0 -0.76710345148E+02 -0.36454328295E+03  0.18905033938E+03  0.41775342718E+03  0.12699999809E+01 0.  1.
       -4    1    3    3    0  502  0.76710345148E+02  0.36454328295E+03 -0.31655710511E+03  0.48886224634E+03  0.12699999809E+01 0. -1.
</event>
<event>
 5   0  0.9981885E-04  0.8995281E+03  0.7818609E-02  0.9426172E-01
        1   -1    0    0  501    0  0.00000000000E+00  0.00000000000E+00  0.19548605733E+04  0.19548605733E+04  0.50400001928E-02 0. -1.
       -1   -1    0    0    0  501  0.00000000000E+00  0.00000000000E+00 -0.10347934350E+03  0.10347934362E+03  0.50400001928E-02 0.  1.
    10030    2    1    2    0    0  0.00000000000E+00  0.00000000000E+00  0.18513812298E+04  0.20583399169E+04  0.89952807381E+03 0.  0.
        4    1    3    3  502    0 -0.18083715535E+03 -0.39034778475E+03  0.12259009854E+04  0.12991952543E+04  0.12699999809E+01 0. -1.
       -4    1    3    3    0  502  0.18083715535E+03  0.39034778475E+03  0.62548024439E+03  0.75914466265E+03  0.12699999809E+01 0.  1.
</event>
<event>
 5   0  0.9223454E-04  0.9015879E+03  0.7818609E-02  0.9423599E-01
        1   -1    0    0  501    0  0.00000000000E+00  0.00000000000E+00  0.19296174373E+04  0.19296174373E+04  0.50400001928E-02 0. -1.
       -1   -1    0    0    0  501  0.00000000000E+00  0.00000000000E+00 -0.10531370921E+03  0.10531370933E+03  0.50400001928E-02 0.  1.
    10030    2    1    2    0    0  0.00000000000E+00  0.00000000000E+00  0.18243037280E+04  0.20349311466E+04  0.90158786551E+03 0.  0.
        1    1    3    3  502    0  0.42245667714E+03  0.13763657229E+03  0.10840690461E+04  0.11715883094E+04  0.50400001928E-02 0. -1.
       -1    1    3    3    0  502 -0.42245667714E+03 -0.13763657229E+03  0.74023468199E+03  0.86334283719E+03  0.50400001928E-02 0.  1.
</event>
<event>
 5   0  0.1635686E-03  0.8998093E+03  0.7818609E-02  0.9425820E-01
        2   -1    0    0  501    0  0.00000000000E+00  0.00000000000E+00  0.15428610286E+04  0.15428610286E+04  0.25500000920E-02 0.  1.
       -2   -1    0    0    0  501  0.00000000000E+00  0.00000000000E+00 -0.13119406848E+03  0.13119406850E+03  0.25500000920E-02 0. -1.
    10030    2    1    2    0    0  0.00000000000E+00  0.00000000000E+00  0.14116669601E+04  0.16740550971E+04  0.89980934748E+03 0.  0.
        5    1    3    3  502    0 -0.70825489920E+02  0.38031516540E+03  0.11330754128E+04  0.11973044124E+04  0.46999998093E+01 0.  1.
       -5    1    3    3    0  502  0.70825489920E+02 -0.38031516540E+03  0.27859154735E+03  0.47675068464E+03  0.46999998093E+01 0. -1.
</event>
<event>
 5   0  0.9223454E-04  0.8979355E+03  0.7818609E-02  0.9428166E-01
       -1   -1    0    0    0  501  0.00000000000E+00  0.00000000000E+00  0.11906639433E+03  0.11906639444E+03  0.50400001928E-02 0. -1.
        1   -1    0    0  501    0  0.00000000000E+00  0.00000000000E+00 -0.16929382646E+04  0.16929382647E+04  0.50400001928E-02 0.  1.
    10030    2    1    2    0    0  0.00000000000E+00  0.00000000000E+00 -0.15738718703E+04  0.18120046591E+04  0.89793553242E+03 0.  0.
        1    1    3    3  502    0  0.11947584755E+03  0.25314549840E+03 -0.14952825555E+04  0.15212583746E+04  0.50400001928E-02 0.  1.
       -1    1    3    3    0  502 -0.11947584755E+03 -0.25314549840E+03 -0.78589314807E+02  0.29074628447E+03  0.50400001928E-02 0. -1.
</event>
<event>
 5   0  0.6375625E-04  0.9003885E+03  0.7818609E-02  0.9425096E-01
       -3   -1    0    0    0  501  0.00000000000E+00  0.00000000000E+00  0.16642821407E+03  0.16642824472E+03  0.10100000352E+00 0. -1.
        3   -1    0    0  501    0  0.00000000000E+00  0.00000000000E+00 -0.12177914433E+04  0.12177914475E+04  0.10100000352E+00 0.  1.
    10030    2    1    2    0    0  0.00000000000E+00  0.00000000000E+00 -0.10513632292E+04  0.13842196922E+04  0.90038853642E+03 0.  0.
        4    1    3    3  502    0  0.22858037282E+03  0.26452457392E+03 -0.89627018488E+02  0.36091114196E+03  0.12699999809E+01 0. -1.
       -4    1    3    3    0  502 -0.22858037282E+03 -0.26452457392E+03 -0.96173621075E+03  0.10233085503E+04  0.12699999809E+01 0.  1.
</event>
<event>
 5   0  0.1635686E-03  0.8986574E+03  0.7818609E-02  0.9427261E-01
        2   -1    0    0  501    0  0.00000000000E+00  0.00000000000E+00  0.24244107814E+04  0.24244107814E+04  0.25500000920E-02 0. -1.
       -2   -1    0    0    0  501  0.00000000000E+00  0.00000000000E+00 -0.83276429581E+02  0.83276429620E+02  0.25500000920E-02 0.  1.
    10030    2    1    2    0    0  0.00000000000E+00  0.00000000000E+00  0.23411343518E+04  0.25076872110E+04  0.89865738469E+03 0.  0.
        5    1    3    3  502    0 -0.11342249206E+03 -0.21487468699E+03  0.11593336051E+03  0.26925531915E+03  0.46999998093E+01 0.  1.
       -5    1    3    3    0  502  0.11342249206E+03  0.21487468699E+03  0.22252009913E+04  0.22384318919E+04  0.46999998093E+01 0. -1.
</event>
<event>
 5   0  0.1641516E-03  0.9004298E+03  0.7818609E-02  0.9425044E-01
        2   -1    0    0  501    0  0.00000000000E+00  0.00000000000E+00  0.18556636277E+03  0.18556636278E+03  0.25500000920E-02 0. -1.
       -2   -1    0    0    0  501  0.00000000000E+00  0.00000000000E+00 -0.10922962360E+04  0.10922962360E+04  0.25500000920E-02 0.  1.
    10030    2    1    2    0    0  0.00000000000E+00  0.00000000000E+00 -0.90672987321E+03  0.12778625988E+04  0.90042976314E+03 0.  0.
        1    1    3    3  502    0 -0.44879605846E+03  0.30725056131E+02 -0.42752558674E+03  0.62059653440E+03  0.50400001928E-02 0. -1.
       -1    1    3    3    0  502  0.44879605846E+03 -0.30725056131E+02 -0.47920428647E+03  0.65726606436E+03  0.50400001928E-02 0.  1.
</event>
<event>
 5   0  0.1630202E-03  0.8964561E+03  0.7818609E-02  0.9430022E-01
        2   -1    0    0  501    0  0.00000000000E+00  0.00000000000E+00  0.96511390120E+03  0.96511390120E+03  0.25500000920E-02 0.  1.
       -2   -1    0    0    0  501  0.00000000000E+00  0.00000000000E+00 -0.20817064102E+03  0.20817064104E+03  0.25500000920E-02 0. -1.
    10030    2    1    2    0    0  0.00000000000E+00  0.00000000000E+00  0.75694326018E+03  0.11732845422E+04  0.89645608813E+03 0.  0.
        4    1    3    3  502    0  0.42013137861E+03 -0.10626725177E+03  0.22865132495E+03  0.48998586244E+03  0.12699999809E+01 0. -1.
       -4    1    3    3    0  502 -0.42013137861E+03  0.10626725177E+03  0.52829193523E+03  0.68329867980E+03  0.12699999809E+01 0.  1.
</event>
<event>
 5   0  0.1635686E-03  0.8978709E+03  0.7818609E-02  0.9428247E-01
        2   -1    0    0  501    0  0.00000000000E+00  0.00000000000E+00  0.17824150081E+04  0.17824150081E+04  0.25500000920E-02 0. -1.
       -2   -1    0    0    0  501  0.00000000000E+00  0.00000000000E+00 -0.11307300536E+03  0.11307300539E+03  0.25500000920E-02 0.  1.
    10030    2    1    2    0    0  0.00000000000E+00  0.00000000000E+00  0.16693420027E+04  0.18954880135E+04  0.89787086329E+03 0.  0.
        5    1    3    3  502    0  0.38181823889E+02  0.44013911082E+03  0.10027733661E+04  0.10957904920E+04  0.46999998093E+01 0. -1.
       -5    1    3    3    0  502 -0.38181823889E+02 -0.44013911082E+03  0.66656863664E+03  0.79969752150E+03  0.46999998093E+01 0.  1.
</event>
<event>
 5   0  0.9981885E-04  0.8980893E+03  0.7818609E-02  0.9427973E-01
       -1   -1    0    0    0  501  0.00000000000E+00  0.00000000000E+00  0.30921768187E+03  0.30921768191E+03  0.50400001928E-02 0. -1.
        1   -1    0    0  501    0  0.00000000000E+00  0.00000000000E+00 -0.65210074411E+03  0.65210074413E+03  0.50400001928E-02 0.  1.
    10030    2    1    2    0    0  0.00000000000E+00  0.00000000000E+00 -0.34288306225E+03  0.96131842604E+03  0.89808926164E+03 0.  0.
        4    1    3    3  502    0 -0.30375853924E+03 -0.33012828244E+03 -0.19245895136E+03  0.48815570660E+03  0.12699999809E+01 0.  1.
       -4    1    3    3    0  502  0.30375853924E+03  0.33012828244E+03 -0.15042411088E+03  0.47316271944E+03  0.12699999809E+01 0. -1.
</event>
<event>
 5   0  0.1641516E-03  0.9016120E+03  0.7818609E-02  0.9423569E-01
        2   -1    0    0  501    0  0.00000000000E+00  0.00000000000E+00  0.12372178310E+04  0.12372178310E+04  0.25500000920E-02 0.  1.
       -2   -1    0    0    0  501  0.00000000000E+00  0.00000000000E+00 -0.16426053668E+03  0.16426053670E+03  0.25500000920E-02 0. -1.
    10030    2    1    2    0    0  0.00000000000E+00  0.00000000000E+00  0.10729572943E+04  0.14014783677E+04  0.90161203391E+03 0.  0.
        1    1    3    3  502    0  0.37601407278E+03 -0.19674784686E+03  0.77288128889E+03  0.88172659306E+03  0.50400001928E-02 0.  1.
       -1    1    3    3    0  502 -0.37601407278E+03  0.19674784686E+03  0.30007600540E+03  0.51975177462E+03  0.50400001928E-02 0. -1.
</event>
<event>
 5   0  0.9981885E-04  0.9132993E+03  0.7818609E-02  0.9409108E-01
        1   -1    0    0  501    0  0.00000000000E+00  0.00000000000E+00  0.47811062882E+03  0.47811062885E+03  0.50400001928E-02 0. -1.
       -1   -1    0    0    0  501  0.00000000000E+00  0.00000000000E+00 -0.43615195316E+03  0.43615195319E+03  0.50400001928E-02 0.  1.
    10030    2    1    2    0    0  0.00000000000E+00  0.00000000000E+00  0.41958675664E+02  0.91426258203E+03  0.91329926007E+03 0.  0.
        4    1    3    3  502    0  0.38235144001E+03 -0.20307428455E+03  0.16637537725E+03  0.46380401872E+03  0.12699999809E+01 0. -1.
       -4    1    3    3    0  502 -0.38235144001E+03  0.20307428455E+03 -0.12441670159E+03  0.45045856331E+03  0.12699999809E+01 0.  1.
</event>
<event>
 5   0  0.1007561E-03  0.8883931E+03  0.7818609E-02  0.9440208E-01
       -1   -1    0    0    0  501  0.00000000000E+00  0.00000000000E+00  0.24947565177E+03  0.24947565182E+03  0.50400001928E-02 0.  1.
        1   -1    0    0  501    0  0.00000000000E+00  0.00000000000E+00 -0.79090112532E+03  0.79090112534E+03  0.50400001928E-02 0. -1.
    10030    2    1    2    0    0  0.00000000000E+00  0.00000000000E+00 -0.54142547355E+03  0.10403767772E+04  0.88839309714E+03 0.  0.
        2    1    3    3  502    0  0.10507286156E+03  0.20407171828E+03 -0.71606858746E+03  0.75195730888E+03  0.25500000920E-02 0. -1.
       -2    1    3    3    0  502 -0.10507286156E+03 -0.20407171828E+03  0.17464311391E+03  0.28841946827E+03  0.25500000920E-02 0.  1.
</event>
<event>
 5   0  0.6375625E-04  0.9001990E+03  0.7818609E-02  0.9425333E-01
       -4   -1    0    0    0  501  0.00000000000E+00  0.00000000000E+00  0.76250882966E+03  0.76250988729E+03  0.12699999809E+01 0.  1.
        4   -1    0    0  501    0  0.00000000000E+00  0.00000000000E+00 -0.26568538469E+03  0.26568842003E+03  0.12699999809E+01 0. -1.
    10030    2    1    2    0    0  0.00000000000E+00  0.00000000000E+00  0.49682344497E+03  0.10281983073E+04  0.90019899117E+03 0.  0.
        3    1    3    3  502    0 -0.16874929917E+02 -0.25079650186E+02 -0.26452672144E+03  0.26624828389E+03  0.10100000352E+00 0. -1.
       -3    1    3    3    0  502  0.16874929917E+02  0.25079650186E+02  0.76135016641E+03  0.76195002343E+03  0.10100000352E+00 0.  1.
</event>
<event>
 5   0  0.9223454E-04  0.8973264E+03  0.7818609E-02  0.9428930E-01
       -1   -1    0    0    0  501  0.00000000000E+00  0.00000000000E+00  0.16686016431E+03  0.16686016439E+03  0.50400001928E-02 0.  1.
        1   -1    0    0  501    0  0.00000000000E+00  0.00000000000E+00 -0.12063912760E+04  0.12063912760E+04  0.50400001928E-02 0. -1.
    10030    2    1    2    0    0  0.00000000000E+00  0.00000000000E+00 -0.10395311117E+04  0.13732514404E+04  0.89732635445E+03 0.  0.
        1    1    3    3  502    0  0.73345393521E+02 -0.37100514579E+03 -0.15033049929E+03  0.40696882436E+03  0.50400001928E-02 0.  1.
       -1    1    3    3    0  502 -0.73345393521E+02  0.37100514579E+03 -0.88920061237E+03  0.96628261602E+03  0.50400001928E-02 0. -1.
</event>
<event>
 5   0  0.9981885E-04  0.9086153E+03  0.7818609E-02  0.9414876E-01
        1   -1    0    0  501    0  0.00000000000E+00  0.00000000000E+00  0.52145218508E+03  0.52145218511E+03  0.50400001928E-02 0.  1.
       -1   -1    0    0    0  501  0.00000000000E+00  0.00000000000E+00 -0.39580892038E+03  0.39580892042E+03  0.50400001928E-02 0. -1.
    10030    2    1    2    0    0  0.00000000000E+00  0.00000000000E+00  0.12564326470E+03  0.91726110553E+03  0.90861526828E+03 0.  0.
        4    1    3    3  502    0  0.21474741850E+02  0.19698772081E+03  0.47552516731E+03  0.51516126051E+03  0.12699999809E+01 0.  1.
       -4    1    3    3    0  502 -0.21474741850E+02 -0.19698772081E+03 -0.34988190261E+03  0.40209984501E+03  0.12699999809E+01 0. -1.
</event>
<event>
 5   0  0.1630202E-03  0.9015420E+03  0.7818609E-02  0.9423656E-01
       -2   -1    0    0    0  501  0.00000000000E+00  0.00000000000E+00  0.81830014185E+03  0.81830014185E+03  0.25500000920E-02 0.  1.
        2   -1    0    0  501    0  0.00000000000E+00  0.00000000000E+00 -0.24831290773E+03  0.24831290775E+03  0.25500000920E-02 0. -1.
    10030    2    1    2    0    0  0.00000000000E+00  0.00000000000E+00  0.56998723411E+03  0.10666130496E+04  0.90154198489E+03 0.  0.
        4    1    3    3  502    0 -0.27290127171E+03 -0.10009775195E+02 -0.13930449044E+03  0.30656590426E+03  0.12699999809E+01 0. -1.
       -4    1    3    3    0  502  0.27290127171E+03  0.10009775195E+02  0.70929172456E+03  0.76004714533E+03  0.12699999809E+01 0.  1.
</event>
<event>
 5   0  0.1536020E-03  0.9048245E+03  0.7818609E-02  0.9419571E-01
       -2   -1    0    0    0  501  0.00000000000E+00  0.00000000000E+00  0.19708683852E+03  0.19708683853E+03  0.25500000920E-02 0. -1.
        2   -1    0    0  501    0  0.00000000000E+00  0.00000000000E+00 -0.10385109532E+04  0.10385109532E+04  0.25500000920E-02 0.  1.
    10030    2    1    2    0    0  0.00000000000E+00  0.00000000000E+00 -0.84142411471E+03  0.12355977918E+04  0.90482449248E+03 0.  0.
        2    1    3    3  502    0  0.23261590352E+03 -0.36554373076E+03 -0.24295507094E+03  0.49674897500E+03  0.25500000920E-02 0. -1.
       -2    1    3    3    0  502 -0.23261590352E+03  0.36554373076E+03 -0.59846904377E+03  0.73884881676E+03  0.25500000920E-02 0.  1.
</event>
<event>
 5   0  0.9321543E-04  0.8996271E+03  0.7818609E-02  0.9426048E-01
        1   -1    0    0  501    0  0.00000000000E+00  0.00000000000E+00  0.76486372835E+03  0.76486372837E+03  0.50400001928E-02 0.  1.
       -1   -1    0    0    0  501  0.00000000000E+00  0.00000000000E+00 -0.26453368213E+03  0.26453368218E+03  0.50400001928E-02 0. -1.
    10030    2    1    2    0    0  0.00000000000E+00  0.00000000000E+00  0.50033004622E+03  0.10293974105E+04  0.89962707479E+03 0.  0.
        3    1    3    3  502    0  0.44592895942E+03 -0.58857576855E+02  0.25464910958E+03  0.51687815819E+03  0.10100000352E+00 0.  1.
       -3    1    3    3    0  502 -0.44592895942E+03  0.58857576855E+02  0.24568093664E+03  0.51251925236E+03  0.10100000352E+00 0. -1.
</event>
<event>
 5   0  0.1536020E-03  0.8996774E+03  0.7818609E-02  0.9425985E-01
       -2   -1    0    0    0  501  0.00000000000E+00  0.00000000000E+00  0.98495638279E+02  0.98495638312E+02  0.25500000920E-02 0.  1.
        2   -1    0    0  501    0  0.00000000000E+00  0.00000000000E+00 -0.20544547806E+04  0.20544547806E+04  0.25500000920E-02 0. -1.
    10030    2    1    2    0    0  0.00000000000E+00  0.00000000000E+00 -0.19559591423E+04  0.21529504189E+04  0.89967735319E+03 0.  0.
        2    1    3    3  502    0 -0.97145458557E+02  0.24245867706E+03 -0.10155923944E+03  0.28024583730E+03  0.25500000920E-02 0.  1.
       -2    1    3    3    0  502  0.97145458557E+02 -0.24245867706E+03 -0.18543999028E+04  0.18727045816E+04  0.25500000920E-02 0. -1.
</event>
<event>
 5   0  0.9697941E-04  0.8999210E+03  0.7818609E-02  0.9425680E-01
        1   -1    0    0  501    0  0.00000000000E+00  0.00000000000E+00  0.71084007944E+03  0.71084007946E+03  0.50400001928E-02 0.  1.
       -1   -1    0    0    0  501  0.00000000000E+00  0.00000000000E+00 -0.28482418159E+03  0.28482418164E+03  0.50400001928E-02 0. -1.
    10030    2    1    2    0    0  0.00000000000E+00  0.00000000000E+00  0.42601589785E+03  0.99566426110E+03  0.89992098298E+03 0.  0.
        5    1    3    3  502    0 -0.15414599617E+03 -0.27305742417E+03 -0.14399986705E+03  0.34507882685E+03  0.46999998093E+01 0. -1.
       -5    1    3    3    0  502  0.15414599617E+03  0.27305742417E+03  0.57001576489E+03  0.65058543425E+03  0.46999998093E+01 0.  1.
</event>
<event>
 5   0  0.1641516E-03  0.9036239E+03  0.7818609E-02  0.9421063E-01
       -2   -1    0    0    0  501  0.00000000000E+00  0.00000000000E+00  0.34988489961E+03  0.34988489962E+03  0.25500000920E-02 0. -1.
        2   -1    0    0  501    0  0.00000000000E+00  0.00000000000E+00 -0.58343197914E+03  0.58343197915E+03  0.25500000920E-02 0.  1.
    10030    2    1    2    0    0  0.00000000000E+00  0.00000000000E+00 -0.23354707953E+03  0.93331687876E+03  0.90362390286E+03 0.  0.
        1    1    3    3  502    0 -0.28850431457E+03 -0.29627263697E+03 -0.30474786533E+03  0.51369589875E+03  0.50400001928E-02 0.  1.
       -1    1    3    3    0  502  0.28850431457E+03  0.29627263697E+03  0.71200785799E+02  0.41962098001E+03  0.50400001928E-02 0. -1.
</event>
<event>
 5   0  0.1630202E-03  0.9010888E+03  0.7818609E-02  0.9424221E-01
       -2   -1    0    0    0  501  0.00000000000E+00  0.00000000000E+00  0.24166380520E+03  0.24166380522E+03  0.25500000920E-02 0. -1.
        2   -1    0    0  501    0  0.00000000000E+00  0.00000000000E+00 -0.83996969394E+03  0.83996969395E+03  0.25500000920E-02 0.  1.
    10030    2    1    2    0    0  0.00000000000E+00  0.00000000000E+00 -0.59830588874E+03  0.10816334992E+04  0.90108883580E+03 0.  0.
        4    1    3    3  502    0  0.11427943951E+03 -0.17421018674E+03 -0.77866697088E+03  0.80606007462E+03  0.12699999809E+01 0.  1.
       -4    1    3    3    0  502 -0.11427943951E+03  0.17421018674E+03  0.18036108214E+03  0.27557342454E+03  0.12699999809E+01 0. -1.
</event>
<event>
 5   0  0.9321543E-04  0.8996106E+03  0.7818609E-02  0.9426068E-01
        1   -1    0    0  501    0  0.00000000000E+00  0.00000000000E+00  0.49528395401E+03  0.49528395403E+03  0.50400001928E-02 0.  1.
       -1   -1    0    0    0  501  0.00000000000E+00  0.00000000000E+00 -0.40850260861E+03  0.40850260864E+03  0.50400001928E-02 0. -1.
    10030    2    1    2    0    0  0.00000000000E+00  0.00000000000E+00  0.86781345400E+02  0.90378656267E+03  0.89961055405E+03 0.  0.
        3    1    3    3  502    0  0.36129988746E+03 -0.22431661622E+03 -0.10381329374E+03  0.43775879563E+03  0.10100000352E+00 0.  1.
       -3    1    3    3    0  502 -0.36129988746E+03  0.22431661622E+03  0.19059463914E+03  0.46602776705E+03  0.10100000352E+00 0. -1.
</event>
<event>
 5   0  0.1630202E-03  0.8989219E+03  0.7818609E-02  0.9426930E-01
       -2   -1    0    0    0  501  0.00000000000E+00  0.00000000000E+00  0.19958401236E+03  0.19958401237E+03  0.25500000920E-02 0.  1.
        2   -1    0    0  501    0  0.00000000000E+00  0.00000000000E+00 -0.10121810114E+04  0.10121810114E+04  0.25500000920E-02 0. -1.
    10030    2    1    2    0    0  0.00000000000E+00  0.00000000000E+00 -0.81259699907E+03  0.12117650238E+04  0.89892190429E+03 0.  0.
        4    1    3    3  502    0  0.17723276556E+03  0.61944342714E+02  0.14419079479E+03  0.23673012690E+03  0.12699999809E+01 0.  1.
       -4    1    3    3    0  502 -0.17723276556E+03 -0.61944342714E+02 -0.95678779386E+03  0.97503489690E+03  0.12699999809E+01 0. -1.
</event>
<event>
 5   0  0.1635686E-03  0.9015870E+03  0.7818609E-02  0.9423600E-01
        2   -1    0    0  501    0  0.00000000000E+00  0.00000000000E+00  0.97688277207E+03  0.97688277207E+03  0.25500000920E-02 0.  1.
       -2   -1    0    0    0  501  0.00000000000E+00  0.00000000000E+00 -0.20802371915E+03  0.20802371917E+03  0.25500000920E-02 0. -1.
    10030    2    1    2    0    0  0.00000000000E+00  0.00000000000E+00  0.76885905292E+03  0.11849064912E+04  0.90158701729E+03 0.  0.
        5    1    3    3  502    0 -0.27390821777E+03  0.14449260818E+03  0.81491030919E+03  0.87178250017E+03  0.46999998093E+01 0.  1.
       -5    1    3    3    0  502  0.27390821777E+03 -0.14449260818E+03 -0.46051256274E+02  0.31312399107E+03  0.46999998093E+01 0. -1.
</event>
<event>
 5   0  0.1641516E-03  0.8988023E+03  0.7818609E-02  0.9427080E-01
       -2   -1    0    0    0  501  0.00000000000E+00  0.00000000000E+00  0.40904368534E+03  0.40904368535E+03  0.25500000920E-02 0.  1.
        2   -1    0    0  501    0  0.00000000000E+00  0.00000000000E+00 -0.49374045075E+03  0.49374045075E+03  0.25500000920E-02 0. -1.
    10030    2    1    2    0    0  0.00000000000E+00  0.00000000000E+00 -0.84696765407E+02  0.90278413610E+03  0.89880234441E+03 0.  0.
        1    1    3    3  502    0  0.28838927068E+03 -0.33079216424E+03  0.54877059649E+02  0.44227064007E+03  0.50400001928E-02 0.  1.
       -1    1    3    3    0  502 -0.28838927068E+03  0.33079216424E+03 -0.13957382506E+03  0.46051349603E+03  0.50400001928E-02 0. -1.
</event>
<event>
 5   0  0.9981885E-04  0.9001036E+03  0.7818609E-02  0.9425452E-01
        1   -1    0    0  501    0  0.00000000000E+00  0.00000000000E+00  0.19352809924E+04  0.19352809924E+04  0.50400001928E-02 0.  1.
       -1   -1    0    0    0  501  0.00000000000E+00  0.00000000000E+00 -0.10466006927E+03  0.10466006939E+03  0.50400001928E-02 0. -1.
    10030    2    1    2    0    0  0.00000000000E+00  0.00000000000E+00  0.18306209231E+04  0.20399410618E+04  0.90010364479E+03 0.  0.
        4    1    3    3  502    0 -0.26797003923E+03  0.34053611218E+02  0.17311219121E+04  0.17520708541E+04  0.12699999809E+01 0.  1.
       -4    1    3    3    0  502  0.26797003923E+03 -0.34053611218E+02  0.99499010998E+02  0.28787020765E+03  0.12699999809E+01 0. -1.
</event>
<event>
 5   0  0.1641516E-03  0.8934592E+03  0.7818609E-02  0.9433795E-01
        2   -1    0    0  501    0  0.00000000000E+00  0.00000000000E+00  0.40151091265E+03  0.40151091266E+03  0.25500000920E-02 0. -1.
       -2   -1    0    0    0  501  0.00000000000E+00  0.00000000000E+00 -0.49704084107E+03  0.49704084108E+03  0.25500000920E-02 0.  1.
    10030    2    1    2    0    0  0.00000000000E+00  0.00000000000E+00 -0.95529928418E+02  0.89855175374E+03  0.89345916914E+03 0.  0.
        1    1    3    3  502    0 -0.11895193716E+03 -0.14810130543E+01  0.38528846340E+03  0.40323560955E+03  0.50400001928E-02 0. -1.
       -1    1    3    3    0  502  0.11895193716E+03  0.14810130543E+01 -0.48081839182E+03  0.49531614419E+03  0.50400001928E-02 0.  1.
</event>
<event>
 5   0  0.1007561E-03  0.9005480E+03  0.7818609E-02  0.9424897E-01
       -1   -1    0    0    0  501  0.00000000000E+00  0.00000000000E+00  0.30311082320E+03  0.30311082325E+03  0.50400001928E-02 0.  1.
        1   -1    0    0  501    0  0.00000000000E+00  0.00000000000E+00 -0.66888622553E+03  0.66888622555E+03  0.50400001928E-02 0. -1.
    10030    2    1    2    0    0  0.00000000000E+00  0.00000000000E+00 -0.36577540233E+03  0.97199704880E+03  0.90054795426E+03 0.  0.
        2    1    3    3  502    0  0.21447646856E+02 -0.23733356532E+03  0.22947007060E+03  0.33082281676E+03  0.25500000920E-02 0.  1.
       -2    1    3    3    0  502 -0.21447646856E+02  0.23733356532E+03 -0.59524547293E+03  0.64117423204E+03  0.25500000920E-02 0. -1.
</event>
<event>
 5   0  0.1704416E-03  0.9003248E+03  0.7818609E-02  0.9425175E-01
       -2   -1    0    0    0  501  0.00000000000E+00  0.00000000000E+00  0.15934676422E+03  0.15934676424E+03  0.25500000920E-02 0.  1.
        2   -1    0    0  501    0  0.00000000000E+00  0.00000000000E+00 -0.12717308417E+04  0.12717308417E+04  0.25500000920E-02 0. -1.
    10030    2    1    2    0    0  0.00000000000E+00  0.00000000000E+00 -0.11123840775E+04  0.14310776059E+04  0.90032481827E+03 0.  0.
        3    1    3    3  502    0  0.35579867253E+03 -0.11455489495E+03 -0.95493692319E+03  0.10254852787E+04  0.10100000352E+00 0.  1.
       -3    1    3    3    0  502 -0.35579867253E+03  0.11455489495E+03 -0.15744715427E+03  0.40559232724E+03  0.10100000352E+00 0. -1.
</event>
<event>
 5   0  0.9981885E-04  0.8983392E+03  0.7818609E-02  0.9427660E-01
       -1   -1    0    0    0  501  0.00000000000E+00  0.00000000000E+00  0.37362962349E+03  0.37362962353E+03  0.50400001928E-02 0. -1.
        1   -1    0    0  501    0  0.00000000000E+00  0.00000000000E+00 -0.53998213081E+03  0.53998213083E+03  0.50400001928E-02 0.  1.
    10030    2    1    2    0    0  0.00000000000E+00  0.00000000000E+00 -0.16635250732E+03  0.91361175436E+03  0.89833917927E+03 0.  0.
        4    1    3    3  502    0 -0.27077336456E+03 -0.98876621838E+02 -0.43349860531E+03  0.52059336819E+03  0.12699999809E+01 0.  1.
       -4    1    3    3    0  502  0.27077336456E+03  0.98876621838E+02  0.26714609799E+03  0.39301838617E+03  0.12699999809E+01 0. -1.
</event>
<event>
 5   0  0.9981885E-04  0.9044884E+03  0.7818609E-02  0.9419988E-01
       -1   -1    0    0    0  501  0.00000000000E+00  0.00000000000E+00  0.27085876196E+03  0.27085876201E+03  0.50400001928E-02 0. -1.
        1   -1    0    0  501    0  0.00000000000E+00  0.00000000000E+00 -0.75509772754E+03  0.75509772756E+03  0.50400001928E-02 0.  1.
    10030    2    1    2    0    0  0.00000000000E+00  0.00000000000E+00 -0.48423896558E+03  0.10259564896E+04  0.90448844255E+03 0.  0.
        4    1    3    3  502    0 -0.35058571028E+03 -0.15677640744E+01  0.81920604011E+02  0.36003527105E+03  0.12699999809E+01 0. -1.
       -4    1    3    3    0  502  0.35058571028E+03  0.15677640744E+01 -0.56615956959E+03  0.66592121852E+03  0.12699999809E+01 0.  1.
</event>
<event>
 5   0  0.1641516E-03  0.9005212E+03  0.7818609E-02  0.9424930E-01
        2   -1    0    0  501    0  0.00000000000E+00  0.00000000000E+00  0.10155761522E+04  0.10155761522E+04  0.25500000920E-02 0.  1.
       -2   -1    0    0    0  501  0.00000000000E+00  0.00000000000E+00 -0.19962523655E+03  0.19962523657E+03  0.25500000920E-02 0. -1.
    10030    2    1    2    0    0  0.00000000000E+00  0.00000000000E+00  0.81595091563E+03  0.12152013888E+04  0.90052124823E+03 0.  0.
        1    1    3    3  502    0  0.78423343004E+02 -0.30591727515E+03  0.84105818120E+03  0.89839549429E+03  0.50400001928E-02 0.  1.
       -1    1    3    3    0  502 -0.78423343004E+02  0.30591727515E+03 -0.25107265574E+02  0.31680589447E+03  0.50400001928E-02 0. -1.
</event>
<event>
 5   0  0.1630202E-03  0.9000739E+03  0.7818609E-02  0.9425489E-01
        2   -1    0    0  501    0  0.00000000000E+00  0.00000000000E+00  0.32950292003E+03  0.32950292004E+03  0.25500000920E-02 0.  1.
       -2   -1    0    0    0  501  0.00000000000E+00  0.00000000000E+00 -0.61466304278E+03  0.61466304278E+03  0.25500000920E-02 0. -1.
    10030    2    1    2    0    0  0.00000000000E+00  0.00000000000E+00 -0.28516012274E+03  0.94416596283E+03  0.90007392461E+03 0.  0.
        4    1    3    3  502    0  0.82694962528E+02  0.29165603148E+03 -0.49148452990E+03  0.57746026145E+03  0.12699999809E+01 0. -1.
       -4    1    3    3    0  502 -0.82694962528E+02 -0.29165603148E+03  0.20632440716E+03  0.36670570137E+03  0.12699999809E+01 0.  1.
</event>
<event>
 5   0  0.9697941E-04  0.9006452E+03  0.7818609E-02  0.9424775E-01
       -1   -1    0    0    0  501  0.00000000000E+00  0.00000000000E+00  0.14036220828E+03  0.14036220837E+03  0.50400001928E-02 0. -1.
        1   -1    0    0  501    0  0.00000000000E+00  0.00000000000E+00 -0.14447653831E+04  0.14447653831E+04  0.50400001928E-02 0.  1.
    10030    2    1    2    0    0  0.00000000000E+00  0.00000000000E+00 -0.13044031748E+04  0.15851275915E+04  0.90064523472E+03 0.  0.
        5    1    3    3  502    0 -0.20162219658E+03 -0.28074629774E+03 -0.11601606779E+04  0.12105638696E+04  0.46999998093E+01 0.  1.
       -5    1    3    3    0  502  0.20162219658E+03  0.28074629774E+03 -0.14424249695E+03  0.37456372191E+03  0.46999998093E+01 0. -1.
</event>
<event>
 5   0  0.1641516E-03  0.8989776E+03  0.7818609E-02  0.9426860E-01
       -2   -1    0    0    0  501  0.00000000000E+00  0.00000000000E+00  0.18594455490E+03  0.18594455492E+03  0.25500000920E-02 0. -1.
        2   -1    0    0  501    0  0.00000000000E+00  0.00000000000E+00 -0.10865613525E+04  0.10865613525E+04  0.25500000920E-02 0.  1.
    10030    2    1    2    0    0  0.00000000000E+00  0.00000000000E+00 -0.90061679756E+03  0.12725059074E+04  0.89897756829E+03 0.  0.
        1    1    3    3  502    0 -0.32928704480E+03 -0.30504708630E+03 -0.41691678457E+03  0.61262001927E+03  0.50400001928E-02 0. -1.
       -1    1    3    3    0  502  0.32928704480E+03  0.30504708630E+03 -0.48370001299E+03  0.65988588811E+03  0.50400001928E-02 0.  1.
</event>
<event>
 5   0  0.1704416E-03  0.9010678E+03  0.7818609E-02  0.9424248E-01
        2   -1    0    0  501    0  0.00000000000E+00  0.00000000000E+00  0.88635878174E+03  0.88635878174E+03  0.25500000920E-02 0. -1.
       -2   -1    0    0    0  501  0.00000000000E+00  0.00000000000E+00 -0.22900521491E+03  0.22900521493E+03  0.25500000920E-02 0.  1.
    10030    2    1    2    0    0  0.00000000000E+00  0.00000000000E+00  0.65735356683E+03  0.11153639967E+04  0.90106777395E+03 0.  0.
        3    1    3    3  502    0 -0.44171886820E+03 -0.44196274989E+02  0.23350179218E+03  0.50158944008E+03  0.10100000352E+00 0. -1.
       -3    1    3    3    0  502  0.44171886820E+03  0.44196274989E+02  0.42385177465E+03  0.61377455659E+03  0.10100000352E+00 0.  1.
</event>
<event>
 5   0  0.9223454E-04  0.9032519E+03  0.7818609E-02  0.9421525E-01
        1   -1    0    0  501    0  0.00000000000E+00  0.00000000000E+00  0.46034235076E+03  0.46034235078E+03  0.50400001928E-02 0.  1.
       -1   -1    0    0    0  501  0.00000000000E+00  0.00000000000E+00 -0.44307460453E+03  0.44307460456E+03  0.50400001928E-02 0. -1.
    10030    2    1    2    0    0  0.00000000000E+00  0.00000000000E+00  0.17267746225E+02  0.90341695535E+03  0.90325191400E+03 0.  0.
        1    1    3    3  502    0  0.43904759527E+03  0.92605775211E+02  0.59901257745E+02  0.45268839307E+03  0.50400001928E-02 0.  1.
       -1    1    3    3    0  502 -0.43904759527E+03 -0.92605775211E+02 -0.42633511520E+02  0.45072856227E+03  0.50400001928E-02 0. -1.
</event>
<event>
 5   0  0.9981885E-04  0.8994309E+03  0.7818609E-02  0.9426293E-01
        1   -1    0    0  501    0  0.00000000000E+00  0.00000000000E+00  0.15599830459E+04  0.15599830459E+04  0.50400001928E-02 0.  1.
       -1   -1    0    0    0  501  0.00000000000E+00  0.00000000000E+00 -0.12964499217E+03  0.12964499227E+03  0.50400001928E-02 0. -1.
    10030    2    1    2    0    0  0.00000000000E+00  0.00000000000E+00  0.14303380537E+04  0.16896280382E+04  0.89943090866E+03 0.  0.
        4    1    3    3  502    0  0.46714236056E+02 -0.41514535030E+03  0.40243381222E+03  0.58007108861E+03  0.12699999809E+01 0. -1.
       -4    1    3    3    0  502 -0.46714236056E+02  0.41514535030E+03  0.10279042415E+04  0.11095569496E+04  0.12699999809E+01 0.  1.
</event>
<event>
 5   0  0.9321543E-04  0.8994807E+03  0.7818609E-02  0.9426231E-01
        1   -1    0    0  501    0  0.00000000000E+00  0.00000000000E+00  0.76580965282E+03  0.76580965284E+03  0.50400001928E-02 0.  1.
       -1   -1    0    0    0  501  0.00000000000E+00  0.00000000000E+00 -0.26412099013E+03  0.26412099017E+03  0.50400001928E-02 0. -1.
    10030    2    1    2    0    0  0.00000000000E+00  0.00000000000E+00  0.50168866269E+03  0.10299306430E+04  0.89948074751E+03 0.  0.
        3    1    3    3  502    0  0.39424873755E+03  0.23602073330E+02  0.45241663778E+01  0.39498050991E+03  0.10100000352E+00 0. -1.
       -3    1    3    3    0  502 -0.39424873755E+03 -0.23602073330E+02  0.49716449632E+03  0.63495013310E+03  0.10100000352E+00 0.  1.
</event>
<event>
 5   0  0.9697941E-04  0.9006447E+03  0.7818609E-02  0.9424776E-01
       -1   -1    0    0    0  501  0.00000000000E+00  0.00000000000E+00  0.11569859159E+03  0.11569859170E+03  0.50400001928E-02 0.  1.
        1   -1    0    0  501    0  0.00000000000E+00  0.00000000000E+00 -0.17527459437E+04  0.17527459437E+04  0.50400001928E-02 0. -1.
    10030    2    1    2    0    0  0.00000000000E+00  0.00000000000E+00 -0.16370473521E+04  0.18684445354E+04  0.90064474063E+03 0.  0.
        5    1    3    3  502    0 -0.12303870874E+03  0.93414504298E+02 -0.16960010647E+04  0.17030286242E+04  0.46999998093E+01 0. -1.
       -5    1    3    3    0  502  0.12303870874E+03 -0.93414504298E+02  0.58953712548E+02  0.16541591122E+03  0.46999998093E+01 0.  1.
</event>
<event>
 5   0  0.6375625E-04  0.8986127E+03  0.7818609E-02  0.9427317E-01
       -3   -1    0    0    0  501  0.00000000000E+00  0.00000000000E+00  0.27096575939E+03  0.27096577821E+03  0.10100000352E+00 0.  1.
        3   -1    0    0  501    0  0.00000000000E+00  0.00000000000E+00 -0.74502477547E+03  0.74502478232E+03  0.10100000352E+00 0. -1.
    10030    2    1    2    0    0  0.00000000000E+00  0.00000000000E+00 -0.47405901609E+03  0.10159905605E+04  0.89861274660E+03 0.  0.
        3    1    3    3  502    0  0.36156639057E+03 -0.12032234188E+03  0.32116475845E+02  0.38241234154E+03  0.10100000352E+00 0.  1.
       -3    1    3    3    0  502 -0.36156639057E+03  0.12032234188E+03 -0.50617549193E+03  0.63357821899E+03  0.10100000352E+00 0. -1.
</event>
<event>
 5   0  0.9321543E-04  0.9004933E+03  0.7818609E-02  0.9424965E-01
        1   -1    0    0  501    0  0.00000000000E+00  0.00000000000E+00  0.19829317210E+03  0.19829317216E+03  0.50400001928E-02 0. -1.
       -1   -1    0    0    0  501  0.00000000000E+00  0.00000000000E+00 -0.10223350231E+04  0.10223350231E+04  0.50400001928E-02 0.  1.
    10030    2    1    2    0    0  0.00000000000E+00  0.00000000000E+00 -0.82404185102E+03  0.12206281953E+04  0.90049331975E+03 0.  0.
        3    1    3    3  502    0  0.38335527239E+03 -0.19061124923E+01 -0.91944880907E+02  0.39423187271E+03  0.10100000352E+00 0. -1.
       -3    1    3    3    0  502 -0.38335527239E+03  0.19061124923E+01 -0.73209697011E+03  0.82639632259E+03  0.10100000352E+00 0.  1.
</event>
<event>
 5   0  0.1630202E-03  0.8992703E+03  0.7818609E-02  0.9426494E-01
       -2   -1    0    0    0  501  0.00000000000E+00  0.00000000000E+00  0.31695575589E+03  0.31695575590E+03  0.25500000920E-02 0.  1.
        2   -1    0    0  501    0  0.00000000000E+00  0.00000000000E+00 -0.63785489952E+03  0.63785489953E+03  0.25500000920E-02 0. -1.
    10030    2    1    2    0    0  0.00000000000E+00  0.00000000000E+00 -0.32089914363E+03  0.95481065543E+03  0.89927033052E+03 0.  0.
        4    1    3    3  502    0 -0.28162403599E+03 -0.35012107267E+03 -0.14289657058E+03  0.47150599780E+03  0.12699999809E+01 0.  1.
       -4    1    3    3    0  502  0.28162403599E+03  0.35012107267E+03 -0.17800257305E+03  0.48330465763E+03  0.12699999809E+01 0. -1.
</event>
<event>
 5   0  0.1641516E-03  0.9257181E+03  0.7818609E-02  0.9393991E-01
       -2   -1    0    0    0  501  0.00000000000E+00  0.00000000000E+00  0.25365909359E+03  0.25365909360E+03  0.25500000920E-02 0.  1.
        2   -1    0    0  501    0  0.00000000000E+00  0.00000000000E+00 -0.84459230385E+03  0.84459230385E+03  0.25500000920E-02 0. -1.
    10030    2    1    2    0    0  0.00000000000E+00  0.00000000000E+00 -0.59093321026E+03  0.10982513975E+04  0.92571813908E+03 0.  0.
        1    1    3    3  502    0  0.29052230368E+03  0.30408387816E+03 -0.66129309715E+02  0.42572678976E+03  0.50400001928E-02 0.  1.
       -1    1    3    3    0  502 -0.29052230368E+03 -0.30408387816E+03 -0.52480390055E+03  0.67252460769E+03  0.50400001928E-02 0. -1.
</event>
<event>
 5   0  0.1007561E-03  0.8999441E+03  0.7818609E-02  0.9425651E-01
       -1   -1    0    0    0  501  0.00000000000E+00  0.00000000000E+00  0.20165509862E+03  0.20165509869E+03  0.50400001928E-02 0. -1.
        1   -1    0    0  501    0  0.00000000000E+00  0.00000000000E+00 -0.10040651762E+04  0.10040651762E+04  0.50400001928E-02 0.  1.
    10030    2    1    2    0    0  0.00000000000E+00  0.00000000000E+00 -0.80241007759E+03  0.12057202749E+04  0.89994413644E+03 0.  0.
        2    1    3    3  502    0 -0.62091966357E+02  0.39723948290E+03 -0.13051716195E+03  0.42271662923E+03  0.25500000920E-02 0. -1.
       -2    1    3    3    0  502  0.62091966357E+02 -0.39723948290E+03 -0.67189291564E+03  0.78300364569E+03  0.25500000920E-02 0.  1.
</event>
<event>
 5   0  0.1635686E-03  0.8992299E+03  0.7818609E-02  0.9426545E-01
        2   -1    0    0  501    0  0.00000000000E+00  0.00000000000E+00  0.17410374879E+04  0.17410374879E+04  0.25500000920E-02 0. -1.
       -2   -1    0    0    0  501  0.00000000000E+00  0.00000000000E+00 -0.11611099267E+03  0.11611099270E+03  0.25500000920E-02 0.  1.
    10030    2    1    2    0    0  0.00000000000E+00  0.00000000000E+00  0.16249264952E+04  0.18571484806E+04  0.89922987279E+03 0.  0.
        5    1    3    3  502    0 -0.22533511565E+02  0.26078095018E+03  0.15673934863E+04  0.15891063193E+04  0.46999998093E+01 0. -1.
       -5    1    3    3    0  502  0.22533511565E+02 -0.26078095018E+03  0.57533008908E+02  0.26804216129E+03  0.46999998093E+01 0.  1.
</event>
<event>
 5   0  0.1007561E-03  0.9011789E+03  0.7818609E-02  0.9424109E-01
       -1   -1    0    0    0  501  0.00000000000E+00  0.00000000000E+00  0.41112134468E+03  0.41112134471E+03  0.50400001928E-02 0.  1.
        1   -1    0    0  501    0  0.00000000000E+00  0.00000000000E+00 -0.49384653246E+03  0.49384653249E+03  0.50400001928E-02 0. -1.
    10030    2    1    2    0    0  0.00000000000E+00  0.00000000000E+00 -0.82725187786E+02  0.90496787719E+03  0.90117889570E+03 0.  0.
        2    1    3    3  502    0 -0.44444078675E+02  0.86082098969E+02  0.40053923179E+03  0.41208867990E+03  0.25500000920E-02 0.  1.
       -2    1    3    3    0  502  0.44444078675E+02 -0.86082098969E+02 -0.48326441958E+03  0.49287919729E+03  0.25500000920E-02 0. -1.
</event>
<event>
 5   0  0.1536020E-03  0.9003524E+03  0.7818609E-02  0.9425141E-01
        2   -1    0    0  501    0  0.00000000000E+00  0.00000000000E+00  0.13123171205E+04  0.13123171206E+04  0.25500000920E-02 0.  1.
       -2   -1    0    0    0  501  0.00000000000E+00  0.00000000000E+00 -0.15442808508E+03  0.15442808510E+03  0.25500000920E-02 0. -1.
    10030    2    1    2    0    0  0.00000000000E+00  0.00000000000E+00  0.11578890355E+04  0.14667452057E+04  0.90035241981E+03 0.  0.
        2    1    3    3  502    0 -0.29650278480E+03  0.10270909616E+03  0.53088621325E+02  0.31824748475E+03  0.25500000920E-02 0. -1.
       -2    1    3    3    0  502  0.29650278480E+03 -0.10270909616E+03  0.11048004141E+04  0.11484977209E+04  0.25500000920E-02 0.  1.
</event>
<event>
 5   0  0.1704416E-03  0.9012444E+03  0.7818609E-02  0.9424027E-01
       -2   -1    0    0    0  501  0.00000000000E+00  0.00000000000E+00  0.17588513135E+03  0.17588513137E+03  0.25500000920E-02 0.  1.
        2   -1    0    0  501    0  0.00000000000E+00  0.00000000000E+00 -0.11545055012E+04  0.11545055012E+04  0.25500000920E-02 0. -1.
    10030    2    1    2    0    0  0.00000000000E+00  0.00000000000E+00 -0.97862036982E+03  0.13303906326E+04  0.90124436583E+03 0.  0.
        3    1    3    3  502    0  0.16663436349E+03 -0.31011292755E+02  0.12703599869E+03  0.21181800334E+03  0.10100000352E+00 0.  1.
       -3    1    3    3    0  502 -0.16663436349E+03  0.31011292755E+02 -0.11056563685E+04  0.11185726292E+04  0.10100000352E+00 0. -1.
</event>
<event>
 5   0  0.6375625E-04  0.8997348E+03  0.7818609E-02  0.9425913E-01
       -3   -1    0    0    0  501  0.00000000000E+00  0.00000000000E+00  0.54496738803E+03  0.54496739739E+03  0.10100000352E+00 0.  1.
        3   -1    0    0  501    0  0.00000000000E+00  0.00000000000E+00 -0.37136292375E+03  0.37136293748E+03  0.10100000352E+00 0. -1.
    10030    2    1    2    0    0  0.00000000000E+00  0.00000000000E+00  0.17360446428E+03  0.91633033487E+03  0.89973483460E+03 0.  0.
        4    1    3    3  502    0 -0.21887881284E+03 -0.16959236072E+03  0.44789742834E+03  0.52657689157E+03  0.12699999809E+01 0.  1.
       -4    1    3    3    0  502  0.21887881284E+03  0.16959236072E+03 -0.27429296406E+03  0.38975344330E+03  0.12699999809E+01 0. -1.
</event>
<event>
 5   0  0.1641516E-03  0.9017935E+03  0.7818609E-02  0.9423342E-01
        2   -1    0    0  501    0  0.00000000000E+00  0.00000000000E+00  0.31787919575E+03  0.31787919576E+03  0.25500000920E-02 0.  1.
       -2   -1    0    0    0  501  0.00000000000E+00  0.00000000000E+00 -0.63957595484E+03  0.63957595484E+03  0.25500000920E-02 0. -1.
    10030    2    1    2    0    0  0.00000000000E+00  0.00000000000E+00 -0.32169675909E+03  0.95745515060E+03  0.90179352437E+03 0.  0.
        1    1    3    3  502    0  0.24013164953E+03 -0.57648291325E+02 -0.56138881269E+03  0.61330574238E+03  0.50400001928E-02 0. -1.
       -1    1    3    3    0  502 -0.24013164953E+03  0.57648291325E+02  0.23969205360E+03  0.34414940822E+03  0.50400001928E-02 0.  1.
</event>
<event>
 5   0  0.1630202E-03  0.9007107E+03  0.7818609E-02  0.9424694E-01
        2   -1    0    0  501    0  0.00000000000E+00  0.00000000000E+00  0.13250341289E+04  0.13250341289E+04  0.25500000920E-02 0.  1.
       -2   -1    0    0    0  501  0.00000000000E+00  0.00000000000E+00 -0.15306769661E+03  0.15306769664E+03  0.25500000920E-02 0. -1.
    10030    2    1    2    0    0  0.00000000000E+00  0.00000000000E+00  0.11719664323E+04  0.14781018255E+04  0.90071065735E+03 0.  0.
        4    1    3    3  502    0  0.22516751577E+03  0.27552950735E+03  0.10389856105E+04  0.10982302269E+04  0.12699999809E+01 0.  1.
       -4    1    3    3    0  502 -0.22516751577E+03 -0.27552950735E+03  0.13298082177E+03  0.37987159862E+03  0.12699999809E+01 0. -1.
</event>
<event>
 5   0  0.9697941E-04  0.9013027E+03  0.7818609E-02  0.9423954E-01
       -1   -1    0    0    0  501  0.00000000000E+00  0.00000000000E+00  0.13581775354E+03  0.13581775364E+03  0.50400001928E-02 0. -1.
        1   -1    0    0  501    0  0.00000000000E+00  0.00000000000E+00 -0.14952877814E+04  0.14952877814E+04  0.50400001928E-02 0.  1.
    10030    2    1    2    0    0  0.00000000000E+00  0.00000000000E+00 -0.13594700279E+04  0.16311055351E+04  0.90130267382E+03 0.  0.
        5    1    3    3  502    0  0.14786377658E+03  0.32882334518E+03 -0.11689490741E+04  0.12232957601E+04  0.46999998093E+01 0.  1.
       -5    1    3    3    0  502 -0.14786377658E+03 -0.32882334518E+03 -0.19052095378E+03  0.40780977500E+03  0.46999998093E+01 0. -1.
</event>
<event>
 5   0  0.9981885E-04  0.9073644E+03  0.7818609E-02  0.9416422E-01
       -1   -1    0    0    0  501  0.00000000000E+00  0.00000000000E+00  0.55883922222E+03  0.55883922224E+03  0.50400001928E-02 0. -1.
        1   -1    0    0  501    0  0.00000000000E+00  0.00000000000E+00 -0.36831263629E+03  0.36831263632E+03  0.50400001928E-02 0.  1.
    10030    2    1    2    0    0  0.00000000000E+00  0.00000000000E+00  0.19052658593E+03  0.92715185856E+03  0.90736441901E+03 0.  0.
        4    1    3    3  502    0 -0.22554928393E+03 -0.68840569856E+02  0.49129043933E+03  0.54495817474E+03  0.12699999809E+01 0. -1.
       -4    1    3    3    0  502  0.22554928393E+03  0.68840569856E+02 -0.30076385340E+03  0.38219368382E+03  0.12699999809E+01 0.  1.
</event>
<event>
 5   0  0.9697941E-04  0.9002063E+03  0.7818609E-02  0.9425324E-01
       -1   -1    0    0    0  501  0.00000000000E+00  0.00000000000E+00  0.18419599389E+03  0.18419599396E+03  0.50400001928E-02 0. -1.
        1   -1    0    0  501    0  0.00000000000E+00  0.00000000000E+00 -0.10998765990E+04  0.10998765990E+04  0.50400001928E-02 0.  1.
    10030    2    1    2    0    0  0.00000000000E+00  0.00000000000E+00 -0.91568060509E+03  0.12840725930E+04  0.90020633937E+03 0.  0.
        5    1    3    3  502    0  0.22345746677E+03 -0.18942408593E+03 -0.94524218897E+03  0.98960578494E+03  0.46999998093E+01 0.  1.
       -5    1    3    3    0  502 -0.22345746677E+03  0.18942408593E+03  0.29561583875E+02  0.29446680802E+03  0.46999998093E+01 0. -1.
</event>
<event>
 5   0  0.1704416E-03  0.8985182E+03  0.7818609E-02  0.9427436E-01
       -2   -1    0    0    0  501  0.00000000000E+00  0.00000000000E+00  0.18478150290E+03  0.18478150292E+03  0.25500000920E-02 0. -1.
        2   -1    0    0  501    0  0.00000000000E+00  0.00000000000E+00 -0.10922832959E+04  0.10922832959E+04  0.25500000920E-02 0.  1.
    10030    2    1    2    0    0  0.00000000000E+00  0.00000000000E+00 -0.90750179299E+03  0.12770647988E+04  0.89851822245E+03 0.  0.
        3    1    3    3  502    0  0.12102595637E+03  0.15090113353E+03  0.12256044393E+03  0.22899673979E+03  0.10100000352E+00 0. -1.
       -3    1    3    3    0  502 -0.12102595637E+03 -0.15090113353E+03 -0.10300622369E+04  0.10480680590E+04  0.10100000352E+00 0.  1.
</event>
<event>
 5   0  0.1536020E-03  0.8989236E+03  0.7818609E-02  0.9426928E-01
       -2   -1    0    0    0  501  0.00000000000E+00  0.00000000000E+00  0.25828490216E+03  0.25828490218E+03  0.25500000920E-02 0. -1.
        2   -1    0    0  501    0  0.00000000000E+00  0.00000000000E+00 -0.78214367197E+03  0.78214367198E+03  0.25500000920E-02 0.  1.
    10030    2    1    2    0    0  0.00000000000E+00  0.00000000000E+00 -0.52385876981E+03  0.10404285742E+04  0.89892358252E+03 0.  0.
        2    1    3    3  502    0  0.41009120402E+03  0.17326143553E+03 -0.19037915397E+03  0.48418854068E+03  0.25500000920E-02 0.  1.
       -2    1    3    3    0  502 -0.41009120402E+03 -0.17326143553E+03 -0.33347961584E+03  0.55624003348E+03  0.25500000920E-02 0. -1.
</event>
<event>
 5   0  0.1635686E-03  0.8992996E+03  0.7818609E-02  0.9426457E-01
        2   -1    0    0  501    0  0.00000000000E+00  0.00000000000E+00  0.12062276995E+04  0.12062276995E+04  0.25500000920E-02 0. -1.
       -2   -1    0    0    0  501  0.00000000000E+00  0.00000000000E+00 -0.16761754885E+03  0.16761754887E+03  0.25500000920E-02 0.  1.
    10030    2    1    2    0    0  0.00000000000E+00  0.00000000000E+00  0.10386101507E+04  0.13738452484E+04  0.89929957270E+03 0.  0.
        5    1    3    3  502    0 -0.48305273389E+02 -0.37592104293E+03  0.88884290855E+03  0.96628869187E+03  0.46999998093E+01 0. -1.
       -5    1    3    3    0  502  0.48305273389E+02  0.37592104293E+03  0.14976724212E+03  0.40755655652E+03  0.46999998093E+01 0.  1.
</event>
<event>
 5   0  0.9981885E-04  0.8992422E+03  0.7818609E-02  0.9426529E-01
        1   -1    0    0  501    0  0.00000000000E+00  0.00000000000E+00  0.74372013322E+03  0.74372013324E+03  0.50400001928E-02 0. -1.
       -1   -1    0    0    0  501  0.00000000000E+00  0.00000000000E+00 -0.27182150686E+03  0.27182150690E+03  0.50400001928E-02 0.  1.
    10030    2    1    2    0    0  0.00000000000E+00  0.00000000000E+00  0.47189862636E+03  0.10155416401E+04  0.89924218612E+03 0.  0.
        4    1    3    3  502    0 -0.37139868308E+03 -0.21535862940E+03  0.38679504033E+03  0.57786532789E+03  0.12699999809E+01 0. -1.
       -4    1    3    3    0  502  0.37139868308E+03  0.21535862940E+03  0.85103586033E+02  0.43767631225E+03  0.12699999809E+01 0.  1.
</event>
<event>
 5   0  0.9223454E-04  0.8991569E+03  0.7818609E-02  0.9426636E-01
        1   -1    0    0  501    0  0.00000000000E+00  0.00000000000E+00  0.35884223267E+03  0.35884223271E+03  0.50400001928E-02 0. -1.
       -1   -1    0    0    0  501  0.00000000000E+00  0.00000000000E+00 -0.56325813054E+03  0.56325813056E+03  0.50400001928E-02 0.  1.
    10030    2    1    2    0    0  0.00000000000E+00  0.00000000000E+00 -0.20441589786E+03  0.92210036326E+03  0.89915694994E+03 0.  0.
        1    1    3    3  502    0 -0.28514461738E+03  0.33275113095E+03  0.80434789598E+00  0.43821389180E+03  0.50400001928E-02 0. -1.
       -1    1    3    3    0  502  0.28514461738E+03 -0.33275113095E+03 -0.20522024576E+03  0.48388647146E+03  0.50400001928E-02 0.  1.
</event>
<event>
 5   0  0.1536020E-03  0.8991056E+03  0.7818609E-02  0.9426700E-01
        2   -1    0    0  501    0  0.00000000000E+00  0.00000000000E+00  0.45331332925E+03  0.45331332926E+03  0.25500000920E-02 0.  1.
       -2   -1    0    0    0  501  0.00000000000E+00  0.00000000000E+00 -0.44582343585E+03  0.44582343586E+03  0.25500000920E-02 0. -1.
    10030    2    1    2    0    0  0.00000000000E+00  0.00000000000E+00  0.74898933986E+01  0.89913676512E+03  0.89910556882E+03 0.  0.
        2    1    3    3  502    0 -0.41109340059E+03 -0.15439025349E+03  0.99995735961E+02  0.45037016064E+03  0.25500000920E-02 0.  1.
       -2    1    3    3    0  502  0.41109340059E+03  0.15439025349E+03 -0.92505842562E+02  0.44876660448E+03  0.25500000920E-02 0. -1.
</event>
<event>
 5   0  0.6375625E-04  0.9005825E+03  0.7818609E-02  0.9424854E-01
        3   -1    0    0  501    0  0.00000000000E+00  0.00000000000E+00  0.63918310700E+03  0.63918311498E+03  0.10100000352E+00 0. -1.
       -3   -1    0    0    0  501  0.00000000000E+00  0.00000000000E+00 -0.31722083728E+03  0.31722085335E+03  0.10100000352E+00 0.  1.
    10030    2    1    2    0    0  0.00000000000E+00  0.00000000000E+00  0.32196226973E+03  0.95640396834E+03  0.90058250456E+03 0.  0.
        2    1    3    3  502    0  0.17795547641E+03 -0.37533344190E+03 -0.23629602615E+02  0.41605492704E+03  0.25500000920E-02 0.  1.
       -2    1    3    3    0  502 -0.17795547641E+03  0.37533344190E+03  0.34559187234E+03  0.54034904129E+03  0.25500000920E-02 0. -1.
</event>
<event>
 5   0  0.9981885E-04  0.8952066E+03  0.7818609E-02  0.9431593E-01
       -1   -1    0    0    0  501  0.00000000000E+00  0.00000000000E+00  0.14446336937E+03  0.14446336946E+03  0.50400001928E-02 0. -1.
        1   -1    0    0  501    0  0.00000000000E+00  0.00000000000E+00 -0.13868479762E+04  0.13868479762E+04  0.50400001928E-02 0.  1.
    10030    2    1    2    0    0  0.00000000000E+00  0.00000000000E+00 -0.12423846069E+04  0.15313113457E+04  0.89520663876E+03 0.  0.
        4    1    3    3  502    0  0.42968482885E+03  0.10558700005E+03 -0.73682276545E+03  0.85946906129E+03  0.12699999809E+01 0.  1.
       -4    1    3    3    0  502 -0.42968482885E+03 -0.10558700005E+03 -0.50556184141E+03  0.67184228441E+03  0.12699999809E+01 0. -1.
</event>
<event>
 5   0  0.1630202E-03  0.8998499E+03  0.7818609E-02  0.9425769E-01
        2   -1    0    0  501    0  0.00000000000E+00  0.00000000000E+00  0.11867240290E+04  0.11867240290E+04  0.25500000920E-02 0.  1.
       -2   -1    0    0    0  501  0.00000000000E+00  0.00000000000E+00 -0.17058091493E+03  0.17058091495E+03  0.25500000920E-02 0. -1.
    10030    2    1    2    0    0  0.00000000000E+00  0.00000000000E+00  0.10161431141E+04  0.13573049440E+04  0.89984992228E+03 0.  0.
        4    1    3    3  502    0  0.19678030087E+03  0.31990114380E+03  0.13439902614E+03  0.39890342158E+03  0.12699999809E+01 0. -1.
       -4    1    3    3    0  502 -0.19678030087E+03 -0.31990114380E+03  0.88174408793E+03  0.95840152239E+03  0.12699999809E+01 0.  1.
</event>
<event>
 5   0  0.9697941E-04  0.9004045E+03  0.7818609E-02  0.9425076E-01
       -1   -1    0    0    0  501  0.00000000000E+00  0.00000000000E+00  0.23638813516E+03  0.23638813522E+03  0.50400001928E-02 0. -1.
        1   -1    0    0  501    0  0.00000000000E+00  0.00000000000E+00 -0.85741220740E+03  0.85741220741E+03  0.50400001928E-02 0.  1.
    10030    2    1    2    0    0  0.00000000000E+00  0.00000000000E+00 -0.62102407224E+03  0.10938003426E+04  0.90040451534E+03 0.  0.
        5    1    3    3  502    0  0.33055450177E+03 -0.24356153308E+03 -0.53474317069E+03  0.67421127818E+03  0.46999998093E+01 0.  1.
       -5    1    3    3    0  502 -0.33055450177E+03  0.24356153308E+03 -0.86280901550E+02  0.41958906445E+03  0.46999998093E+01 0. -1.
</event>
<event>
 5   0  0.1635686E-03  0.8997285E+03  0.7818609E-02  0.9425921E-01
        2   -1    0    0  501    0  0.00000000000E+00  0.00000000000E+00  0.20723364968E+04  0.20723364968E+04  0.25500000920E-02 0. -1.
       -2   -1    0    0    0  501  0.00000000000E+00  0.00000000000E+00 -0.97656834573E+02  0.97656834606E+02  0.25500000920E-02 0.  1.
    10030    2    1    2    0    0  0.00000000000E+00  0.00000000000E+00  0.19746796623E+04  0.21699933314E+04  0.89972845345E+03 0.  0.
        5    1    3    3  502    0 -0.17992659210E+02  0.17988037938E+03 -0.61328558020E+01  0.18094305345E+03  0.46999998093E+01 0.  1.
       -5    1    3    3    0  502  0.17992659210E+02 -0.17988037938E+03  0.19808125181E+04  0.19890502780E+04  0.46999998093E+01 0. -1.
</event>
<event>
 5   0  0.1641516E-03  0.9012345E+03  0.7818609E-02  0.9424040E-01
       -2   -1    0    0    0  501  0.00000000000E+00  0.00000000000E+00  0.44489553183E+03  0.44489553183E+03  0.25500000920E-02 0. -1.
        2   -1    0    0  501    0  0.00000000000E+00  0.00000000000E+00 -0.45641259665E+03  0.45641259666E+03  0.25500000920E-02 0.  1.
    10030    2    1    2    0    0  0.00000000000E+00  0.00000000000E+00 -0.11517064827E+02  0.90130812850E+03  0.90123454201E+03 0.  0.
        1    1    3    3  502    0  0.27930566943E+03  0.50439743632E+02  0.34427018849E+03  0.44618133917E+03  0.50400001928E-02 0. -1.
       -1    1    3    3    0  502 -0.27930566943E+03 -0.50439743632E+02 -0.35578725332E+03  0.45512678933E+03  0.50400001928E-02 0.  1.
</event>
<event>
 5   0  0.9223454E-04  0.9082998E+03  0.7818609E-02  0.9415265E-01
       -1   -1    0    0    0  501  0.00000000000E+00  0.00000000000E+00  0.65740023436E+03  0.65740023438E+03  0.50400001928E-02 0. -1.
        1   -1    0    0  501    0  0.00000000000E+00  0.00000000000E+00 -0.31373906345E+03  0.31373906349E+03  0.50400001928E-02 0.  1.
    10030    2    1    2    0    0  0.00000000000E+00  0.00000000000E+00  0.34366117091E+03  0.97113929786E+03  0.90829980484E+03 0.  0.
        1    1    3    3  502    0  0.19531851967E+03  0.20683114088E+03  0.55033320763E+03  0.61951197277E+03  0.50400001928E-02 0. -1.
       -1    1    3    3    0  502 -0.19531851967E+03 -0.20683114088E+03 -0.20667203673E+03  0.35162732509E+03  0.50400001928E-02 0.  1.
</event>
<event>
 5   0  0.6375625E-04  0.8987312E+03  0.7818609E-02  0.9427169E-01
        3   -1    0    0  501    0  0.00000000000E+00  0.00000000000E+00  0.13322795789E+03  0.13322799617E+03  0.10100000352E+00 0. -1.
       -3   -1    0    0    0  501  0.00000000000E+00  0.00000000000E+00 -0.15156684313E+04  0.15156684346E+04  0.10100000352E+00 0.  1.
    10030    2    1    2    0    0  0.00000000000E+00  0.00000000000E+00 -0.13824404734E+04  0.16488964308E+04  0.89873120402E+03 0.  0.
        3    1    3    3  502    0 -0.74834421079E+02 -0.14945105691E+03 -0.14565176149E+04  0.14660761855E+04  0.10100000352E+00 0.  1.
       -3    1    3    3    0  502  0.74834421079E+02  0.14945105691E+03  0.74077141528E+02  0.18282024529E+03  0.10100000352E+00 0. -1.
</event>
<event>
 5   0  0.1007561E-03  0.8994261E+03  0.7818609E-02  0.9426299E-01
        1   -1    0    0  501    0  0.00000000000E+00  0.00000000000E+00  0.45133135120E+03  0.45133135123E+03  0.50400001928E-02 0. -1.
       -1   -1    0    0    0  501  0.00000000000E+00  0.00000000000E+00 -0.44810050674E+03  0.44810050677E+03  0.50400001928E-02 0.  1.
    10030    2    1    2    0    0  0.00000000000E+00  0.00000000000E+00  0.32308444651E+01  0.89943185800E+03  0.89942605523E+03 0.  0.
        2    1    3    3  502    0  0.10538008885E+03  0.44663544160E+02  0.43652282899E+03  0.45127815762E+03  0.25500000920E-02 0. -1.
       -2    1    3    3    0  502 -0.10538008885E+03 -0.44663544160E+02 -0.43329198453E+03  0.44815370038E+03  0.25500000920E-02 0.  1.
</event>
<event>
 5   0  0.9981885E-04  0.8978849E+03  0.7818609E-02  0.9428229E-01
       -1   -1    0    0    0  501  0.00000000000E+00  0.00000000000E+00  0.85861260026E+03  0.85861260027E+03  0.50400001928E-02 0.  1.
        1   -1    0    0  501    0  0.00000000000E+00  0.00000000000E+00 -0.23473838338E+03  0.23473838344E+03  0.50400001928E-02 0. -1.
    10030    2    1    2    0    0  0.00000000000E+00  0.00000000000E+00  0.62387421687E+03  0.10933509837E+04  0.89788492308E+03 0.  0.
        4    1    3    3  502    0  0.31562406517E+03 -0.14142182798E+03 -0.36607080008E+02  0.34779358124E+03  0.12699999809E+01 0. -1.
       -4    1    3    3    0  502 -0.31562406517E+03  0.14142182798E+03  0.66048129688E+03  0.74555740247E+03  0.12699999809E+01 0.  1.
</event>
<event>
 5   0  0.9981885E-04  0.8998893E+03  0.7818609E-02  0.9425720E-01
        1   -1    0    0  501    0  0.00000000000E+00  0.00000000000E+00  0.62438546838E+03  0.62438546840E+03  0.50400001928E-02 0. -1.
       -1   -1    0    0    0  501  0.00000000000E+00  0.00000000000E+00 -0.32423908331E+03  0.32423908335E+03  0.50400001928E-02 0.  1.
    10030    2    1    2    0    0  0.00000000000E+00  0.00000000000E+00  0.30014638507E+03  0.94862455175E+03  0.89988926414E+03 0.  0.
        4    1    3    3  502    0  0.23489371104E+03  0.78446521661E+02  0.54607669801E+03  0.59960844328E+03  0.12699999809E+01 0. -1.
       -4    1    3    3    0  502 -0.23489371104E+03 -0.78446521661E+02 -0.24593031294E+03  0.34901610847E+03  0.12699999809E+01 0.  1.
</event>
<event>
 5   0  0.9223454E-04  0.9007939E+03  0.7818609E-02  0.9424590E-01
       -1   -1    0    0    0  501  0.00000000000E+00  0.00000000000E+00  0.39848168034E+03  0.39848168037E+03  0.50400001928E-02 0. -1.
        1   -1    0    0  501    0  0.00000000000E+00  0.00000000000E+00 -0.50907590066E+03  0.50907590069E+03  0.50400001928E-02 0.  1.
    10030    2    1    2    0    0  0.00000000000E+00  0.00000000000E+00 -0.11059422033E+03  0.90755758106E+03  0.90079391726E+03 0.  0.
        1    1    3    3  502    0  0.41807542047E+03  0.56635752880E+01 -0.22400076164E+03  0.47433687873E+03  0.50400001928E-02 0. -1.
       -1    1    3    3    0  502 -0.41807542047E+03 -0.56635752880E+01  0.11340654132E+03  0.43322070232E+03  0.50400001928E-02 0.  1.
</event>
<event>
 5   0  0.1635686E-03  0.9008042E+03  0.7818609E-02  0.9424577E-01
       -2   -1    0    0    0  501  0.00000000000E+00  0.00000000000E+00  0.36130816030E+03  0.36130816031E+03  0.25500000920E-02 0.  1.
        2   -1    0    0  501    0  0.00000000000E+00  0.00000000000E+00 -0.56146550097E+03  0.56146550098E+03  0.25500000920E-02 0. -1.
    10030    2    1    2    0    0  0.00000000000E+00  0.00000000000E+00 -0.20015734068E+03  0.92277366129E+03  0.90080423453E+03 0.  0.
        5    1    3    3  502    0 -0.60512936860E+02 -0.10463936955E+03 -0.54451317214E+03  0.55778839878E+03  0.46999998093E+01 0. -1.
       -5    1    3    3    0  502  0.60512936860E+02  0.10463936955E+03  0.34435583146E+03  0.36498526251E+03  0.46999998093E+01 0.  1.
</event>
<event>
 5   0  0.1536020E-03  0.9008325E+03  0.7818609E-02  0.9424541E-01
       -2   -1    0    0    0  501  0.00000000000E+00  0.00000000000E+00  0.23322475628E+03  0.23322475630E+03  0.25500000920E-02 0.  1.
        2   -1    0    0  501    0  0.00000000000E+00  0.00000000000E+00 -0.86986812080E+03  0.86986812080E+03  0.25500000920E-02 0. -1.
    10030    2    1    2    0    0  0.00000000000E+00  0.00000000000E+00 -0.63664336452E+03  0.11030928771E+04  0.90083246052E+03 0.  0.
        2    1    3    3  502    0 -0.63704203841E+02 -0.16574076742E+03 -0.82520236328E+03  0.84408954972E+03  0.25500000920E-02 0. -1.
       -2    1    3    3    0  502  0.63704203841E+02  0.16574076742E+03  0.18855899876E+03  0.25900332738E+03  0.25500000920E-02 0.  1.
</event>
<event>
 5   0  0.1007561E-03  0.8991817E+03  0.7818609E-02  0.9426605E-01
        1   -1    0    0  501    0  0.00000000000E+00  0.00000000000E+00  0.34076440545E+03  0.34076440548E+03  0.50400001928E-02 0.  1.
       -1   -1    0    0    0  501  0.00000000000E+00  0.00000000000E+00 -0.59317212556E+03  0.59317212558E+03  0.50400001928E-02 0. -1.
    10030    2    1    2    0    0  0.00000000000E+00  0.00000000000E+00 -0.25240772011E+03  0.93393653106E+03  0.89918173185E+03 0.  0.
        2    1    3    3  502    0  0.92952061433E+02  0.31497509963E+03 -0.44512664126E+03  0.55316103069E+03  0.25500000920E-02 0. -1.
       -2    1    3    3    0  502 -0.92952061433E+02 -0.31497509963E+03  0.19271892115E+03  0.38077550037E+03  0.25500000920E-02 0.  1.
</event>
<event>
 5   0  0.9223454E-04  0.9025668E+03  0.7818609E-02  0.9422378E-01
       -1   -1    0    0    0  501  0.00000000000E+00  0.00000000000E+00  0.45286668728E+03  0.45286668731E+03  0.50400001928E-02 0. -1.
        1   -1    0    0  501    0  0.00000000000E+00  0.00000000000E+00 -0.44970566366E+03  0.44970566369E+03  0.50400001928E-02 0.  1.
    10030    2    1    2    0    0  0.00000000000E+00  0.00000000000E+00  0.31610236153E+01  0.90257235100E+03  0.90256681565E+03 0.  0.
        1    1    3    3  502    0  0.93530940203E+02  0.13189009454E+03 -0.41974579605E+03  0.44981059029E+03  0.50400001928E-02 0.  1.
       -1    1    3    3    0  502 -0.93530940203E+02 -0.13189009454E+03  0.42290681967E+03  0.45276176071E+03  0.50400001928E-02 0. -1.
</event>
<event>
 5   0  0.9321543E-04  0.8968441E+03  0.7818609E-02  0.9429535E-01
       -1   -1    0    0    0  501  0.00000000000E+00  0.00000000000E+00  0.10722233453E+04  0.10722233453E+04  0.50400001928E-02 0.  1.
        1   -1    0    0  501    0  0.00000000000E+00  0.00000000000E+00 -0.18753774536E+03  0.18753774543E+03  0.50400001928E-02 0. -1.
    10030    2    1    2    0    0  0.00000000000E+00  0.00000000000E+00  0.88468559995E+03  0.12597610908E+04  0.89684413085E+03 0.  0.
        3    1    3    3  502    0 -0.37349563077E+03  0.16049554259E+03  0.70820799706E+03  0.81658825775E+03  0.10100000352E+00 0.  1.
       -3    1    3    3    0  502  0.37349563077E+03 -0.16049554259E+03  0.17647760289E+03  0.44317283301E+03  0.10100000352E+00 0. -1.
</event>
<event>
 5   0  0.9223454E-04  0.8999837E+03  0.7818609E-02  0.9425602E-01
        1   -1    0    0  501    0  0.00000000000E+00  0.00000000000E+00  0.25680840341E+03  0.25680840346E+03  0.50400001928E-02 0. -1.
       -1   -1    0    0    0  501  0.00000000000E+00  0.00000000000E+00 -0.78849696316E+03  0.78849696318E+03  0.50400001928E-02 0.  1.
    10030    2    1    2    0    0  0.00000000000E+00  0.00000000000E+00 -0.53168855976E+03  0.10453053666E+04  0.89998365815E+03 0.  0.
        1    1    3    3  502    0 -0.20308333962E+03  0.17402399575E+03  0.15448237354E+03  0.30885594974E+03  0.50400001928E-02 0. -1.
       -1    1    3    3    0  502  0.20308333962E+03 -0.17402399575E+03 -0.68617093329E+03  0.73644941690E+03  0.50400001928E-02 0.  1.
</event>
<event>
 5   0  0.9981885E-04  0.9008096E+03  0.7818609E-02  0.9424570E-01
       -1   -1    0    0    0  501  0.00000000000E+00  0.00000000000E+00  0.31211861365E+03  0.31211861369E+03  0.50400001928E-02 0.  1.
        1   -1    0    0  501    0  0.00000000000E+00  0.00000000000E+00 -0.64995962106E+03  0.64995962108E+03  0.50400001928E-02 0. -1.
    10030    2    1    2    0    0  0.00000000000E+00  0.00000000000E+00 -0.33784100741E+03  0.96207823477E+03  0.90080962668E+03 0.  0.
        4    1    3    3  502    0  0.26863350324E+03 -0.13318137831E+03 -0.52787787311E+03  0.60708969717E+03  0.12699999809E+01 0. -1.
       -4    1    3    3    0  502 -0.26863350324E+03  0.13318137831E+03  0.19003686571E+03  0.35498853759E+03  0.12699999809E+01 0.  1.
</event>
<event>
 5   0  0.9981885E-04  0.9000361E+03  0.7818609E-02  0.9425536E-01
       -1   -1    0    0    0  501  0.00000000000E+00  0.00000000000E+00  0.41445929476E+03  0.41445929479E+03  0.50400001928E-02 0.  1.
        1   -1    0    0  501    0  0.00000000000E+00  0.00000000000E+00 -0.48862753926E+03  0.48862753929E+03  0.50400001928E-02 0. -1.
    10030    2    1    2    0    0  0.00000000000E+00  0.00000000000E+00 -0.74168244507E+02  0.90308683408E+03  0.90003605561E+03 0.  0.
        4    1    3    3  502    0 -0.10171396676E+03 -0.15329410656E+03  0.37500226266E+03  0.41769980134E+03  0.12699999809E+01 0.  1.
       -4    1    3    3    0  502  0.10171396676E+03  0.15329410656E+03 -0.44917050717E+03  0.48538703274E+03  0.12699999809E+01 0. -1.
</event>
<event>
 5   0  0.9321543E-04  0.9020402E+03  0.7818609E-02  0.9423035E-01
       -1   -1    0    0    0  501  0.00000000000E+00  0.00000000000E+00  0.39092890661E+03  0.39092890664E+03  0.50400001928E-02 0. -1.
        1   -1    0    0  501    0  0.00000000000E+00  0.00000000000E+00 -0.52034811978E+03  0.52034811980E+03  0.50400001928E-02 0.  1.
    10030    2    1    2    0    0  0.00000000000E+00  0.00000000000E+00 -0.12941921317E+03  0.91127702645E+03  0.90204017992E+03 0.  0.
        3    1    3    3  502    0  0.21028418680E+03  0.38520926125E+03  0.40343191509E+02  0.44071895520E+03  0.10100000352E+00 0. -1.
       -3    1    3    3    0  502 -0.21028418680E+03 -0.38520926125E+03 -0.16976240468E+03  0.47055807125E+03  0.10100000352E+00 0.  1.
</event>
<event>
 5   0  0.1536020E-03  0.9012102E+03  0.7818609E-02  0.9424070E-01
       -2   -1    0    0    0  501  0.00000000000E+00  0.00000000000E+00  0.16493148242E+03  0.16493148244E+03  0.25500000920E-02 0.  1.
        2   -1    0    0  501    0  0.00000000000E+00  0.00000000000E+00 -0.12310866094E+04  0.12310866094E+04  0.25500000920E-02 0. -1.
    10030    2    1    2    0    0  0.00000000000E+00  0.00000000000E+00 -0.10661551270E+04  0.13960180919E+04  0.90121016304E+03 0.  0.
        2    1    3    3  502    0 -0.31679451173E+03 -0.29569924925E+03 -0.72435919639E+03  0.84409303639E+03  0.25500000920E-02 0. -1.
       -2    1    3    3    0  502  0.31679451173E+03  0.29569924925E+03 -0.34179593062E+03  0.55192505548E+03  0.25500000920E-02 0.  1.
</event>
<event>
 5   0  0.9697941E-04  0.8999729E+03  0.7818609E-02  0.9425615E-01
        1   -1    0    0  501    0  0.00000000000E+00  0.00000000000E+00  0.12764717007E+04  0.12764717007E+04  0.50400001928E-02 0. -1.
       -1   -1    0    0    0  501  0.00000000000E+00  0.00000000000E+00 -0.15863086395E+03  0.15863086403E+03  0.50400001928E-02 0.  1.
    10030    2    1    2    0    0  0.00000000000E+00  0.00000000000E+00  0.11178408367E+04  0.14351025647E+04  0.89997290792E+03 0.  0.
        5    1    3    3  502    0  0.29709763526E+03  0.21446076461E+03  0.97537011328E+03  0.10419353974E+04  0.46999998093E+01 0. -1.
       -5    1    3    3    0  502 -0.29709763526E+03 -0.21446076461E+03  0.14247072345E+03  0.39316716734E+03  0.46999998093E+01 0.  1.
</event>
<event>
 5   0  0.1641516E-03  0.8990953E+03  0.7818609E-02  0.9426713E-01
        2   -1    0    0  501    0  0.00000000000E+00  0.00000000000E+00  0.23461032924E+04  0.23461032924E+04  0.25500000920E-02 0.  1.
       -2   -1    0    0    0  501  0.00000000000E+00  0.00000000000E+00 -0.86139889978E+02  0.86139890015E+02  0.25500000920E-02 0. -1.
    10030    2    1    2    0    0  0.00000000000E+00  0.00000000000E+00  0.22599634024E+04  0.24322431824E+04  0.89909527755E+03 0.  0.
        1    1    3    3  502    0  0.11362626785E+03 -0.10604329821E+03  0.22711097311E+04  0.22764216482E+04  0.50400001928E-02 0.  1.
       -1    1    3    3    0  502 -0.11362626785E+03  0.10604329821E+03 -0.11146328690E+02  0.15582153417E+03  0.50400001928E-02 0. -1.
</event>
<event>
 5   0  0.9321543E-04  0.9050376E+03  0.7818609E-02  0.9419306E-01
        1   -1    0    0  501    0  0.00000000000E+00  0.00000000000E+00  0.41057193144E+03  0.41057193147E+03  0.50400001928E-02 0.  1.
       -1   -1    0    0    0  501  0.00000000000E+00  0.00000000000E+00 -0.49875128843E+03  0.49875128845E+03  0.50400001928E-02 0. -1.
    10030    2    1    2    0    0  0.00000000000E+00  0.00000000000E+00 -0.88179356989E+02  0.90932321992E+03  0.90503763419E+03 0.  0.
        3    1    3    3  502    0  0.10979063326E+03 -0.18385246362E+03  0.35644265776E+03  0.41582098312E+03  0.10100000352E+00 0.  1.
       -3    1    3    3    0  502 -0.10979063326E+03  0.18385246362E+03 -0.44462201475E+03  0.49350223680E+03  0.10100000352E+00 0. -1.
</event>
<event>
 5   0  0.1641516E-03  0.9015798E+03  0.7818609E-02  0.9423609E-01
       -2   -1    0    0    0  501  0.00000000000E+00  0.00000000000E+00  0.18904292808E+03  0.18904292810E+03  0.25500000920E-02 0. -1.
        2   -1    0    0  501    0  0.00000000000E+00  0.00000000000E+00 -0.10749491553E+04  0.10749491553E+04  0.25500000920E-02 0.  1.
    10030    2    1    2    0    0  0.00000000000E+00  0.00000000000E+00 -0.88590622719E+03  0.12639920834E+04  0.90157980427E+03 0.  0.
        1    1    3    3  502    0  0.18119065332E+03  0.39751397262E+03 -0.59884440866E+03  0.74125706546E+03  0.50400001928E-02 0. -1.
       -1    1    3    3    0  502 -0.18119065332E+03 -0.39751397262E+03 -0.28706181853E+03  0.52273501792E+03  0.50400001928E-02 0.  1.
</event>
<event>
 5   0  0.9223454E-04  0.9003385E+03  0.7818609E-02  0.9425158E-01
        1   -1    0    0  501    0  0.00000000000E+00  0.00000000000E+00  0.71627214934E+03  0.71627214936E+03  0.50400001928E-02 0. -1.
       -1   -1    0    0    0  501  0.00000000000E+00  0.00000000000E+00 -0.28292648211E+03  0.28292648215E+03  0.50400001928E-02 0.  1.
    10030    2    1    2    0    0  0.00000000000E+00  0.00000000000E+00  0.43334566723E+03  0.99919863151E+03  0.90033851295E+03 0.  0.
        1    1    3    3  502    0 -0.14655806834E+03 -0.32772081002E+02  0.68765206119E+03  0.70385981131E+03  0.50400001928E-02 0. -1.
       -1    1    3    3    0  502  0.14655806834E+03  0.32772081002E+02 -0.25430639396E+03  0.29533882021E+03  0.50400001928E-02 0.  1.
</event>
<event>
 5   0  0.1635686E-03  0.8989541E+03  0.7818609E-02  0.9426890E-01
       -2   -1    0    0    0  501  0.00000000000E+00  0.00000000000E+00  0.23776985415E+03  0.23776985417E+03  0.25500000920E-02 0.  1.
        2   -1    0    0  501    0  0.00000000000E+00  0.00000000000E+00 -0.84968553587E+03  0.84968553587E+03  0.25500000920E-02 0. -1.
    10030    2    1    2    0    0  0.00000000000E+00  0.00000000000E+00 -0.61191568171E+03  0.10874553900E+04  0.89895407213E+03 0.  0.
        5    1    3    3  502    0 -0.43483880150E+02  0.24335193290E+02 -0.84630394586E+03  0.84778270108E+03  0.46999998093E+01 0. -1.
       -5    1    3    3    0  502  0.43483880150E+02 -0.24335193290E+02  0.23438826415E+03  0.23967268896E+03  0.46999998093E+01 0.  1.
</event>
<event>
 5   0  0.1007561E-03  0.9017162E+03  0.7818609E-02  0.9423439E-01
       -1   -1    0    0    0  501  0.00000000000E+00  0.00000000000E+00  0.16282379845E+03  0.16282379853E+03  0.50400001928E-02 0.  1.
        1   -1    0    0  501    0  0.00000000000E+00  0.00000000000E+00 -0.12484232949E+04  0.12484232949E+04  0.50400001928E-02 0. -1.
    10030    2    1    2    0    0  0.00000000000E+00  0.00000000000E+00 -0.10855994964E+04  0.14112470934E+04  0.90171619263E+03 0.  0.
        2    1    3    3  502    0 -0.27817888387E+03  0.16993814619E+03 -0.55335585025E+02  0.33064254406E+03  0.25500000920E-02 0.  1.
       -2    1    3    3    0  502  0.27817888387E+03 -0.16993814619E+03 -0.10302639114E+04  0.10806045494E+04  0.25500000920E-02 0. -1.
</event>
<event>
 5   0  0.1704416E-03  0.9002118E+03  0.7818609E-02  0.9425317E-01
       -2   -1    0    0    0  501  0.00000000000E+00  0.00000000000E+00  0.46905611187E+03  0.46905611188E+03  0.25500000920E-02 0.  1.
        2   -1    0    0  501    0  0.00000000000E+00  0.00000000000E+00 -0.43192124680E+03  0.43192124681E+03  0.25500000920E-02 0. -1.
    10030    2    1    2    0    0  0.00000000000E+00  0.00000000000E+00  0.37134865075E+02  0.90097735869E+03  0.90021175435E+03 0.  0.
        3    1    3    3  502    0  0.65933568709E+02 -0.44071027449E+03  0.82044624575E+02  0.45310496813E+03  0.10100000352E+00 0.  1.
       -3    1    3    3    0  502 -0.65933568709E+02  0.44071027449E+03 -0.44909759500E+02  0.44787239056E+03  0.10100000352E+00 0. -1.
</event>
<event>
 5   0  0.1536020E-03  0.8886851E+03  0.7818609E-02  0.9439837E-01
       -2   -1    0    0    0  501  0.00000000000E+00  0.00000000000E+00  0.16371277249E+03  0.16371277251E+03  0.25500000920E-02 0.  1.
        2   -1    0    0  501    0  0.00000000000E+00  0.00000000000E+00 -0.12060164041E+04  0.12060164041E+04  0.25500000920E-02 0. -1.
    10030    2    1    2    0    0  0.00000000000E+00  0.00000000000E+00 -0.10423036316E+04  0.13697291766E+04  0.88868507175E+03 0.  0.
        2    1    3    3  502    0  0.31607396779E+03 -0.71573315649E+02 -0.98970358034E+03  0.10414118636E+04  0.25500000920E-02 0. -1.
       -2    1    3    3    0  502 -0.31607396779E+03  0.71573315649E+02 -0.52600051239E+02  0.32831731301E+03  0.25500000920E-02 0.  1.
</event>
<event>
 5   0  0.6375625E-04  0.9011065E+03  0.7818609E-02  0.9424199E-01
       -4   -1    0    0    0  501  0.00000000000E+00  0.00000000000E+00  0.44049130743E+03  0.44049313822E+03  0.12699999809E+01 0.  1.
        4   -1    0    0  501    0  0.00000000000E+00  0.00000000000E+00 -0.46084139642E+03  0.46084314637E+03  0.12699999809E+01 0. -1.
    10030    2    1    2    0    0  0.00000000000E+00  0.00000000000E+00 -0.20350088992E+02  0.90133628459E+03  0.90110652634E+03 0.  0.
        3    1    3    3  502    0 -0.36066385968E+02  0.42539141151E+03  0.13387415894E+03  0.44741584439E+03  0.10100000352E+00 0.  1.
       -3    1    3    3    0  502  0.36066385968E+02 -0.42539141151E+03 -0.15422424793E+03  0.45392044020E+03  0.10100000352E+00 0. -1.
</event>
<event>
 5   0  0.1635686E-03  0.9004167E+03  0.7818609E-02  0.9425061E-01
       -2   -1    0    0    0  501  0.00000000000E+00  0.00000000000E+00  0.19490353040E+03  0.19490353042E+03  0.25500000920E-02 0.  1.
        2   -1    0    0  501    0  0.00000000000E+00  0.00000000000E+00 -0.10399379526E+04  0.10399379526E+04  0.25500000920E-02 0. -1.
    10030    2    1    2    0    0  0.00000000000E+00  0.00000000000E+00 -0.84503442217E+03  0.12348414830E+04  0.90041674432E+03 0.  0.
        5    1    3    3  502    0 -0.95697845197E+02 -0.24311024468E+03  0.80259403521E+02  0.27335751406E+03  0.46999998093E+01 0.  1.
       -5    1    3    3    0  502  0.95697845197E+02  0.24311024468E+03 -0.92529382569E+03  0.96148396892E+03  0.46999998093E+01 0. -1.
</event>
<event>
 5   0  0.1635686E-03  0.9002681E+03  0.7818609E-02  0.9425246E-01
        2   -1    0    0  501    0  0.00000000000E+00  0.00000000000E+00  0.75733052407E+03  0.75733052408E+03  0.25500000920E-02 0. -1.
       -2   -1    0    0    0  501  0.00000000000E+00  0.00000000000E+00 -0.26754588297E+03  0.26754588298E+03  0.25500000920E-02 0.  1.
    10030    2    1    2    0    0  0.00000000000E+00  0.00000000000E+00  0.48978464111E+03  0.10248764071E+04  0.90026810178E+03 0.  0.
        5    1    3    3  502    0 -0.27780875218E+03  0.83009756937E+02 -0.14704284881E+03  0.32513383693E+03  0.46999998093E+01 0.  1.
       -5    1    3    3    0  502  0.27780875218E+03 -0.83009756937E+02  0.63682748992E+03  0.69974257013E+03  0.46999998093E+01 0. -1.
</event>
<event>
 5   0  0.1704416E-03  0.8978002E+03  0.7818609E-02  0.9428335E-01
        2   -1    0    0  501    0  0.00000000000E+00  0.00000000000E+00  0.95226213645E+03  0.95226213646E+03  0.25500000920E-02 0.  1.
       -2   -1    0    0    0  501  0.00000000000E+00  0.00000000000E+00 -0.21161326211E+03  0.21161326212E+03  0.25500000920E-02 0. -1.
    10030    2    1    2    0    0  0.00000000000E+00  0.00000000000E+00  0.74064887434E+03  0.11638753986E+04  0.89780019400E+03 0.  0.
        3    1    3    3  502    0 -0.38340687698E+03 -0.19242578534E+03  0.19891610692E+03  0.47285953937E+03  0.10100000352E+00 0. -1.
       -3    1    3    3    0  502  0.38340687698E+03  0.19242578534E+03  0.54173276743E+03  0.69101585921E+03  0.10100000352E+00 0.  1.
</event>
<event>
 5   0  0.1641516E-03  0.8987321E+03  0.7818609E-02  0.9427168E-01
       -2   -1    0    0    0  501  0.00000000000E+00  0.00000000000E+00  0.42019620833E+03  0.42019620834E+03  0.25500000920E-02 0.  1.
        2   -1    0    0  501    0  0.00000000000E+00  0.00000000000E+00 -0.48056088149E+03  0.48056088149E+03  0.25500000920E-02 0. -1.
    10030    2    1    2    0    0  0.00000000000E+00  0.00000000000E+00 -0.60364673155E+02  0.90075708983E+03  0.89873212979E+03 0.  0.
        1    1    3    3  502    0 -0.14233768488E+03  0.42084082795E+03  0.37518666025E+02  0.44584152940E+03  0.50400001928E-02 0. -1.
       -1    1    3    3    0  502  0.14233768488E+03 -0.42084082795E+03 -0.97883339180E+02  0.45491556043E+03  0.50400001928E-02 0.  1.
</event>
<event>
 5   0  0.9697941E-04  0.9034468E+03  0.7818609E-02  0.9421283E-01
       -1   -1    0    0    0  501  0.00000000000E+00  0.00000000000E+00  0.16375150635E+03  0.16375150643E+03  0.50400001928E-02 0. -1.
        1   -1    0    0  501    0  0.00000000000E+00  0.00000000000E+00 -0.12461199910E+04  0.12461199910E+04  0.50400001928E-02 0.  1.
    10030    2    1    2    0    0  0.00000000000E+00  0.00000000000E+00 -0.10823684846E+04  0.14098714974E+04  0.90344679018E+03 0.  0.
        5    1    3    3  502    0 -0.56042760948E+02  0.20654876810E+03  0.79569936000E+02  0.22837830319E+03  0.46999998093E+01 0. -1.
       -5    1    3    3    0  502  0.56042760948E+02 -0.20654876810E+03 -0.11619384206E+04  0.11814931942E+04  0.46999998093E+01 0.  1.
</event>
<event>
 5   0  0.9223454E-04  0.9027094E+03  0.7818609E-02  0.9422201E-01
       -1   -1    0    0    0  501  0.00000000000E+00  0.00000000000E+00  0.11670716373E+03  0.11670716384E+03  0.50400001928E-02 0.  1.
        1   -1    0    0  501    0  0.00000000000E+00  0.00000000000E+00 -0.17455746352E+04  0.17455746352E+04  0.50400001928E-02 0. -1.
    10030    2    1    2    0    0  0.00000000000E+00  0.00000000000E+00 -0.16288674715E+04  0.18622817991E+04  0.90270939925E+03 0.  0.
        1    1    3    3  502    0  0.30290417563E+03 -0.14960541044E+03 -0.14319141610E+04  0.14712276788E+04  0.50400001928E-02 0. -1.
       -1    1    3    3    0  502 -0.30290417563E+03  0.14960541044E+03 -0.19695331056E+03  0.39105412031E+03  0.50400001928E-02 0.  1.
</event>
<event>
 5   0  0.6375625E-04  0.8998488E+03  0.7818609E-02  0.9425770E-01
       -3   -1    0    0    0  501  0.00000000000E+00  0.00000000000E+00  0.99501217070E+03  0.99501217583E+03  0.10100000352E+00 0. -1.
        3   -1    0    0  501    0  0.00000000000E+00  0.00000000000E+00 -0.20344669835E+03  0.20344672342E+03  0.10100000352E+00 0.  1.
    10030    2    1    2    0    0  0.00000000000E+00  0.00000000000E+00  0.79156547235E+03  0.11984588993E+04  0.89984878518E+03 0.  0.
        1    1    3    3  502    0 -0.67656943583E+02 -0.15313590465E+03  0.95198364712E+03  0.96659243309E+03  0.50400001928E-02 0. -1.
       -1    1    3    3    0  502  0.67656943583E+02  0.15313590465E+03 -0.16041817477E+03  0.23186646616E+03  0.50400001928E-02 0.  1.
</event>
<event>
 5   0  0.1536020E-03  0.9059403E+03  0.7818609E-02  0.9418186E-01
       -2   -1    0    0    0  501  0.00000000000E+00  0.00000000000E+00  0.16918150699E+03  0.16918150701E+03  0.25500000920E-02 0.  1.
        2   -1    0    0  501    0  0.00000000000E+00  0.00000000000E+00 -0.12127918174E+04  0.12127918174E+04  0.25500000920E-02 0. -1.
    10030    2    1    2    0    0  0.00000000000E+00  0.00000000000E+00 -0.10436103104E+04  0.13819733244E+04  0.90594027916E+03 0.  0.
        2    1    3    3  502    0  0.17941906956E+03 -0.22217217883E+02  0.11175964461E+03  0.21254417297E+03  0.25500000920E-02 0.  1.
       -2    1    3    3    0  502 -0.17941906956E+03  0.22217217883E+02 -0.11553699550E+04  0.11694291515E+04  0.25500000920E-02 0. -1.
</event>
<event>
 5   0  0.1007561E-03  0.9043276E+03  0.7818609E-02  0.9420188E-01
        1   -1    0    0  501    0  0.00000000000E+00  0.00000000000E+00  0.48494416347E+03  0.48494416350E+03  0.50400001928E-02 0.  1.
       -1   -1    0    0    0  501  0.00000000000E+00  0.00000000000E+00 -0.42159925029E+03  0.42159925032E+03  0.50400001928E-02 0. -1.
    10030    2    1    2    0    0  0.00000000000E+00  0.00000000000E+00  0.63344913180E+02  0.90654341382E+03  0.90432758617E+03 0.  0.
        2    1    3    3  502    0 -0.27461626114E+03  0.30706685558E+03 -0.15519231260E+03  0.44021449156E+03  0.25500000920E-02 0.  1.
       -2    1    3    3    0  502  0.27461626114E+03 -0.30706685558E+03  0.21853722578E+03  0.46632892226E+03  0.25500000920E-02 0. -1.
</event>
<event>
 5   0  0.1641516E-03  0.8995456E+03  0.7818609E-02  0.9426150E-01
       -2   -1    0    0    0  501  0.00000000000E+00  0.00000000000E+00  0.17333974388E+03  0.17333974390E+03  0.25500000920E-02 0. -1.
        2   -1    0    0  501    0  0.00000000000E+00  0.00000000000E+00 -0.11670465593E+04  0.11670465593E+04  0.25500000920E-02 0.  1.
    10030    2    1    2    0    0  0.00000000000E+00  0.00000000000E+00 -0.99370681544E+03  0.13403863032E+04  0.89954555572E+03 0.  0.
        1    1    3    3  502    0  0.20684644110E+03 -0.23428358961E+03 -0.14886880315E+02  0.31288315676E+03  0.50400001928E-02 0. -1.
       -1    1    3    3    0  502 -0.20684644110E+03  0.23428358961E+03 -0.97881993512E+03  0.10275031465E+04  0.50400001928E-02 0.  1.
</event>
<event>
 5   0  0.1635686E-03  0.8998398E+03  0.7818609E-02  0.9425782E-01
        2   -1    0    0  501    0  0.00000000000E+00  0.00000000000E+00  0.79144534002E+03  0.79144534003E+03  0.25500000920E-02 0.  1.
       -2   -1    0    0    0  501  0.00000000000E+00  0.00000000000E+00 -0.25576992462E+03  0.25576992463E+03  0.25500000920E-02 0. -1.
    10030    2    1    2    0    0  0.00000000000E+00  0.00000000000E+00  0.53567541541E+03  0.10472152647E+04  0.89983979677E+03 0.  0.
        5    1    3    3  502    0 -0.22169124973E+03 -0.17820893356E+03 -0.13781988099E+03  0.31610416607E+03  0.46999998093E+01 0. -1.
       -5    1    3    3    0  502  0.22169124973E+03  0.17820893356E+03  0.67349529640E+03  0.73111109859E+03  0.46999998093E+01 0.  1.
</event>
<event>
 5   0  0.6375625E-04  0.8998768E+03  0.7818609E-02  0.9425735E-01
        3   -1    0    0  501    0  0.00000000000E+00  0.00000000000E+00  0.46533041825E+03  0.46533042921E+03  0.10100000352E+00 0.  1.
       -3   -1    0    0    0  501  0.00000000000E+00  0.00000000000E+00 -0.43505550497E+03  0.43505551670E+03  0.10100000352E+00 0. -1.
    10030    2    1    2    0    0  0.00000000000E+00  0.00000000000E+00  0.30274913279E+02  0.90038594591E+03  0.89987681447E+03 0.  0.
        1    1    3    3  502    0 -0.20099410294E+03 -0.65475853216E+02 -0.38227595194E+03  0.43683019610E+03  0.50400001928E-02 0. -1.
       -1    1    3    3    0  502  0.20099410294E+03  0.65475853216E+02  0.41255086522E+03  0.46355574981E+03  0.50400001928E-02 0.  1.
</event>
<event>
 5   0  0.9321543E-04  0.8988103E+03  0.7818609E-02  0.9427070E-01
       -1   -1    0    0    0  501  0.00000000000E+00  0.00000000000E+00  0.62928709342E+03  0.62928709344E+03  0.50400001928E-02 0. -1.
        1   -1    0    0  501    0  0.00000000000E+00  0.00000000000E+00 -0.32094254300E+03  0.32094254304E+03  0.50400001928E-02 0.  1.
    10030    2    1    2    0    0  0.00000000000E+00  0.00000000000E+00  0.30834455042E+03  0.95022963649E+03  0.89881032498E+03 0.  0.
        3    1    3    3  502    0 -0.29609456062E+03 -0.18634889813E+02 -0.20269733703E+03  0.35931249434E+03  0.10100000352E+00 0.  1.
       -3    1    3    3    0  502  0.29609456062E+03  0.18634889813E+02  0.51104188745E+03  0.59091714215E+03  0.10100000352E+00 0. -1.
</event>
<event>
 5   0  0.9697941E-04  0.8996937E+03  0.7818609E-02  0.9425964E-01
        1   -1    0    0  501    0  0.00000000000E+00  0.00000000000E+00  0.14829408828E+04  0.14829408828E+04  0.50400001928E-02 0. -1.
       -1   -1    0    0    0  501  0.00000000000E+00  0.00000000000E+00 -0.13646006265E+03  0.13646006275E+03  0.50400001928E-02 0.  1.
    10030    2    1    2    0    0  0.00000000000E+00  0.00000000000E+00  0.13464808201E+04  0.16194009455E+04  0.89969373869E+03 0.  0.
        5    1    3    3  502    0 -0.37514060414E+03  0.82900669296E+02  0.25212544989E+03  0.45955666280E+03  0.46999998093E+01 0.  1.
       -5    1    3    3    0  502  0.37514060414E+03 -0.82900669296E+02  0.10943553702E+04  0.11598442827E+04  0.46999998093E+01 0. -1.
</event>
<event>
 5   0  0.1641516E-03  0.9009565E+03  0.7818609E-02  0.9424386E-01
        2   -1    0    0  501    0  0.00000000000E+00  0.00000000000E+00  0.11135924473E+04  0.11135924473E+04  0.25500000920E-02 0.  1.
       -2   -1    0    0    0  501  0.00000000000E+00  0.00000000000E+00 -0.18223065057E+03  0.18223065059E+03  0.25500000920E-02 0. -1.
    10030    2    1    2    0    0  0.00000000000E+00  0.00000000000E+00  0.93136179671E+03  0.12958230979E+04  0.90095654979E+03 0.  0.
        1    1    3    3  502    0  0.24120289654E+03 -0.27188764715E+01 -0.81514989519E+02  0.25461917275E+03  0.50400001928E-02 0. -1.
       -1    1    3    3    0  502 -0.24120289654E+03  0.27188764715E+01  0.10128767862E+04  0.10412039251E+04  0.50400001928E-02 0.  1.
</event>
<event>
 5   0  0.1630202E-03  0.8991830E+03  0.7818609E-02  0.9426603E-01
        2   -1    0    0  501    0  0.00000000000E+00  0.00000000000E+00  0.13899093748E+04  0.13899093748E+04  0.25500000920E-02 0.  1.
       -2   -1    0    0    0  501  0.00000000000E+00  0.00000000000E+00 -0.14542856331E+03  0.14542856333E+03  0.25500000920E-02 0. -1.
    10030    2    1    2    0    0  0.00000000000E+00  0.00000000000E+00  0.12444808115E+04  0.15353379382E+04  0.89918301480E+03 0.  0.
        4    1    3    3  502    0  0.37482369569E+03 -0.24711204212E+03  0.66313970599E+03  0.80082023374E+03  0.12699999809E+01 0.  1.
       -4    1    3    3    0  502 -0.37482369569E+03  0.24711204212E+03  0.58134110553E+03  0.73451770441E+03  0.12699999809E+01 0. -1.
</event>
<event>
 5   0  0.6375625E-04  0.9041141E+03  0.7818609E-02  0.9420453E-01
       -4   -1    0    0    0  501  0.00000000000E+00  0.00000000000E+00  0.24940146768E+03  0.24940470120E+03  0.12699999809E+01 0. -1.
        4   -1    0    0  501    0  0.00000000000E+00  0.00000000000E+00 -0.81937502441E+03  0.81937600864E+03  0.12699999809E+01 0.  1.
    10030    2    1    2    0    0  0.00000000000E+00  0.00000000000E+00 -0.56997355673E+03  0.10687807098E+04  0.90411412463E+03 0.  0.
        1    1    3    3  502    0  0.44212883711E+03 -0.49463681048E+01 -0.17375835162E+03  0.47507298381E+03  0.50400001928E-02 0. -1.
       -1    1    3    3    0  502 -0.44212883711E+03  0.49463681048E+01 -0.39621520511E+03  0.59370772603E+03  0.50400001928E-02 0.  1.
</event>
<event>
 5   0  0.9981885E-04  0.8956144E+03  0.7818609E-02  0.9431080E-01
        1   -1    0    0  501    0  0.00000000000E+00  0.00000000000E+00  0.67434934745E+03  0.67434934747E+03  0.50400001928E-02 0. -1.
       -1   -1    0    0    0  501  0.00000000000E+00  0.00000000000E+00 -0.29737003111E+03  0.29737003116E+03  0.50400001928E-02 0.  1.
    10030    2    1    2    0    0  0.00000000000E+00  0.00000000000E+00  0.37697931634E+03  0.97171937863E+03  0.89561439574E+03 0.  0.
        4    1    3    3  502    0 -0.15994412664E+03 -0.15742445594E+03 -0.23195059542E+03  0.32274955398E+03  0.12699999809E+01 0.  1.
       -4    1    3    3    0  502  0.15994412664E+03  0.15742445594E+03  0.60892991176E+03  0.64896982465E+03  0.12699999809E+01 0. -1.
</event>
<event>
 5   0  0.1704416E-03  0.8998070E+03  0.7818609E-02  0.9425823E-01
        2   -1    0    0  501    0  0.00000000000E+00  0.00000000000E+00  0.23910874374E+04  0.23910874374E+04  0.25500000920E-02 0.  1.
       -2   -1    0    0    0  501  0.00000000000E+00  0.00000000000E+00 -0.84653174440E+02  0.84653174479E+02  0.25500000920E-02 0. -1.
    10030    2    1    2    0    0  0.00000000000E+00  0.00000000000E+00  0.23064342630E+04  0.24757406119E+04  0.89980696150E+03 0.  0.
        3    1    3    3  502    0  0.22237973951E+02  0.16467296904E+03  0.23035625500E+04  0.23095480394E+04  0.10100000352E+00 0.  1.
       -3    1    3    3    0  502 -0.22237973951E+02 -0.16467296904E+03  0.28717129582E+01  0.16619257250E+03  0.10100000352E+00 0. -1.
</event>
<event>
 5   0  0.9223454E-04  0.9013017E+03  0.7818609E-02  0.9423956E-01
        1   -1    0    0  501    0  0.00000000000E+00  0.00000000000E+00  0.12966796027E+03  0.12966796037E+03  0.50400001928E-02 0.  1.
       -1   -1    0    0    0  501  0.00000000000E+00  0.00000000000E+00 -0.15662016527E+04  0.15662016527E+04  0.50400001928E-02 0. -1.
    10030    2    1    2    0    0  0.00000000000E+00  0.00000000000E+00 -0.14365336924E+04  0.16958696131E+04  0.90130166708E+03 0.  0.
        1    1    3    3  502    0  0.25218513264E+02 -0.44671945038E+03 -0.61708178545E+03  0.76222317645E+03  0.50400001928E-02 0.  1.
       -1    1    3    3    0  502 -0.25218513264E+02  0.44671945038E+03 -0.81945190700E+03  0.93364643665E+03  0.50400001928E-02 0. -1.
</event>
<event>
 5   0  0.1635686E-03  0.9000593E+03  0.7818609E-02  0.9425507E-01
        2   -1    0    0  501    0  0.00000000000E+00  0.00000000000E+00  0.17987110927E+04  0.17987110927E+04  0.25500000920E-02 0. -1.
       -2   -1    0    0    0  501  0.00000000000E+00  0.00000000000E+00 -0.11259546144E+03  0.11259546147E+03  0.25500000920E-02 0.  1.
    10030    2    1    2    0    0  0.00000000000E+00  0.00000000000E+00  0.16861156313E+04  0.19113065542E+04  0.90005934362E+03 0.  0.
        5    1    3    3  502    0  0.93891091859E+02  0.53590042176E+01 -0.91442755524E+02  0.13125594689E+03  0.46999998093E+01 0.  1.
       -5    1    3    3    0  502 -0.93891091859E+02 -0.53590042176E+01  0.17775583868E+04  0.17800506073E+04  0.46999998093E+01 0. -1.
</event>
<event>
 5   0  0.1007561E-03  0.9046356E+03  0.7818609E-02  0.9419805E-01
       -1   -1    0    0    0  501  0.00000000000E+00  0.00000000000E+00  0.59132847725E+03  0.59132847727E+03  0.50400001928E-02 0.  1.
        1   -1    0    0  501    0  0.00000000000E+00  0.00000000000E+00 -0.34598602126E+03  0.34598602130E+03  0.50400001928E-02 0. -1.
    10030    2    1    2    0    0  0.00000000000E+00  0.00000000000E+00  0.24534245599E+03  0.93731449858E+03  0.90463558880E+03 0.  0.
        2    1    3    3  502    0 -0.25033909443E+03 -0.32987591166E+03 -0.65845255465E+02  0.41931298211E+03  0.25500000920E-02 0. -1.
       -2    1    3    3    0  502  0.25033909443E+03  0.32987591166E+03  0.31118771145E+03  0.51800151646E+03  0.25500000920E-02 0.  1.
</event>
<event>
 5   0  0.1641516E-03  0.9011943E+03  0.7818609E-02  0.9424090E-01
       -2   -1    0    0    0  501  0.00000000000E+00  0.00000000000E+00  0.17853479527E+03  0.17853479529E+03  0.25500000920E-02 0. -1.
        2   -1    0    0  501    0  0.00000000000E+00  0.00000000000E+00 -0.11372448256E+04  0.11372448256E+04  0.25500000920E-02 0.  1.
    10030    2    1    2    0    0  0.00000000000E+00  0.00000000000E+00 -0.95871003034E+03  0.13157796209E+04  0.90119425681E+03 0.  0.
        1    1    3    3  502    0  0.22849723970E+03 -0.11343130739E+03  0.62947383357E+02  0.26275468244E+03  0.50400001928E-02 0. -1.
       -1    1    3    3    0  502 -0.22849723970E+03  0.11343130739E+03 -0.10216574137E+04  0.10530249385E+04  0.50400001928E-02 0.  1.
</event>
<event>
 5   0  0.1536020E-03  0.8998018E+03  0.7818609E-02  0.9425829E-01
       -2   -1    0    0    0  501  0.00000000000E+00  0.00000000000E+00  0.38581871314E+03  0.38581871315E+03  0.25500000920E-02 0.  1.
        2   -1    0    0  501    0  0.00000000000E+00  0.00000000000E+00 -0.52462677845E+03  0.52462677846E+03  0.25500000920E-02 0. -1.
    10030    2    1    2    0    0  0.00000000000E+00  0.00000000000E+00 -0.13880806531E+03  0.91044549161E+03  0.89980181940E+03 0.  0.
        2    1    3    3  502    0  0.16046573073E+03  0.18325423080E+02  0.35547466854E+03  0.39044501771E+03  0.25500000920E-02 0.  1.
       -2    1    3    3    0  502 -0.16046573073E+03 -0.18325423080E+02 -0.49428273385E+03  0.52000047390E+03  0.25500000920E-02 0. -1.
</event>
<event>
 5   0  0.9697941E-04  0.8995271E+03  0.7818609E-02  0.9426173E-01
       -1   -1    0    0    0  501  0.00000000000E+00  0.00000000000E+00  0.26245877742E+03  0.26245877747E+03  0.50400001928E-02 0.  1.
        1   -1    0    0  501    0  0.00000000000E+00  0.00000000000E+00 -0.77073921221E+03  0.77073921223E+03  0.50400001928E-02 0. -1.
    10030    2    1    2    0    0  0.00000000000E+00  0.00000000000E+00 -0.50828043480E+03  0.10331979897E+04  0.89952714551E+03 0.  0.
        5    1    3    3  502    0 -0.18233535014E+03 -0.34874932597E+03 -0.40907334900E+01  0.39358746979E+03  0.46999998093E+01 0.  1.
       -5    1    3    3    0  502  0.18233535014E+03  0.34874932597E+03 -0.50418970131E+03  0.63961051991E+03  0.46999998093E+01 0. -1.
</event>
<event>
 5   0  0.9981885E-04  0.9014028E+03  0.7818609E-02  0.9423829E-01
        1   -1    0    0  501    0  0.00000000000E+00  0.00000000000E+00  0.29560155026E+03  0.29560155030E+03  0.50400001928E-02 0.  1.
       -1   -1    0    0    0  501  0.00000000000E+00  0.00000000000E+00 -0.68718101814E+03  0.68718101816E+03  0.50400001928E-02 0. -1.
    10030    2    1    2    0    0  0.00000000000E+00  0.00000000000E+00 -0.39157946789E+03  0.98278256846E+03  0.90140284956E+03 0.  0.
        4    1    3    3  502    0  0.67761353649E+02  0.16869431809E+03 -0.64543098455E+03  0.67054615256E+03  0.12699999809E+01 0. -1.
       -4    1    3    3    0  502 -0.67761353649E+02 -0.16869431809E+03  0.25385151666E+03  0.31223641590E+03  0.12699999809E+01 0.  1.
</event>
<event>
 5   0  0.6375625E-04  0.9008874E+03  0.7818609E-02  0.9424473E-01
       -3   -1    0    0    0  501  0.00000000000E+00  0.00000000000E+00  0.82518959998E+03  0.82518960616E+03  0.10100000352E+00 0.  1.
        3   -1    0    0  501    0  0.00000000000E+00  0.00000000000E+00 -0.24588230366E+03  0.24588232440E+03  0.10100000352E+00 0. -1.
    10030    2    1    2    0    0  0.00000000000E+00  0.00000000000E+00  0.57930729633E+03  0.10710719306E+04  0.90088741631E+03 0.  0.
        4    1    3    3  502    0  0.16650378918E+03 -0.24525936471E+03 -0.11356355538E+03  0.31744914837E+03  0.12699999809E+01 0. -1.
       -4    1    3    3    0  502 -0.16650378918E+03  0.24525936471E+03  0.69287085171E+03  0.75362278219E+03  0.12699999809E+01 0.  1.
</event>
<event>
 5   0  0.1630202E-03  0.9001242E+03  0.7818609E-02  0.9425426E-01
        2   -1    0    0  501    0  0.00000000000E+00  0.00000000000E+00  0.13325855485E+04  0.13325855485E+04  0.25500000920E-02 0.  1.
       -2   -1    0    0    0  501  0.00000000000E+00  0.00000000000E+00 -0.15200215300E+03  0.15200215302E+03  0.25500000920E-02 0. -1.
    10030    2    1    2    0    0  0.00000000000E+00  0.00000000000E+00  0.11805833955E+04  0.14845877015E+04  0.90012415241E+03 0.  0.
        4    1    3    3  502    0  0.14325415309E+03 -0.32979248461E+03  0.14384991577E+03  0.38727154097E+03  0.12699999809E+01 0. -1.
       -4    1    3    3    0  502 -0.14325415309E+03  0.32979248461E+03  0.10367334797E+04  0.10973161605E+04  0.12699999809E+01 0.  1.
</event>
<event>
 5   0  0.1635686E-03  0.9003007E+03  0.7818609E-02  0.9425206E-01
        2   -1    0    0  501    0  0.00000000000E+00  0.00000000000E+00  0.71985829651E+03  0.71985829652E+03  0.25500000920E-02 0. -1.
       -2   -1    0    0    0  501  0.00000000000E+00  0.00000000000E+00 -0.28149335829E+03  0.28149335830E+03  0.25500000920E-02 0.  1.
    10030    2    1    2    0    0  0.00000000000E+00  0.00000000000E+00  0.43836493823E+03  0.10013516548E+04  0.90030068174E+03 0.  0.
        5    1    3    3  502    0 -0.39132746245E+02 -0.28414241983E+03 -0.16666262377E+03  0.33176317870E+03  0.46999998093E+01 0.  1.
       -5    1    3    3    0  502  0.39132746245E+02  0.28414241983E+03  0.60502756200E+03  0.66958847612E+03  0.46999998093E+01 0. -1.
</event>
<event>
 5   0  0.9223454E-04  0.8972600E+03  0.7818609E-02  0.9429013E-01
        1   -1    0    0  501    0  0.00000000000E+00  0.00000000000E+00  0.60100049070E+03  0.60100049072E+03  0.50400001928E-02 0. -1.
       -1   -1    0    0    0  501  0.00000000000E+00  0.00000000000E+00 -0.33488970847E+03  0.33488970851E+03  0.50400001928E-02 0.  1.
    10030    2    1    2    0    0  0.00000000000E+00  0.00000000000E+00  0.26611078223E+03  0.93589019923E+03  0.89726000502E+03 0.  0.
        1    1    3    3  502    0 -0.20674938028E+03  0.33131428225E+03  0.36336580905E+03  0.53343150552E+03  0.50400001928E-02 0. -1.
       -1    1    3    3    0  502  0.20674938028E+03 -0.33131428225E+03 -0.97255026829E+02  0.40245869371E+03  0.50400001928E-02 0.  1.
</event>
<event>
 5   0  0.1630202E-03  0.8998666E+03  0.7818609E-02  0.9425748E-01
       -2   -1    0    0    0  501  0.00000000000E+00  0.00000000000E+00  0.19789412440E+03  0.19789412441E+03  0.25500000920E-02 0.  1.
        2   -1    0    0  501    0  0.00000000000E+00  0.00000000000E+00 -0.10229710235E+04  0.10229710235E+04  0.25500000920E-02 0. -1.
    10030    2    1    2    0    0  0.00000000000E+00  0.00000000000E+00 -0.82507689910E+03  0.12208651479E+04  0.89986655676E+03 0.  0.
        4    1    3    3  502    0  0.18202061755E+03 -0.20801738195E+03  0.69116703258E+02  0.28492361779E+03  0.12699999809E+01 0.  1.
       -4    1    3    3    0  502 -0.18202061755E+03  0.20801738195E+03 -0.89419360236E+03  0.93594153012E+03  0.12699999809E+01 0. -1.
</event>
<event>
 5   0  0.6375625E-04  0.8921511E+03  0.7818609E-02  0.9435446E-01
        3   -1    0    0  501    0  0.00000000000E+00  0.00000000000E+00  0.26791777094E+03  0.26791778998E+03  0.10100000352E+00 0. -1.
       -3   -1    0    0    0  501  0.00000000000E+00  0.00000000000E+00 -0.74270325689E+03  0.74270326376E+03  0.10100000352E+00 0.  1.
    10030    2    1    2    0    0  0.00000000000E+00  0.00000000000E+00 -0.47478548595E+03  0.10106210537E+04  0.89215113999E+03 0.  0.
        4    1    3    3  502    0  0.43832794320E+03  0.79850485013E+02 -0.26206356179E+03  0.51690077294E+03  0.12699999809E+01 0.  1.
       -4    1    3    3    0  502 -0.43832794320E+03 -0.79850485013E+02 -0.21272192417E+03  0.49372028080E+03  0.12699999809E+01 0. -1.
</event>
<event>
 5   0  0.9321543E-04  0.9001955E+03  0.7818609E-02  0.9425337E-01
       -1   -1    0    0    0  501  0.00000000000E+00  0.00000000000E+00  0.18334606906E+03  0.18334606913E+03  0.50400001928E-02 0. -1.
        1   -1    0    0  501    0  0.00000000000E+00  0.00000000000E+00 -0.11049486959E+04  0.11049486959E+04  0.50400001928E-02 0.  1.
    10030    2    1    2    0    0  0.00000000000E+00  0.00000000000E+00 -0.92160262684E+03  0.12882947650E+04  0.90019553422E+03 0.  0.
        3    1    3    3  502    0  0.20517377859E+03  0.85404706159E+01  0.11239842023E+03  0.23409962437E+03  0.10100000352E+00 0. -1.
       -3    1    3    3    0  502 -0.20517377859E+03 -0.85404706159E+01 -0.10340010471E+04  0.10541951407E+04  0.10100000352E+00 0.  1.
</event>
<event>
 5   0  0.1007561E-03  0.8989366E+03  0.7818609E-02  0.9426912E-01
        1   -1    0    0  501    0  0.00000000000E+00  0.00000000000E+00  0.57748167937E+03  0.57748167939E+03  0.50400001928E-02 0. -1.
       -1   -1    0    0    0  501  0.00000000000E+00  0.00000000000E+00 -0.34983229263E+03  0.34983229267E+03  0.50400001928E-02 0.  1.
    10030    2    1    2    0    0  0.00000000000E+00  0.00000000000E+00  0.22764938674E+03  0.92731397206E+03  0.89893657145E+03 0.  0.
        2    1    3    3  502    0  0.25815827180E+03 -0.15646292173E+03  0.45734666640E+03  0.54798933608E+03  0.25500000920E-02 0. -1.
       -2    1    3    3    0  502 -0.25815827180E+03  0.15646292173E+03 -0.22969727966E+03  0.37932463599E+03  0.25500000920E-02 0.  1.
</event>
<event>
 5   0  0.1007561E-03  0.9004523E+03  0.7818609E-02  0.9425016E-01
        1   -1    0    0  501    0  0.00000000000E+00  0.00000000000E+00  0.18618244260E+04  0.18618244260E+04  0.50400001928E-02 0.  1.
       -1   -1    0    0    0  501  0.00000000000E+00  0.00000000000E+00 -0.10887362309E+03  0.10887362321E+03  0.50400001928E-02 0. -1.
    10030    2    1    2    0    0  0.00000000000E+00  0.00000000000E+00  0.17529508029E+04  0.19706980492E+04  0.90045226622E+03 0.  0.
        2    1    3    3  502    0  0.40885907384E+03  0.16932397586E+03  0.10578388927E+04  0.11466732203E+04  0.25500000920E-02 0.  1.
       -2    1    3    3    0  502 -0.40885907384E+03 -0.16932397586E+03  0.69511191014E+03  0.82402482892E+03  0.25500000920E-02 0. -1.
</event>
<event>
 5   0  0.9223454E-04  0.9016710E+03  0.7818609E-02  0.9423495E-01
       -1   -1    0    0    0  501  0.00000000000E+00  0.00000000000E+00  0.70352384854E+03  0.70352384856E+03  0.50400001928E-02 0. -1.
        1   -1    0    0  501    0  0.00000000000E+00  0.00000000000E+00 -0.28890654685E+03  0.28890654689E+03  0.50400001928E-02 0.  1.
    10030    2    1    2    0    0  0.00000000000E+00  0.00000000000E+00  0.41461730169E+03  0.99243039545E+03  0.90167099485E+03 0.  0.
        1    1    3    3  502    0 -0.10323491213E+03  0.56327712735E+01  0.69029950812E+03  0.69799898720E+03  0.50400001928E-02 0. -1.
       -1    1    3    3    0  502  0.10323491213E+03 -0.56327712735E+01 -0.27568220643E+03  0.29443140825E+03  0.50400001928E-02 0.  1.
</event>
<event>
 5   0  0.9697941E-04  0.9118355E+03  0.7818609E-02  0.9410906E-01
       -1   -1    0    0    0  501  0.00000000000E+00  0.00000000000E+00  0.10131847026E+04  0.10131847027E+04  0.50400001928E-02 0.  1.
        1   -1    0    0  501    0  0.00000000000E+00  0.00000000000E+00 -0.20515607238E+03  0.20515607244E+03  0.50400001928E-02 0. -1.
    10030    2    1    2    0    0  0.00000000000E+00  0.00000000000E+00  0.80802863027E+03  0.12183407751E+04  0.91183549883E+03 0.  0.
        5    1    3    3  502    0  0.31461310291E+03  0.29936826630E+03  0.58932960688E+03  0.73207529594E+03  0.46999998093E+01 0. -1.
       -5    1    3    3    0  502 -0.31461310291E+03 -0.29936826630E+03  0.21869902339E+03  0.48626547915E+03  0.46999998093E+01 0.  1.
</event>
<event>
 5   0  0.1007561E-03  0.9004493E+03  0.7818609E-02  0.9425020E-01
        1   -1    0    0  501    0  0.00000000000E+00  0.00000000000E+00  0.50705189051E+03  0.50705189053E+03  0.50400001928E-02 0. -1.
       -1   -1    0    0    0  501  0.00000000000E+00  0.00000000000E+00 -0.39976629312E+03  0.39976629315E+03  0.50400001928E-02 0.  1.
    10030    2    1    2    0    0  0.00000000000E+00  0.00000000000E+00  0.10728559739E+03  0.90681818369E+03  0.90044934275E+03 0.  0.
        2    1    3    3  502    0 -0.22128755478E+03  0.10691778490E+03 -0.32625558333E+03  0.40846334021E+03  0.25500000920E-02 0.  1.
       -2    1    3    3    0  502  0.22128755478E+03 -0.10691778490E+03  0.43354118072E+03  0.49835484348E+03  0.25500000920E-02 0. -1.
</event>
<event>
 5   0  0.1630202E-03  0.8999111E+03  0.7818609E-02  0.9425693E-01
        2   -1    0    0  501    0  0.00000000000E+00  0.00000000000E+00  0.64234341510E+03  0.64234341510E+03  0.25500000920E-02 0. -1.
       -2   -1    0    0    0  501  0.00000000000E+00  0.00000000000E+00 -0.31518961840E+03  0.31518961841E+03  0.25500000920E-02 0.  1.
    10030    2    1    2    0    0  0.00000000000E+00  0.00000000000E+00  0.32715379670E+03  0.95753303352E+03  0.89991105315E+03 0.  0.
        4    1    3    3  502    0  0.35050166988E+03 -0.97170635325E+02  0.44542418373E+03  0.57506336112E+03  0.12699999809E+01 0. -1.
       -4    1    3    3    0  502 -0.35050166988E+03  0.97170635325E+02 -0.11827038703E+03  0.38246967240E+03  0.12699999809E+01 0.  1.
</event>
<event>
 5   0  0.1630202E-03  0.8982250E+03  0.7818609E-02  0.9427803E-01
       -2   -1    0    0    0  501  0.00000000000E+00  0.00000000000E+00  0.32101074282E+03  0.32101074283E+03  0.25500000920E-02 0.  1.
        2   -1    0    0  501    0  0.00000000000E+00  0.00000000000E+00 -0.62833425156E+03  0.62833425156E+03  0.25500000920E-02 0. -1.
    10030    2    1    2    0    0  0.00000000000E+00  0.00000000000E+00 -0.30732350873E+03  0.94934499440E+03  0.89822501600E+03 0.  0.
        4    1    3    3  502    0 -0.25488371740E+03  0.35718345176E+03 -0.52536161672E+02  0.44193595553E+03  0.12699999809E+01 0.  1.
       -4    1    3    3    0  502  0.25488371740E+03 -0.35718345176E+03 -0.25478734706E+03  0.50740903887E+03  0.12699999809E+01 0. -1.
</event>
<event>
 5   0  0.1630202E-03  0.8991451E+03  0.7818609E-02  0.9426651E-01
        2   -1    0    0  501    0  0.00000000000E+00  0.00000000000E+00  0.90387883864E+03  0.90387883864E+03  0.25500000920E-02 0.  1.
       -2   -1    0    0    0  501  0.00000000000E+00  0.00000000000E+00 -0.22360903294E+03  0.22360903296E+03  0.25500000920E-02 0. -1.
    10030    2    1    2    0    0  0.00000000000E+00  0.00000000000E+00  0.68026980569E+03  0.11274878716E+04  0.89914508955E+03 0.  0.
        4    1    3    3  502    0 -0.99056394922E+02 -0.41981190516E+03  0.49904452978E+03  0.65962205898E+03  0.12699999809E+01 0.  1.
       -4    1    3    3    0  502  0.99056394922E+02  0.41981190516E+03  0.18122527591E+03  0.46786581262E+03  0.12699999809E+01 0. -1.
</event>
<event>
 5   0  0.9981885E-04  0.8964161E+03  0.7818609E-02  0.9430073E-01
       -1   -1    0    0    0  501  0.00000000000E+00  0.00000000000E+00  0.31283711414E+03  0.31283711418E+03  0.50400001928E-02 0.  1.
        1   -1    0    0  501    0  0.00000000000E+00  0.00000000000E+00 -0.64215668866E+03  0.64215668868E+03  0.50400001928E-02 0. -1.
    10030    2    1    2    0    0  0.00000000000E+00  0.00000000000E+00 -0.32931957452E+03  0.95499380287E+03  0.89641607602E+03 0.  0.
        4    1    3    3  502    0 -0.30887707643E+03  0.10584461158E+03 -0.49177618978E+03  0.59029955437E+03  0.12699999809E+01 0. -1.
       -4    1    3    3    0  502  0.30887707643E+03 -0.10584461158E+03  0.16245661526E+03  0.36469424850E+03  0.12699999809E+01 0.  1.
</event>
<event>
 5   0  0.9981885E-04  0.9002160E+03  0.7818609E-02  0.9425311E-01
        1   -1    0    0  501    0  0.00000000000E+00  0.00000000000E+00  0.30900215623E+03  0.30900215627E+03  0.50400001928E-02 0.  1.
       -1   -1    0    0    0  501  0.00000000000E+00  0.00000000000E+00 -0.65564984830E+03  0.65564984832E+03  0.50400001928E-02 0. -1.
    10030    2    1    2    0    0  0.00000000000E+00  0.00000000000E+00 -0.34664769207E+03  0.96465200459E+03  0.90021601160E+03 0.  0.
        4    1    3    3  502    0 -0.12297096381E+03  0.12987193084E+03  0.26928735084E+03  0.32327367134E+03  0.12699999809E+01 0.  1.
       -4    1    3    3    0  502  0.12297096381E+03 -0.12987193084E+03 -0.61593504292E+03  0.64137833324E+03  0.12699999809E+01 0. -1.
</event>
<event>
 5   0  0.1635686E-03  0.8866254E+03  0.7818609E-02  0.9442456E-01
       -2   -1    0    0    0  501  0.00000000000E+00  0.00000000000E+00  0.10992722129E+04  0.10992722129E+04  0.25500000920E-02 0. -1.
        2   -1    0    0  501    0  0.00000000000E+00  0.00000000000E+00 -0.17877842380E+03  0.17877842382E+03  0.25500000920E-02 0.  1.
    10030    2    1    2    0    0  0.00000000000E+00  0.00000000000E+00  0.92049378912E+03  0.12780506367E+04  0.88662540808E+03 0.  0.
        5    1    3    3  502    0 -0.19062861685E+02  0.42917276015E+03  0.30266093803E+03  0.52552676825E+03  0.46999998093E+01 0.  1.
       -5    1    3    3    0  502  0.19062861685E+02 -0.42917276015E+03  0.61783285109E+03  0.75252386848E+03  0.46999998093E+01 0. -1.
</event>
<event>
 5   0  0.9697941E-04  0.8975457E+03  0.7818609E-02  0.9428655E-01
        1   -1    0    0  501    0  0.00000000000E+00  0.00000000000E+00  0.65753948839E+03  0.65753948841E+03  0.50400001928E-02 0. -1.
       -1   -1    0    0    0  501  0.00000000000E+00  0.00000000000E+00 -0.30628891716E+03  0.30628891720E+03  0.50400001928E-02 0.  1.
    10030    2    1    2    0    0  0.00000000000E+00  0.00000000000E+00  0.35125057123E+03  0.96382840562E+03  0.89754567108E+03 0.  0.
        5    1    3    3  502    0 -0.32004024106E+03  0.27781253354E+03  0.33406588501E+03  0.53965513545E+03  0.46999998093E+01 0. -1.
       -5    1    3    3    0  502  0.32004024106E+03 -0.27781253354E+03  0.17184686221E+02  0.42417327017E+03  0.46999998093E+01 0.  1.
</event>
<event>
 5   0  0.9697941E-04  0.9007426E+03  0.7818609E-02  0.9424654E-01
        1   -1    0    0  501    0  0.00000000000E+00  0.00000000000E+00  0.12518001712E+04  0.12518001713E+04  0.50400001928E-02 0.  1.
       -1   -1    0    0    0  501  0.00000000000E+00  0.00000000000E+00 -0.16203409138E+03  0.16203409146E+03  0.50400001928E-02 0. -1.
    10030    2    1    2    0    0  0.00000000000E+00  0.00000000000E+00  0.10897660799E+04  0.14138342627E+04  0.90074259009E+03 0.  0.
        5    1    3    3  502    0  0.42868674594E+03 -0.11597287051E+03  0.66224050545E+03  0.79737482397E+03  0.46999998093E+01 0. -1.
       -5    1    3    3    0  502 -0.42868674594E+03  0.11597287051E+03  0.42752557442E+03  0.61645943875E+03  0.46999998093E+01 0.  1.
</event>
<event>
 5   0  0.1536020E-03  0.8995456E+03  0.7818609E-02  0.9426150E-01
       -2   -1    0    0    0  501  0.00000000000E+00  0.00000000000E+00  0.61525951455E+03  0.61525951455E+03  0.25500000920E-02 0.  1.
        2   -1    0    0  501    0  0.00000000000E+00  0.00000000000E+00 -0.32879712100E+03  0.32879712101E+03  0.25500000920E-02 0. -1.
    10030    2    1    2    0    0  0.00000000000E+00  0.00000000000E+00  0.28646239355E+03  0.94405663557E+03  0.89954556763E+03 0.  0.
        2    1    3    3  502    0  0.13144526009E+03  0.55786810275E+01 -0.30815158805E+03  0.33506175447E+03  0.25500000920E-02 0. -1.
       -2    1    3    3    0  502 -0.13144526009E+03 -0.55786810275E+01  0.59461398160E+03  0.60899488110E+03  0.25500000920E-02 0.  1.
</event>
<event>
 5   0  0.9321543E-04  0.8996571E+03  0.7818609E-02  0.9426010E-01
        1   -1    0    0  501    0  0.00000000000E+00  0.00000000000E+00  0.15606612564E+03  0.15606612572E+03  0.50400001928E-02 0. -1.
       -1   -1    0    0    0  501  0.00000000000E+00  0.00000000000E+00 -0.12965384867E+04  0.12965384867E+04  0.50400001928E-02 0.  1.
    10030    2    1    2    0    0  0.00000000000E+00  0.00000000000E+00 -0.11404723611E+04  0.14526046124E+04  0.89965713119E+03 0.  0.
        3    1    3    3  502    0 -0.41307465030E+03 -0.50437954426E+02 -0.84600591661E+03  0.94281529215E+03  0.10100000352E+00 0.  1.
       -3    1    3    3    0  502  0.41307465030E+03  0.50437954426E+02 -0.29446644446E+03  0.50978932029E+03  0.10100000352E+00 0. -1.
</event>
<event>
 5   0  0.1704416E-03  0.8999045E+03  0.7818609E-02  0.9425701E-01
       -2   -1    0    0    0  501  0.00000000000E+00  0.00000000000E+00  0.36956029062E+03  0.36956029063E+03  0.25500000920E-02 0.  1.
        2   -1    0    0  501    0  0.00000000000E+00  0.00000000000E+00 -0.54783217761E+03  0.54783217762E+03  0.25500000920E-02 0. -1.
    10030    2    1    2    0    0  0.00000000000E+00  0.00000000000E+00 -0.17827188700E+03  0.91739246825E+03  0.89990448110E+03 0.  0.
        3    1    3    3  502    0 -0.13471932570E+03  0.32392746062E+03  0.19808147870E+03  0.40288283516E+03  0.10100000352E+00 0.  1.
       -3    1    3    3    0  502  0.13471932570E+03 -0.32392746062E+03 -0.37635336570E+03  0.51450963309E+03  0.10100000352E+00 0. -1.
</event>
<event>
 5   0  0.6375625E-04  0.9014330E+03  0.7818609E-02  0.9423792E-01
       -3   -1    0    0    0  501  0.00000000000E+00  0.00000000000E+00  0.57390524174E+03  0.57390525062E+03  0.10100000352E+00 0.  1.
        3   -1    0    0  501    0  0.00000000000E+00  0.00000000000E+00 -0.35397021691E+03  0.35397023132E+03  0.10100000352E+00 0. -1.
    10030    2    1    2    0    0  0.00000000000E+00  0.00000000000E+00  0.21993502482E+03  0.92787548194E+03  0.90143302294E+03 0.  0.
        4    1    3    3  502    0 -0.33637946820E+03  0.21444533991E+03 -0.10596162347E+03  0.41275589515E+03  0.12699999809E+01 0. -1.
       -4    1    3    3    0  502  0.33637946820E+03 -0.21444533991E+03  0.32589664830E+03  0.51511958680E+03  0.12699999809E+01 0.  1.
</event>
<event>
 5   0  0.1630202E-03  0.8932450E+03  0.7818609E-02  0.9434065E-01
       -2   -1    0    0    0  501  0.00000000000E+00  0.00000000000E+00  0.56175972651E+03  0.56175972652E+03  0.25500000920E-02 0. -1.
        2   -1    0    0  501    0  0.00000000000E+00  0.00000000000E+00 -0.35508355092E+03  0.35508355093E+03  0.25500000920E-02 0.  1.
    10030    2    1    2    0    0  0.00000000000E+00  0.00000000000E+00  0.20667617559E+03  0.91684327745E+03  0.89324495736E+03 0.  0.
        4    1    3    3  502    0 -0.33059995494E+03 -0.29843798923E+03  0.13751123079E+03  0.46612499946E+03  0.12699999809E+01 0.  1.
       -4    1    3    3    0  502  0.33059995494E+03  0.29843798923E+03  0.69164944800E+02  0.45071827799E+03  0.12699999809E+01 0. -1.
</event>
<event>
 5   0  0.1630202E-03  0.9008764E+03  0.7818609E-02  0.9424486E-01
       -2   -1    0    0    0  501  0.00000000000E+00  0.00000000000E+00  0.22978213633E+03  0.22978213634E+03  0.25500000920E-02 0. -1.
        2   -1    0    0  501    0  0.00000000000E+00  0.00000000000E+00 -0.88298679528E+03  0.88298679529E+03  0.25500000920E-02 0.  1.
    10030    2    1    2    0    0  0.00000000000E+00  0.00000000000E+00 -0.65320465896E+03  0.11127689316E+04  0.90087644476E+03 0.  0.
        4    1    3    3  502    0 -0.25103660703E+03  0.11997470882E+03 -0.76415107686E+03  0.81322923581E+03  0.12699999809E+01 0.  1.
       -4    1    3    3    0  502  0.25103660703E+03 -0.11997470882E+03  0.11094641790E+03  0.29953969581E+03  0.12699999809E+01 0. -1.
</event>
<event>
 5   0  0.1007561E-03  0.8978936E+03  0.7818609E-02  0.9428218E-01
       -1   -1    0    0    0  501  0.00000000000E+00  0.00000000000E+00  0.31189048764E+03  0.31189048768E+03  0.50400001928E-02 0.  1.
        1   -1    0    0  501    0  0.00000000000E+00  0.00000000000E+00 -0.64623078981E+03  0.64623078983E+03  0.50400001928E-02 0. -1.
    10030    2    1    2    0    0  0.00000000000E+00  0.00000000000E+00 -0.33434030217E+03  0.95812127751E+03  0.89789361550E+03 0.  0.
        2    1    3    3  502    0  0.68742719125E+02 -0.42409822667E+03 -0.28169879163E+02  0.43055593063E+03  0.25500000920E-02 0.  1.
       -2    1    3    3    0  502 -0.68742719125E+02  0.42409822667E+03 -0.30617042301E+03  0.52756534688E+03  0.25500000920E-02 0. -1.
</event>
<event>
 5   0  0.1641516E-03  0.8998505E+03  0.7818609E-02  0.9425768E-01
       -2   -1    0    0    0  501  0.00000000000E+00  0.00000000000E+00  0.66961950127E+03  0.66961950127E+03  0.25500000920E-02 0. -1.
        2   -1    0    0  501    0  0.00000000000E+00  0.00000000000E+00 -0.30231010519E+03  0.30231010520E+03  0.25500000920E-02 0.  1.
    10030    2    1    2    0    0  0.00000000000E+00  0.00000000000E+00  0.36730939608E+03  0.97192960647E+03  0.89985052508E+03 0.  0.
        1    1    3    3  502    0  0.23060891487E+03 -0.20422753806E+03  0.53786100020E+03  0.61982563232E+03  0.50400001928E-02 0. -1.
       -1    1    3    3    0  502 -0.23060891487E+03  0.20422753806E+03 -0.17055160412E+03  0.35210397415E+03  0.50400001928E-02 0.  1.
</event>
<event>
 5   0  0.9223454E-04  0.8921507E+03  0.7818609E-02  0.9435447E-01
       -1   -1    0    0    0  501  0.00000000000E+00  0.00000000000E+00  0.46214866419E+03  0.46214866422E+03  0.50400001928E-02 0. -1.
        1   -1    0    0  501    0  0.00000000000E+00  0.00000000000E+00 -0.43056108603E+03  0.43056108606E+03  0.50400001928E-02 0.  1.
    10030    2    1    2    0    0  0.00000000000E+00  0.00000000000E+00  0.31587578161E+02  0.89270975028E+03  0.89215072895E+03 0.  0.
        1    1    3    3  502    0 -0.22586726824E+03  0.19482895541E+03 -0.31608991388E+03  0.43461152586E+03  0.50400001928E-02 0.  1.
       -1    1    3    3    0  502  0.22586726824E+03 -0.19482895541E+03  0.34767749204E+03  0.45809822443E+03  0.50400001928E-02 0. -1.
</event>
<event>
 5   0  0.9697941E-04  0.8991099E+03  0.7818609E-02  0.9426695E-01
       -1   -1    0    0    0  501  0.00000000000E+00  0.00000000000E+00  0.32969326028E+03  0.32969326032E+03  0.50400001928E-02 0. -1.
        1   -1    0    0  501    0  0.00000000000E+00  0.00000000000E+00 -0.61299300721E+03  0.61299300723E+03  0.50400001928E-02 0.  1.
    10030    2    1    2    0    0  0.00000000000E+00  0.00000000000E+00 -0.28329974693E+03  0.94268626755E+03  0.89910992232E+03 0.  0.
        5    1    3    3  502    0 -0.21182552075E+03  0.23169392018E+03  0.19569798070E+03  0.36996204337E+03  0.46999998093E+01 0. -1.
       -5    1    3    3    0  502  0.21182552075E+03 -0.23169392018E+03 -0.47899772762E+03  0.57272422417E+03  0.46999998093E+01 0.  1.
</event>
<event>
 5   0  0.1641516E-03  0.8994178E+03  0.7818609E-02  0.9426309E-01
        2   -1    0    0  501    0  0.00000000000E+00  0.00000000000E+00  0.63368818770E+03  0.63368818771E+03  0.25500000920E-02 0.  1.
       -2   -1    0    0    0  501  0.00000000000E+00  0.00000000000E+00 -0.31914452555E+03  0.31914452556E+03  0.25500000920E-02 0. -1.
    10030    2    1    2    0    0  0.00000000000E+00  0.00000000000E+00  0.31454366215E+03  0.95283271327E+03  0.89941784732E+03 0.  0.
        1    1    3    3  502    0 -0.11954642769E+03 -0.79383725260E+02 -0.29423764781E+03  0.32736664098E+03  0.50400001928E-02 0. -1.
       -1    1    3    3    0  502  0.11954642769E+03  0.79383725260E+02  0.60878130996E+03  0.62546607229E+03  0.50400001928E-02 0.  1.
</event>
<event>
 5   0  0.9697941E-04  0.9000055E+03  0.7818609E-02  0.9425575E-01
        1   -1    0    0  501    0  0.00000000000E+00  0.00000000000E+00  0.43750029273E+03  0.43750029276E+03  0.50400001928E-02 0. -1.
       -1   -1    0    0    0  501  0.00000000000E+00  0.00000000000E+00 -0.46286246222E+03  0.46286246225E+03  0.50400001928E-02 0.  1.
    10030    2    1    2    0    0  0.00000000000E+00  0.00000000000E+00 -0.25362169489E+02  0.90036275500E+03  0.90000547274E+03 0.  0.
        5    1    3    3  502    0 -0.26521849671E+03  0.10156993012E+01 -0.37633397286E+03  0.46042505554E+03  0.46999998093E+01 0.  1.
       -5    1    3    3    0  502  0.26521849671E+03 -0.10156993012E+01  0.35097180337E+03  0.43993769946E+03  0.46999998093E+01 0. -1.
</event>
<event>
 5   0  0.9321543E-04  0.9029194E+03  0.7818609E-02  0.9421939E-01
       -1   -1    0    0    0  501  0.00000000000E+00  0.00000000000E+00  0.37228216123E+03  0.37228216126E+03  0.50400001928E-02 0. -1.
        1   -1    0    0  501    0  0.00000000000E+00  0.00000000000E+00 -0.54747677812E+03  0.54747677814E+03  0.50400001928E-02 0.  1.
    10030    2    1    2    0    0  0.00000000000E+00  0.00000000000E+00 -0.17519461689E+03  0.91975893940E+03  0.90291935012E+03 0.  0.
        3    1    3    3  502    0 -0.11009287373E+03 -0.99975576704E+01  0.35828232661E+03  0.37494883354E+03  0.10100000352E+00 0. -1.
       -3    1    3    3    0  502  0.11009287373E+03  0.99975576704E+01 -0.53347694350E+03  0.54481010587E+03  0.10100000352E+00 0.  1.
</event>
<event>
 5   0  0.9981885E-04  0.9000554E+03  0.7818609E-02  0.9425512E-01
       -1   -1    0    0    0  501  0.00000000000E+00  0.00000000000E+00  0.49446834303E+03  0.49446834305E+03  0.50400001928E-02 0. -1.
        1   -1    0    0  501    0  0.00000000000E+00  0.00000000000E+00 -0.40958116399E+03  0.40958116402E+03  0.50400001928E-02 0.  1.
    10030    2    1    2    0    0  0.00000000000E+00  0.00000000000E+00  0.84887179038E+02  0.90404950707E+03  0.90005537500E+03 0.  0.
        4    1    3    3  502    0 -0.24301123492E+03  0.27699192206E+03 -0.21705209809E+03  0.42765898958E+03  0.12699999809E+01 0.  1.
       -4    1    3    3    0  502  0.24301123492E+03 -0.27699192206E+03  0.30193927713E+03  0.47639051749E+03  0.12699999809E+01 0. -1.
</event>
<event>
 5   0  0.1635686E-03  0.8982698E+03  0.7818609E-02  0.9427747E-01
       -2   -1    0    0    0  501  0.00000000000E+00  0.00000000000E+00  0.22866594804E+03  0.22866594805E+03  0.25500000920E-02 0. -1.
        2   -1    0    0  501    0  0.00000000000E+00  0.00000000000E+00 -0.88216968973E+03  0.88216968974E+03  0.25500000920E-02 0.  1.
    10030    2    1    2    0    0  0.00000000000E+00  0.00000000000E+00 -0.65350374170E+03  0.11108356378E+04  0.89826982236E+03 0.  0.
        5    1    3    3  502    0 -0.97335740018E+01  0.44238492288E+03 -0.23175644140E+03  0.49953208164E+03  0.46999998093E+01 0.  1.
       -5    1    3    3    0  502  0.97335740018E+01 -0.44238492288E+03 -0.42174730030E+03  0.61130355615E+03  0.46999998093E+01 0. -1.
</event>
<event>
 5   0  0.1641516E-03  0.8895365E+03  0.7818609E-02  0.9438757E-01
       -2   -1    0    0    0  501  0.00000000000E+00  0.00000000000E+00  0.15071263949E+03  0.15071263952E+03  0.25500000920E-02 0. -1.
        2   -1    0    0  501    0  0.00000000000E+00  0.00000000000E+00 -0.13125561497E+04  0.13125561497E+04  0.25500000920E-02 0.  1.
    10030    2    1    2    0    0  0.00000000000E+00  0.00000000000E+00 -0.11618435102E+04  0.14632687892E+04  0.88953651262E+03 0.  0.
        1    1    3    3  502    0 -0.91256258539E+02  0.40193844578E+03 -0.30597602981E+03  0.51332596833E+03  0.50400001928E-02 0.  1.
       -1    1    3    3    0  502  0.91256258539E+02 -0.40193844578E+03 -0.85586748038E+03  0.94994282087E+03  0.50400001928E-02 0. -1.
</event>
<event>
 5   0  0.1007561E-03  0.9060557E+03  0.7818609E-02  0.9418043E-01
       -1   -1    0    0    0  501  0.00000000000E+00  0.00000000000E+00  0.43903059844E+03  0.43903059847E+03  0.50400001928E-02 0. -1.
        1   -1    0    0  501    0  0.00000000000E+00  0.00000000000E+00 -0.46747134478E+03  0.46747134481E+03  0.50400001928E-02 0.  1.
    10030    2    1    2    0    0  0.00000000000E+00  0.00000000000E+00 -0.28440746340E+02  0.90650194328E+03  0.90605568103E+03 0.  0.
        2    1    3    3  502    0 -0.88312555345E+02  0.19738942936E+03 -0.41250252735E+03  0.46574674377E+03  0.25500000920E-02 0.  1.
       -2    1    3    3    0  502  0.88312555345E+02 -0.19738942936E+03  0.38406178101E+03  0.44075519951E+03  0.25500000920E-02 0. -1.
</event>
<event>
 5   0  0.9697941E-04  0.8848953E+03  0.7818609E-02  0.9444663E-01
        1   -1    0    0  501    0  0.00000000000E+00  0.00000000000E+00  0.64075035565E+03  0.64075035567E+03  0.50400001928E-02 0.  1.
       -1   -1    0    0    0  501  0.00000000000E+00  0.00000000000E+00 -0.30551666926E+03  0.30551666930E+03  0.50400001928E-02 0. -1.
    10030    2    1    2    0    0  0.00000000000E+00  0.00000000000E+00  0.33523368639E+03  0.94626702497E+03  0.88489528084E+03 0.  0.
        5    1    3    3  502    0 -0.34056016960E+03 -0.28040915019E+03  0.20352080130E+03  0.48585319510E+03  0.46999998093E+01 0. -1.
       -5    1    3    3    0  502  0.34056016960E+03  0.28040915019E+03  0.13171288509E+03  0.46041382986E+03  0.46999998093E+01 0.  1.
</event>
<event>
 5   0  0.1704416E-03  0.9017851E+03  0.7818609E-02  0.9423353E-01
        2   -1    0    0  501    0  0.00000000000E+00  0.00000000000E+00  0.58095245390E+03  0.58095245391E+03  0.25500000920E-02 0. -1.
       -2   -1    0    0    0  501  0.00000000000E+00  0.00000000000E+00 -0.34994965009E+03  0.34994965009E+03  0.25500000920E-02 0.  1.
    10030    2    1    2    0    0  0.00000000000E+00  0.00000000000E+00  0.23100280382E+03  0.93090210400E+03  0.90178513619E+03 0.  0.
        3    1    3    3  502    0 -0.11426899796E+03  0.11609641667E+01  0.56575579605E+03  0.57718141229E+03  0.10100000352E+00 0. -1.
       -3    1    3    3    0  502  0.11426899796E+03 -0.11609641667E+01 -0.33475299223E+03  0.35372069171E+03  0.10100000352E+00 0.  1.
</event>
<event>
 5   0  0.1641516E-03  0.9049698E+03  0.7818609E-02  0.9419390E-01
        2   -1    0    0  501    0  0.00000000000E+00  0.00000000000E+00  0.45679923251E+03  0.45679923252E+03  0.25500000920E-02 0. -1.
       -2   -1    0    0    0  501  0.00000000000E+00  0.00000000000E+00 -0.44821127042E+03  0.44821127043E+03  0.25500000920E-02 0.  1.
    10030    2    1    2    0    0  0.00000000000E+00  0.00000000000E+00  0.85879620920E+01  0.90501050294E+03  0.90496975493E+03 0.  0.
        1    1    3    3  502    0  0.29871367656E+03  0.31865274236E+03  0.12250731319E+03  0.45362701924E+03  0.50400001928E-02 0. -1.
       -1    1    3    3    0  502 -0.29871367656E+03 -0.31865274236E+03 -0.11391935109E+03  0.45138348370E+03  0.50400001928E-02 0.  1.
</event>
<event>
 5   0  0.6375625E-04  0.8993884E+03  0.7818609E-02  0.9426346E-01
        3   -1    0    0  501    0  0.00000000000E+00  0.00000000000E+00  0.70221448644E+03  0.70221449371E+03  0.10100000352E+00 0.  1.
       -3   -1    0    0    0  501  0.00000000000E+00  0.00000000000E+00 -0.28798162591E+03  0.28798164362E+03  0.10100000352E+00 0. -1.
    10030    2    1    2    0    0  0.00000000000E+00  0.00000000000E+00  0.41423286053E+03  0.99019613733E+03  0.89938841867E+03 0.  0.
        3    1    3    3  502    0  0.11347167887E+03  0.72794928392E+02 -0.26520949796E+03  0.29750800244E+03  0.10100000352E+00 0. -1.
       -3    1    3    3    0  502 -0.11347167887E+03 -0.72794928392E+02  0.67944235849E+03  0.69268813489E+03  0.10100000352E+00 0.  1.
</event>
<event>
 5   0  0.9697941E-04  0.9001895E+03  0.7818609E-02  0.9425345E-01
        1   -1    0    0  501    0  0.00000000000E+00  0.00000000000E+00  0.47755994298E+03  0.47755994300E+03  0.50400001928E-02 0.  1.
       -1   -1    0    0    0  501  0.00000000000E+00  0.00000000000E+00 -0.42420908328E+03  0.42420908331E+03  0.50400001928E-02 0. -1.
    10030    2    1    2    0    0  0.00000000000E+00  0.00000000000E+00  0.53350859693E+02  0.90176902632E+03  0.90018945928E+03 0.  0.
        5    1    3    3  502    0 -0.27545386391E+03 -0.30130567647E+03  0.21648940076E+03  0.46211437162E+03  0.46999998093E+01 0. -1.
       -5    1    3    3    0  502  0.27545386391E+03  0.30130567647E+03 -0.16313854106E+03  0.43965465470E+03  0.46999998093E+01 0.  1.
</event>
<event>
 5   0  0.1007561E-03  0.8988996E+03  0.7818609E-02  0.9426958E-01
        1   -1    0    0  501    0  0.00000000000E+00  0.00000000000E+00  0.20331146130E+03  0.20331146136E+03  0.50400001928E-02 0.  1.
       -1   -1    0    0    0  501  0.00000000000E+00  0.00000000000E+00 -0.99357474292E+03  0.99357474294E+03  0.50400001928E-02 0. -1.
    10030    2    1    2    0    0  0.00000000000E+00  0.00000000000E+00 -0.79026328163E+03  0.11968862043E+04  0.89889962274E+03 0.  0.
        2    1    3    3  502    0  0.18552791166E+03  0.24902601879E+03  0.37494835157E+02  0.31279454392E+03  0.25500000920E-02 0.  1.
       -2    1    3    3    0  502 -0.18552791166E+03 -0.24902601879E+03 -0.82775811678E+03  0.88409166037E+03  0.25500000920E-02 0. -1.
</event>
<event>
 5   0  0.9697941E-04  0.9096556E+03  0.7818609E-02  0.9413591E-01
       -1   -1    0    0    0  501  0.00000000000E+00  0.00000000000E+00  0.11829318269E+03  0.11829318280E+03  0.50400001928E-02 0.  1.
        1   -1    0    0  501    0  0.00000000000E+00  0.00000000000E+00 -0.17487765937E+04  0.17487765937E+04  0.50400001928E-02 0. -1.
    10030    2    1    2    0    0  0.00000000000E+00  0.00000000000E+00 -0.16304834110E+04  0.18670697765E+04  0.90965564735E+03 0.  0.
        5    1    3    3  502    0  0.40417969119E+02 -0.45144332649E+03 -0.73812743957E+03  0.86619218208E+03  0.46999998093E+01 0.  1.
       -5    1    3    3    0  502 -0.40417969119E+02  0.45144332649E+03 -0.89235597147E+03  0.10008775945E+04  0.46999998093E+01 0. -1.
</event>
<event>
 5   0  0.1007561E-03  0.8984929E+03  0.7818609E-02  0.9427467E-01
       -1   -1    0    0    0  501  0.00000000000E+00  0.00000000000E+00  0.27484041808E+03  0.27484041813E+03  0.50400001928E-02 0. -1.
        1   -1    0    0  501    0  0.00000000000E+00  0.00000000000E+00 -0.73432558957E+03  0.73432558958E+03  0.50400001928E-02 0.  1.
    10030    2    1    2    0    0  0.00000000000E+00  0.00000000000E+00 -0.45948517148E+03  0.10091660077E+04  0.89849285379E+03 0.  0.
        2    1    3    3  502    0 -0.41348973690E+03 -0.94872655649E+02 -0.63725979557E+02  0.42899368735E+03  0.25500000920E-02 0. -1.
       -2    1    3    3    0  502  0.41348973690E+03  0.94872655649E+02 -0.39575919193E+03  0.58017232036E+03  0.25500000920E-02 0.  1.
</event>
<event>
 5   0  0.9697941E-04  0.9006965E+03  0.7818609E-02  0.9424711E-01
        1   -1    0    0  501    0  0.00000000000E+00  0.00000000000E+00  0.37215136854E+03  0.37215136857E+03  0.50400001928E-02 0.  1.
       -1   -1    0    0    0  501  0.00000000000E+00  0.00000000000E+00 -0.54497599781E+03  0.54497599783E+03  0.50400001928E-02 0. -1.
    10030    2    1    2    0    0  0.00000000000E+00  0.00000000000E+00 -0.17282462928E+03  0.91712736640E+03  0.90069653809E+03 0.  0.
        5    1    3    3  502    0 -0.19717189679E+03  0.29827577379E+03  0.19234495229E+03  0.40603431479E+03  0.46999998093E+01 0.  1.
       -5    1    3    3    0  502  0.19717189679E+03 -0.29827577379E+03 -0.36516958157E+03  0.51109305162E+03  0.46999998093E+01 0. -1.
</event>
<event>
 5   0  0.6375625E-04  0.8905777E+03  0.7818609E-02  0.9437437E-01
       -4   -1    0    0    0  501  0.00000000000E+00  0.00000000000E+00  0.52395216804E+03  0.52395370721E+03  0.12699999809E+01 0. -1.
        4   -1    0    0  501    0  0.00000000000E+00  0.00000000000E+00 -0.37843244897E+03  0.37843457999E+03  0.12699999809E+01 0.  1.
    10030    2    1    2    0    0  0.00000000000E+00  0.00000000000E+00  0.14551971907E+03  0.90238828720E+03  0.89057769579E+03 0.  0.
        5    1    3    3  502    0 -0.11480630261E+03  0.74009840024E+02 -0.35665529814E+03  0.38194637742E+03  0.46999998093E+01 0.  1.
       -5    1    3    3    0  502  0.11480630261E+03 -0.74009840024E+02  0.50217501721E+03  0.52044190977E+03  0.46999998093E+01 0. -1.
</event>
<event>
 5   0  0.1704416E-03  0.9003201E+03  0.7818609E-02  0.9425181E-01
       -2   -1    0    0    0  501  0.00000000000E+00  0.00000000000E+00  0.27389111929E+03  0.27389111930E+03  0.25500000920E-02 0. -1.
        2   -1    0    0  501    0  0.00000000000E+00  0.00000000000E+00 -0.73987093641E+03  0.73987093641E+03  0.25500000920E-02 0.  1.
    10030    2    1    2    0    0  0.00000000000E+00  0.00000000000E+00 -0.46597981712E+03  0.10137620557E+04  0.90032011842E+03 0.  0.
        3    1    3    3  502    0 -0.35727359752E+03 -0.27174870804E+03 -0.27121240181E+03  0.52445015102E+03  0.10100000352E+00 0. -1.
       -3    1    3    3    0  502  0.35727359752E+03  0.27174870804E+03 -0.19476741531E+03  0.48931190469E+03  0.10100000352E+00 0.  1.
</event>
<event>
 5   0  0.1536020E-03  0.9029506E+03  0.7818609E-02  0.9421901E-01
        2   -1    0    0  501    0  0.00000000000E+00  0.00000000000E+00  0.79362177190E+03  0.79362177191E+03  0.25500000920E-02 0.  1.
       -2   -1    0    0    0  501  0.00000000000E+00  0.00000000000E+00 -0.25683513543E+03  0.25683513545E+03  0.25500000920E-02 0. -1.
    10030    2    1    2    0    0  0.00000000000E+00  0.00000000000E+00  0.53678663647E+03  0.10504569074E+04  0.90295061942E+03 0.  0.
        2    1    3    3  502    0 -0.12148423360E+03 -0.39787527932E+03  0.64334487617E+02  0.42095377800E+03  0.25500000920E-02 0. -1.
       -2    1    3    3    0  502  0.12148423360E+03  0.39787527932E+03  0.47245214885E+03  0.62950312936E+03  0.25500000920E-02 0.  1.
</event>
<event>
 5   0  0.1641516E-03  0.9002744E+03  0.7818609E-02  0.9425238E-01
        2   -1    0    0  501    0  0.00000000000E+00  0.00000000000E+00  0.13109782313E+04  0.13109782313E+04  0.25500000920E-02 0.  1.
       -2   -1    0    0    0  501  0.00000000000E+00  0.00000000000E+00 -0.15455902112E+03  0.15455902114E+03  0.25500000920E-02 0. -1.
    10030    2    1    2    0    0  0.00000000000E+00  0.00000000000E+00  0.11564192102E+04  0.14655372524E+04  0.90027442961E+03 0.  0.
        1    1    3    3  502    0  0.28705189026E+03  0.28304982274E+02  0.15652078017E+02  0.28886839096E+03  0.50400001928E-02 0. -1.
       -1    1    3    3    0  502 -0.28705189026E+03 -0.28304982274E+02  0.11407671322E+04  0.11766688615E+04  0.50400001928E-02 0.  1.
</event>
<event>
 5   0  0.1007561E-03  0.9000551E+03  0.7818609E-02  0.9425513E-01
       -1   -1    0    0    0  501  0.00000000000E+00  0.00000000000E+00  0.11254853544E+03  0.11254853555E+03  0.50400001928E-02 0.  1.
        1   -1    0    0  501    0  0.00000000000E+00  0.00000000000E+00 -0.17994439910E+04  0.17994439910E+04  0.50400001928E-02 0. -1.
    10030    2    1    2    0    0  0.00000000000E+00  0.00000000000E+00 -0.16868954555E+04  0.19119925265E+04  0.90005507810E+03 0.  0.
        2    1    3    3  502    0  0.43217469095E+03 -0.10144467049E+03 -0.68649612892E+03  0.81752242764E+03  0.25500000920E-02 0. -1.
       -2    1    3    3    0  502 -0.43217469095E+03  0.10144467049E+03 -0.10003993266E+04  0.10944700989E+04  0.25500000920E-02 0.  1.
</event>
<event>
 5   0  0.1630202E-03  0.9004745E+03  0.7818609E-02  0.9424988E-01
       -2   -1    0    0    0  501  0.00000000000E+00  0.00000000000E+00  0.48106532534E+03  0.48106532535E+03  0.25500000920E-02 0.  1.
        2   -1    0    0  501    0  0.00000000000E+00  0.00000000000E+00 -0.42138471690E+03  0.42138471691E+03  0.25500000920E-02 0. -1.
    10030    2    1    2    0    0  0.00000000000E+00  0.00000000000E+00  0.59680608440E+02  0.90245004226E+03  0.90047448812E+03 0.  0.
        4    1    3    3  502    0 -0.29339992557E+02 -0.61452301333E+02  0.47587260087E+03  0.48072192135E+03  0.12699999809E+01 0.  1.
       -4    1    3    3    0  502  0.29339992557E+02  0.61452301333E+02 -0.41619199243E+03  0.42172812091E+03  0.12699999809E+01 0. -1.
</event>
<event>
 5   0  0.9223454E-04  0.9015839E+03  0.7818609E-02  0.9423604E-01
        1   -1    0    0  501    0  0.00000000000E+00  0.00000000000E+00  0.12127443865E+04  0.12127443865E+04  0.50400001928E-02 0.  1.
       -1   -1    0    0    0  501  0.00000000000E+00  0.00000000000E+00 -0.16756488251E+03  0.16756488258E+03  0.50400001928E-02 0. -1.
    10030    2    1    2    0    0  0.00000000000E+00  0.00000000000E+00  0.10451795040E+04  0.13803092691E+04  0.90158387451E+03 0.  0.
        1    1    3    3  502    0  0.38515996548E+03  0.13364741111E+02  0.88061244357E+03  0.96125183542E+03  0.50400001928E-02 0.  1.
       -1    1    3    3    0  502 -0.38515996548E+03 -0.13364741111E+02  0.16456706042E+03  0.41905743367E+03  0.50400001928E-02 0. -1.
</event>
<event>
 5   0  0.9981885E-04  0.9000626E+03  0.7818609E-02  0.9425503E-01
        1   -1    0    0  501    0  0.00000000000E+00  0.00000000000E+00  0.14874320531E+04  0.14874320532E+04  0.50400001928E-02 0.  1.
       -1   -1    0    0    0  501  0.00000000000E+00  0.00000000000E+00 -0.13615962052E+03  0.13615962061E+03  0.50400001928E-02 0. -1.
    10030    2    1    2    0    0  0.00000000000E+00  0.00000000000E+00  0.13512724326E+04  0.16235916738E+04  0.90006262890E+03 0.  0.
        4    1    3    3  502    0  0.19744632514E+03 -0.11105076481E+03  0.13770806310E+04  0.13955894815E+04  0.12699999809E+01 0.  1.
       -4    1    3    3    0  502 -0.19744632514E+03  0.11105076481E+03 -0.25808198376E+02  0.22800219227E+03  0.12699999809E+01 0. -1.
</event>
<event>
 5   0  0.1704416E-03  0.9026155E+03  0.7818609E-02  0.9422318E-01
       -2   -1    0    0    0  501  0.00000000000E+00  0.00000000000E+00  0.78400980326E+03  0.78400980326E+03  0.25500000920E-02 0.  1.
        2   -1    0    0  501    0  0.00000000000E+00  0.00000000000E+00 -0.25979097752E+03  0.25979097753E+03  0.25500000920E-02 0. -1.
    10030    2    1    2    0    0  0.00000000000E+00  0.00000000000E+00  0.52421882574E+03  0.10438007808E+04  0.90261547335E+03 0.  0.
        3    1    3    3  502    0  0.30499959084E+03  0.23986884360E+03  0.52863014706E+03  0.65575273931E+03  0.10100000352E+00 0.  1.
       -3    1    3    3    0  502 -0.30499959084E+03 -0.23986884360E+03 -0.44113213195E+01  0.38804804148E+03  0.10100000352E+00 0. -1.
</event>
<event>
 5   0  0.9697941E-04  0.8999808E+03  0.7818609E-02  0.9425605E-01
        1   -1    0    0  501    0  0.00000000000E+00  0.00000000000E+00  0.14485973983E+04  0.14485973983E+04  0.50400001928E-02 0. -1.
       -1   -1    0    0    0  501  0.00000000000E+00  0.00000000000E+00 -0.13978443530E+03  0.13978443539E+03  0.50400001928E-02 0.  1.
    10030    2    1    2    0    0  0.00000000000E+00  0.00000000000E+00  0.13088129630E+04  0.15883818337E+04  0.89998082063E+03 0.  0.
        5    1    3    3  502    0 -0.74684195261E+02 -0.35658850530E+03  0.18833689947E+03  0.41015359176E+03  0.46999998093E+01 0.  1.
       -5    1    3    3    0  502  0.74684195261E+02  0.35658850530E+03  0.11204760635E+04  0.11782282419E+04  0.46999998093E+01 0. -1.
</event>
<event>
 5   0  0.1704416E-03  0.8918145E+03  0.7818609E-02  0.9435872E-01
       -2   -1    0    0    0  501  0.00000000000E+00  0.00000000000E+00  0.73112142742E+03  0.73112142743E+03  0.25500000920E-02 0. -1.
        2   -1    0    0  501    0  0.00000000000E+00  0.00000000000E+00 -0.27195658551E+03  0.27195658552E+03  0.25500000920E-02 0.  1.
    10030    2    1    2    0    0  0.00000000000E+00  0.00000000000E+00  0.45916484191E+03  0.10030780129E+04  0.89181452556E+03 0.  0.
        3    1    3    3  502    0  0.30430793609E+03  0.12831234372E+03  0.56657152759E+03  0.65579774595E+03  0.10100000352E+00 0. -1.
       -3    1    3    3    0  502 -0.30430793609E+03 -0.12831234372E+03 -0.10740668567E+03  0.34728026700E+03  0.10100000352E+00 0.  1.
</event>
<event>
 5   0  0.6375625E-04  0.9008993E+03  0.7818609E-02  0.9424458E-01
        3   -1    0    0  501    0  0.00000000000E+00  0.00000000000E+00  0.33977662796E+03  0.33977664297E+03  0.10100000352E+00 0.  1.
       -3   -1    0    0    0  501  0.00000000000E+00  0.00000000000E+00 -0.59717132279E+03  0.59717133133E+03  0.10100000352E+00 0. -1.
    10030    2    1    2    0    0  0.00000000000E+00  0.00000000000E+00 -0.25739469483E+03  0.93694797430E+03  0.90089926052E+03 0.  0.
        3    1    3    3  502    0  0.14919123412E+03  0.38581551835E+03 -0.31413866669E+03  0.51941770344E+03  0.10100000352E+00 0. -1.
       -3    1    3    3    0  502 -0.14919123412E+03 -0.38581551835E+03  0.56743971864E+02  0.41753027085E+03  0.10100000352E+00 0.  1.
</event>
<event>
 5   0  0.9981885E-04  0.8997091E+03  0.7818609E-02  0.9425945E-01
       -1   -1    0    0    0  501  0.00000000000E+00  0.00000000000E+00  0.32836510602E+03  0.32836510606E+03  0.50400001928E-02 0. -1.
        1   -1    0    0  501    0  0.00000000000E+00  0.00000000000E+00 -0.61629303931E+03  0.61629303933E+03  0.50400001928E-02 0.  1.
    10030    2    1    2    0    0  0.00000000000E+00  0.00000000000E+00 -0.28792793329E+03  0.94465814539E+03  0.89970912904E+03 0.  0.
        4    1    3    3  502    0  0.25866705822E+03  0.18954785164E+03  0.18728199972E+03  0.37136665896E+03  0.12699999809E+01 0.  1.
       -4    1    3    3    0  502 -0.25866705822E+03 -0.18954785164E+03 -0.47520993301E+03  0.57329148642E+03  0.12699999809E+01 0. -1.
</event>
<event>
 5   0  0.9697941E-04  0.8991456E+03  0.7818609E-02  0.9426650E-01
       -1   -1    0    0    0  501  0.00000000000E+00  0.00000000000E+00  0.18252693145E+04  0.18252693145E+04  0.50400001928E-02 0. -1.
        1   -1    0    0  501    0  0.00000000000E+00  0.00000000000E+00 -0.11073198427E+03  0.11073198438E+03  0.50400001928E-02 0.  1.
    10030    2    1    2    0    0  0.00000000000E+00  0.00000000000E+00  0.17145373302E+04  0.19360012989E+04  0.89914557917E+03 0.  0.
        5    1    3    3  502    0  0.14053628633E+03  0.88329277953E+02  0.17568169460E+04  0.17646473814E+04  0.46999998093E+01 0. -1.
       -5    1    3    3    0  502 -0.14053628633E+03 -0.88329277953E+02 -0.42279615755E+02  0.17135391745E+03  0.46999998093E+01 0.  1.
</event>
<event>
 5   0  0.1635686E-03  0.8990738E+03  0.7818609E-02  0.9426740E-01
        2   -1    0    0  501    0  0.00000000000E+00  0.00000000000E+00  0.17081387378E+04  0.17081387378E+04  0.25500000920E-02 0. -1.
       -2   -1    0    0    0  501  0.00000000000E+00  0.00000000000E+00 -0.11830621742E+03  0.11830621745E+03  0.25500000920E-02 0.  1.
    10030    2    1    2    0    0  0.00000000000E+00  0.00000000000E+00  0.15898325204E+04  0.18264449552E+04  0.89907381884E+03 0.  0.
        5    1    3    3  502    0  0.92074939856E+02 -0.78599513726E+02 -0.84516407893E+02  0.14771862208E+03  0.46999998093E+01 0.  1.
       -5    1    3    3    0  502 -0.92074939856E+02  0.78599513726E+02  0.16743489283E+04  0.16787263332E+04  0.46999998093E+01 0. -1.
</event>
<event>
 5   0  0.9223454E-04  0.8996956E+03  0.7818609E-02  0.9425962E-01
        1   -1    0    0  501    0  0.00000000000E+00  0.00000000000E+00  0.15219754444E+04  0.15219754444E+04  0.50400001928E-02 0.  1.
       -1   -1    0    0    0  501  0.00000000000E+00  0.00000000000E+00 -0.13296078409E+03  0.13296078419E+03  0.50400001928E-02 0. -1.
    10030    2    1    2    0    0  0.00000000000E+00  0.00000000000E+00  0.13890146603E+04  0.16549362286E+04  0.89969561196E+03 0.  0.
        1    1    3    3  502    0  0.40963850857E+03 -0.91441786186E+02  0.99223389011E+03  0.10773548165E+04  0.50400001928E-02 0. -1.
       -1    1    3    3    0  502 -0.40963850857E+03  0.91441786186E+02  0.39678077022E+03  0.57758141210E+03  0.50400001928E-02 0.  1.
</event>
<event>
 5   0  0.1635686E-03  0.9003539E+03  0.7818609E-02  0.9425139E-01
        2   -1    0    0  501    0  0.00000000000E+00  0.00000000000E+00  0.81781620787E+03  0.81781620788E+03  0.25500000920E-02 0. -1.
       -2   -1    0    0    0  501  0.00000000000E+00  0.00000000000E+00 -0.24780540262E+03  0.24780540263E+03  0.25500000920E-02 0.  1.
    10030    2    1    2    0    0  0.00000000000E+00  0.00000000000E+00  0.57001080526E+03  0.10656216105E+04  0.90035387414E+03 0.  0.
        5    1    3    3  502    0 -0.19710709079E+03  0.89254979075E+02  0.75220313274E+03  0.78271917022E+03  0.46999998093E+01 0. -1.
       -5    1    3    3    0  502  0.19710709079E+03 -0.89254979075E+02 -0.18219232748E+03  0.28290244029E+03  0.46999998093E+01 0.  1.
</event>
<event>
 5   0  0.1007561E-03  0.9046840E+03  0.7818609E-02  0.9419745E-01
       -1   -1    0    0    0  501  0.00000000000E+00  0.00000000000E+00  0.16812449140E+03  0.16812449148E+03  0.50400001928E-02 0. -1.
        1   -1    0    0  501    0  0.00000000000E+00  0.00000000000E+00 -0.12170343004E+04  0.12170343005E+04  0.50400001928E-02 0.  1.
    10030    2    1    2    0    0  0.00000000000E+00  0.00000000000E+00 -0.10489098090E+04  0.13851587919E+04  0.90468397320E+03 0.  0.
        2    1    3    3  502    0 -0.30826805458E+03 -0.88169656870E+02 -0.35916969629E+02  0.32263463946E+03  0.25500000920E-02 0. -1.
       -2    1    3    3    0  502  0.30826805458E+03  0.88169656870E+02 -0.10129928394E+04  0.10625241525E+04  0.25500000920E-02 0.  1.
</event>
<event>
 5   0  0.9321543E-04  0.8999157E+03  0.7818609E-02  0.9425687E-01
       -1   -1    0    0    0  501  0.00000000000E+00  0.00000000000E+00  0.64280057692E+03  0.64280057694E+03  0.50400001928E-02 0.  1.
        1   -1    0    0  501    0  0.00000000000E+00  0.00000000000E+00 -0.31496871926E+03  0.31496871930E+03  0.50400001928E-02 0. -1.
    10030    2    1    2    0    0  0.00000000000E+00  0.00000000000E+00  0.32783185765E+03  0.95776929624E+03  0.89991571712E+03 0.  0.
        3    1    3    3  502    0  0.25930907398E+03  0.26481306188E+02 -0.22643199297E+03  0.34527367851E+03  0.10100000352E+00 0. -1.
       -3    1    3    3    0  502 -0.25930907398E+03 -0.26481306188E+02  0.55426385063E+03  0.61249561773E+03  0.10100000352E+00 0.  1.
</event>
<event>
 5   0  0.6375625E-04  0.8993963E+03  0.7818609E-02  0.9426336E-01
       -3   -1    0    0    0  501  0.00000000000E+00  0.00000000000E+00  0.28682098071E+03  0.28682099850E+03  0.10100000352E+00 0.  1.
        3   -1    0    0  501    0  0.00000000000E+00  0.00000000000E+00 -0.70506848712E+03  0.70506849436E+03  0.10100000352E+00 0. -1.
    10030    2    1    2    0    0  0.00000000000E+00  0.00000000000E+00 -0.41824750641E+03  0.99188949285E+03  0.89939634723E+03 0.  0.
        3    1    3    3  502    0 -0.13548617942E+02  0.28566106612E+03 -0.59186236807E+03  0.65733315958E+03  0.10100000352E+00 0. -1.
       -3    1    3    3    0  502  0.13548617942E+02 -0.28566106612E+03  0.17361486166E+03  0.33455633328E+03  0.10100000352E+00 0.  1.
</event>
<event>
 5   0  0.9697941E-04  0.9012650E+03  0.7818609E-02  0.9424002E-01
        1   -1    0    0  501    0  0.00000000000E+00  0.00000000000E+00  0.13977106484E+04  0.13977106484E+04  0.50400001928E-02 0.  1.
       -1   -1    0    0    0  501  0.00000000000E+00  0.00000000000E+00 -0.14528731879E+03  0.14528731887E+03  0.50400001928E-02 0. -1.
    10030    2    1    2    0    0  0.00000000000E+00  0.00000000000E+00  0.12524233296E+04  0.15429979673E+04  0.90126496130E+03 0.  0.
        5    1    3    3  502    0 -0.21001484472E+03 -0.37034696308E+03  0.87890047620E+03  0.97660188671E+03  0.46999998093E+01 0.  1.
       -5    1    3    3    0  502  0.21001484472E+03  0.37034696308E+03  0.37352285340E+03  0.56639608056E+03  0.46999998093E+01 0. -1.
</event>
<event>
 5   0  0.1536020E-03  0.8997101E+03  0.7818609E-02  0.9425944E-01
       -2   -1    0    0    0  501  0.00000000000E+00  0.00000000000E+00  0.27311658404E+03  0.27311658406E+03  0.25500000920E-02 0. -1.
        2   -1    0    0  501    0  0.00000000000E+00  0.00000000000E+00 -0.74096405411E+03  0.74096405412E+03  0.25500000920E-02 0.  1.
    10030    2    1    2    0    0  0.00000000000E+00  0.00000000000E+00 -0.46784747007E+03  0.10140806382E+04  0.89971011191E+03 0.  0.
        2    1    3    3  502    0 -0.12964956153E+03  0.27625517230E+03 -0.60645950166E+03  0.67891019744E+03  0.25500000920E-02 0.  1.
       -2    1    3    3    0  502  0.12964956153E+03 -0.27625517230E+03  0.13861203159E+03  0.33517044073E+03  0.25500000920E-02 0. -1.
</event>
<event>
 5   0  0.1641516E-03  0.9009049E+03  0.7818609E-02  0.9424451E-01
        2   -1    0    0  501    0  0.00000000000E+00  0.00000000000E+00  0.20933541975E+04  0.20933541975E+04  0.25500000920E-02 0. -1.
       -2   -1    0    0    0  501  0.00000000000E+00  0.00000000000E+00 -0.96929335139E+02  0.96929335172E+02  0.25500000920E-02 0.  1.
    10030    2    1    2    0    0  0.00000000000E+00  0.00000000000E+00  0.19964248623E+04  0.21902835326E+04  0.90090494639E+03 0.  0.
        1    1    3    3  502    0 -0.29047354449E+02  0.33042226012E+03  0.25725421291E+03  0.41976463509E+03  0.50400001928E-02 0.  1.
       -1    1    3    3    0  502  0.29047354449E+02 -0.33042226012E+03  0.17391706494E+04  0.17705188975E+04  0.50400001928E-02 0. -1.
</event>
<event>
 5   0  0.9223454E-04  0.8920962E+03  0.7818609E-02  0.9435516E-01
       -1   -1    0    0    0  501  0.00000000000E+00  0.00000000000E+00  0.24702018169E+03  0.24702018174E+03  0.50400001928E-02 0. -1.
        1   -1    0    0  501    0  0.00000000000E+00  0.00000000000E+00 -0.80543581250E+03  0.80543581251E+03  0.50400001928E-02 0.  1.
    10030    2    1    2    0    0  0.00000000000E+00  0.00000000000E+00 -0.55841563081E+03  0.10524559943E+04  0.89209618490E+03 0.  0.
        1    1    3    3  502    0 -0.23420777326E+03  0.37902106899E+03 -0.30419662654E+03  0.53948664434E+03  0.50400001928E-02 0. -1.
       -1    1    3    3    0  502  0.23420777326E+03 -0.37902106899E+03 -0.25421900426E+03  0.51296934991E+03  0.50400001928E-02 0.  1.
</event>
<event>
 5   0  0.9321543E-04  0.9031791E+03  0.7818609E-02  0.9421616E-01
       -1   -1    0    0    0  501  0.00000000000E+00  0.00000000000E+00  0.80972088122E+02  0.80972088279E+02  0.50400001928E-02 0.  1.
        1   -1    0    0  501    0  0.00000000000E+00  0.00000000000E+00 -0.25185608587E+04  0.25185608587E+04  0.50400001928E-02 0. -1.
    10030    2    1    2    0    0  0.00000000000E+00  0.00000000000E+00 -0.24375887706E+04  0.25995329470E+04  0.90317912288E+03 0.  0.
        3    1    3    3  502    0  0.39262081604E+03  0.21320233288E+03 -0.14081176288E+04  0.14772953688E+04  0.10100000352E+00 0.  1.
       -3    1    3    3    0  502 -0.39262081604E+03 -0.21320233288E+03 -0.10294711418E+04  0.11222375782E+04  0.10100000352E+00 0. -1.
</event>
<event>
 5   0  0.9321543E-04  0.8995702E+03  0.7818609E-02  0.9426119E-01
       -1   -1    0    0    0  501  0.00000000000E+00  0.00000000000E+00  0.25137206445E+03  0.25137206450E+03  0.50400001928E-02 0.  1.
        1   -1    0    0  501    0  0.00000000000E+00  0.00000000000E+00 -0.80480946871E+03  0.80480946873E+03  0.50400001928E-02 0. -1.
    10030    2    1    2    0    0  0.00000000000E+00  0.00000000000E+00 -0.55343740426E+03  0.10561815332E+04  0.89957015885E+03 0.  0.
        3    1    3    3  502    0 -0.25934723185E+03  0.28393065183E+03 -0.28018638542E+01  0.38455878921E+03  0.10100000352E+00 0. -1.
       -3    1    3    3    0  502  0.25934723185E+03 -0.28393065183E+03 -0.55063554041E+03  0.67162274402E+03  0.10100000352E+00 0.  1.
</event>
<event>
 5   0  0.1007561E-03  0.9064897E+03  0.7818609E-02  0.9417505E-01
        1   -1    0    0  501    0  0.00000000000E+00  0.00000000000E+00  0.72477090760E+03  0.72477090762E+03  0.50400001928E-02 0.  1.
       -1   -1    0    0    0  501  0.00000000000E+00  0.00000000000E+00 -0.28344254387E+03  0.28344254392E+03  0.50400001928E-02 0. -1.
    10030    2    1    2    0    0  0.00000000000E+00  0.00000000000E+00  0.44132836373E+03  0.10082134515E+04  0.90648973476E+03 0.  0.
        2    1    3    3  502    0  0.45167492032E+03  0.33940164983E+02  0.23889712818E+03  0.51208788923E+03  0.25500000920E-02 0.  1.
       -2    1    3    3    0  502 -0.45167492032E+03 -0.33940164983E+02  0.20243123555E+03  0.49612556231E+03  0.25500000920E-02 0. -1.
</event>
<event>
 5   0  0.1641516E-03  0.9023755E+03  0.7818609E-02  0.9422617E-01
        2   -1    0    0  501    0  0.00000000000E+00  0.00000000000E+00  0.49723948218E+03  0.49723948219E+03  0.25500000920E-02 0.  1.
       -2   -1    0    0    0  501  0.00000000000E+00  0.00000000000E+00 -0.40940111893E+03  0.40940111894E+03  0.25500000920E-02 0. -1.
    10030    2    1    2    0    0  0.00000000000E+00  0.00000000000E+00  0.87838363255E+02  0.90664060112E+03  0.90237553244E+03 0.  0.
        1    1    3    3  502    0 -0.43125026021E+02  0.44912093963E+03  0.42907408304E+02  0.45322227659E+03  0.50400001928E-02 0.  1.
       -1    1    3    3    0  502  0.43125026021E+02 -0.44912093963E+03  0.44930954952E+02  0.45341832453E+03  0.50400001928E-02 0. -1.
</event>
<event>
 5   0  0.1704416E-03  0.8998238E+03  0.7818609E-02  0.9425802E-01
       -2   -1    0    0    0  501  0.00000000000E+00  0.00000000000E+00  0.13931595040E+03  0.13931595043E+03  0.25500000920E-02 0. -1.
        2   -1    0    0  501    0  0.00000000000E+00  0.00000000000E+00 -0.14529614388E+04  0.14529614388E+04  0.25500000920E-02 0.  1.
    10030    2    1    2    0    0  0.00000000000E+00  0.00000000000E+00 -0.13136454884E+04  0.15922773893E+04  0.89982376890E+03 0.  0.
        3    1    3    3  502    0 -0.47275840387E+02 -0.42758692296E+03 -0.42370519163E+03  0.60381427723E+03  0.10100000352E+00 0. -1.
       -3    1    3    3    0  502  0.47275840387E+02  0.42758692296E+03 -0.88994029679E+03  0.98846311202E+03  0.10100000352E+00 0.  1.
</event>
<event>
 5   0  0.9321543E-04  0.8994097E+03  0.7818609E-02  0.9426320E-01
       -1   -1    0    0    0  501  0.00000000000E+00  0.00000000000E+00  0.82742525044E+03  0.82742525046E+03  0.50400001928E-02 0. -1.
        1   -1    0    0  501    0  0.00000000000E+00  0.00000000000E+00 -0.24441418447E+03  0.24441418452E+03  0.50400001928E-02 0.  1.
    10030    2    1    2    0    0  0.00000000000E+00  0.00000000000E+00  0.58301106597E+03  0.10718394350E+04  0.89940973495E+03 0.  0.
        3    1    3    3  502    0 -0.24103377461E+03 -0.12399366591E+03  0.71913464744E+03  0.76852219294E+03  0.10100000352E+00 0. -1.
       -3    1    3    3    0  502  0.24103377461E+03  0.12399366591E+03 -0.13612358146E+03  0.30331724204E+03  0.10100000352E+00 0.  1.
</event>
<event>
 5   0  0.1630202E-03  0.8990633E+03  0.7818609E-02  0.9426753E-01
        2   -1    0    0  501    0  0.00000000000E+00  0.00000000000E+00  0.19393545621E+04  0.19393545621E+04  0.25500000920E-02 0.  1.
       -2   -1    0    0    0  501  0.00000000000E+00  0.00000000000E+00 -0.10419894886E+03  0.10419894889E+03  0.25500000920E-02 0. -1.
    10030    2    1    2    0    0  0.00000000000E+00  0.00000000000E+00  0.18351556132E+04  0.20435535110E+04  0.89906330560E+03 0.  0.
        4    1    3    3  502    0  0.67491708596E+02  0.42315151702E+03  0.12264419823E+04  0.12991435201E+04  0.12699999809E+01 0.  1.
       -4    1    3    3    0  502 -0.67491708596E+02 -0.42315151702E+03  0.60871363097E+03  0.74440999088E+03  0.12699999809E+01 0. -1.
</event>
<event>
 5   0  0.9321543E-04  0.9009546E+03  0.7818609E-02  0.9424389E-01
        1   -1    0    0  501    0  0.00000000000E+00  0.00000000000E+00  0.10787502311E+04  0.10787502311E+04  0.50400001928E-02 0. -1.
       -1   -1    0    0    0  501  0.00000000000E+00  0.00000000000E+00 -0.18811562797E+03  0.18811562804E+03  0.50400001928E-02 0.  1.
    10030    2    1    2    0    0  0.00000000000E+00  0.00000000000E+00  0.89063460313E+03  0.12668658592E+04  0.90095455424E+03 0.  0.
        3    1    3    3  502    0 -0.13718749854E+03 -0.39978975331E+03  0.22622363576E+03  0.47940525674E+03  0.10100000352E+00 0.  1.
       -3    1    3    3    0  502  0.13718749854E+03  0.39978975331E+03  0.66441096736E+03  0.78746060242E+03  0.10100000352E+00 0. -1.
</event>
<event>
 5   0  0.9321543E-04  0.8998595E+03  0.7818609E-02  0.9425757E-01
        1   -1    0    0  501    0  0.00000000000E+00  0.00000000000E+00  0.10053424732E+04  0.10053424732E+04  0.50400001928E-02 0.  1.
       -1   -1    0    0    0  501  0.00000000000E+00  0.00000000000E+00 -0.20136099597E+03  0.20136099604E+03  0.50400001928E-02 0. -1.
    10030    2    1    2    0    0  0.00000000000E+00  0.00000000000E+00  0.80398147718E+03  0.12067034692E+04  0.89985945955E+03 0.  0.
        3    1    3    3  502    0 -0.39010326848E+03  0.12857462746E+03  0.64825437438E+03  0.76742800249E+03  0.10100000352E+00 0.  1.
       -3    1    3    3    0  502  0.39010326848E+03 -0.12857462746E+03  0.15572710280E+03  0.43927546671E+03  0.10100000352E+00 0. -1.
</event>
<event>
 5   0  0.1635686E-03  0.8999152E+03  0.7818609E-02  0.9425687E-01
        2   -1    0    0  501    0  0.00000000000E+00  0.00000000000E+00  0.60470941977E+03  0.60470941977E+03  0.25500000920E-02 0. -1.
       -2   -1    0    0    0  501  0.00000000000E+00  0.00000000000E+00 -0.33480850412E+03  0.33480850413E+03  0.25500000920E-02 0.  1.
    10030    2    1    2    0    0  0.00000000000E+00  0.00000000000E+00  0.26990091564E+03  0.93951792391E+03  0.89991523216E+03 0.  0.
        5    1    3    3  502    0  0.40593078563E+03  0.15778511163E+03  0.25289934239E+03  0.50364284127E+03  0.46999998093E+01 0.  1.
       -5    1    3    3    0  502 -0.40593078563E+03 -0.15778511163E+03  0.17001573250E+02  0.43587508264E+03  0.46999998093E+01 0. -1.
</event>
<event>
 5   0  0.9981885E-04  0.8997680E+03  0.7818609E-02  0.9425872E-01
        1   -1    0    0  501    0  0.00000000000E+00  0.00000000000E+00  0.64686096596E+03  0.64686096598E+03  0.50400001928E-02 0.  1.
       -1   -1    0    0    0  501  0.00000000000E+00  0.00000000000E+00 -0.31288887571E+03  0.31288887575E+03  0.50400001928E-02 0. -1.
    10030    2    1    2    0    0  0.00000000000E+00  0.00000000000E+00  0.33397209026E+03  0.95974984173E+03  0.89976797100E+03 0.  0.
        4    1    3    3  502    0  0.16949776852E+03  0.35445682970E+03 -0.66768749451E+02  0.39853333168E+03  0.12699999809E+01 0. -1.
       -4    1    3    3    0  502 -0.16949776852E+03 -0.35445682970E+03  0.40074083971E+03  0.56121651006E+03  0.12699999809E+01 0.  1.
</event>
<event>
 5   0  0.9321543E-04  0.8961779E+03  0.7818609E-02  0.9430372E-01
       -1   -1    0    0    0  501  0.00000000000E+00  0.00000000000E+00  0.38920863045E+03  0.38920863048E+03  0.50400001928E-02 0. -1.
        1   -1    0    0  501    0  0.00000000000E+00  0.00000000000E+00 -0.51587680946E+03  0.51587680948E+03  0.50400001928E-02 0.  1.
    10030    2    1    2    0    0  0.00000000000E+00  0.00000000000E+00 -0.12666817901E+03  0.90508543996E+03  0.89617789867E+03 0.  0.
        3    1    3    3  502    0 -0.38459505643E+03  0.18889769553E+03  0.69072017176E+02  0.43401227006E+03  0.10100000352E+00 0. -1.
       -3    1    3    3    0  502  0.38459505643E+03 -0.18889769553E+03 -0.19574019618E+03  0.47107316990E+03  0.10100000352E+00 0.  1.
</event>
<event>
 5   0  0.1536020E-03  0.8989550E+03  0.7818609E-02  0.9426889E-01
       -2   -1    0    0    0  501  0.00000000000E+00  0.00000000000E+00  0.42508088186E+03  0.42508088187E+03  0.25500000920E-02 0. -1.
        2   -1    0    0  501    0  0.00000000000E+00  0.00000000000E+00 -0.47527431084E+03  0.47527431085E+03  0.25500000920E-02 0.  1.
    10030    2    1    2    0    0  0.00000000000E+00  0.00000000000E+00 -0.50193428979E+02  0.90035519272E+03  0.89895500040E+03 0.  0.
        2    1    3    3  502    0 -0.12219193533E+03 -0.25824108777E+03 -0.37263963971E+03  0.46955258445E+03  0.25500000920E-02 0.  1.
       -2    1    3    3    0  502  0.12219193533E+03  0.25824108777E+03  0.32244621073E+03  0.43080260827E+03  0.25500000920E-02 0. -1.
</event>
<event>
 5   0  0.9981885E-04  0.9002776E+03  0.7818609E-02  0.9425235E-01
       -1   -1    0    0    0  501  0.00000000000E+00  0.00000000000E+00  0.46449300003E+03  0.46449300006E+03  0.50400001928E-02 0.  1.
        1   -1    0    0  501    0  0.00000000000E+00  0.00000000000E+00 -0.43622816550E+03  0.43622816553E+03  0.50400001928E-02 0. -1.
    10030    2    1    2    0    0  0.00000000000E+00  0.00000000000E+00  0.28264834532E+02  0.90072116558E+03  0.90027757789E+03 0.  0.
        4    1    3    3  502    0  0.14310437015E+03  0.21044470957E+03  0.38560699851E+03  0.46201753943E+03  0.12699999809E+01 0.  1.
       -4    1    3    3    0  502 -0.14310437015E+03 -0.21044470957E+03 -0.35734216398E+03  0.43870362615E+03  0.12699999809E+01 0. -1.
</event>
<event>
 5   0  0.1641516E-03  0.9009888E+03  0.7818609E-02  0.9424346E-01
       -2   -1    0    0    0  501  0.00000000000E+00  0.00000000000E+00  0.23231007265E+03  0.23231007267E+03  0.25500000920E-02 0.  1.
        2   -1    0    0  501    0  0.00000000000E+00  0.00000000000E+00 -0.87359621473E+03  0.87359621474E+03  0.25500000920E-02 0. -1.
    10030    2    1    2    0    0  0.00000000000E+00  0.00000000000E+00 -0.64128614208E+03  0.11059062874E+04  0.90098879044E+03 0.  0.
        1    1    3    3  502    0 -0.11355640199E+03  0.23783884830E+03 -0.76909060025E+03  0.81299614121E+03  0.50400001928E-02 0. -1.
       -1    1    3    3    0  502  0.11355640199E+03 -0.23783884830E+03  0.12780445817E+03  0.29291014620E+03  0.50400001928E-02 0.  1.
</event>
<event>
 5   0  0.6375625E-04  0.8993386E+03  0.7818609E-02  0.9426409E-01
       -4   -1    0    0    0  501  0.00000000000E+00  0.00000000000E+00  0.58881534939E+03  0.58881671900E+03  0.12699999809E+01 0.  1.
        4   -1    0    0  501    0  0.00000000000E+00  0.00000000000E+00 -0.34340263136E+03  0.34340497976E+03  0.12699999809E+01 0. -1.
    10030    2    1    2    0    0  0.00000000000E+00  0.00000000000E+00  0.24541271803E+03  0.93222169877E+03  0.89933858668E+03 0.  0.
        5    1    3    3  502    0  0.33149720202E+03  0.24762487061E+03 -0.59716806473E+02  0.41808690301E+03  0.46999998093E+01 0. -1.
       -5    1    3    3    0  502 -0.33149720202E+03 -0.24762487061E+03  0.30512952450E+03  0.51413479576E+03  0.46999998093E+01 0.  1.
</event>
<event>
 5   0  0.9981885E-04  0.9027146E+03  0.7818609E-02  0.9422194E-01
        1   -1    0    0  501    0  0.00000000000E+00  0.00000000000E+00  0.58595053116E+03  0.58595053118E+03  0.50400001928E-02 0.  1.
       -1   -1    0    0    0  501  0.00000000000E+00  0.00000000000E+00 -0.34768025781E+03  0.34768025784E+03  0.50400001928E-02 0. -1.
    10030    2    1    2    0    0  0.00000000000E+00  0.00000000000E+00  0.23827027335E+03  0.93363078902E+03  0.90271464320E+03 0.  0.
        4    1    3    3  502    0  0.21892529366E+03 -0.15230321758E+03  0.49574523458E+03  0.56292939592E+03  0.12699999809E+01 0.  1.
       -4    1    3    3    0  502 -0.21892529366E+03  0.15230321758E+03 -0.25747496122E+03  0.37070139310E+03  0.12699999809E+01 0. -1.
</event>
<event>
 5   0  0.1704416E-03  0.8996964E+03  0.7818609E-02  0.9425961E-01
        2   -1    0    0  501    0  0.00000000000E+00  0.00000000000E+00  0.13168704683E+04  0.13168704683E+04  0.25500000920E-02 0. -1.
       -2   -1    0    0    0  501  0.00000000000E+00  0.00000000000E+00 -0.15366993103E+03  0.15366993105E+03  0.25500000920E-02 0.  1.
    10030    2    1    2    0    0  0.00000000000E+00  0.00000000000E+00  0.11632005373E+04  0.14705403994E+04  0.89969638004E+03 0.  0.
        3    1    3    3  502    0 -0.13297091117E+03 -0.35410799737E+03  0.97958867300E+03  0.10500798615E+04  0.10100000352E+00 0.  1.
       -3    1    3    3    0  502  0.13297091117E+03  0.35410799737E+03  0.18361186430E+03  0.42046053790E+03  0.10100000352E+00 0. -1.
</event>
<event>
 5   0  0.9321543E-04  0.9004580E+03  0.7818609E-02  0.9425009E-01
        1   -1    0    0  501    0  0.00000000000E+00  0.00000000000E+00  0.31787792954E+03  0.31787792958E+03  0.50400001928E-02 0. -1.
       -1   -1    0    0    0  501  0.00000000000E+00  0.00000000000E+00 -0.63768545039E+03  0.63768545041E+03  0.50400001928E-02 0.  1.
    10030    2    1    2    0    0  0.00000000000E+00  0.00000000000E+00 -0.31980752085E+03  0.95556337999E+03  0.90045795171E+03 0.  0.
        3    1    3    3  502    0  0.28926402636E+02 -0.25775684928E+02  0.31610554465E+03  0.31847111056E+03  0.10100000352E+00 0. -1.
       -3    1    3    3    0  502 -0.28926402636E+02  0.25775684928E+02 -0.63591306550E+03  0.63709226943E+03  0.10100000352E+00 0.  1.
</event>
<event>
 5   0  0.1536020E-03  0.8979516E+03  0.7818609E-02  0.9428146E-01
       -2   -1    0    0    0  501  0.00000000000E+00  0.00000000000E+00  0.16020164134E+03  0.16020164136E+03  0.25500000920E-02 0.  1.
        2   -1    0    0  501    0  0.00000000000E+00  0.00000000000E+00 -0.12582847049E+04  0.12582847049E+04  0.25500000920E-02 0. -1.
    10030    2    1    2    0    0  0.00000000000E+00  0.00000000000E+00 -0.10980830636E+04  0.14184863463E+04  0.89795161343E+03 0.  0.
        2    1    3    3  502    0  0.34621334810E+03  0.92597294740E+02 -0.97626358421E+03  0.10399656375E+04  0.25500000920E-02 0. -1.
       -2    1    3    3    0  502 -0.34621334810E+03 -0.92597294740E+02 -0.12181947938E+03  0.37852070876E+03  0.25500000920E-02 0.  1.
</event>
<event>
 5   0  0.1704416E-03  0.9003723E+03  0.7818609E-02  0.9425116E-01
        2   -1    0    0  501    0  0.00000000000E+00  0.00000000000E+00  0.67611514419E+03  0.67611514419E+03  0.25500000920E-02 0. -1.
       -2   -1    0    0    0  501  0.00000000000E+00  0.00000000000E+00 -0.29975301664E+03  0.29975301665E+03  0.25500000920E-02 0.  1.
    10030    2    1    2    0    0  0.00000000000E+00  0.00000000000E+00  0.37636212755E+03  0.97586816084E+03  0.90037226539E+03 0.  0.
        3    1    3    3  502    0  0.98779325513E+02  0.43920276319E+03  0.19179558880E+03  0.48932809078E+03  0.10100000352E+00 0. -1.
       -3    1    3    3    0  502 -0.98779325513E+02 -0.43920276319E+03  0.18456653875E+03  0.48654007006E+03  0.10100000352E+00 0.  1.
</event>
<event>
 5   0  0.1536020E-03  0.8997533E+03  0.7818609E-02  0.9425890E-01
       -2   -1    0    0    0  501  0.00000000000E+00  0.00000000000E+00  0.10040257788E+03  0.10040257791E+03  0.25500000920E-02 0.  1.
        2   -1    0    0  501    0  0.00000000000E+00  0.00000000000E+00 -0.20157750482E+04  0.20157750482E+04  0.25500000920E-02 0. -1.
    10030    2    1    2    0    0  0.00000000000E+00  0.00000000000E+00 -0.19153724703E+04  0.21161776261E+04  0.89975332464E+03 0.  0.
        2    1    3    3  502    0 -0.91216930375E+02  0.40302098206E+02 -0.19894519645E+04  0.19919497751E+04  0.25500000920E-02 0. -1.
       -2    1    3    3    0  502  0.91216930375E+02 -0.40302098206E+02  0.74079494163E+02  0.12422785102E+03  0.25500000920E-02 0.  1.
</event>
<event>
 5   0  0.1536020E-03  0.9025211E+03  0.7818609E-02  0.9422435E-01
        2   -1    0    0  501    0  0.00000000000E+00  0.00000000000E+00  0.57894500002E+03  0.57894500002E+03  0.25500000920E-02 0. -1.
       -2   -1    0    0    0  501  0.00000000000E+00  0.00000000000E+00 -0.35173648537E+03  0.35173648538E+03  0.25500000920E-02 0.  1.
    10030    2    1    2    0    0  0.00000000000E+00  0.00000000000E+00  0.22720851465E+03  0.93068148540E+03  0.90252109014E+03 0.  0.
        2    1    3    3  502    0  0.15801382516E+03 -0.40856243674E+03  0.22535746054E+03  0.49262320153E+03  0.25500000920E-02 0. -1.
       -2    1    3    3    0  502 -0.15801382516E+03  0.40856243674E+03  0.18510541066E+01  0.43805828387E+03  0.25500000920E-02 0.  1.
</event>
<event>
 5   0  0.9697941E-04  0.8994012E+03  0.7818609E-02  0.9426330E-01
        1   -1    0    0  501    0  0.00000000000E+00  0.00000000000E+00  0.15354799645E+04  0.15354799646E+04  0.50400001928E-02 0.  1.
       -1   -1    0    0    0  501  0.00000000000E+00  0.00000000000E+00 -0.13170516000E+03  0.13170516010E+03  0.50400001928E-02 0. -1.
    10030    2    1    2    0    0  0.00000000000E+00  0.00000000000E+00  0.14037748045E+04  0.16671851246E+04  0.89940121079E+03 0.  0.
        5    1    3    3  502    0  0.19732295156E+03  0.65597426782E+00 -0.47119647232E+02  0.20292641195E+03  0.46999998093E+01 0. -1.
       -5    1    3    3    0  502 -0.19732295156E+03 -0.65597426782E+00  0.14508944518E+04  0.14642587127E+04  0.46999998093E+01 0.  1.
</event>
<event>
 5   0  0.9981885E-04  0.9029764E+03  0.7818609E-02  0.9421868E-01
       -1   -1    0    0    0  501  0.00000000000E+00  0.00000000000E+00  0.17234156714E+03  0.17234156721E+03  0.50400001928E-02 0.  1.
        1   -1    0    0  501    0  0.00000000000E+00  0.00000000000E+00 -0.11827767844E+04  0.11827767844E+04  0.50400001928E-02 0. -1.
    10030    2    1    2    0    0  0.00000000000E+00  0.00000000000E+00 -0.10104352173E+04  0.13551183517E+04  0.90297642198E+03 0.  0.
        4    1    3    3  502    0  0.30567875342E+03 -0.31223250345E+03 -0.33469312945E+03  0.55040870297E+03  0.12699999809E+01 0.  1.
       -4    1    3    3    0  502 -0.30567875342E+03  0.31223250345E+03 -0.67574208784E+03  0.80470964868E+03  0.12699999809E+01 0. -1.
</event>
<event>
 5   0  0.1536020E-03  0.9004482E+03  0.7818609E-02  0.9425021E-01
       -2   -1    0    0    0  501  0.00000000000E+00  0.00000000000E+00  0.60893045091E+03  0.60893045092E+03  0.25500000920E-02 0. -1.
        2   -1    0    0  501    0  0.00000000000E+00  0.00000000000E+00 -0.33288158658E+03  0.33288158659E+03  0.25500000920E-02 0.  1.
    10030    2    1    2    0    0  0.00000000000E+00  0.00000000000E+00  0.27604886434E+03  0.94181203751E+03  0.90044818757E+03 0.  0.
        2    1    3    3  502    0 -0.30378661824E+03 -0.31434991749E+03  0.25375737182E+02  0.43788823699E+03  0.25500000920E-02 0.  1.
       -2    1    3    3    0  502  0.30378661824E+03  0.31434991749E+03  0.25067312716E+03  0.50392380052E+03  0.25500000920E-02 0. -1.
</event>
<event>
 5   0  0.1536020E-03  0.9038604E+03  0.7818609E-02  0.9420769E-01
       -2   -1    0    0    0  501  0.00000000000E+00  0.00000000000E+00  0.15519625561E+03  0.15519625563E+03  0.25500000920E-02 0. -1.
        2   -1    0    0  501    0  0.00000000000E+00  0.00000000000E+00 -0.13160170845E+04  0.13160170845E+04  0.25500000920E-02 0.  1.
    10030    2    1    2    0    0  0.00000000000E+00  0.00000000000E+00 -0.11608208289E+04  0.14712133402E+04  0.90386044023E+03 0.  0.
        2    1    3    3  502    0  0.27195607699E+03  0.31039889484E+03 -0.88024905026E+03  0.97218618187E+03  0.25500000920E-02 0.  1.
       -2    1    3    3    0  502 -0.27195607699E+03 -0.31039889484E+03 -0.28057177867E+03  0.49902715830E+03  0.25500000920E-02 0. -1.
</event>
<event>
 5   0  0.6375625E-04  0.9057466E+03  0.7818609E-02  0.9418426E-01
        3   -1    0    0  501    0  0.00000000000E+00  0.00000000000E+00  0.20908221390E+03  0.20908223829E+03  0.10100000352E+00 0.  1.
       -3   -1    0    0    0  501  0.00000000000E+00  0.00000000000E+00 -0.98092609640E+03  0.98092610160E+03  0.10100000352E+00 0. -1.
    10030    2    1    2    0    0  0.00000000000E+00  0.00000000000E+00 -0.77184388250E+03  0.11900083399E+04  0.90574658159E+03 0.  0.
        2    1    3    3  502    0 -0.72148963233E+02  0.43940060969E+03 -0.49439035170E+03  0.66535718870E+03  0.25500000920E-02 0. -1.
       -2    1    3    3    0  502  0.72148963233E+02 -0.43940060969E+03 -0.27745353080E+03  0.52465115120E+03  0.25500000920E-02 0.  1.
</event>
<event>
 5   0  0.1704416E-03  0.8996992E+03  0.7818609E-02  0.9425957E-01
        2   -1    0    0  501    0  0.00000000000E+00  0.00000000000E+00  0.68317168598E+03  0.68317168598E+03  0.25500000920E-02 0. -1.
       -2   -1    0    0    0  501  0.00000000000E+00  0.00000000000E+00 -0.29621349880E+03  0.29621349881E+03  0.25500000920E-02 0.  1.
    10030    2    1    2    0    0  0.00000000000E+00  0.00000000000E+00  0.38695818718E+03  0.97938518479E+03  0.89969922839E+03 0.  0.
        3    1    3    3  502    0  0.21577248856E+03 -0.37455039727E+03  0.57870683145E+02  0.43611328010E+03  0.10100000352E+00 0.  1.
       -3    1    3    3    0  502 -0.21577248856E+03  0.37455039727E+03  0.32908750403E+03  0.54327190469E+03  0.10100000352E+00 0. -1.
</event>
<event>
 5   0  0.6375625E-04  0.9000363E+03  0.7818609E-02  0.9425536E-01
        4   -1    0    0  501    0  0.00000000000E+00  0.00000000000E+00  0.31674796770E+03  0.31675051372E+03  0.12699999809E+01 0. -1.
       -4   -1    0    0    0  501  0.00000000000E+00  0.00000000000E+00 -0.63935543550E+03  0.63935669684E+03  0.12699999809E+01 0.  1.
    10030    2    1    2    0    0  0.00000000000E+00  0.00000000000E+00 -0.32260746779E+03  0.95610721056E+03  0.90003634361E+03 0.  0.
        1    1    3    3  502    0 -0.67509220804E+02 -0.35413019924E+03 -0.44743626503E+03  0.57459977741E+03  0.50400001928E-02 0. -1.
       -1    1    3    3    0  502  0.67509220804E+02  0.35413019924E+03  0.12482879724E+03  0.38150743316E+03  0.50400001928E-02 0.  1.
</event>
<event>
 5   0  0.9223454E-04  0.8929317E+03  0.7818609E-02  0.9434461E-01
        1   -1    0    0  501    0  0.00000000000E+00  0.00000000000E+00  0.27654827224E+03  0.27654827229E+03  0.50400001928E-02 0. -1.
       -1   -1    0    0    0  501  0.00000000000E+00  0.00000000000E+00 -0.72078466779E+03  0.72078466780E+03  0.50400001928E-02 0.  1.
    10030    2    1    2    0    0  0.00000000000E+00  0.00000000000E+00 -0.44423639555E+03  0.99733294009E+03  0.89293169854E+03 0.  0.
        1    1    3    3  502    0  0.73246620948E+02 -0.29973741612E+03 -0.58252891423E+03  0.65920218601E+03  0.50400001928E-02 0.  1.
       -1    1    3    3    0  502 -0.73246620948E+02  0.29973741612E+03  0.13829251868E+03  0.33813075408E+03  0.50400001928E-02 0. -1.
</event>
<event>
 5   0  0.1536020E-03  0.9024651E+03  0.7818609E-02  0.9422505E-01
        2   -1    0    0  501    0  0.00000000000E+00  0.00000000000E+00  0.37245414894E+03  0.37245414895E+03  0.25500000920E-02 0. -1.
       -2   -1    0    0    0  501  0.00000000000E+00  0.00000000000E+00 -0.54667352278E+03  0.54667352278E+03  0.25500000920E-02 0.  1.
    10030    2    1    2    0    0  0.00000000000E+00  0.00000000000E+00 -0.17421937383E+03  0.91912767174E+03  0.90246511663E+03 0.  0.
        2    1    3    3  502    0 -0.36377720662E+02  0.97132347415E+01  0.37085144673E+03  0.37275793893E+03  0.25500000920E-02 0. -1.
       -2    1    3    3    0  502  0.36377720662E+02 -0.97132347415E+01 -0.54507082056E+03  0.54636973280E+03  0.25500000920E-02 0.  1.
</event>
<event>
 5   0  0.1635686E-03  0.8924263E+03  0.7818609E-02  0.9435099E-01
       -2   -1    0    0    0  501  0.00000000000E+00  0.00000000000E+00  0.10777009861E+03  0.10777009864E+03  0.25500000920E-02 0.  1.
        2   -1    0    0  501    0  0.00000000000E+00  0.00000000000E+00 -0.18475086086E+04  0.18475086086E+04  0.25500000920E-02 0. -1.
    10030    2    1    2    0    0  0.00000000000E+00  0.00000000000E+00 -0.17397385100E+04  0.19552787073E+04  0.89242632182E+03 0.  0.
        5    1    3    3  502    0 -0.32569033495E+03  0.16199376598E+03 -0.14360045415E+04  0.14813667026E+04  0.46999998093E+01 0. -1.
       -5    1    3    3    0  502  0.32569033495E+03 -0.16199376598E+03 -0.30373396850E+03  0.47391200462E+03  0.46999998093E+01 0.  1.
</event>
<event>
 5   0  0.6375625E-04  0.8995130E+03  0.7818609E-02  0.9426190E-01
       -4   -1    0    0    0  501  0.00000000000E+00  0.00000000000E+00  0.18481171954E+03  0.18481608312E+03  0.12699999809E+01 0. -1.
        4   -1    0    0  501    0  0.00000000000E+00  0.00000000000E+00 -0.10945066760E+04  0.10945074128E+04  0.12699999809E+01 0.  1.
    10030    2    1    2    0    0  0.00000000000E+00  0.00000000000E+00 -0.90969495644E+03  0.12793234959E+04  0.89951303127E+03 0.  0.
        1    1    3    3  502    0 -0.13998684674E+03  0.40774022660E+03 -0.27253142191E+03  0.51002135799E+03  0.50400001928E-02 0. -1.
       -1    1    3    3    0  502  0.13998684674E+03 -0.40774022660E+03 -0.63716353454E+03  0.76930213793E+03  0.50400001928E-02 0.  1.
</event>
<event>
 5   0  0.9697941E-04  0.8988707E+03  0.7818609E-02  0.9426994E-01
       -1   -1    0    0    0  501  0.00000000000E+00  0.00000000000E+00  0.45847300450E+03  0.45847300453E+03  0.50400001928E-02 0.  1.
        1   -1    0    0  501    0  0.00000000000E+00  0.00000000000E+00 -0.44057587563E+03  0.44057587566E+03  0.50400001928E-02 0. -1.
    10030    2    1    2    0    0  0.00000000000E+00  0.00000000000E+00  0.17897128877E+02  0.89904888019E+03  0.89887072583E+03 0.  0.
        5    1    3    3  502    0  0.28302032907E+02 -0.44829342030E+03  0.23166151831E+02  0.44980746586E+03  0.46999998093E+01 0. -1.
       -5    1    3    3    0  502 -0.28302032907E+02  0.44829342030E+03 -0.52690229544E+01  0.44924141433E+03  0.46999998093E+01 0.  1.
</event>
<event>
 5   0  0.1630202E-03  0.8991216E+03  0.7818609E-02  0.9426680E-01
        2   -1    0    0  501    0  0.00000000000E+00  0.00000000000E+00  0.20919472252E+03  0.20919472254E+03  0.25500000920E-02 0.  1.
       -2   -1    0    0    0  501  0.00000000000E+00  0.00000000000E+00 -0.96610901093E+03  0.96610901093E+03  0.25500000920E-02 0. -1.
    10030    2    1    2    0    0  0.00000000000E+00  0.00000000000E+00 -0.75691428841E+03  0.11753037335E+04  0.89912158572E+03 0.  0.
        4    1    3    3  502    0 -0.44241445210E+03 -0.21805960800E+02 -0.47883925465E+03  0.65229954166E+03  0.12699999809E+01 0. -1.
       -4    1    3    3    0  502  0.44241445210E+03  0.21805960800E+02 -0.27807503376E+03  0.52300419181E+03  0.12699999809E+01 0.  1.
</event>
<event>
 5   0  0.9321543E-04  0.9015352E+03  0.7818609E-02  0.9423664E-01
       -1   -1    0    0    0  501  0.00000000000E+00  0.00000000000E+00  0.21705967195E+03  0.21705967200E+03  0.50400001928E-02 0. -1.
        1   -1    0    0  501    0  0.00000000000E+00  0.00000000000E+00 -0.93610853851E+03  0.93610853853E+03  0.50400001928E-02 0.  1.
    10030    2    1    2    0    0  0.00000000000E+00  0.00000000000E+00 -0.71904886657E+03  0.11531682105E+04  0.90153516252E+03 0.  0.
        3    1    3    3  502    0  0.25883488852E+03  0.30146442575E+03 -0.63181429750E+03  0.74636828458E+03  0.10100000352E+00 0. -1.
       -3    1    3    3    0  502 -0.25883488852E+03 -0.30146442575E+03 -0.87234569072E+02  0.40679992595E+03  0.10100000352E+00 0.  1.
</event>
<event>
 5   0  0.1007561E-03  0.8998922E+03  0.7818609E-02  0.9425716E-01
       -1   -1    0    0    0  501  0.00000000000E+00  0.00000000000E+00  0.16297766371E+03  0.16297766379E+03  0.50400001928E-02 0. -1.
        1   -1    0    0  501    0  0.00000000000E+00  0.00000000000E+00 -0.12422039253E+04  0.12422039253E+04  0.50400001928E-02 0.  1.
    10030    2    1    2    0    0  0.00000000000E+00  0.00000000000E+00 -0.10792262615E+04  0.14051815891E+04  0.89989220167E+03 0.  0.
        2    1    3    3  502    0 -0.41600837711E+03 -0.16032134734E+03 -0.44481594634E+03  0.62978339956E+03  0.25500000920E-02 0.  1.
       -2    1    3    3    0  502  0.41600837711E+03  0.16032134734E+03 -0.63441031521E+03  0.77539818950E+03  0.25500000920E-02 0. -1.
</event>
<event>
 5   0  0.1536020E-03  0.8999270E+03  0.7818609E-02  0.9425673E-01
       -2   -1    0    0    0  501  0.00000000000E+00  0.00000000000E+00  0.49834993369E+03  0.49834993369E+03  0.25500000920E-02 0. -1.
        2   -1    0    0  501    0  0.00000000000E+00  0.00000000000E+00 -0.40627507025E+03  0.40627507026E+03  0.25500000920E-02 0.  1.
    10030    2    1    2    0    0  0.00000000000E+00  0.00000000000E+00  0.92074863438E+02  0.90462500395E+03  0.89992700665E+03 0.  0.
        2    1    3    3  502    0 -0.67716856950E+02 -0.17336016420E+02 -0.40078394310E+03  0.40683397011E+03  0.25500000920E-02 0.  1.
       -2    1    3    3    0  502  0.67716856950E+02  0.17336016420E+02  0.49285880654E+03  0.49779103384E+03  0.25500000920E-02 0. -1.
</event>
<event>
 5   0  0.1635686E-03  0.9025797E+03  0.7818609E-02  0.9422362E-01
        2   -1    0    0  501    0  0.00000000000E+00  0.00000000000E+00  0.47498133683E+03  0.47498133684E+03  0.25500000920E-02 0.  1.
       -2   -1    0    0    0  501  0.00000000000E+00  0.00000000000E+00 -0.42878006439E+03  0.42878006439E+03  0.25500000920E-02 0. -1.
    10030    2    1    2    0    0  0.00000000000E+00  0.00000000000E+00  0.46201272443E+02  0.90376140123E+03  0.90257969885E+03 0.  0.
        5    1    3    3  502    0 -0.11908645643E+03 -0.17660847924E+03  0.42145097946E+03  0.47224480635E+03  0.46999998093E+01 0.  1.
       -5    1    3    3    0  502  0.11908645643E+03  0.17660847924E+03 -0.37524970701E+03  0.43151659488E+03  0.46999998093E+01 0. -1.
</event>
<event>
 5   0  0.9981885E-04  0.8741375E+03  0.7818609E-02  0.9458501E-01
       -1   -1    0    0    0  501  0.00000000000E+00  0.00000000000E+00  0.19641718132E+03  0.19641718139E+03  0.50400001928E-02 0. -1.
        1   -1    0    0  501    0  0.00000000000E+00  0.00000000000E+00 -0.97256803855E+03  0.97256803856E+03  0.50400001928E-02 0.  1.
    10030    2    1    2    0    0  0.00000000000E+00  0.00000000000E+00 -0.77615085723E+03  0.11689852200E+04  0.87413745561E+03 0.  0.
        4    1    3    3  502    0 -0.25333003108E+03  0.14354549380E+03 -0.82397423510E+03  0.87390878611E+03  0.12699999809E+01 0.  1.
       -4    1    3    3    0  502  0.25333003108E+03 -0.14354549380E+03  0.47823377869E+02  0.29507643384E+03  0.12699999809E+01 0. -1.
</event>
<event>
 5   0  0.1635686E-03  0.9006144E+03  0.7818609E-02  0.9424814E-01
        2   -1    0    0  501    0  0.00000000000E+00  0.00000000000E+00  0.88428610509E+03  0.88428610509E+03  0.25500000920E-02 0. -1.
       -2   -1    0    0    0  501  0.00000000000E+00  0.00000000000E+00 -0.22931105792E+03  0.22931105793E+03  0.25500000920E-02 0.  1.
    10030    2    1    2    0    0  0.00000000000E+00  0.00000000000E+00  0.65497504717E+03  0.11135971630E+04  0.90061441754E+03 0.  0.
        5    1    3    3  502    0  0.55381996366E+02  0.35306661397E+03 -0.11208763392E+02  0.35759044422E+03  0.46999998093E+01 0.  1.
       -5    1    3    3    0  502 -0.55381996366E+02 -0.35306661397E+03  0.66618381056E+03  0.75600671880E+03  0.46999998093E+01 0. -1.
</event>
<event>
 5   0  0.6375625E-04  0.8967599E+03  0.7818609E-02  0.9429641E-01
        3   -1    0    0  501    0  0.00000000000E+00  0.00000000000E+00  0.11165745429E+04  0.11165745475E+04  0.10100000352E+00 0.  1.
       -3   -1    0    0    0  501  0.00000000000E+00  0.00000000000E+00 -0.18005474162E+03  0.18005476994E+03  0.10100000352E+00 0. -1.
    10030    2    1    2    0    0  0.00000000000E+00  0.00000000000E+00  0.93651980132E+03  0.12966293175E+04  0.89675986117E+03 0.  0.
        5    1    3    3  502    0  0.31862166790E+03  0.29862120562E+03  0.32131670448E+03  0.54218161743E+03  0.46999998093E+01 0. -1.
       -5    1    3    3    0  502 -0.31862166790E+03 -0.29862120562E+03  0.61520309685E+03  0.75444770002E+03  0.46999998093E+01 0.  1.
</event>
<event>
 5   0  0.9321543E-04  0.9015303E+03  0.7818609E-02  0.9423670E-01
        1   -1    0    0  501    0  0.00000000000E+00  0.00000000000E+00  0.87690385501E+03  0.87690385503E+03  0.50400001928E-02 0.  1.
       -1   -1    0    0    0  501  0.00000000000E+00  0.00000000000E+00 -0.23171209102E+03  0.23171209107E+03  0.50400001928E-02 0. -1.
    10030    2    1    2    0    0  0.00000000000E+00  0.00000000000E+00  0.64519176400E+03  0.11086159461E+04  0.90153031209E+03 0.  0.
        3    1    3    3  502    0 -0.39634911971E+03  0.13750079866E+03  0.52536712371E+03  0.67231668074E+03  0.10100000352E+00 0.  1.
       -3    1    3    3    0  502  0.39634911971E+03 -0.13750079866E+03  0.11982464029E+03  0.43629926536E+03  0.10100000352E+00 0. -1.
</event>
<event>
 5   0  0.1536020E-03  0.8990542E+03  0.7818609E-02  0.9426765E-01
        2   -1    0    0  501    0  0.00000000000E+00  0.00000000000E+00  0.22221455979E+03  0.22221455980E+03  0.25500000920E-02 0.  1.
       -2   -1    0    0    0  501  0.00000000000E+00  0.00000000000E+00 -0.90936706800E+03  0.90936706800E+03  0.25500000920E-02 0. -1.
    10030    2    1    2    0    0  0.00000000000E+00  0.00000000000E+00 -0.68715250821E+03  0.11315816278E+04  0.89905417570E+03 0.  0.
        2    1    3    3  502    0 -0.21289180785E+03  0.28182589506E+03  0.64191685547E+01  0.35325622812E+03  0.25500000920E-02 0.  1.
       -2    1    3    3    0  502  0.21289180785E+03 -0.28182589506E+03 -0.69357167677E+03  0.77832539968E+03  0.25500000920E-02 0. -1.
</event>
<event>
 5   0  0.1704416E-03  0.8991809E+03  0.7818609E-02  0.9426606E-01
        2   -1    0    0  501    0  0.00000000000E+00  0.00000000000E+00  0.16777262096E+04  0.16777262096E+04  0.25500000920E-02 0. -1.
       -2   -1    0    0    0  501  0.00000000000E+00  0.00000000000E+00 -0.12047948807E+03  0.12047948809E+03  0.25500000920E-02 0.  1.
    10030    2    1    2    0    0  0.00000000000E+00  0.00000000000E+00  0.15572467215E+04  0.17982056977E+04  0.89918094924E+03 0.  0.
        3    1    3    3  502    0 -0.44053629596E+02  0.40651110379E+03  0.40481316490E+03  0.57538309713E+03  0.10100000352E+00 0.  1.
       -3    1    3    3    0  502  0.44053629596E+02 -0.40651110379E+03  0.11524335566E+04  0.12228226005E+04  0.10100000352E+00 0. -1.
</event>
<event>
 5   0  0.1641516E-03  0.8962234E+03  0.7818609E-02  0.9430315E-01
        2   -1    0    0  501    0  0.00000000000E+00  0.00000000000E+00  0.38854665724E+03  0.38854665724E+03  0.25500000920E-02 0. -1.
       -2   -1    0    0    0  501  0.00000000000E+00  0.00000000000E+00 -0.51680821457E+03  0.51680821458E+03  0.25500000920E-02 0.  1.
    10030    2    1    2    0    0  0.00000000000E+00  0.00000000000E+00 -0.12826155734E+03  0.90535487182E+03  0.89622341905E+03 0.  0.
        1    1    3    3  502    0  0.42870343566E+03 -0.11822572627E+03 -0.84314730188E+01  0.44478651942E+03  0.50400001928E-02 0.  1.
       -1    1    3    3    0  502 -0.42870343566E+03  0.11822572627E+03 -0.11983008432E+03  0.46056835240E+03  0.50400001928E-02 0. -1.
</event>
<event>
 5   0  0.9223454E-04  0.9018139E+03  0.7818609E-02  0.9423317E-01
        1   -1    0    0  501    0  0.00000000000E+00  0.00000000000E+00  0.62595582251E+03  0.62595582253E+03  0.50400001928E-02 0. -1.
       -1   -1    0    0    0  501  0.00000000000E+00  0.00000000000E+00 -0.32481061634E+03  0.32481061638E+03  0.50400001928E-02 0.  1.
    10030    2    1    2    0    0  0.00000000000E+00  0.00000000000E+00  0.30114520616E+03  0.95076643891E+03  0.90181394210E+03 0.  0.
        1    1    3    3  502    0  0.19597082899E+03  0.37260708522E+03  0.32082038828E+03  0.52930740343E+03  0.50400001928E-02 0. -1.
       -1    1    3    3    0  502 -0.19597082899E+03 -0.37260708522E+03 -0.19675182117E+02  0.42145903548E+03  0.50400001928E-02 0.  1.
</event>
<event>
 5   0  0.1704416E-03  0.8957004E+03  0.7818609E-02  0.9430972E-01
        2   -1    0    0  501    0  0.00000000000E+00  0.00000000000E+00  0.10283484653E+04  0.10283484653E+04  0.25500000920E-02 0. -1.
       -2   -1    0    0    0  501  0.00000000000E+00  0.00000000000E+00 -0.19504069553E+03  0.19504069555E+03  0.25500000920E-02 0.  1.
    10030    2    1    2    0    0  0.00000000000E+00  0.00000000000E+00  0.83330776978E+03  0.12233891609E+04  0.89570039620E+03 0.  0.
        3    1    3    3  502    0  0.15450163691E+03 -0.29564164361E+03  0.82479989984E+03  0.88970198506E+03  0.10100000352E+00 0. -1.
       -3    1    3    3    0  502 -0.15450163691E+03  0.29564164361E+03  0.85078699456E+01  0.33368717581E+03  0.10100000352E+00 0.  1.
</event>
<event>
 5   0  0.9981885E-04  0.9012613E+03  0.7818609E-02  0.9424006E-01
       -1   -1    0    0    0  501  0.00000000000E+00  0.00000000000E+00  0.10896838622E+03  0.10896838634E+03  0.50400001928E-02 0. -1.
        1   -1    0    0  501    0  0.00000000000E+00  0.00000000000E+00 -0.18635495293E+04  0.18635495293E+04  0.50400001928E-02 0.  1.
    10030    2    1    2    0    0  0.00000000000E+00  0.00000000000E+00 -0.17545811431E+04  0.19725179156E+04  0.90126130499E+03 0.  0.
        4    1    3    3  502    0  0.41068627457E+02 -0.49502574562E+01  0.10480034348E+03  0.11267591626E+03  0.12699999809E+01 0. -1.
       -4    1    3    3    0  502 -0.41068627457E+02  0.49502574562E+01 -0.18593814865E+04  0.18598419994E+04  0.12699999809E+01 0.  1.
</event>
<event>
 5   0  0.1635686E-03  0.8995792E+03  0.7818609E-02  0.9426108E-01
        2   -1    0    0  501    0  0.00000000000E+00  0.00000000000E+00  0.76542041570E+03  0.76542041570E+03  0.25500000920E-02 0. -1.
       -2   -1    0    0    0  501  0.00000000000E+00  0.00000000000E+00 -0.26431314340E+03  0.26431314341E+03  0.25500000920E-02 0.  1.
    10030    2    1    2    0    0  0.00000000000E+00  0.00000000000E+00  0.50110727230E+03  0.10297335591E+04  0.89957918185E+03 0.  0.
        5    1    3    3  502    0 -0.16803134800E+03 -0.41359212317E+03  0.31320462791E+03  0.54535512027E+03  0.46999998093E+01 0.  1.
       -5    1    3    3    0  502  0.16803134800E+03  0.41359212317E+03  0.18790264438E+03  0.48437843885E+03  0.46999998093E+01 0. -1.
</event>
<event>
 5   0  0.9981885E-04  0.9010102E+03  0.7818609E-02  0.9424319E-01
       -1   -1    0    0    0  501  0.00000000000E+00  0.00000000000E+00  0.12850760525E+03  0.12850760535E+03  0.50400001928E-02 0.  1.
        1   -1    0    0  501    0  0.00000000000E+00  0.00000000000E+00 -0.15793217557E+04  0.15793217557E+04  0.50400001928E-02 0. -1.
    10030    2    1    2    0    0  0.00000000000E+00  0.00000000000E+00 -0.14508141505E+04  0.17078293611E+04  0.90101022600E+03 0.  0.
        4    1    3    3  502    0 -0.33233231881E+03  0.19378813321E+03 -0.11697486119E+04  0.12313862264E+04  0.12699999809E+01 0. -1.
       -4    1    3    3    0  502  0.33233231881E+03 -0.19378813321E+03 -0.28106553862E+03  0.47644313470E+03  0.12699999809E+01 0.  1.
</event>
<event>
 5   0  0.9321543E-04  0.8993622E+03  0.7818609E-02  0.9426379E-01
       -1   -1    0    0    0  501  0.00000000000E+00  0.00000000000E+00  0.21051442309E+03  0.21051442315E+03  0.50400001928E-02 0. -1.
        1   -1    0    0  501    0  0.00000000000E+00  0.00000000000E+00 -0.96056649215E+03  0.96056649217E+03  0.50400001928E-02 0.  1.
    10030    2    1    2    0    0  0.00000000000E+00  0.00000000000E+00 -0.75005206906E+03  0.11710809153E+04  0.89936222063E+03 0.  0.
        3    1    3    3  502    0 -0.37578572825E+03  0.14373754035E+03 -0.63654778311E+03  0.75303949727E+03  0.10100000352E+00 0. -1.
       -3    1    3    3    0  502  0.37578572825E+03 -0.14373754035E+03 -0.11350428595E+03  0.41804141804E+03  0.10100000352E+00 0.  1.
</event>
<event>
 5   0  0.1641516E-03  0.9001065E+03  0.7818609E-02  0.9425448E-01
        2   -1    0    0  501    0  0.00000000000E+00  0.00000000000E+00  0.11902957324E+03  0.11902957327E+03  0.25500000920E-02 0. -1.
       -2   -1    0    0    0  501  0.00000000000E+00  0.00000000000E+00 -0.17016604620E+04  0.17016604620E+04  0.25500000920E-02 0.  1.
    10030    2    1    2    0    0  0.00000000000E+00  0.00000000000E+00 -0.15826308888E+04  0.18206900353E+04  0.90010647952E+03 0.  0.
        1    1    3    3  502    0 -0.12846879066E+03  0.29483520628E+03 -0.14281311545E+04  0.14638957010E+04  0.50400001928E-02 0.  1.
       -1    1    3    3    0  502  0.12846879066E+03 -0.29483520628E+03 -0.15449973428E+03  0.35679433425E+03  0.50400001928E-02 0. -1.
</event>
<event>
 5   0  0.1630202E-03  0.9000617E+03  0.7818609E-02  0.9425504E-01
        2   -1    0    0  501    0  0.00000000000E+00  0.00000000000E+00  0.10420285575E+04  0.10420285575E+04  0.25500000920E-02 0. -1.
       -2   -1    0    0    0  501  0.00000000000E+00  0.00000000000E+00 -0.19435914705E+03  0.19435914706E+03  0.25500000920E-02 0.  1.
    10030    2    1    2    0    0  0.00000000000E+00  0.00000000000E+00  0.84766941047E+03  0.12363877046E+04  0.90006173488E+03 0.  0.
        4    1    3    3  502    0  0.35684920639E+03 -0.19030286212E+03  0.15266227165E+03  0.43227759312E+03  0.12699999809E+01 0.  1.
       -4    1    3    3    0  502 -0.35684920639E+03  0.19030286212E+03  0.69500713882E+03  0.80411011146E+03  0.12699999809E+01 0. -1.
</event>
<event>
 5   0  0.1704416E-03  0.9009870E+03  0.7818609E-02  0.9424348E-01
        2   -1    0    0  501    0  0.00000000000E+00  0.00000000000E+00  0.14740726954E+04  0.14740726954E+04  0.25500000920E-02 0.  1.
       -2   -1    0    0    0  501  0.00000000000E+00  0.00000000000E+00 -0.13767597555E+03  0.13767597558E+03  0.25500000920E-02 0. -1.
    10030    2    1    2    0    0  0.00000000000E+00  0.00000000000E+00  0.13363967198E+04  0.16117486710E+04  0.90098700633E+03 0.  0.
        3    1    3    3  502    0  0.37487040532E+03 -0.14314406832E+03  0.10344860088E+04  0.11095852188E+04  0.10100000352E+00 0.  1.
       -3    1    3    3    0  502 -0.37487040532E+03  0.14314406832E+03  0.30191071098E+03  0.50216345216E+03  0.10100000352E+00 0. -1.
</event>
<event>
 5   0  0.1007561E-03  0.8894634E+03  0.7818609E-02  0.9438849E-01
       -1   -1    0    0    0  501  0.00000000000E+00  0.00000000000E+00  0.19937043054E+03  0.19937043061E+03  0.50400001928E-02 0.  1.
        1   -1    0    0  501    0  0.00000000000E+00  0.00000000000E+00 -0.99205416933E+03  0.99205416934E+03  0.50400001928E-02 0. -1.
    10030    2    1    2    0    0  0.00000000000E+00  0.00000000000E+00 -0.79268373878E+03  0.11914245999E+04  0.88946335935E+03 0.  0.
        2    1    3    3  502    0  0.17675544654E+03  0.28437919391E+03 -0.78840733941E+03  0.85656298464E+03  0.25500000920E-02 0. -1.
       -2    1    3    3    0  502 -0.17675544654E+03 -0.28437919391E+03 -0.42763993744E+01  0.33486161531E+03  0.25500000920E-02 0.  1.
</event>
<event>
 5   0  0.1007561E-03  0.9021995E+03  0.7818609E-02  0.9422836E-01
       -1   -1    0    0    0  501  0.00000000000E+00  0.00000000000E+00  0.21817375226E+03  0.21817375232E+03  0.50400001928E-02 0. -1.
        1   -1    0    0  501    0  0.00000000000E+00  0.00000000000E+00 -0.93270146837E+03  0.93270146838E+03  0.50400001928E-02 0.  1.
    10030    2    1    2    0    0  0.00000000000E+00  0.00000000000E+00 -0.71452771610E+03  0.11508752207E+04  0.90219948822E+03 0.  0.
        2    1    3    3  502    0  0.15338425715E+03 -0.15702264236E+03  0.14545221433E+03  0.26332335106E+03  0.25500000920E-02 0. -1.
       -2    1    3    3    0  502 -0.15338425715E+03  0.15702264236E+03 -0.85997993043E+03  0.88755186964E+03  0.25500000920E-02 0.  1.
</event>
<event>
 5   0  0.1635686E-03  0.9000627E+03  0.7818609E-02  0.9425503E-01
        2   -1    0    0  501    0  0.00000000000E+00  0.00000000000E+00  0.13468352767E+04  0.13468352767E+04  0.25500000920E-02 0. -1.
       -2   -1    0    0    0  501  0.00000000000E+00  0.00000000000E+00 -0.15037340156E+03  0.15037340158E+03  0.25500000920E-02 0.  1.
    10030    2    1    2    0    0  0.00000000000E+00  0.00000000000E+00  0.11964618752E+04  0.14972086783E+04  0.90006266876E+03 0.  0.
        5    1    3    3  502    0  0.36521532717E+03  0.16145071457E+03  0.25306000888E+03  0.47276847032E+03  0.46999998093E+01 0.  1.
       -5    1    3    3    0  502 -0.36521532717E+03 -0.16145071457E+03  0.94340186628E+03  0.10244402080E+04  0.46999998093E+01 0. -1.
</event>
<event>
 5   0  0.9223454E-04  0.8978376E+03  0.7818609E-02  0.9428289E-01
        1   -1    0    0  501    0  0.00000000000E+00  0.00000000000E+00  0.13838649681E+04  0.13838649681E+04  0.50400001928E-02 0. -1.
       -1   -1    0    0    0  501  0.00000000000E+00  0.00000000000E+00 -0.14562699391E+03  0.14562699400E+03  0.50400001928E-02 0.  1.
    10030    2    1    2    0    0  0.00000000000E+00  0.00000000000E+00  0.12382379742E+04  0.15294919621E+04  0.89783761417E+03 0.  0.
        1    1    3    3  502    0  0.14388139751E+03 -0.20236666431E+03 -0.17996052293E+02  0.24895377341E+03  0.50400001928E-02 0.  1.
       -1    1    3    3    0  502 -0.14388139751E+03  0.20236666431E+03  0.12562340265E+04  0.12805381887E+04  0.50400001928E-02 0. -1.
</event>
<event>
 5   0  0.1704416E-03  0.8986251E+03  0.7818609E-02  0.9427302E-01
       -2   -1    0    0    0  501  0.00000000000E+00  0.00000000000E+00  0.94065693190E+02  0.94065693225E+02  0.25500000920E-02 0. -1.
        2   -1    0    0  501    0  0.00000000000E+00  0.00000000000E+00 -0.21461784056E+04  0.21461784056E+04  0.25500000920E-02 0.  1.
    10030    2    1    2    0    0  0.00000000000E+00  0.00000000000E+00 -0.20521127124E+04  0.22402440988E+04  0.89862508194E+03 0.  0.
        3    1    3    3  502    0 -0.41751905688E+03  0.12359676239E+03 -0.13023536147E+04  0.13732163961E+04  0.10100000352E+00 0.  1.
       -3    1    3    3    0  502  0.41751905688E+03 -0.12359676239E+03 -0.74975909767E+03  0.86702770271E+03  0.10100000352E+00 0. -1.
</event>
<event>
 5   0  0.6375625E-04  0.9187539E+03  0.7818609E-02  0.9402437E-01
       -4   -1    0    0    0  501  0.00000000000E+00  0.00000000000E+00  0.32116652046E+03  0.32116903145E+03  0.12699999809E+01 0.  1.
        4   -1    0    0  501    0  0.00000000000E+00  0.00000000000E+00 -0.65705895502E+03  0.65706018239E+03  0.12699999809E+01 0. -1.
    10030    2    1    2    0    0  0.00000000000E+00  0.00000000000E+00 -0.33589243457E+03  0.97822921384E+03  0.91875386650E+03 0.  0.
        5    1    3    3  502    0 -0.38431359500E+03  0.10708210047E+03  0.74480502277E+02  0.40587307223E+03  0.46999998093E+01 0. -1.
       -5    1    3    3    0  502  0.38431359500E+03 -0.10708210047E+03 -0.41037293684E+03  0.57235614161E+03  0.46999998093E+01 0.  1.
</event>
<event>
 5   0  0.9981885E-04  0.8852135E+03  0.7818609E-02  0.9444256E-01
        1   -1    0    0  501    0  0.00000000000E+00  0.00000000000E+00  0.50997510571E+03  0.50997510573E+03  0.50400001928E-02 0.  1.
       -1   -1    0    0    0  501  0.00000000000E+00  0.00000000000E+00 -0.38413786716E+03  0.38413786720E+03  0.50400001928E-02 0. -1.
    10030    2    1    2    0    0  0.00000000000E+00  0.00000000000E+00  0.12583723855E+03  0.89411297293E+03  0.88521353229E+03 0.  0.
        4    1    3    3  502    0 -0.10257005354E+03  0.42847589547E+03  0.20221572479E+02  0.44104731467E+03  0.12699999809E+01 0.  1.
       -4    1    3    3    0  502  0.10257005354E+03 -0.42847589547E+03  0.10561566607E+03  0.45306565826E+03  0.12699999809E+01 0. -1.
</event>
<event>
 5   0  0.9697941E-04  0.9005912E+03  0.7818609E-02  0.9424843E-01
        1   -1    0    0  501    0  0.00000000000E+00  0.00000000000E+00  0.45529882713E+03  0.45529882716E+03  0.50400001928E-02 0.  1.
       -1   -1    0    0    0  501  0.00000000000E+00  0.00000000000E+00 -0.44534733177E+03  0.44534733180E+03  0.50400001928E-02 0. -1.
    10030    2    1    2    0    0  0.00000000000E+00  0.00000000000E+00  0.99514953635E+01  0.90064615896E+03  0.90059117883E+03 0.  0.
        5    1    3    3  502    0  0.14520700497E+03 -0.42342751939E+03 -0.43690241786E+02  0.44978535513E+03  0.46999998093E+01 0. -1.
       -5    1    3    3    0  502 -0.14520700497E+03  0.42342751939E+03  0.53641737149E+02  0.45086080383E+03  0.46999998093E+01 0.  1.
</event>
<event>
 5   0  0.1630202E-03  0.9154463E+03  0.7818609E-02  0.9406476E-01
        2   -1    0    0  501    0  0.00000000000E+00  0.00000000000E+00  0.71604163176E+03  0.71604163177E+03  0.25500000920E-02 0.  1.
       -2   -1    0    0    0  501  0.00000000000E+00  0.00000000000E+00 -0.29259536512E+03  0.29259536513E+03  0.25500000920E-02 0. -1.
    10030    2    1    2    0    0  0.00000000000E+00  0.00000000000E+00  0.42344626664E+03  0.10086369969E+04  0.91544625773E+03 0.  0.
        4    1    3    3  502    0  0.24522523893E+03 -0.44121158381E+02  0.63477166708E+03  0.68192285243E+03  0.12699999809E+01 0.  1.
       -4    1    3    3    0  502 -0.24522523893E+03  0.44121158381E+02 -0.21132540045E+03  0.32671414448E+03  0.12699999809E+01 0. -1.
</event>
<event>
 5   0  0.9697941E-04  0.8955132E+03  0.7818609E-02  0.9431208E-01
       -1   -1    0    0    0  501  0.00000000000E+00  0.00000000000E+00  0.92012309022E+03  0.92012309024E+03  0.50400001928E-02 0. -1.
        1   -1    0    0  501    0  0.00000000000E+00  0.00000000000E+00 -0.21789036535E+03  0.21789036541E+03  0.50400001928E-02 0.  1.
    10030    2    1    2    0    0  0.00000000000E+00  0.00000000000E+00  0.70223272487E+03  0.11380134556E+04  0.89551316314E+03 0.  0.
        5    1    3    3  502    0  0.63192525777E+01  0.43565960565E+03  0.22012804504E+03  0.48817790933E+03  0.46999998093E+01 0.  1.
       -5    1    3    3    0  502 -0.63192525777E+01 -0.43565960565E+03  0.48210467983E+03  0.64983554632E+03  0.46999998093E+01 0. -1.
</event>
<event>
 5   0  0.1536020E-03  0.8963095E+03  0.7818609E-02  0.9430207E-01
        2   -1    0    0  501    0  0.00000000000E+00  0.00000000000E+00  0.11522264247E+04  0.11522264247E+04  0.25500000920E-02 0.  1.
       -2   -1    0    0    0  501  0.00000000000E+00  0.00000000000E+00 -0.17430834562E+03  0.17430834564E+03  0.25500000920E-02 0. -1.
    10030    2    1    2    0    0  0.00000000000E+00  0.00000000000E+00  0.97791807903E+03  0.13265347703E+04  0.89630950429E+03 0.  0.
        2    1    3    3  502    0  0.35031484656E+03 -0.69199276739E+01  0.90249635013E+03  0.96812604506E+03  0.25500000920E-02 0.  1.
       -2    1    3    3    0  502 -0.35031484656E+03  0.69199276739E+01  0.75421728900E+02  0.35840872522E+03  0.25500000920E-02 0. -1.
</event>
<event>
 5   0  0.1007561E-03  0.9010848E+03  0.7818609E-02  0.9424226E-01
       -1   -1    0    0    0  501  0.00000000000E+00  0.00000000000E+00  0.14514333982E+03  0.14514333990E+03  0.50400001928E-02 0.  1.
        1   -1    0    0  501    0  0.00000000000E+00  0.00000000000E+00 -0.13985377566E+04  0.13985377566E+04  0.50400001928E-02 0. -1.
    10030    2    1    2    0    0  0.00000000000E+00  0.00000000000E+00 -0.12533944168E+04  0.15436810965E+04  0.90108477054E+03 0.  0.
        2    1    3    3  502    0 -0.34140405618E+03  0.25107613192E+03 -0.36467980544E+03  0.55909508502E+03  0.25500000920E-02 0.  1.
       -2    1    3    3    0  502  0.34140405618E+03 -0.25107613192E+03 -0.88871461134E+03  0.98458601149E+03  0.25500000920E-02 0. -1.
</event>
<event>
 5   0  0.9223454E-04  0.9005937E+03  0.7818609E-02  0.9424840E-01
        1   -1    0    0  501    0  0.00000000000E+00  0.00000000000E+00  0.33695243956E+03  0.33695243960E+03  0.50400001928E-02 0. -1.
       -1   -1    0    0    0  501  0.00000000000E+00  0.00000000000E+00 -0.60176819908E+03  0.60176819910E+03  0.50400001928E-02 0.  1.
    10030    2    1    2    0    0  0.00000000000E+00  0.00000000000E+00 -0.26481575952E+03  0.93872063869E+03  0.90059372140E+03 0.  0.
        1    1    3    3  502    0  0.23915619861E+03 -0.25136244197E+03  0.16677776006E+03  0.38495920023E+03  0.50400001928E-02 0. -1.
       -1    1    3    3    0  502 -0.23915619861E+03  0.25136244197E+03 -0.43159351958E+03  0.55376143846E+03  0.50400001928E-02 0.  1.
</event>
<event>
 5   0  0.1536020E-03  0.8997092E+03  0.7818609E-02  0.9425945E-01
        2   -1    0    0  501    0  0.00000000000E+00  0.00000000000E+00  0.77014343568E+03  0.77014343569E+03  0.25500000920E-02 0.  1.
       -2   -1    0    0    0  501  0.00000000000E+00  0.00000000000E+00 -0.26276816964E+03  0.26276816965E+03  0.25500000920E-02 0. -1.
    10030    2    1    2    0    0  0.00000000000E+00  0.00000000000E+00  0.50737526604E+03  0.10329116053E+04  0.89970924407E+03 0.  0.
        2    1    3    3  502    0  0.84722798463E+02 -0.42830949175E+03  0.12928320108E+03  0.45534725144E+03  0.25500000920E-02 0.  1.
       -2    1    3    3    0  502 -0.84722798463E+02  0.42830949175E+03  0.37809206496E+03  0.57756435390E+03  0.25500000920E-02 0. -1.
</event>
<event>
 5   0  0.1630202E-03  0.9008287E+03  0.7818609E-02  0.9424546E-01
       -2   -1    0    0    0  501  0.00000000000E+00  0.00000000000E+00  0.34999579594E+03  0.34999579595E+03  0.25500000920E-02 0.  1.
        2   -1    0    0  501    0  0.00000000000E+00  0.00000000000E+00 -0.57964439353E+03  0.57964439353E+03  0.25500000920E-02 0. -1.
    10030    2    1    2    0    0  0.00000000000E+00  0.00000000000E+00 -0.22964859759E+03  0.92964018948E+03  0.90082873151E+03 0.  0.
        4    1    3    3  502    0 -0.90368387985E+02 -0.11946529144E+03  0.32353553178E+03  0.35653226309E+03  0.12699999809E+01 0.  1.
       -4    1    3    3    0  502  0.90368387985E+02  0.11946529144E+03 -0.55318412936E+03  0.57310792639E+03  0.12699999809E+01 0. -1.
</event>
<event>
 5   0  0.1007561E-03  0.8996045E+03  0.7818609E-02  0.9426076E-01
        1   -1    0    0  501    0  0.00000000000E+00  0.00000000000E+00  0.11919665668E+04  0.11919665668E+04  0.50400001928E-02 0. -1.
       -1   -1    0    0    0  501  0.00000000000E+00  0.00000000000E+00 -0.16973805363E+03  0.16973805371E+03  0.50400001928E-02 0.  1.
    10030    2    1    2    0    0  0.00000000000E+00  0.00000000000E+00  0.10222285131E+04  0.13617046205E+04  0.89960454667E+03 0.  0.
        2    1    3    3  502    0 -0.28498506752E+03 -0.10545091416E+03  0.10131092469E+04  0.10576987899E+04  0.25500000920E-02 0. -1.
       -2    1    3    3    0  502  0.28498506752E+03  0.10545091416E+03  0.91192662402E+01  0.30400583059E+03  0.25500000920E-02 0.  1.
</event>
<event>
 5   0  0.9223454E-04  0.8982454E+03  0.7818609E-02  0.9427777E-01
       -1   -1    0    0    0  501  0.00000000000E+00  0.00000000000E+00  0.47604826979E+03  0.47604826982E+03  0.50400001928E-02 0. -1.
        1   -1    0    0  501    0  0.00000000000E+00  0.00000000000E+00 -0.42372009684E+03  0.42372009687E+03  0.50400001928E-02 0.  1.
    10030    2    1    2    0    0  0.00000000000E+00  0.00000000000E+00  0.52328172947E+02  0.89976836669E+03  0.89824544308E+03 0.  0.
        1    1    3    3  502    0  0.22706346727E+03 -0.34630798889E+03 -0.14798168936E+03  0.43975632087E+03  0.50400001928E-02 0.  1.
       -1    1    3    3    0  502 -0.22706346727E+03  0.34630798889E+03  0.20030986231E+03  0.46001204582E+03  0.50400001928E-02 0. -1.
</event>
<event>
 5   0  0.9981885E-04  0.8993333E+03  0.7818609E-02  0.9426415E-01
       -1   -1    0    0    0  501  0.00000000000E+00  0.00000000000E+00  0.27862527262E+03  0.27862527266E+03  0.50400001928E-02 0. -1.
        1   -1    0    0  501    0  0.00000000000E+00  0.00000000000E+00 -0.72570621980E+03  0.72570621982E+03  0.50400001928E-02 0.  1.
    10030    2    1    2    0    0  0.00000000000E+00  0.00000000000E+00 -0.44708094718E+03  0.10043314925E+04  0.89933329387E+03 0.  0.
        4    1    3    3  502    0  0.22054086303E+03  0.27110137828E+03  0.92451267376E+02  0.36150114704E+03  0.12699999809E+01 0.  1.
       -4    1    3    3    0  502 -0.22054086303E+03 -0.27110137828E+03 -0.53953221456E+03  0.64283034544E+03  0.12699999809E+01 0. -1.
</event>
<event>
 5   0  0.1630202E-03  0.8913110E+03  0.7818609E-02  0.9436509E-01
       -2   -1    0    0    0  501  0.00000000000E+00  0.00000000000E+00  0.16487049318E+03  0.16487049320E+03  0.25500000920E-02 0. -1.
        2   -1    0    0  501    0  0.00000000000E+00  0.00000000000E+00 -0.12046352696E+04  0.12046352696E+04  0.25500000920E-02 0.  1.
    10030    2    1    2    0    0  0.00000000000E+00  0.00000000000E+00 -0.10397647764E+04  0.13695057628E+04  0.89131096934E+03 0.  0.
        4    1    3    3  502    0 -0.64344476077E+02  0.43456012722E+03 -0.40464964739E+03  0.59726515536E+03  0.12699999809E+01 0. -1.
       -4    1    3    3    0  502  0.64344476077E+02 -0.43456012722E+03 -0.63511512901E+03  0.77224060743E+03  0.12699999809E+01 0.  1.
</event>
<event>
 5   0  0.9321543E-04  0.9005779E+03  0.7818609E-02  0.9424859E-01
       -1   -1    0    0    0  501  0.00000000000E+00  0.00000000000E+00  0.49838350632E+03  0.49838350635E+03  0.50400001928E-02 0.  1.
        1   -1    0    0  501    0  0.00000000000E+00  0.00000000000E+00 -0.40683560741E+03  0.40683560744E+03  0.50400001928E-02 0. -1.
    10030    2    1    2    0    0  0.00000000000E+00  0.00000000000E+00  0.91547898912E+02  0.90521911379E+03  0.90057794009E+03 0.  0.
        3    1    3    3  502    0 -0.97648740404E+02 -0.79346262428E+02  0.48035501389E+03  0.49656022337E+03  0.10100000352E+00 0.  1.
       -3    1    3    3    0  502  0.97648740404E+02  0.79346262428E+02 -0.38880711497E+03  0.40865889042E+03  0.10100000352E+00 0. -1.
</event>
<event>
 5   0  0.9223454E-04  0.8994728E+03  0.7818609E-02  0.9426241E-01
        1   -1    0    0  501    0  0.00000000000E+00  0.00000000000E+00  0.13098133406E+03  0.13098133416E+03  0.50400001928E-02 0.  1.
       -1   -1    0    0    0  501  0.00000000000E+00  0.00000000000E+00 -0.15442109277E+04  0.15442109277E+04  0.50400001928E-02 0. -1.
    10030    2    1    2    0    0  0.00000000000E+00  0.00000000000E+00 -0.14132295936E+04  0.16751922619E+04  0.89947275104E+03 0.  0.
        1    1    3    3  502    0 -0.19289737342E+03 -0.33483275327E+03 -0.27809547147E+03  0.47608766064E+03  0.50400001928E-02 0.  1.
       -1    1    3    3    0  502  0.19289737342E+03  0.33483275327E+03 -0.11351341222E+04  0.11991046012E+04  0.50400001928E-02 0. -1.
</event>
<event>
 5   0  0.9223454E-04  0.8988731E+03  0.7818609E-02  0.9426991E-01
        1   -1    0    0  501    0  0.00000000000E+00  0.00000000000E+00  0.12476992449E+03  0.12476992460E+03  0.50400001928E-02 0. -1.
       -1   -1    0    0    0  501  0.00000000000E+00  0.00000000000E+00 -0.16189255956E+04  0.16189255957E+04  0.50400001928E-02 0.  1.
    10030    2    1    2    0    0  0.00000000000E+00  0.00000000000E+00 -0.14941556712E+04  0.17436955202E+04  0.89887312659E+03 0.  0.
        1    1    3    3  502    0 -0.20493573236E+03  0.12294787637E+03 -0.14854478650E+04  0.15045498312E+04  0.50400001928E-02 0.  1.
       -1    1    3    3    0  502  0.20493573236E+03 -0.12294787637E+03 -0.87078061312E+01  0.23914568910E+03  0.50400001928E-02 0. -1.
</event>
<event>
 5   0  0.1630202E-03  0.8993976E+03  0.7818609E-02  0.9426335E-01
        2   -1    0    0  501    0  0.00000000000E+00  0.00000000000E+00  0.27802365248E+04  0.27802365248E+04  0.25500000920E-02 0.  1.
       -2   -1    0    0    0  501  0.00000000000E+00  0.00000000000E+00 -0.72738051967E+02  0.72738052012E+02  0.25500000920E-02 0. -1.
    10030    2    1    2    0    0  0.00000000000E+00  0.00000000000E+00  0.27074984728E+04  0.28529745768E+04  0.89939755145E+03 0.  0.
        4    1    3    3  502    0  0.77281277813E+02  0.43581273530E+03  0.16059704925E+04  0.16658475236E+04  0.12699999809E+01 0.  1.
       -4    1    3    3    0  502 -0.77281277813E+02 -0.43581273530E+03  0.11015279803E+04  0.11871270532E+04  0.12699999809E+01 0. -1.
</event>
<event>
 5   0  0.1704416E-03  0.9022537E+03  0.7818609E-02  0.9422769E-01
       -2   -1    0    0    0  501  0.00000000000E+00  0.00000000000E+00  0.61456141054E+03  0.61456141055E+03  0.25500000920E-02 0. -1.
        2   -1    0    0  501    0  0.00000000000E+00  0.00000000000E+00 -0.33115555379E+03  0.33115555380E+03  0.25500000920E-02 0.  1.
    10030    2    1    2    0    0  0.00000000000E+00  0.00000000000E+00  0.28340585675E+03  0.94571696435E+03  0.90225367665E+03 0.  0.
        3    1    3    3  502    0 -0.85210752207E+02 -0.15027200989E+03 -0.29511303695E+03  0.34195652360E+03  0.10100000352E+00 0.  1.
       -3    1    3    3    0  502  0.85210752207E+02  0.15027200989E+03  0.57851889370E+03  0.60376044075E+03  0.10100000352E+00 0. -1.
</event>
<event>
 5   0  0.6375625E-04  0.8924615E+03  0.7818609E-02  0.9435054E-01
        3   -1    0    0  501    0  0.00000000000E+00  0.00000000000E+00  0.22063653389E+03  0.22063655701E+03  0.10100000352E+00 0.  1.
       -3   -1    0    0    0  501  0.00000000000E+00  0.00000000000E+00 -0.90248816675E+03  0.90248817240E+03  0.10100000352E+00 0. -1.
    10030    2    1    2    0    0  0.00000000000E+00  0.00000000000E+00 -0.68185163286E+03  0.11231247294E+04  0.89246148857E+03 0.  0.
        5    1    3    3  502    0 -0.59141935429E+02  0.21926866316E+03  0.14243203046E+03  0.26811469275E+03  0.46999998093E+01 0.  1.
       -5    1    3    3    0  502  0.59141935429E+02 -0.21926866316E+03 -0.82428366332E+03  0.85501003666E+03  0.46999998093E+01 0. -1.
</event>
<event>
 5   0  0.1635686E-03  0.8989239E+03  0.7818609E-02  0.9426928E-01
        2   -1    0    0  501    0  0.00000000000E+00  0.00000000000E+00  0.30615286195E+03  0.30615286196E+03  0.25500000920E-02 0.  1.
       -2   -1    0    0    0  501  0.00000000000E+00  0.00000000000E+00 -0.65985345731E+03  0.65985345732E+03  0.25500000920E-02 0. -1.
    10030    2    1    2    0    0  0.00000000000E+00  0.00000000000E+00 -0.35370059536E+03  0.96600631928E+03  0.89892385536E+03 0.  0.
        5    1    3    3  502    0  0.44930972212E+02  0.36932848058E+03 -0.44780000488E+03  0.58221066050E+03  0.46999998093E+01 0.  1.
       -5    1    3    3    0  502 -0.44930972212E+02 -0.36932848058E+03  0.94099409517E+02  0.38379565878E+03  0.46999998093E+01 0. -1.
</event>
<event>
 5   0  0.1704416E-03  0.8990459E+03  0.7818609E-02  0.9426775E-01
       -2   -1    0    0    0  501  0.00000000000E+00  0.00000000000E+00  0.31016392407E+03  0.31016392408E+03  0.25500000920E-02 0. -1.
        2   -1    0    0  501    0  0.00000000000E+00  0.00000000000E+00 -0.65149705748E+03  0.65149705748E+03  0.25500000920E-02 0.  1.
    10030    2    1    2    0    0  0.00000000000E+00  0.00000000000E+00 -0.34133313340E+03  0.96166098156E+03  0.89904590289E+03 0.  0.
        3    1    3    3  502    0  0.11395832687E+03 -0.32286926565E+03 -0.48222533235E+03  0.59141554285E+03  0.10100000352E+00 0.  1.
       -3    1    3    3    0  502 -0.11395832687E+03  0.32286926565E+03  0.14089219894E+03  0.37024543871E+03  0.10100000352E+00 0. -1.
</event>
<event>
 5   0  0.9697941E-04  0.8973889E+03  0.7818609E-02  0.9428851E-01
       -1   -1    0    0    0  501  0.00000000000E+00  0.00000000000E+00  0.45879715969E+03  0.45879715972E+03  0.50400001928E-02 0. -1.
        1   -1    0    0  501    0  0.00000000000E+00  0.00000000000E+00 -0.43881422411E+03  0.43881422414E+03  0.50400001928E-02 0.  1.
    10030    2    1    2    0    0  0.00000000000E+00  0.00000000000E+00  0.19982935582E+02  0.89761138386E+03  0.89738892278E+03 0.  0.
        5    1    3    3  502    0 -0.99261490793E+02 -0.99825537244E+02 -0.41612663769E+03  0.43931930305E+03  0.46999998093E+01 0.  1.
       -5    1    3    3    0  502  0.99261490793E+02  0.99825537244E+02  0.43610957327E+03  0.45829208081E+03  0.46999998093E+01 0. -1.
</event>
<event>
 5   0  0.1635686E-03  0.9067098E+03  0.7818609E-02  0.9417233E-01
        2   -1    0    0  501    0  0.00000000000E+00  0.00000000000E+00  0.28676119990E+03  0.28676119991E+03  0.25500000920E-02 0.  1.
       -2   -1    0    0    0  501  0.00000000000E+00  0.00000000000E+00 -0.71673103246E+03  0.71673103246E+03  0.25500000920E-02 0. -1.
    10030    2    1    2    0    0  0.00000000000E+00  0.00000000000E+00 -0.42996983256E+03  0.10034922324E+04  0.90670976808E+03 0.  0.
        5    1    3    3  502    0 -0.36838038404E+02 -0.22571955339E+03 -0.64817472011E+03  0.68735646913E+03  0.46999998093E+01 0. -1.
       -5    1    3    3    0  502  0.36838038404E+02  0.22571955339E+03  0.21820488756E+03  0.31613576325E+03  0.46999998093E+01 0.  1.
</event>
<event>
 5   0  0.1536020E-03  0.8990986E+03  0.7818609E-02  0.9426709E-01
       -2   -1    0    0    0  501  0.00000000000E+00  0.00000000000E+00  0.12359892562E+03  0.12359892564E+03  0.25500000920E-02 0.  1.
        2   -1    0    0  501    0  0.00000000000E+00  0.00000000000E+00 -0.16350837358E+04  0.16350837358E+04  0.25500000920E-02 0. -1.
    10030    2    1    2    0    0  0.00000000000E+00  0.00000000000E+00 -0.15114848102E+04  0.17586826614E+04  0.89909864433E+03 0.  0.
        2    1    3    3  502    0 -0.19995349048E+02  0.35574658252E+03 -0.21955911833E+03  0.41852317906E+03  0.25500000920E-02 0.  1.
       -2    1    3    3    0  502  0.19995349048E+02 -0.35574658252E+03 -0.12919256918E+04  0.13401594824E+04  0.25500000920E-02 0. -1.
</event>
<event>
 5   0  0.1635686E-03  0.8963266E+03  0.7818609E-02  0.9430185E-01
       -2   -1    0    0    0  501  0.00000000000E+00  0.00000000000E+00  0.30925370120E+03  0.30925370121E+03  0.25500000920E-02 0. -1.
        2   -1    0    0  501    0  0.00000000000E+00  0.00000000000E+00 -0.64946782835E+03  0.64946782836E+03  0.25500000920E-02 0.  1.
    10030    2    1    2    0    0  0.00000000000E+00  0.00000000000E+00 -0.34021412715E+03  0.95872152957E+03  0.89632656936E+03 0.  0.
        5    1    3    3  502    0 -0.20372564183E+03  0.24922299888E+03 -0.50359962230E+03  0.59770470124E+03  0.46999998093E+01 0.  1.
       -5    1    3    3    0  502  0.20372564183E+03 -0.24922299888E+03  0.16338549515E+03  0.36101682832E+03  0.46999998093E+01 0. -1.
</event>
<event>
 5   0  0.9223454E-04  0.8976353E+03  0.7818609E-02  0.9428542E-01
        1   -1    0    0  501    0  0.00000000000E+00  0.00000000000E+00  0.30817361072E+03  0.30817361076E+03  0.50400001928E-02 0.  1.
       -1   -1    0    0    0  501  0.00000000000E+00  0.00000000000E+00 -0.65364874307E+03  0.65364874309E+03  0.50400001928E-02 0. -1.
    10030    2    1    2    0    0  0.00000000000E+00  0.00000000000E+00 -0.34547513235E+03  0.96182235385E+03  0.89763532311E+03 0.  0.
        1    1    3    3  502    0  0.25790740295E+02  0.44037825771E+03 -0.26135008481E+03  0.51273973807E+03  0.50400001928E-02 0.  1.
       -1    1    3    3    0  502 -0.25790740295E+02 -0.44037825771E+03 -0.84125047542E+02  0.44908261578E+03  0.50400001928E-02 0. -1.
</event>
<event>
 5   0  0.1536020E-03  0.8992478E+03  0.7818609E-02  0.9426522E-01
        2   -1    0    0  501    0  0.00000000000E+00  0.00000000000E+00  0.16207149226E+04  0.16207149226E+04  0.25500000920E-02 0.  1.
       -2   -1    0    0    0  501  0.00000000000E+00  0.00000000000E+00 -0.12473608876E+03  0.12473608879E+03  0.25500000920E-02 0. -1.
    10030    2    1    2    0    0  0.00000000000E+00  0.00000000000E+00  0.14959788338E+04  0.17454510114E+04  0.89924777557E+03 0.  0.
        2    1    3    3  502    0 -0.11913880160E+03 -0.16952404330E+03  0.15225218857E+04  0.15365563276E+04  0.25500000920E-02 0.  1.
       -2    1    3    3    0  502  0.11913880160E+03  0.16952404330E+03 -0.26543051917E+02  0.20889468378E+03  0.25500000920E-02 0. -1.
</event>
<event>
 5   0  0.9697941E-04  0.8997127E+03  0.7818609E-02  0.9425941E-01
        1   -1    0    0  501    0  0.00000000000E+00  0.00000000000E+00  0.62247651972E+03  0.62247651974E+03  0.50400001928E-02 0. -1.
       -1   -1    0    0    0  501  0.00000000000E+00  0.00000000000E+00 -0.32510581623E+03  0.32510581627E+03  0.50400001928E-02 0.  1.
    10030    2    1    2    0    0  0.00000000000E+00  0.00000000000E+00  0.29737070349E+03  0.94758233602E+03  0.89971270317E+03 0.  0.
        5    1    3    3  502    0 -0.21522799603E+03  0.15891064331E+02 -0.26699475318E+03  0.34334225552E+03  0.46999998093E+01 0.  1.
       -5    1    3    3    0  502  0.21522799603E+03 -0.15891064331E+02  0.56436545667E+03  0.60424008050E+03  0.46999998093E+01 0. -1.
</event>
<event>
 5   0  0.9321543E-04  0.9003042E+03  0.7818609E-02  0.9425201E-01
        1   -1    0    0  501    0  0.00000000000E+00  0.00000000000E+00  0.13663608751E+04  0.13663608751E+04  0.50400001928E-02 0. -1.
       -1   -1    0    0    0  501  0.00000000000E+00  0.00000000000E+00 -0.14830408109E+03  0.14830408117E+03  0.50400001928E-02 0.  1.
    10030    2    1    2    0    0  0.00000000000E+00  0.00000000000E+00  0.12180567940E+04  0.15146649563E+04  0.90030415770E+03 0.  0.
        3    1    3    3  502    0  0.24625197728E+03  0.17540992909E+03  0.47935481976E+02  0.30611517468E+03  0.10100000352E+00 0.  1.
       -3    1    3    3    0  502 -0.24625197728E+03 -0.17540992909E+03  0.11701213120E+04  0.12085497816E+04  0.10100000352E+00 0. -1.
</event>
<event>
 5   0  0.1630202E-03  0.9014753E+03  0.7818609E-02  0.9423739E-01
       -2   -1    0    0    0  501  0.00000000000E+00  0.00000000000E+00  0.12104617480E+03  0.12104617483E+03  0.25500000920E-02 0.  1.
        2   -1    0    0  501    0  0.00000000000E+00  0.00000000000E+00 -0.16784044526E+04  0.16784044526E+04  0.25500000920E-02 0. -1.
    10030    2    1    2    0    0  0.00000000000E+00  0.00000000000E+00 -0.15573582778E+04  0.17994506275E+04  0.90147532144E+03 0.  0.
        4    1    3    3  502    0 -0.10431296252E+02  0.29547451680E+03 -0.99562476028E+02  0.31197484122E+03  0.12699999809E+01 0.  1.
       -4    1    3    3    0  502  0.10431296252E+02 -0.29547451680E+03 -0.14577958018E+04  0.14874757862E+04  0.12699999809E+01 0. -1.
</event>
<event>
 5   0  0.9321543E-04  0.9001884E+03  0.7818609E-02  0.9425346E-01
        1   -1    0    0  501    0  0.00000000000E+00  0.00000000000E+00  0.79066783105E+03  0.79066783106E+03  0.50400001928E-02 0.  1.
       -1   -1    0    0    0  501  0.00000000000E+00  0.00000000000E+00 -0.25621985628E+03  0.25621985633E+03  0.50400001928E-02 0. -1.
    10030    2    1    2    0    0  0.00000000000E+00  0.00000000000E+00  0.53444797477E+03  0.10468876874E+04  0.90018842043E+03 0.  0.
        3    1    3    3  502    0  0.17769670494E+03 -0.15392819421E+03  0.71358867585E+03  0.75131805278E+03  0.10100000352E+00 0.  1.
       -3    1    3    3    0  502 -0.17769670494E+03  0.15392819421E+03 -0.17914070109E+03  0.29556963462E+03  0.10100000352E+00 0. -1.
</event>
<event>
 5   0  0.9981885E-04  0.8997427E+03  0.7818609E-02  0.9425903E-01
        1   -1    0    0  501    0  0.00000000000E+00  0.00000000000E+00  0.47989624510E+03  0.47989624513E+03  0.50400001928E-02 0. -1.
       -1   -1    0    0    0  501  0.00000000000E+00  0.00000000000E+00 -0.42172496799E+03  0.42172496802E+03  0.50400001928E-02 0.  1.
    10030    2    1    2    0    0  0.00000000000E+00  0.00000000000E+00  0.58171277114E+02  0.90162121315E+03  0.89974269351E+03 0.  0.
        4    1    3    3  502    0 -0.11654153077E+02  0.43327775495E+03  0.14982447213E+03  0.45860049888E+03  0.12699999809E+01 0. -1.
       -4    1    3    3    0  502  0.11654153077E+02 -0.43327775495E+03 -0.91653195017E+02  0.44302071428E+03  0.12699999809E+01 0.  1.
</event>
<event>
 5   0  0.9321543E-04  0.8975297E+03  0.7818609E-02  0.9428675E-01
        1   -1    0    0  501    0  0.00000000000E+00  0.00000000000E+00  0.15631520834E+04  0.15631520834E+04  0.50400001928E-02 0.  1.
       -1   -1    0    0    0  501  0.00000000000E+00  0.00000000000E+00 -0.12883576233E+03  0.12883576243E+03  0.50400001928E-02 0. -1.
    10030    2    1    2    0    0  0.00000000000E+00  0.00000000000E+00  0.14343163211E+04  0.16919878459E+04  0.89752969957E+03 0.  0.
        3    1    3    3  502    0 -0.29583711810E+03 -0.57201276862E+02  0.13440933164E+04  0.13774536072E+04  0.10100000352E+00 0.  1.
       -3    1    3    3    0  502  0.29583711810E+03  0.57201276862E+02  0.90223004664E+02  0.31453423866E+03  0.10100000352E+00 0. -1.
</event>
<event>
 5   0  0.1635686E-03  0.8985991E+03  0.7818609E-02  0.9427334E-01
        2   -1    0    0  501    0  0.00000000000E+00  0.00000000000E+00  0.75055011358E+03  0.75055011359E+03  0.25500000920E-02 0.  1.
       -2   -1    0    0    0  501  0.00000000000E+00  0.00000000000E+00 -0.26896283832E+03  0.26896283833E+03  0.25500000920E-02 0. -1.
    10030    2    1    2    0    0  0.00000000000E+00  0.00000000000E+00  0.48158727526E+03  0.10195129519E+04  0.89859910719E+03 0.  0.
        5    1    3    3  502    0  0.35438898462E+03  0.21061663640E+03  0.44342292689E+03  0.60547246183E+03  0.46999998093E+01 0.  1.
       -5    1    3    3    0  502 -0.35438898462E+03 -0.21061663640E+03  0.38164348371E+02  0.41404049009E+03  0.46999998093E+01 0. -1.
</event>
<event>
 5   0  0.9981885E-04  0.8995515E+03  0.7818609E-02  0.9426142E-01
        1   -1    0    0  501    0  0.00000000000E+00  0.00000000000E+00  0.98250337313E+03  0.98250337314E+03  0.50400001928E-02 0. -1.
       -1   -1    0    0    0  501  0.00000000000E+00  0.00000000000E+00 -0.20590081684E+03  0.20590081690E+03  0.50400001928E-02 0.  1.
    10030    2    1    2    0    0  0.00000000000E+00  0.00000000000E+00  0.77660255629E+03  0.11884041900E+04  0.89955154853E+03 0.  0.
        4    1    3    3  502    0 -0.28340922706E+03 -0.83770981277E+02 -0.59626733967E+02  0.30148851983E+03  0.12699999809E+01 0.  1.
       -4    1    3    3    0  502  0.28340922706E+03  0.83770981277E+02  0.83622929026E+03  0.88691567021E+03  0.12699999809E+01 0. -1.
</event>
<event>
 5   0  0.9697941E-04  0.8993840E+03  0.7818609E-02  0.9426352E-01
       -1   -1    0    0    0  501  0.00000000000E+00  0.00000000000E+00  0.10669039801E+04  0.10669039802E+04  0.50400001928E-02 0. -1.
        1   -1    0    0  501    0  0.00000000000E+00  0.00000000000E+00 -0.18954181392E+03  0.18954181399E+03  0.50400001928E-02 0.  1.
    10030    2    1    2    0    0  0.00000000000E+00  0.00000000000E+00  0.87736216622E+03  0.12564457941E+04  0.89938404639E+03 0.  0.
        5    1    3    3  502    0 -0.33656391527E+03  0.15143039444E+03  0.79798737821E+02  0.37761933475E+03  0.46999998093E+01 0.  1.
       -5    1    3    3    0  502  0.33656391527E+03 -0.15143039444E+03  0.79756342839E+03  0.87882645939E+03  0.46999998093E+01 0. -1.
</event>
<event>
 5   0  0.1635686E-03  0.8995078E+03  0.7818609E-02  0.9426197E-01
        2   -1    0    0  501    0  0.00000000000E+00  0.00000000000E+00  0.10317810389E+04  0.10317810389E+04  0.25500000920E-02 0. -1.
       -2   -1    0    0    0  501  0.00000000000E+00  0.00000000000E+00 -0.19604797147E+03  0.19604797148E+03  0.25500000920E-02 0.  1.
    10030    2    1    2    0    0  0.00000000000E+00  0.00000000000E+00  0.83573306740E+03  0.12278290104E+04  0.89950782026E+03 0.  0.
        5    1    3    3  502    0  0.20117628373E+03  0.20992500903E+03 -0.50462247764E+02  0.29514222843E+03  0.46999998093E+01 0.  1.
       -5    1    3    3    0  502 -0.20117628373E+03 -0.20992500903E+03  0.88619531517E+03  0.93268678192E+03  0.46999998093E+01 0. -1.
</event>
<event>
 5   0  0.9697941E-04  0.9003110E+03  0.7818609E-02  0.9425193E-01
        1   -1    0    0  501    0  0.00000000000E+00  0.00000000000E+00  0.36758732207E+03  0.36758732210E+03  0.50400001928E-02 0.  1.
       -1   -1    0    0    0  501  0.00000000000E+00  0.00000000000E+00 -0.55127031781E+03  0.55127031783E+03  0.50400001928E-02 0. -1.
    10030    2    1    2    0    0  0.00000000000E+00  0.00000000000E+00 -0.18368299574E+03  0.91885763994E+03  0.90031101268E+03 0.  0.
        5    1    3    3  502    0 -0.20593408200E+02  0.33230517703E+03  0.21732975272E+03  0.39762435861E+03  0.46999998093E+01 0.  1.
       -5    1    3    3    0  502  0.20593408200E+02 -0.33230517703E+03 -0.40101274846E+03  0.52123328133E+03  0.46999998093E+01 0. -1.
</event>
<event>
 5   0  0.1630202E-03  0.8999498E+03  0.7818609E-02  0.9425644E-01
        2   -1    0    0  501    0  0.00000000000E+00  0.00000000000E+00  0.13692664684E+04  0.13692664684E+04  0.25500000920E-02 0.  1.
       -2   -1    0    0    0  501  0.00000000000E+00  0.00000000000E+00 -0.14787291638E+03  0.14787291640E+03  0.25500000920E-02 0. -1.
    10030    2    1    2    0    0  0.00000000000E+00  0.00000000000E+00  0.12213935520E+04  0.15171393848E+04  0.89994983416E+03 0.  0.
        4    1    3    3  502    0  0.44804483875E+03 -0.20625180885E+02  0.67162496267E+03  0.80762075196E+03  0.12699999809E+01 0.  1.
       -4    1    3    3    0  502 -0.44804483875E+03  0.20625180885E+02  0.54976858934E+03  0.70951863283E+03  0.12699999809E+01 0. -1.
</event>
<event>
 5   0  0.1007561E-03  0.8999649E+03  0.7818609E-02  0.9425625E-01
       -1   -1    0    0    0  501  0.00000000000E+00  0.00000000000E+00  0.16465534801E+03  0.16465534809E+03  0.50400001928E-02 0.  1.
        1   -1    0    0  501    0  0.00000000000E+00  0.00000000000E+00 -0.12297456465E+04  0.12297456465E+04  0.50400001928E-02 0. -1.
    10030    2    1    2    0    0  0.00000000000E+00  0.00000000000E+00 -0.10650902985E+04  0.13944009946E+04  0.89996488253E+03 0.  0.
        2    1    3    3  502    0 -0.11957262056E+03 -0.16042692353E+03 -0.11570296949E+04  0.11742027612E+04  0.25500000920E-02 0. -1.
       -2    1    3    3    0  502  0.11957262056E+03  0.16042692353E+03  0.91939396434E+02  0.22019823343E+03  0.25500000920E-02 0.  1.
</event>
<event>
 5   0  0.1007561E-03  0.9049004E+03  0.7818609E-02  0.9419476E-01
       -1   -1    0    0    0  501  0.00000000000E+00  0.00000000000E+00  0.46208978981E+03  0.46208978984E+03  0.50400001928E-02 0. -1.
        1   -1    0    0  501    0  0.00000000000E+00  0.00000000000E+00 -0.44301167771E+03  0.44301167774E+03  0.50400001928E-02 0.  1.
    10030    2    1    2    0    0  0.00000000000E+00  0.00000000000E+00  0.19078112101E+02  0.90510146758E+03  0.90490037698E+03 0.  0.
        2    1    3    3  502    0  0.29183232015E+02 -0.30424882661E+03 -0.32413988037E+03  0.44551730784E+03  0.25500000920E-02 0.  1.
       -2    1    3    3    0  502 -0.29183232015E+02  0.30424882661E+03  0.34321799248E+03  0.45958415975E+03  0.25500000920E-02 0. -1.
</event>
<event>
 5   0  0.9223454E-04  0.8926191E+03  0.7818609E-02  0.9434855E-01
       -1   -1    0    0    0  501  0.00000000000E+00  0.00000000000E+00  0.16824814040E+03  0.16824814048E+03  0.50400001928E-02 0. -1.
        1   -1    0    0  501    0  0.00000000000E+00  0.00000000000E+00 -0.11839191668E+04  0.11839191668E+04  0.50400001928E-02 0.  1.
    10030    2    1    2    0    0  0.00000000000E+00  0.00000000000E+00 -0.10156710264E+04  0.13521673073E+04  0.89261906377E+03 0.  0.
        1    1    3    3  502    0 -0.48119789154E+02  0.38166029189E+03 -0.16502779597E+03  0.41858603176E+03  0.50400001928E-02 0. -1.
       -1    1    3    3    0  502  0.48119789154E+02 -0.38166029189E+03 -0.85064323040E+03  0.93358127550E+03  0.50400001928E-02 0.  1.
</event>
<event>
 5   0  0.1704416E-03  0.8990364E+03  0.7818609E-02  0.9426787E-01
        2   -1    0    0  501    0  0.00000000000E+00  0.00000000000E+00  0.91971349839E+03  0.91971349839E+03  0.25500000920E-02 0. -1.
       -2   -1    0    0    0  501  0.00000000000E+00  0.00000000000E+00 -0.21970603777E+03  0.21970603779E+03  0.25500000920E-02 0.  1.
    10030    2    1    2    0    0  0.00000000000E+00  0.00000000000E+00  0.70000746062E+03  0.11394195362E+04  0.89903639221E+03 0.  0.
        3    1    3    3  502    0 -0.21784509389E+03  0.13665111091E+03  0.81728090895E+03  0.85678358141E+03  0.10100000352E+00 0. -1.
       -3    1    3    3    0  502  0.21784509389E+03 -0.13665111091E+03 -0.11727344833E+03  0.28263595477E+03  0.10100000352E+00 0.  1.
</event>
<event>
 5   0  0.1007561E-03  0.9019301E+03  0.7818609E-02  0.9423172E-01
       -1   -1    0    0    0  501  0.00000000000E+00  0.00000000000E+00  0.73225265564E+03  0.73225265566E+03  0.50400001928E-02 0. -1.
        1   -1    0    0  501    0  0.00000000000E+00  0.00000000000E+00 -0.27773127855E+03  0.27773127860E+03  0.50400001928E-02 0.  1.
    10030    2    1    2    0    0  0.00000000000E+00  0.00000000000E+00  0.45452137709E+03  0.10099839343E+04  0.90193007779E+03 0.  0.
        2    1    3    3  502    0  0.79789870028E+02 -0.18671075634E+03  0.67817035009E+03  0.70791408634E+03  0.25500000920E-02 0. -1.
       -2    1    3    3    0  502 -0.79789870028E+02  0.18671075634E+03 -0.22364897300E+03  0.30206984792E+03  0.25500000920E-02 0.  1.
</event>
<event>
 5   0  0.6375625E-04  0.9008585E+03  0.7818609E-02  0.9424509E-01
       -3   -1    0    0    0  501  0.00000000000E+00  0.00000000000E+00  0.82517152225E+03  0.82517152843E+03  0.10100000352E+00 0. -1.
        3   -1    0    0  501    0  0.00000000000E+00  0.00000000000E+00 -0.24587190096E+03  0.24587192171E+03  0.10100000352E+00 0.  1.
    10030    2    1    2    0    0  0.00000000000E+00  0.00000000000E+00  0.57929962129E+03  0.10710434501E+04  0.90085849103E+03 0.  0.
        1    1    3    3  502    0  0.67254845570E+02 -0.17047057192E+03 -0.19954623347E+03  0.27092827365E+03  0.50400001928E-02 0.  1.
       -1    1    3    3    0  502 -0.67254845570E+02  0.17047057192E+03  0.77884585476E+03  0.80011517649E+03  0.50400001928E-02 0. -1.
</event>
<event>
 5   0  0.1007561E-03  0.8992825E+03  0.7818609E-02  0.9426479E-01
       -1   -1    0    0    0  501  0.00000000000E+00  0.00000000000E+00  0.37676015833E+03  0.37676015836E+03  0.50400001928E-02 0. -1.
        1   -1    0    0  501    0  0.00000000000E+00  0.00000000000E+00 -0.53662055562E+03  0.53662055565E+03  0.50400001928E-02 0.  1.
    10030    2    1    2    0    0  0.00000000000E+00  0.00000000000E+00 -0.15986039729E+03  0.91338071401E+03  0.89928248182E+03 0.  0.
        2    1    3    3  502    0 -0.48365606587E+02  0.42680941308E+03  0.55088942902E+02  0.43305923224E+03  0.25500000920E-02 0.  1.
       -2    1    3    3    0  502  0.48365606587E+02 -0.42680941308E+03 -0.21494934020E+03  0.48032148177E+03  0.25500000920E-02 0. -1.
</event>
<event>
 5   0  0.1635686E-03  0.8999467E+03  0.7818609E-02  0.9425648E-01
       -2   -1    0    0    0  501  0.00000000000E+00  0.00000000000E+00  0.20207644085E+03  0.20207644087E+03  0.25500000920E-02 0. -1.
        2   -1    0    0  501    0  0.00000000000E+00  0.00000000000E+00 -0.10019774558E+04  0.10019774558E+04  0.25500000920E-02 0.  1.
    10030    2    1    2    0    0  0.00000000000E+00  0.00000000000E+00 -0.79990101499E+03  0.12040538967E+04  0.89994674976E+03 0.  0.
        5    1    3    3  502    0  0.37693303891E+03 -0.79143999564E+02 -0.71117555490E+03  0.80878615738E+03  0.46999998093E+01 0.  1.
       -5    1    3    3    0  502 -0.37693303891E+03  0.79143999564E+02 -0.88725460097E+02  0.39526773933E+03  0.46999998093E+01 0. -1.
</event>
<event>
 5   0  0.1630202E-03  0.8991859E+03  0.7818609E-02  0.9426600E-01
       -2   -1    0    0    0  501  0.00000000000E+00  0.00000000000E+00  0.19761057167E+03  0.19761057168E+03  0.25500000920E-02 0. -1.
        2   -1    0    0  501    0  0.00000000000E+00  0.00000000000E+00 -0.10228896051E+04  0.10228896051E+04  0.25500000920E-02 0.  1.
    10030    2    1    2    0    0  0.00000000000E+00  0.00000000000E+00 -0.82527903339E+03  0.12205001767E+04  0.89918585314E+03 0.  0.
        4    1    3    3  502    0 -0.39458220374E+03  0.19367582703E+03 -0.54088289541E+03  0.69696582479E+03  0.12699999809E+01 0. -1.
       -4    1    3    3    0  502  0.39458220374E+03 -0.19367582703E+03 -0.28439613799E+03  0.52353435196E+03  0.12699999809E+01 0.  1.
</event>
<event>
 5   0  0.1007561E-03  0.9015912E+03  0.7818609E-02  0.9423594E-01
        1   -1    0    0  501    0  0.00000000000E+00  0.00000000000E+00  0.25053155251E+03  0.25053155257E+03  0.50400001928E-02 0. -1.
       -1   -1    0    0    0  501  0.00000000000E+00  0.00000000000E+00 -0.81114208155E+03  0.81114208157E+03  0.50400001928E-02 0.  1.
    10030    2    1    2    0    0  0.00000000000E+00  0.00000000000E+00 -0.56061052904E+03  0.10616736341E+04  0.90159122675E+03 0.  0.
        2    1    3    3  502    0 -0.11931043227E+03  0.14918832435E+03 -0.76112372285E+03  0.78473018093E+03  0.25500000920E-02 0.  1.
       -2    1    3    3    0  502  0.11931043227E+03 -0.14918832435E+03  0.20051319382E+03  0.27694345320E+03  0.25500000920E-02 0. -1.
</event>
<event>
 5   0  0.9223454E-04  0.9009054E+03  0.7818609E-02  0.9424450E-01
       -1   -1    0    0    0  501  0.00000000000E+00  0.00000000000E+00  0.64881881582E+03  0.64881881584E+03  0.50400001928E-02 0. -1.
        1   -1    0    0  501    0  0.00000000000E+00  0.00000000000E+00 -0.31273389414E+03  0.31273389418E+03  0.50400001928E-02 0.  1.
    10030    2    1    2    0    0  0.00000000000E+00  0.00000000000E+00  0.33608492168E+03  0.96155271002E+03  0.90090539990E+03 0.  0.
        1    1    3    3  502    0 -0.28776831323E+02 -0.34886666026E+03  0.47062590726E+03  0.58653627106E+03  0.50400001928E-02 0. -1.
       -1    1    3    3    0  502  0.28776831323E+02  0.34886666026E+03 -0.13454098559E+03  0.37501643896E+03  0.50400001928E-02 0.  1.
</event>
<event>
 5   0  0.9321543E-04  0.8998933E+03  0.7818609E-02  0.9425715E-01
        1   -1    0    0  501    0  0.00000000000E+00  0.00000000000E+00  0.98177271630E+03  0.98177271631E+03  0.50400001928E-02 0. -1.
       -1   -1    0    0    0  501  0.00000000000E+00  0.00000000000E+00 -0.20621063298E+03  0.20621063304E+03  0.50400001928E-02 0.  1.
    10030    2    1    2    0    0  0.00000000000E+00  0.00000000000E+00  0.77556208331E+03  0.11879833494E+04  0.89989326771E+03 0.  0.
        3    1    3    3  502    0  0.23629533809E+03 -0.53963872056E+02  0.88822373035E+03  0.92070027243E+03  0.10100000352E+00 0. -1.
       -3    1    3    3    0  502 -0.23629533809E+03  0.53963872056E+02 -0.11266164704E+03  0.26728307692E+03  0.10100000352E+00 0.  1.
</event>
<event>
 5   0  0.1536020E-03  0.8973833E+03  0.7818609E-02  0.9428858E-01
       -2   -1    0    0    0  501  0.00000000000E+00  0.00000000000E+00  0.55918451818E+03  0.55918451818E+03  0.25500000920E-02 0. -1.
        2   -1    0    0  501    0  0.00000000000E+00  0.00000000000E+00 -0.36003176501E+03  0.36003176502E+03  0.25500000920E-02 0.  1.
    10030    2    1    2    0    0  0.00000000000E+00  0.00000000000E+00  0.19915275317E+03  0.91921628320E+03  0.89738328277E+03 0.  0.
        2    1    3    3  502    0  0.38870685069E+03  0.13410124146E+02  0.32874101110E+03  0.50925779286E+03  0.25500000920E-02 0. -1.
       -2    1    3    3    0  502 -0.38870685069E+03 -0.13410124146E+02 -0.12958825792E+03  0.40995849034E+03  0.25500000920E-02 0.  1.
</event>
<event>
 5   0  0.9223454E-04  0.8974087E+03  0.7818609E-02  0.9428826E-01
       -1   -1    0    0    0  501  0.00000000000E+00  0.00000000000E+00  0.42727753602E+03  0.42727753604E+03  0.50400001928E-02 0.  1.
        1   -1    0    0  501    0  0.00000000000E+00  0.00000000000E+00 -0.47120565620E+03  0.47120565623E+03  0.50400001928E-02 0. -1.
    10030    2    1    2    0    0  0.00000000000E+00  0.00000000000E+00 -0.43928120184E+02  0.89848319227E+03  0.89740869566E+03 0.  0.
        1    1    3    3  502    0  0.12497997385E+03 -0.39723185355E+03 -0.18926426138E+03  0.45742114074E+03  0.50400001928E-02 0. -1.
       -1    1    3    3    0  502 -0.12497997385E+03  0.39723185355E+03  0.14533614119E+03  0.44106205153E+03  0.50400001928E-02 0.  1.
</event>
<event>
 5   0  0.1635686E-03  0.9003038E+03  0.7818609E-02  0.9425202E-01
       -2   -1    0    0    0  501  0.00000000000E+00  0.00000000000E+00  0.11165590793E+03  0.11165590796E+03  0.25500000920E-02 0. -1.
        2   -1    0    0  501    0  0.00000000000E+00  0.00000000000E+00 -0.18148320563E+04  0.18148320563E+04  0.25500000920E-02 0.  1.
    10030    2    1    2    0    0  0.00000000000E+00  0.00000000000E+00 -0.17031761484E+04  0.19264879643E+04  0.90030377321E+03 0.  0.
        5    1    3    3  502    0 -0.69518173611E+02 -0.44041193326E+03 -0.98382796987E+03  0.10801550869E+04  0.46999998093E+01 0. -1.
       -5    1    3    3    0  502  0.69518173611E+02  0.44041193326E+03 -0.71934817851E+03  0.84633287739E+03  0.46999998093E+01 0.  1.
</event>
<event>
 5   0  0.9321543E-04  0.8996241E+03  0.7818609E-02  0.9426051E-01
       -1   -1    0    0    0  501  0.00000000000E+00  0.00000000000E+00  0.37214089500E+03  0.37214089504E+03  0.50400001928E-02 0.  1.
        1   -1    0    0  501    0  0.00000000000E+00  0.00000000000E+00 -0.54369428440E+03  0.54369428442E+03  0.50400001928E-02 0. -1.
    10030    2    1    2    0    0  0.00000000000E+00  0.00000000000E+00 -0.17155338939E+03  0.91583517946E+03  0.89962409401E+03 0.  0.
        3    1    3    3  502    0  0.34347465137E+03  0.78549674199E+02 -0.37043291960E+03  0.51123912759E+03  0.10100000352E+00 0. -1.
       -3    1    3    3    0  502 -0.34347465137E+03 -0.78549674199E+02  0.19887953020E+03  0.40459605187E+03  0.10100000352E+00 0.  1.
</event>
<event>
 5   0  0.1536020E-03  0.9016923E+03  0.7818609E-02  0.9423468E-01
       -2   -1    0    0    0  501  0.00000000000E+00  0.00000000000E+00  0.16793251948E+03  0.16793251950E+03  0.25500000920E-02 0.  1.
        2   -1    0    0  501    0  0.00000000000E+00  0.00000000000E+00 -0.12103804341E+04  0.12103804341E+04  0.25500000920E-02 0. -1.
    10030    2    1    2    0    0  0.00000000000E+00  0.00000000000E+00 -0.10424479146E+04  0.13783129536E+04  0.90169226642E+03 0.  0.
        2    1    3    3  502    0 -0.27919413071E+03 -0.23601380341E+03 -0.11792562521E+03  0.38413322052E+03  0.25500000920E-02 0.  1.
       -2    1    3    3    0  502  0.27919413071E+03  0.23601380341E+03 -0.92452228937E+03  0.99417973303E+03  0.25500000920E-02 0. -1.
</event>
<event>
 5   0  0.6375625E-04  0.8997114E+03  0.7818609E-02  0.9425942E-01
       -3   -1    0    0    0  501  0.00000000000E+00  0.00000000000E+00  0.25135745330E+03  0.25135747359E+03  0.10100000352E+00 0. -1.
        3   -1    0    0  501    0  0.00000000000E+00  0.00000000000E+00 -0.80510887886E+03  0.80510888519E+03  0.10100000352E+00 0.  1.
    10030    2    1    2    0    0  0.00000000000E+00  0.00000000000E+00 -0.55375142556E+03  0.10564663588E+04  0.89971135701E+03 0.  0.
        2    1    3    3  502    0  0.19617491070E+03 -0.38176654205E+02 -0.75011743228E+03  0.77628487988E+03  0.25500000920E-02 0.  1.
       -2    1    3    3    0  502 -0.19617491070E+03  0.38176654205E+02  0.19636600672E+03  0.28018147890E+03  0.25500000920E-02 0. -1.
</event>
<event>
 5   0  0.1635686E-03  0.8982000E+03  0.7818609E-02  0.9427834E-01
       -2   -1    0    0    0  501  0.00000000000E+00  0.00000000000E+00  0.14169217258E+03  0.14169217260E+03  0.25500000920E-02 0. -1.
        2   -1    0    0  501    0  0.00000000000E+00  0.00000000000E+00 -0.14234435742E+04  0.14234435742E+04  0.25500000920E-02 0.  1.
    10030    2    1    2    0    0  0.00000000000E+00  0.00000000000E+00 -0.12817514016E+04  0.15651357468E+04  0.89820000577E+03 0.  0.
        5    1    3    3  502    0 -0.15710233730E+03 -0.13065563592E+03  0.55952700962E+02  0.21190760800E+03  0.46999998093E+01 0. -1.
       -5    1    3    3    0  502  0.15710233730E+03  0.13065563592E+03 -0.13377041026E+04  0.13532281388E+04  0.46999998093E+01 0.  1.
</event>
<event>
 5   0  0.9223454E-04  0.9000069E+03  0.7818609E-02  0.9425573E-01
        1   -1    0    0  501    0  0.00000000000E+00  0.00000000000E+00  0.55186754641E+03  0.55186754644E+03  0.50400001928E-02 0. -1.
       -1   -1    0    0    0  501  0.00000000000E+00  0.00000000000E+00 -0.36694151524E+03  0.36694151528E+03  0.50400001928E-02 0.  1.
    10030    2    1    2    0    0  0.00000000000E+00  0.00000000000E+00  0.18492603117E+03  0.91880906172E+03  0.90000691935E+03 0.  0.
        1    1    3    3  502    0 -0.14912483255E+03  0.29836568486E+03  0.40083773108E+03  0.52147021417E+03  0.50400001928E-02 0. -1.
       -1    1    3    3    0  502  0.14912483255E+03 -0.29836568486E+03 -0.21591169991E+03  0.39733884754E+03  0.50400001928E-02 0.  1.
</event>
<event>
 5   0  0.1007561E-03  0.9001852E+03  0.7818609E-02  0.9425350E-01
        1   -1    0    0  501    0  0.00000000000E+00  0.00000000000E+00  0.57393090389E+03  0.57393090391E+03  0.50400001928E-02 0. -1.
       -1   -1    0    0    0  501  0.00000000000E+00  0.00000000000E+00 -0.35297512207E+03  0.35297512210E+03  0.50400001928E-02 0.  1.
    10030    2    1    2    0    0  0.00000000000E+00  0.00000000000E+00  0.22095578182E+03  0.92690602602E+03  0.90018516070E+03 0.  0.
        2    1    3    3  502    0  0.30021176961E+03 -0.30548638255E+03 -0.31954931858E+02  0.42949988850E+03  0.25500000920E-02 0.  1.
       -2    1    3    3    0  502 -0.30021176961E+03  0.30548638255E+03  0.25291071368E+03  0.49740613752E+03  0.25500000920E-02 0. -1.
</event>
<event>
 5   0  0.1704416E-03  0.8898524E+03  0.7818609E-02  0.9438356E-01
        2   -1    0    0  501    0  0.00000000000E+00  0.00000000000E+00  0.10619978309E+04  0.10619978309E+04  0.25500000920E-02 0. -1.
       -2   -1    0    0    0  501  0.00000000000E+00  0.00000000000E+00 -0.18640277440E+03  0.18640277441E+03  0.25500000920E-02 0.  1.
    10030    2    1    2    0    0  0.00000000000E+00  0.00000000000E+00  0.87559505648E+03  0.12484006053E+04  0.88985244191E+03 0.  0.
        3    1    3    3  502    0 -0.10375826658E+03  0.18068179710E+03  0.98932502063E+03  0.10110270503E+04  0.10100000352E+00 0. -1.
       -3    1    3    3    0  502  0.10375826658E+03 -0.18068179710E+03 -0.11372996415E+03  0.23737355504E+03  0.10100000352E+00 0.  1.
</event>
<event>
 5   0  0.9321543E-04  0.9004138E+03  0.7818609E-02  0.9425064E-01
       -1   -1    0    0    0  501  0.00000000000E+00  0.00000000000E+00  0.15549250553E+03  0.15549250561E+03  0.50400001928E-02 0.  1.
        1   -1    0    0  501    0  0.00000000000E+00  0.00000000000E+00 -0.13035114967E+04  0.13035114967E+04  0.50400001928E-02 0. -1.
    10030    2    1    2    0    0  0.00000000000E+00  0.00000000000E+00 -0.11480189912E+04  0.14590040024E+04  0.90041383525E+03 0.  0.
        3    1    3    3  502    0  0.17192152819E+03 -0.32115179321E+03 -0.14532802025E+03  0.39219348517E+03  0.10100000352E+00 0. -1.
       -3    1    3    3    0  502 -0.17192152819E+03  0.32115179321E+03 -0.10026909710E+04  0.10668105172E+04  0.10100000352E+00 0.  1.
</event>
<event>
 5   0  0.1641516E-03  0.8994597E+03  0.7818609E-02  0.9426257E-01
        2   -1    0    0  501    0  0.00000000000E+00  0.00000000000E+00  0.60590783727E+03  0.60590783728E+03  0.25500000920E-02 0. -1.
       -2   -1    0    0    0  501  0.00000000000E+00  0.00000000000E+00 -0.33380807437E+03  0.33380807438E+03  0.25500000920E-02 0.  1.
    10030    2    1    2    0    0  0.00000000000E+00  0.00000000000E+00  0.27209976291E+03  0.93971591166E+03  0.89945967872E+03 0.  0.
        1    1    3    3  502    0 -0.20956227279E+03  0.17371634531E+03  0.51007138814E+03  0.57815788140E+03  0.50400001928E-02 0. -1.
       -1    1    3    3    0  502  0.20956227279E+03 -0.17371634531E+03 -0.23797162523E+03  0.36155803026E+03  0.50400001928E-02 0.  1.
</event>
<event>
 5   0  0.9223454E-04  0.9000994E+03  0.7818609E-02  0.9425457E-01
       -1   -1    0    0    0  501  0.00000000000E+00  0.00000000000E+00  0.27392187068E+03  0.27392187073E+03  0.50400001928E-02 0.  1.
        1   -1    0    0  501    0  0.00000000000E+00  0.00000000000E+00 -0.73942513767E+03  0.73942513769E+03  0.50400001928E-02 0. -1.
    10030    2    1    2    0    0  0.00000000000E+00  0.00000000000E+00 -0.46550326699E+03  0.10133470084E+04  0.90009936556E+03 0.  0.
        1    1    3    3  502    0  0.25871729255E+03  0.48875768940E+02  0.17816570623E+03  0.31790957387E+03  0.50400001928E-02 0.  1.
       -1    1    3    3    0  502 -0.25871729255E+03 -0.48875768940E+02 -0.64366897322E+03  0.69543743455E+03  0.50400001928E-02 0. -1.
</event>
<event>
 5   0  0.1536020E-03  0.9001839E+03  0.7818609E-02  0.9425352E-01
       -2   -1    0    0    0  501  0.00000000000E+00  0.00000000000E+00  0.13147028839E+03  0.13147028841E+03  0.25500000920E-02 0. -1.
        2   -1    0    0  501    0  0.00000000000E+00  0.00000000000E+00 -0.15409014517E+04  0.15409014517E+04  0.25500000920E-02 0.  1.
    10030    2    1    2    0    0  0.00000000000E+00  0.00000000000E+00 -0.14094311633E+04  0.16723717401E+04  0.90018388844E+03 0.  0.
        2    1    3    3  502    0  0.41057383467E+03  0.74224647432E+02 -0.10183644455E+04  0.11005209293E+04  0.25500000920E-02 0.  1.
       -2    1    3    3    0  502 -0.41057383467E+03 -0.74224647432E+02 -0.39106671777E+03  0.57185081075E+03  0.25500000920E-02 0. -1.
</event>
<event>
 5   0  0.9321543E-04  0.8940618E+03  0.7818609E-02  0.9433035E-01
        1   -1    0    0  501    0  0.00000000000E+00  0.00000000000E+00  0.83660165483E+03  0.83660165485E+03  0.50400001928E-02 0.  1.
       -1   -1    0    0    0  501  0.00000000000E+00  0.00000000000E+00 -0.23886713950E+03  0.23886713955E+03  0.50400001928E-02 0. -1.
    10030    2    1    2    0    0  0.00000000000E+00  0.00000000000E+00  0.59773451533E+03  0.10754687944E+04  0.89406184177E+03 0.  0.
        3    1    3    3  502    0 -0.47315779052E+02  0.34842530975E+03  0.63091540058E+03  0.72228334628E+03  0.10100000352E+00 0.  1.
       -3    1    3    3    0  502  0.47315779052E+02 -0.34842530975E+03 -0.33180885249E+02  0.35318544812E+03  0.10100000352E+00 0. -1.
</event>
<event>
 5   0  0.1630202E-03  0.8957096E+03  0.7818609E-02  0.9430961E-01
       -2   -1    0    0    0  501  0.00000000000E+00  0.00000000000E+00  0.25271885250E+03  0.25271885251E+03  0.25500000920E-02 0. -1.
        2   -1    0    0  501    0  0.00000000000E+00  0.00000000000E+00 -0.79366420328E+03  0.79366420329E+03  0.25500000920E-02 0.  1.
    10030    2    1    2    0    0  0.00000000000E+00  0.00000000000E+00 -0.54094535079E+03  0.10463830558E+04  0.89570956616E+03 0.  0.
        4    1    3    3  502    0 -0.30612855927E+03  0.12896065118E+03 -0.62137895633E+03  0.70459844211E+03  0.12699999809E+01 0.  1.
       -4    1    3    3    0  502  0.30612855927E+03 -0.12896065118E+03  0.80433605538E+02  0.34178461369E+03  0.12699999809E+01 0. -1.
</event>
<event>
 5   0  0.1641516E-03  0.8990964E+03  0.7818609E-02  0.9426712E-01
        2   -1    0    0  501    0  0.00000000000E+00  0.00000000000E+00  0.51594450536E+03  0.51594450537E+03  0.25500000920E-02 0.  1.
       -2   -1    0    0    0  501  0.00000000000E+00  0.00000000000E+00 -0.39169633389E+03  0.39169633390E+03  0.25500000920E-02 0. -1.
    10030    2    1    2    0    0  0.00000000000E+00  0.00000000000E+00  0.12424817147E+03  0.90764083926E+03  0.89909637136E+03 0.  0.
        1    1    3    3  502    0  0.37378384071E+03  0.10036453126E+03  0.29300299110E+03  0.48542574255E+03  0.50400001928E-02 0.  1.
       -1    1    3    3    0  502 -0.37378384071E+03 -0.10036453126E+03 -0.16875481964E+03  0.42221509671E+03  0.50400001928E-02 0. -1.
</event>
<event>
 5   0  0.9321543E-04  0.9021792E+03  0.7818609E-02  0.9422861E-01
        1   -1    0    0  501    0  0.00000000000E+00  0.00000000000E+00  0.36272910551E+03  0.36272910555E+03  0.50400001928E-02 0. -1.
       -1   -1    0    0    0  501  0.00000000000E+00  0.00000000000E+00 -0.56097469332E+03  0.56097469335E+03  0.50400001928E-02 0.  1.
    10030    2    1    2    0    0  0.00000000000E+00  0.00000000000E+00 -0.19824558781E+03  0.92370379889E+03  0.90217924771E+03 0.  0.
        3    1    3    3  502    0  0.36867075805E+03 -0.18212270365E+03 -0.28900652318E+03  0.50260480267E+03  0.10100000352E+00 0.  1.
       -3    1    3    3    0  502 -0.36867075805E+03  0.18212270365E+03  0.90760935371E+02  0.42109899622E+03  0.10100000352E+00 0. -1.
</event>
<event>
 5   0  0.9697941E-04  0.9011090E+03  0.7818609E-02  0.9424196E-01
       -1   -1    0    0    0  501  0.00000000000E+00  0.00000000000E+00  0.90673975152E+02  0.90673975292E+02  0.50400001928E-02 0.  1.
        1   -1    0    0  501    0  0.00000000000E+00  0.00000000000E+00 -0.22387832528E+04  0.22387832528E+04  0.50400001928E-02 0. -1.
    10030    2    1    2    0    0  0.00000000000E+00  0.00000000000E+00 -0.21481092776E+04  0.23294572281E+04  0.90110904380E+03 0.  0.
        5    1    3    3  502    0  0.14243049877E+02 -0.39888037601E+03 -0.53384371607E+03  0.66657304327E+03  0.46999998093E+01 0.  1.
       -5    1    3    3    0  502 -0.14243049877E+02  0.39888037601E+03 -0.16142655616E+04  0.16628841848E+04  0.46999998093E+01 0. -1.
</event>
<event>
 5   0  0.9321543E-04  0.8993291E+03  0.7818609E-02  0.9426420E-01
       -1   -1    0    0    0  501  0.00000000000E+00  0.00000000000E+00  0.26582639088E+03  0.26582639093E+03  0.50400001928E-02 0. -1.
        1   -1    0    0  501    0  0.00000000000E+00  0.00000000000E+00 -0.76064014228E+03  0.76064014230E+03  0.50400001928E-02 0.  1.
    10030    2    1    2    0    0  0.00000000000E+00  0.00000000000E+00 -0.49481375140E+03  0.10264665332E+04  0.89932913622E+03 0.  0.
        3    1    3    3  502    0 -0.15066732349E+03 -0.34947916202E+03  0.25954935707E+02  0.38145772497E+03  0.10100000352E+00 0. -1.
       -3    1    3    3    0  502  0.15066732349E+03  0.34947916202E+03 -0.52076868711E+03  0.64500880825E+03  0.10100000352E+00 0.  1.
</event>
<event>
 5   0  0.9697941E-04  0.9000568E+03  0.7818609E-02  0.9425510E-01
        1   -1    0    0  501    0  0.00000000000E+00  0.00000000000E+00  0.45372561873E+03  0.45372561876E+03  0.50400001928E-02 0.  1.
       -1   -1    0    0    0  501  0.00000000000E+00  0.00000000000E+00 -0.44636135346E+03  0.44636135349E+03  0.50400001928E-02 0. -1.
    10030    2    1    2    0    0  0.00000000000E+00  0.00000000000E+00  0.73642652720E+01  0.90008697224E+03  0.90005684554E+03 0.  0.
        5    1    3    3  502    0 -0.27880277271E+03 -0.29338632260E+03 -0.19303990862E+03  0.44843396022E+03  0.46999998093E+01 0. -1.
       -5    1    3    3    0  502  0.27880277271E+03  0.29338632260E+03  0.20040417389E+03  0.45165301203E+03  0.46999998093E+01 0.  1.
</event>
<event>
 5   0  0.1536020E-03  0.8994329E+03  0.7818609E-02  0.9426291E-01
        2   -1    0    0  501    0  0.00000000000E+00  0.00000000000E+00  0.71791775259E+03  0.71791775259E+03  0.25500000920E-02 0.  1.
       -2   -1    0    0    0  501  0.00000000000E+00  0.00000000000E+00 -0.28171041231E+03  0.28171041232E+03  0.25500000920E-02 0. -1.
    10030    2    1    2    0    0  0.00000000000E+00  0.00000000000E+00  0.43620734028E+03  0.99962816491E+03  0.89943294601E+03 0.  0.
        2    1    3    3  502    0  0.36818724732E+03  0.12357622692E+03  0.47010441728E+03  0.60977954713E+03  0.25500000920E-02 0.  1.
       -2    1    3    3    0  502 -0.36818724732E+03 -0.12357622692E+03 -0.33897077003E+02  0.38984861778E+03  0.25500000920E-02 0. -1.
</event>
<event>
 5   0  0.9321543E-04  0.8992018E+03  0.7818609E-02  0.9426580E-01
        1   -1    0    0  501    0  0.00000000000E+00  0.00000000000E+00  0.64708575100E+03  0.64708575102E+03  0.50400001928E-02 0.  1.
       -1   -1    0    0    0  501  0.00000000000E+00  0.00000000000E+00 -0.31238668756E+03  0.31238668760E+03  0.50400001928E-02 0. -1.
    10030    2    1    2    0    0  0.00000000000E+00  0.00000000000E+00  0.33469906344E+03  0.95947243862E+03  0.89920181128E+03 0.  0.
        3    1    3    3  502    0  0.19308103373E+03 -0.40593554581E+03  0.15798572766E+03  0.47646978213E+03  0.10100000352E+00 0. -1.
       -3    1    3    3    0  502 -0.19308103373E+03  0.40593554581E+03  0.17671333578E+03  0.48300265649E+03  0.10100000352E+00 0.  1.
</event>
<event>
 5   0  0.1641516E-03  0.8987269E+03  0.7818609E-02  0.9427174E-01
        2   -1    0    0  501    0  0.00000000000E+00  0.00000000000E+00  0.85171567335E+03  0.85171567336E+03  0.25500000920E-02 0.  1.
       -2   -1    0    0    0  501  0.00000000000E+00  0.00000000000E+00 -0.23708325747E+03  0.23708325749E+03  0.25500000920E-02 0. -1.
    10030    2    1    2    0    0  0.00000000000E+00  0.00000000000E+00  0.61463241588E+03  0.10887989308E+04  0.89872693582E+03 0.  0.
        1    1    3    3  502    0 -0.28582433037E+03 -0.17475869001E+02  0.72686032754E+03  0.78123420919E+03  0.50400001928E-02 0.  1.
       -1    1    3    3    0  502  0.28582433037E+03  0.17475869001E+02 -0.11222791166E+03  0.30756472166E+03  0.50400001928E-02 0. -1.
</event>
<event>
 5   0  0.1630202E-03  0.8995177E+03  0.7818609E-02  0.9426184E-01
        2   -1    0    0  501    0  0.00000000000E+00  0.00000000000E+00  0.40049315955E+03  0.40049315955E+03  0.25500000920E-02 0.  1.
       -2   -1    0    0    0  501  0.00000000000E+00  0.00000000000E+00 -0.50508486493E+03  0.50508486493E+03  0.25500000920E-02 0. -1.
    10030    2    1    2    0    0  0.00000000000E+00  0.00000000000E+00 -0.10459170538E+03  0.90557802449E+03  0.89951772278E+03 0.  0.
        4    1    3    3  502    0  0.36640071318E+03 -0.19014795034E+03 -0.23203636736E+03  0.47354853428E+03  0.12699999809E+01 0. -1.
       -4    1    3    3    0  502 -0.36640071318E+03  0.19014795034E+03  0.12744466198E+03  0.43202949021E+03  0.12699999809E+01 0.  1.
</event>
<event>
 5   0  0.9321543E-04  0.8784344E+03  0.7818609E-02  0.9452948E-01
       -1   -1    0    0    0  501  0.00000000000E+00  0.00000000000E+00  0.78569173185E+03  0.78569173187E+03  0.50400001928E-02 0.  1.
        1   -1    0    0  501    0  0.00000000000E+00  0.00000000000E+00 -0.24553107671E+03  0.24553107676E+03  0.50400001928E-02 0. -1.
    10030    2    1    2    0    0  0.00000000000E+00  0.00000000000E+00  0.54016065515E+03  0.10312228086E+04  0.87843437300E+03 0.  0.
        3    1    3    3  502    0  0.50903158202E+02  0.50445263866E+02  0.77878190102E+03  0.78207232128E+03  0.10100000352E+00 0.  1.
       -3    1    3    3    0  502 -0.50903158202E+02 -0.50445263866E+02 -0.23862124587E+03  0.24915048734E+03  0.10100000352E+00 0. -1.
</event>
<event>
 5   0  0.1704416E-03  0.9026924E+03  0.7818609E-02  0.9422222E-01
        2   -1    0    0  501    0  0.00000000000E+00  0.00000000000E+00  0.11985880351E+04  0.11985880351E+04  0.25500000920E-02 0.  1.
       -2   -1    0    0    0  501  0.00000000000E+00  0.00000000000E+00 -0.16996112431E+03  0.16996112433E+03  0.25500000920E-02 0. -1.
    10030    2    1    2    0    0  0.00000000000E+00  0.00000000000E+00  0.10286269108E+04  0.13685491594E+04  0.90269235077E+03 0.  0.
        3    1    3    3  502    0  0.12693789095E+03 -0.37143011240E+03  0.85209480433E+03  0.93815730148E+03  0.10100000352E+00 0.  1.
       -3    1    3    3    0  502 -0.12693789095E+03  0.37143011240E+03  0.17653210642E+03  0.43039185791E+03  0.10100000352E+00 0. -1.
</event>
<event>
 5   0  0.1641516E-03  0.8983508E+03  0.7818609E-02  0.9427645E-01
       -2   -1    0    0    0  501  0.00000000000E+00  0.00000000000E+00  0.13494335597E+03  0.13494335599E+03  0.25500000920E-02 0.  1.
        2   -1    0    0  501    0  0.00000000000E+00  0.00000000000E+00 -0.14951351107E+04  0.14951351107E+04  0.25500000920E-02 0. -1.
    10030    2    1    2    0    0  0.00000000000E+00  0.00000000000E+00 -0.13601917547E+04  0.16300784667E+04  0.89835082120E+03 0.  0.
        1    1    3    3  502    0  0.13885507014E+03  0.41429824510E+03 -0.86897008331E+03  0.97264216035E+03  0.50400001928E-02 0. -1.
       -1    1    3    3    0  502 -0.13885507014E+03 -0.41429824510E+03 -0.49122167143E+03  0.65743630635E+03  0.50400001928E-02 0.  1.
</event>
<event>
 5   0  0.1007561E-03  0.8997180E+03  0.7818609E-02  0.9425934E-01
        1   -1    0    0  501    0  0.00000000000E+00  0.00000000000E+00  0.94626977163E+03  0.94626977164E+03  0.50400001928E-02 0. -1.
       -1   -1    0    0    0  501  0.00000000000E+00  0.00000000000E+00 -0.21386410791E+03  0.21386410797E+03  0.50400001928E-02 0.  1.
    10030    2    1    2    0    0  0.00000000000E+00  0.00000000000E+00  0.73240566371E+03  0.11601338796E+04  0.89971804605E+03 0.  0.
        2    1    3    3  502    0 -0.42470974315E+02 -0.20532547019E+03 -0.14700595470E+03  0.25607241767E+03  0.25500000920E-02 0.  1.
       -2    1    3    3    0  502  0.42470974315E+02  0.20532547019E+03  0.87941161841E+03  0.90406146195E+03  0.25500000920E-02 0. -1.
</event>
<event>
 5   0  0.9697941E-04  0.9006659E+03  0.7818609E-02  0.9424749E-01
        1   -1    0    0  501    0  0.00000000000E+00  0.00000000000E+00  0.24799037784E+03  0.24799037789E+03  0.50400001928E-02 0. -1.
       -1   -1    0    0    0  501  0.00000000000E+00  0.00000000000E+00 -0.81777272311E+03  0.81777272312E+03  0.50400001928E-02 0.  1.
    10030    2    1    2    0    0  0.00000000000E+00  0.00000000000E+00 -0.56978234527E+03  0.10657631010E+04  0.90066590172E+03 0.  0.
        5    1    3    3  502    0  0.31102424077E+03 -0.72572925882E+02  0.90749720002E+02  0.33205497978E+03  0.46999998093E+01 0. -1.
       -5    1    3    3    0  502 -0.31102424077E+03  0.72572925882E+02 -0.66053206527E+03  0.73370812123E+03  0.46999998093E+01 0.  1.
</event>
<event>
 5   0  0.9223454E-04  0.8995002E+03  0.7818609E-02  0.9426206E-01
        1   -1    0    0  501    0  0.00000000000E+00  0.00000000000E+00  0.45714306962E+03  0.45714306965E+03  0.50400001928E-02 0. -1.
       -1   -1    0    0    0  501  0.00000000000E+00  0.00000000000E+00 -0.44247667582E+03  0.44247667585E+03  0.50400001928E-02 0.  1.
    10030    2    1    2    0    0  0.00000000000E+00  0.00000000000E+00  0.14666393794E+02  0.89961974550E+03  0.89950018532E+03 0.  0.
        1    1    3    3  502    0  0.78915872722E+02  0.39153542644E+03  0.21411522054E+03  0.45318101551E+03  0.50400001928E-02 0. -1.
       -1    1    3    3    0  502 -0.78915872722E+02 -0.39153542644E+03 -0.19944882674E+03  0.44643872999E+03  0.50400001928E-02 0.  1.
</event>
<event>
 5   0  0.1635686E-03  0.9004570E+03  0.7818609E-02  0.9425010E-01
        2   -1    0    0  501    0  0.00000000000E+00  0.00000000000E+00  0.10053483698E+04  0.10053483698E+04  0.25500000920E-02 0. -1.
       -2   -1    0    0    0  501  0.00000000000E+00  0.00000000000E+00 -0.20162731985E+03  0.20162731987E+03  0.25500000920E-02 0.  1.
    10030    2    1    2    0    0  0.00000000000E+00  0.00000000000E+00  0.80372104998E+03  0.12069756897E+04  0.90045698918E+03 0.  0.
        5    1    3    3  502    0  0.31883922142E+03  0.26751777770E+03  0.17179715616E+03  0.45028942178E+03  0.46999998093E+01 0.  1.
       -5    1    3    3    0  502 -0.31883922142E+03 -0.26751777770E+03  0.63192389382E+03  0.75668626793E+03  0.46999998093E+01 0. -1.
</event>
<event>
 5   0  0.1704416E-03  0.8984981E+03  0.7818609E-02  0.9427461E-01
        2   -1    0    0  501    0  0.00000000000E+00  0.00000000000E+00  0.25716877929E+03  0.25716877930E+03  0.25500000920E-02 0. -1.
       -2   -1    0    0    0  501  0.00000000000E+00  0.00000000000E+00 -0.78479469030E+03  0.78479469031E+03  0.25500000920E-02 0.  1.
    10030    2    1    2    0    0  0.00000000000E+00  0.00000000000E+00 -0.52762591101E+03  0.10419634696E+04  0.89849806345E+03 0.  0.
        3    1    3    3  502    0 -0.71136532350E-01 -0.35145068748E+03 -0.58832879145E+03  0.68530895795E+03  0.10100000352E+00 0.  1.
       -3    1    3    3    0  502  0.71136532350E-01  0.35145068748E+03  0.60702880441E+02  0.35665451166E+03  0.10100000352E+00 0. -1.
</event>
<event>
 5   0  0.1630202E-03  0.8990290E+03  0.7818609E-02  0.9426796E-01
       -2   -1    0    0    0  501  0.00000000000E+00  0.00000000000E+00  0.14965549199E+03  0.14965549202E+03  0.25500000920E-02 0.  1.
        2   -1    0    0  501    0  0.00000000000E+00  0.00000000000E+00 -0.13501896966E+04  0.13501896966E+04  0.25500000920E-02 0. -1.
    10030    2    1    2    0    0  0.00000000000E+00  0.00000000000E+00 -0.12005342046E+04  0.14998451887E+04  0.89902903925E+03 0.  0.
        4    1    3    3  502    0  0.29240103692E+03 -0.10134852781E+03 -0.56362673565E+02  0.31456041447E+03  0.12699999809E+01 0.  1.
       -4    1    3    3    0  502 -0.29240103692E+03  0.10134852781E+03 -0.11441715311E+04  0.11852847742E+04  0.12699999809E+01 0. -1.
</event>
<event>
 5   0  0.1704416E-03  0.9230635E+03  0.7818609E-02  0.9397201E-01
        2   -1    0    0  501    0  0.00000000000E+00  0.00000000000E+00  0.24457363094E+04  0.24457363094E+04  0.25500000920E-02 0.  1.
       -2   -1    0    0    0  501  0.00000000000E+00  0.00000000000E+00 -0.87095063365E+02  0.87095063403E+02  0.25500000920E-02 0. -1.
    10030    2    1    2    0    0  0.00000000000E+00  0.00000000000E+00  0.23586412461E+04  0.25328313728E+04  0.92306350571E+03 0.  0.
        3    1    3    3  502    0  0.20161668374E+03 -0.19474258554E+03  0.21854064943E+04  0.22033101274E+04  0.10100000352E+00 0.  1.
       -3    1    3    3    0  502 -0.20161668374E+03  0.19474258554E+03  0.17323475172E+03  0.32952124543E+03  0.10100000352E+00 0. -1.
</event>
<event>
 5   0  0.9697941E-04  0.9000251E+03  0.7818609E-02  0.9425550E-01
       -1   -1    0    0    0  501  0.00000000000E+00  0.00000000000E+00  0.42583496255E+03  0.42583496258E+03  0.50400001928E-02 0. -1.
        1   -1    0    0  501    0  0.00000000000E+00  0.00000000000E+00 -0.47556283926E+03  0.47556283928E+03  0.50400001928E-02 0.  1.
    10030    2    1    2    0    0  0.00000000000E+00  0.00000000000E+00 -0.49727876707E+02  0.90139780186E+03  0.90002507492E+03 0.  0.
        5    1    3    3  502    0  0.39447399422E+03  0.56215366620E+02 -0.23427443999E+03  0.46225155791E+03  0.46999998093E+01 0.  1.
       -5    1    3    3    0  502 -0.39447399422E+03 -0.56215366620E+02  0.18454656328E+03  0.43914624395E+03  0.46999998093E+01 0. -1.
</event>
<event>
 5   0  0.9981885E-04  0.9004737E+03  0.7818609E-02  0.9424989E-01
       -1   -1    0    0    0  501  0.00000000000E+00  0.00000000000E+00  0.11571763713E+03  0.11571763724E+03  0.50400001928E-02 0.  1.
        1   -1    0    0  501    0  0.00000000000E+00  0.00000000000E+00 -0.17517919636E+04  0.17517919637E+04  0.50400001928E-02 0. -1.
    10030    2    1    2    0    0  0.00000000000E+00  0.00000000000E+00 -0.16360743265E+04  0.18675096009E+04  0.90047371286E+03 0.  0.
        4    1    3    3  502    0 -0.31081346467E+03  0.24000631026E+03 -0.12747872935E+04  0.13339011565E+04  0.12699999809E+01 0. -1.
       -4    1    3    3    0  502  0.31081346467E+03 -0.24000631026E+03 -0.36128703301E+03  0.53360844437E+03  0.12699999809E+01 0.  1.
</event>
<event>
 5   0  0.9697941E-04  0.9000995E+03  0.7818609E-02  0.9425457E-01
        1   -1    0    0  501    0  0.00000000000E+00  0.00000000000E+00  0.33857933743E+03  0.33857933747E+03  0.50400001928E-02 0. -1.
       -1   -1    0    0    0  501  0.00000000000E+00  0.00000000000E+00 -0.59821957265E+03  0.59821957267E+03  0.50400001928E-02 0.  1.
    10030    2    1    2    0    0  0.00000000000E+00  0.00000000000E+00 -0.25964023522E+03  0.93679891013E+03  0.90009952021E+03 0.  0.
        5    1    3    3  502    0  0.88481166064E+01  0.27083541038E+03  0.24412382286E+03  0.36475833037E+03  0.46999998093E+01 0. -1.
       -5    1    3    3    0  502 -0.88481166064E+01 -0.27083541038E+03 -0.50376405808E+03  0.57204057976E+03  0.46999998093E+01 0.  1.
</event>
<event>
 5   0  0.9981885E-04  0.8977761E+03  0.7818609E-02  0.9428366E-01
       -1   -1    0    0    0  501  0.00000000000E+00  0.00000000000E+00  0.24901772057E+03  0.24901772063E+03  0.50400001928E-02 0. -1.
        1   -1    0    0  501    0  0.00000000000E+00  0.00000000000E+00 -0.80918137744E+03  0.80918137745E+03  0.50400001928E-02 0.  1.
    10030    2    1    2    0    0  0.00000000000E+00  0.00000000000E+00 -0.56016365686E+03  0.10581990981E+04  0.89777614621E+03 0.  0.
        4    1    3    3  502    0 -0.27129127922E+03 -0.33615384582E+03 -0.13620194360E+03  0.45293592106E+03  0.12699999809E+01 0.  1.
       -4    1    3    3    0  502  0.27129127922E+03  0.33615384582E+03 -0.42396171326E+03  0.60526317702E+03  0.12699999809E+01 0. -1.
</event>
<event>
 5   0  0.1704416E-03  0.8925071E+03  0.7818609E-02  0.9434997E-01
        2   -1    0    0  501    0  0.00000000000E+00  0.00000000000E+00  0.15960254613E+03  0.15960254615E+03  0.25500000920E-02 0. -1.
       -2   -1    0    0    0  501  0.00000000000E+00  0.00000000000E+00 -0.12477383233E+04  0.12477383233E+04  0.25500000920E-02 0.  1.
    10030    2    1    2    0    0  0.00000000000E+00  0.00000000000E+00 -0.10881357771E+04  0.14073408694E+04  0.89250706061E+03 0.  0.
        3    1    3    3  502    0  0.34089878752E+03 -0.28056125596E+03 -0.64644842739E+03  0.78282959906E+03  0.10100000352E+00 0.  1.
       -3    1    3    3    0  502 -0.34089878752E+03  0.28056125596E+03 -0.44168734975E+03  0.62451127036E+03  0.10100000352E+00 0. -1.
</event>
<event>
 5   0  0.9321543E-04  0.9013572E+03  0.7818609E-02  0.9423887E-01
        1   -1    0    0  501    0  0.00000000000E+00  0.00000000000E+00  0.40645439174E+03  0.40645439177E+03  0.50400001928E-02 0. -1.
       -1   -1    0    0    0  501  0.00000000000E+00  0.00000000000E+00 -0.49971456379E+03  0.49971456382E+03  0.50400001928E-02 0.  1.
    10030    2    1    2    0    0  0.00000000000E+00  0.00000000000E+00 -0.93260172054E+02  0.90616895559E+03  0.90135715251E+03 0.  0.
        3    1    3    3  502    0  0.43305574383E+03  0.10131475491E+03  0.26623232979E+02  0.44554546745E+03  0.10100000352E+00 0. -1.
       -3    1    3    3    0  502 -0.43305574383E+03 -0.10131475491E+03 -0.11988340503E+03  0.46062348814E+03  0.10100000352E+00 0.  1.
</event>
<event>
 5   0  0.1635686E-03  0.8970034E+03  0.7818609E-02  0.9429335E-01
        2   -1    0    0  501    0  0.00000000000E+00  0.00000000000E+00  0.67715563774E+03  0.67715563774E+03  0.25500000920E-02 0.  1.
       -2   -1    0    0    0  501  0.00000000000E+00  0.00000000000E+00 -0.29705692760E+03  0.29705692761E+03  0.25500000920E-02 0. -1.
    10030    2    1    2    0    0  0.00000000000E+00  0.00000000000E+00  0.38009871013E+03  0.97421256535E+03  0.89700339634E+03 0.  0.
        5    1    3    3  502    0 -0.31566598187E+03 -0.49552608886E+02 -0.15172988698E+03  0.35375771618E+03  0.46999998093E+01 0. -1.
       -5    1    3    3    0  502  0.31566598187E+03  0.49552608886E+02  0.53182859712E+03  0.62045484917E+03  0.46999998093E+01 0.  1.
</event>
<event>
 5   0  0.1704416E-03  0.8992311E+03  0.7818609E-02  0.9426543E-01
        2   -1    0    0  501    0  0.00000000000E+00  0.00000000000E+00  0.33517197489E+03  0.33517197490E+03  0.25500000920E-02 0. -1.
       -2   -1    0    0    0  501  0.00000000000E+00  0.00000000000E+00 -0.60313554151E+03  0.60313554152E+03  0.25500000920E-02 0.  1.
    10030    2    1    2    0    0  0.00000000000E+00  0.00000000000E+00 -0.26796356662E+03  0.93830751642E+03  0.89923107282E+03 0.  0.
        3    1    3    3  502    0  0.33781953531E+03  0.29035384494E+03 -0.19768152346E+03  0.48734524582E+03  0.10100000352E+00 0. -1.
       -3    1    3    3    0  502 -0.33781953531E+03 -0.29035384494E+03 -0.70282043159E+02  0.45096227059E+03  0.10100000352E+00 0.  1.
</event>
<event>
 5   0  0.9321543E-04  0.9001278E+03  0.7818609E-02  0.9425422E-01
        1   -1    0    0  501    0  0.00000000000E+00  0.00000000000E+00  0.11636864456E+04  0.11636864456E+04  0.50400001928E-02 0.  1.
       -1   -1    0    0    0  501  0.00000000000E+00  0.00000000000E+00 -0.17406536751E+03  0.17406536759E+03  0.50400001928E-02 0. -1.
    10030    2    1    2    0    0  0.00000000000E+00  0.00000000000E+00  0.98962107811E+03  0.13377518132E+04  0.90012778844E+03 0.  0.
        3    1    3    3  502    0  0.29952129095E+03 -0.15080452415E+02  0.99354973459E+03  0.10378253750E+04  0.10100000352E+00 0.  1.
       -3    1    3    3    0  502 -0.29952129095E+03  0.15080452415E+02 -0.39286564793E+01  0.29992643818E+03  0.10100000352E+00 0. -1.
</event>
<event>
 5   0  0.1630202E-03  0.9139231E+03  0.7818609E-02  0.9408342E-01
        2   -1    0    0  501    0  0.00000000000E+00  0.00000000000E+00  0.23655388192E+03  0.23655388194E+03  0.25500000920E-02 0. -1.
       -2   -1    0    0    0  501  0.00000000000E+00  0.00000000000E+00 -0.88273272084E+03  0.88273272085E+03  0.25500000920E-02 0.  1.
    10030    2    1    2    0    0  0.00000000000E+00  0.00000000000E+00 -0.64617883892E+03  0.11192866028E+04  0.91392308610E+03 0.  0.
        4    1    3    3  502    0 -0.77288448544E+02 -0.88912285311E+02  0.21763342723E+03  0.24747690863E+03  0.12699999809E+01 0. -1.
       -4    1    3    3    0  502  0.77288448544E+02  0.88912285311E+02 -0.86381226615E+03  0.87180969415E+03  0.12699999809E+01 0.  1.
</event>
<event>
 5   0  0.6375625E-04  0.8985168E+03  0.7818609E-02  0.9427437E-01
       -4   -1    0    0    0  501  0.00000000000E+00  0.00000000000E+00  0.15102655104E+04  0.15102660443E+04  0.12699999809E+01 0. -1.
        4   -1    0    0  501    0  0.00000000000E+00  0.00000000000E+00 -0.13363722762E+03  0.13364326210E+03  0.12699999809E+01 0.  1.
    10030    2    1    2    0    0  0.00000000000E+00  0.00000000000E+00  0.13766282827E+04  0.16439093064E+04  0.89851676610E+03 0.  0.
        2    1    3    3  502    0 -0.25279072917E+03 -0.29848885701E+03  0.10926240163E+04  0.11605283243E+04  0.25500000920E-02 0. -1.
       -2    1    3    3    0  502  0.25279072917E+03  0.29848885701E+03  0.28400426640E+03  0.48338098210E+03  0.25500000920E-02 0.  1.
</event>
<event>
 5   0  0.1007561E-03  0.8994284E+03  0.7818609E-02  0.9426296E-01
        1   -1    0    0  501    0  0.00000000000E+00  0.00000000000E+00  0.23088256840E+03  0.23088256845E+03  0.50400001928E-02 0. -1.
       -1   -1    0    0    0  501  0.00000000000E+00  0.00000000000E+00 -0.87595558756E+03  0.87595558757E+03  0.50400001928E-02 0.  1.
    10030    2    1    2    0    0  0.00000000000E+00  0.00000000000E+00 -0.64507301916E+03  0.11068381560E+04  0.89942843160E+03 0.  0.
        2    1    3    3  502    0 -0.23112397709E+03  0.63245772528E+02 -0.79085209609E+03  0.82635667748E+03  0.25500000920E-02 0.  1.
       -2    1    3    3    0  502  0.23112397709E+03 -0.63245772528E+02  0.14577907693E+03  0.28048147854E+03  0.25500000920E-02 0. -1.
</event>
<event>
 5   0  0.9981885E-04  0.9010830E+03  0.7818609E-02  0.9424229E-01
        1   -1    0    0  501    0  0.00000000000E+00  0.00000000000E+00  0.33956033143E+03  0.33956033146E+03  0.50400001928E-02 0.  1.
       -1   -1    0    0    0  501  0.00000000000E+00  0.00000000000E+00 -0.59779546211E+03  0.59779546213E+03  0.50400001928E-02 0. -1.
    10030    2    1    2    0    0  0.00000000000E+00  0.00000000000E+00 -0.25823513068E+03  0.93735579359E+03  0.90108296015E+03 0.  0.
        4    1    3    3  502    0  0.27199856866E+03 -0.35151072112E+03 -0.20586414255E+03  0.48982105560E+03  0.12699999809E+01 0. -1.
       -4    1    3    3    0  502 -0.27199856866E+03  0.35151072112E+03 -0.52370988134E+02  0.44753473800E+03  0.12699999809E+01 0.  1.
</event>
<event>
 5   0  0.9321543E-04  0.9041950E+03  0.7818609E-02  0.9420353E-01
        1   -1    0    0  501    0  0.00000000000E+00  0.00000000000E+00  0.20483956995E+04  0.20483956995E+04  0.50400001928E-02 0. -1.
       -1   -1    0    0    0  501  0.00000000000E+00  0.00000000000E+00 -0.99781582195E+02  0.99781582322E+02  0.50400001928E-02 0.  1.
    10030    2    1    2    0    0  0.00000000000E+00  0.00000000000E+00  0.19486141173E+04  0.21481772818E+04  0.90419503206E+03 0.  0.
        3    1    3    3  502    0  0.25035019496E+03  0.20476592321E+03  0.22381372934E+03  0.39331526676E+03  0.10100000352E+00 0.  1.
       -3    1    3    3    0  502 -0.25035019496E+03 -0.20476592321E+03  0.17248003880E+04  0.17548620151E+04  0.10100000352E+00 0. -1.
</event>
<event>
 5   0  0.9697941E-04  0.8977724E+03  0.7818609E-02  0.9428370E-01
        1   -1    0    0  501    0  0.00000000000E+00  0.00000000000E+00  0.57799263248E+03  0.57799263250E+03  0.50400001928E-02 0. -1.
       -1   -1    0    0    0  501  0.00000000000E+00  0.00000000000E+00 -0.34861834867E+03  0.34861834870E+03  0.50400001928E-02 0.  1.
    10030    2    1    2    0    0  0.00000000000E+00  0.00000000000E+00  0.22937428381E+03  0.92661098120E+03  0.89777243687E+03 0.  0.
        5    1    3    3  502    0 -0.22824898387E+03  0.31590898945E+03 -0.11513259429E+03  0.40641566471E+03  0.46999998093E+01 0. -1.
       -5    1    3    3    0  502  0.22824898387E+03 -0.31590898945E+03  0.34450687809E+03  0.52019531650E+03  0.46999998093E+01 0.  1.
</event>
<event>
 5   0  0.1641516E-03  0.8950626E+03  0.7818609E-02  0.9431775E-01
        2   -1    0    0  501    0  0.00000000000E+00  0.00000000000E+00  0.75546909930E+03  0.75546909930E+03  0.25500000920E-02 0. -1.
       -2   -1    0    0    0  501  0.00000000000E+00  0.00000000000E+00 -0.26511244296E+03  0.26511244297E+03  0.25500000920E-02 0.  1.
    10030    2    1    2    0    0  0.00000000000E+00  0.00000000000E+00  0.49035665634E+03  0.10205815423E+04  0.89506258665E+03 0.  0.
        1    1    3    3  502    0  0.29928031513E+03 -0.33263899249E+03  0.25450124770E+03  0.51477013458E+03  0.50400001928E-02 0.  1.
       -1    1    3    3    0  502 -0.29928031513E+03  0.33263899249E+03  0.23585540864E+03  0.50581140770E+03  0.50400001928E-02 0. -1.
</event>
<event>
 5   0  0.9223454E-04  0.9003316E+03  0.7818609E-02  0.9425167E-01
       -1   -1    0    0    0  501  0.00000000000E+00  0.00000000000E+00  0.47798568772E+03  0.47798568775E+03  0.50400001928E-02 0.  1.
        1   -1    0    0  501    0  0.00000000000E+00  0.00000000000E+00 -0.42396506202E+03  0.42396506205E+03  0.50400001928E-02 0. -1.
    10030    2    1    2    0    0  0.00000000000E+00  0.00000000000E+00  0.54020625699E+02  0.90195074980E+03  0.90033156507E+03 0.  0.
        1    1    3    3  502    0  0.19193833021E+03 -0.35239873404E+03 -0.17737631097E+03  0.43873402657E+03  0.50400001928E-02 0. -1.
       -1    1    3    3    0  502 -0.19193833021E+03  0.35239873404E+03  0.23139693666E+03  0.46321672323E+03  0.50400001928E-02 0.  1.
</event>
<event>
 5   0  0.1641516E-03  0.9007917E+03  0.7818609E-02  0.9424592E-01
       -2   -1    0    0    0  501  0.00000000000E+00  0.00000000000E+00  0.75801429077E+03  0.75801429078E+03  0.25500000920E-02 0.  1.
        2   -1    0    0  501    0  0.00000000000E+00  0.00000000000E+00 -0.26761557834E+03  0.26761557835E+03  0.25500000920E-02 0. -1.
    10030    2    1    2    0    0  0.00000000000E+00  0.00000000000E+00  0.49039871243E+03  0.10256298691E+04  0.90079172470E+03 0.  0.
        1    1    3    3  502    0  0.15707606537E+03  0.32868500372E+03 -0.56364449133E+02  0.36862402680E+03  0.50400001928E-02 0. -1.
       -1    1    3    3    0  502 -0.15707606537E+03 -0.32868500372E+03  0.54676316157E+03  0.65700584233E+03  0.50400001928E-02 0.  1.
</event>
<event>
 5   0  0.9321543E-04  0.9002385E+03  0.7818609E-02  0.9425283E-01
       -1   -1    0    0    0  501  0.00000000000E+00  0.00000000000E+00  0.26578241652E+03  0.26578241657E+03  0.50400001928E-02 0.  1.
        1   -1    0    0  501    0  0.00000000000E+00  0.00000000000E+00 -0.76230532047E+03  0.76230532049E+03  0.50400001928E-02 0. -1.
    10030    2    1    2    0    0  0.00000000000E+00  0.00000000000E+00 -0.49652290395E+03  0.10280877371E+04  0.90023852447E+03 0.  0.
        3    1    3    3  502    0  0.54876382365E+02 -0.44671083652E+03 -0.24057073008E+03  0.51032957506E+03  0.10100000352E+00 0.  1.
       -3    1    3    3    0  502 -0.54876382365E+02  0.44671083652E+03 -0.25595217386E+03  0.51775816200E+03  0.10100000352E+00 0. -1.
</event>
<event>
 5   0  0.1007561E-03  0.8901671E+03  0.7818609E-02  0.9437957E-01
        1   -1    0    0  501    0  0.00000000000E+00  0.00000000000E+00  0.12754126463E+04  0.12754126463E+04  0.50400001928E-02 0.  1.
       -1   -1    0    0    0  501  0.00000000000E+00  0.00000000000E+00 -0.15532179539E+03  0.15532179547E+03  0.50400001928E-02 0. -1.
    10030    2    1    2    0    0  0.00000000000E+00  0.00000000000E+00  0.11200908509E+04  0.14307344417E+04  0.89016713520E+03 0.  0.
        2    1    3    3  502    0 -0.50833351238E+02 -0.34177814431E+03  0.10914228041E+03  0.36236496369E+03  0.25500000920E-02 0. -1.
       -2    1    3    3    0  502  0.50833351238E+02  0.34177814431E+03  0.10109485704E+04  0.10683694780E+04  0.25500000920E-02 0.  1.
</event>
<event>
 5   0  0.9697941E-04  0.8973278E+03  0.7818609E-02  0.9428928E-01
        1   -1    0    0  501    0  0.00000000000E+00  0.00000000000E+00  0.11317434448E+04  0.11317434448E+04  0.50400001928E-02 0. -1.
       -1   -1    0    0    0  501  0.00000000000E+00  0.00000000000E+00 -0.17786654044E+03  0.17786654052E+03  0.50400001928E-02 0.  1.
    10030    2    1    2    0    0  0.00000000000E+00  0.00000000000E+00  0.95387690433E+03  0.13096099853E+04  0.89732779127E+03 0.  0.
        5    1    3    3  502    0  0.48057277929E+02 -0.21670901434E+03  0.10459481347E+04  0.10692529585E+04  0.46999998093E+01 0. -1.
       -5    1    3    3    0  502 -0.48057277929E+02  0.21670901434E+03 -0.92071230364E+02  0.24035702677E+03  0.46999998093E+01 0.  1.
</event>
<event>
 5   0  0.1635686E-03  0.8989412E+03  0.7818609E-02  0.9426906E-01
        2   -1    0    0  501    0  0.00000000000E+00  0.00000000000E+00  0.34162643023E+03  0.34162643024E+03  0.25500000920E-02 0.  1.
       -2   -1    0    0    0  501  0.00000000000E+00  0.00000000000E+00 -0.59135891695E+03  0.59135891696E+03  0.25500000920E-02 0. -1.
    10030    2    1    2    0    0  0.00000000000E+00  0.00000000000E+00 -0.24973248672E+03  0.93298534720E+03  0.89894123454E+03 0.  0.
        5    1    3    3  502    0  0.25816374823E+03 -0.25951583615E+03 -0.39551944158E+03  0.53893850186E+03  0.46999998093E+01 0. -1.
       -5    1    3    3    0  502 -0.25816374823E+03  0.25951583615E+03  0.14578695486E+03  0.39404684534E+03  0.46999998093E+01 0.  1.
</event>
<event>
 5   0  0.1635686E-03  0.8999496E+03  0.7818609E-02  0.9425644E-01
        2   -1    0    0  501    0  0.00000000000E+00  0.00000000000E+00  0.10071183553E+04  0.10071183553E+04  0.25500000920E-02 0.  1.
       -2   -1    0    0    0  501  0.00000000000E+00  0.00000000000E+00 -0.20104621780E+03  0.20104621781E+03  0.25500000920E-02 0. -1.
    10030    2    1    2    0    0  0.00000000000E+00  0.00000000000E+00  0.80607213752E+03  0.12081645731E+04  0.89994963464E+03 0.  0.
        5    1    3    3  502    0 -0.32040076684E+03 -0.64727098971E+02  0.81814040876E+03  0.88103465720E+03  0.46999998093E+01 0.  1.
       -5    1    3    3    0  502  0.32040076684E+03  0.64727098971E+02 -0.12068271240E+02  0.32712991594E+03  0.46999998093E+01 0. -1.
</event>
<event>
 5   0  0.1635686E-03  0.9004929E+03  0.7818609E-02  0.9424965E-01
        2   -1    0    0  501    0  0.00000000000E+00  0.00000000000E+00  0.16371065401E+04  0.16371065401E+04  0.25500000920E-02 0.  1.
       -2   -1    0    0    0  501  0.00000000000E+00  0.00000000000E+00 -0.12382936695E+03  0.12382936698E+03  0.25500000920E-02 0. -1.
    10030    2    1    2    0    0  0.00000000000E+00  0.00000000000E+00  0.15132771732E+04  0.17609359071E+04  0.90049290174E+03 0.  0.
        5    1    3    3  502    0 -0.14901765065E+03  0.28350096264E+03  0.13754028719E+04  0.14122089810E+04  0.46999998093E+01 0.  1.
       -5    1    3    3    0  502  0.14901765065E+03 -0.28350096264E+03  0.13787430124E+03  0.34872692607E+03  0.46999998093E+01 0. -1.
</event>
<event>
 5   0  0.9981885E-04  0.9030792E+03  0.7818609E-02  0.9421740E-01
       -1   -1    0    0    0  501  0.00000000000E+00  0.00000000000E+00  0.31191190908E+03  0.31191190912E+03  0.50400001928E-02 0.  1.
        1   -1    0    0  501    0  0.00000000000E+00  0.00000000000E+00 -0.65367182988E+03  0.65367182990E+03  0.50400001928E-02 0. -1.
    10030    2    1    2    0    0  0.00000000000E+00  0.00000000000E+00 -0.34175992079E+03  0.96558373902E+03  0.90307923993E+03 0.  0.
        4    1    3    3  502    0 -0.35322194251E+03  0.22052553155E+03  0.15816828456E+02  0.41671217368E+03  0.12699999809E+01 0.  1.
       -4    1    3    3    0  502  0.35322194251E+03 -0.22052553155E+03 -0.35757674925E+03  0.54887156534E+03  0.12699999809E+01 0. -1.
</event>
<event>
 5   0  0.1536020E-03  0.9002602E+03  0.7818609E-02  0.9425256E-01
        2   -1    0    0  501    0  0.00000000000E+00  0.00000000000E+00  0.77789187550E+03  0.77789187551E+03  0.25500000920E-02 0. -1.
       -2   -1    0    0    0  501  0.00000000000E+00  0.00000000000E+00 -0.26046947760E+03  0.26046947762E+03  0.25500000920E-02 0.  1.
    10030    2    1    2    0    0  0.00000000000E+00  0.00000000000E+00  0.51742239790E+03  0.10383613531E+04  0.90026016340E+03 0.  0.
        2    1    3    3  502    0  0.12492875678E+03 -0.18421785458E+03  0.70997525410E+03  0.74404856942E+03  0.25500000920E-02 0. -1.
       -2    1    3    3    0  502 -0.12492875678E+03  0.18421785458E+03 -0.19255285620E+03  0.29431278370E+03  0.25500000920E-02 0.  1.
</event>
<event>
 5   0  0.1704416E-03  0.9009596E+03  0.7818609E-02  0.9424383E-01
       -2   -1    0    0    0  501  0.00000000000E+00  0.00000000000E+00  0.12842846064E+03  0.12842846066E+03  0.25500000920E-02 0. -1.
        2   -1    0    0  501    0  0.00000000000E+00  0.00000000000E+00 -0.15801173618E+04  0.15801173618E+04  0.25500000920E-02 0.  1.
    10030    2    1    2    0    0  0.00000000000E+00  0.00000000000E+00 -0.14516889012E+04  0.17085458225E+04  0.90095957830E+03 0.  0.
        3    1    3    3  502    0 -0.43643752747E+03  0.10809392023E+03 -0.67322187290E+03  0.80956143147E+03  0.10100000352E+00 0.  1.
       -3    1    3    3    0  502  0.43643752747E+03 -0.10809392023E+03 -0.77846702830E+03  0.89898439104E+03  0.10100000352E+00 0. -1.
</event>
<event>
 5   0  0.9223454E-04  0.9014271E+03  0.7818609E-02  0.9423799E-01
       -1   -1    0    0    0  501  0.00000000000E+00  0.00000000000E+00  0.12739960069E+03  0.12739960079E+03  0.50400001928E-02 0. -1.
        1   -1    0    0  501    0  0.00000000000E+00  0.00000000000E+00 -0.15945317487E+04  0.15945317487E+04  0.50400001928E-02 0.  1.
    10030    2    1    2    0    0  0.00000000000E+00  0.00000000000E+00 -0.14671321480E+04  0.17219313495E+04  0.90142710891E+03 0.  0.
        1    1    3    3  502    0 -0.16227039515E+03 -0.41972415525E+03 -0.68514036106E+03  0.81970565572E+03  0.50400001928E-02 0.  1.
       -1    1    3    3    0  502  0.16227039515E+03  0.41972415525E+03 -0.78199178695E+03  0.90222569378E+03  0.50400001928E-02 0. -1.
</event>
<event>
 5   0  0.1704416E-03  0.9011116E+03  0.7818609E-02  0.9424193E-01
       -2   -1    0    0    0  501  0.00000000000E+00  0.00000000000E+00  0.52589595288E+03  0.52589595289E+03  0.25500000920E-02 0.  1.
        2   -1    0    0  501    0  0.00000000000E+00  0.00000000000E+00 -0.38600892906E+03  0.38600892906E+03  0.25500000920E-02 0. -1.
    10030    2    1    2    0    0  0.00000000000E+00  0.00000000000E+00  0.13988702382E+03  0.91190488195E+03  0.90111161034E+03 0.  0.
        3    1    3    3  502    0 -0.35477298455E+03 -0.24102782357E+03 -0.69702965433E+02  0.43453054655E+03  0.10100000352E+00 0.  1.
       -3    1    3    3    0  502  0.35477298455E+03  0.24102782357E+03  0.20958998926E+03  0.47737433540E+03  0.10100000352E+00 0. -1.
</event>
<event>
 5   0  0.9981885E-04  0.8998928E+03  0.7818609E-02  0.9425715E-01
        1   -1    0    0  501    0  0.00000000000E+00  0.00000000000E+00  0.45744607212E+03  0.45744607215E+03  0.50400001928E-02 0.  1.
       -1   -1    0    0    0  501  0.00000000000E+00  0.00000000000E+00 -0.44256964127E+03  0.44256964130E+03  0.50400001928E-02 0. -1.
    10030    2    1    2    0    0  0.00000000000E+00  0.00000000000E+00  0.14876430856E+02  0.90001571345E+03  0.89989275820E+03 0.  0.
        4    1    3    3  502    0  0.36357494403E+03 -0.19604670805E+03  0.18586965300E+03  0.45295716406E+03  0.12699999809E+01 0.  1.
       -4    1    3    3    0  502 -0.36357494403E+03  0.19604670805E+03 -0.17099322214E+03  0.44705854939E+03  0.12699999809E+01 0. -1.
</event>
<event>
 5   0  0.1635686E-03  0.9041799E+03  0.7818609E-02  0.9420371E-01
        2   -1    0    0  501    0  0.00000000000E+00  0.00000000000E+00  0.81041622459E+03  0.81041622459E+03  0.25500000920E-02 0.  1.
       -2   -1    0    0    0  501  0.00000000000E+00  0.00000000000E+00 -0.25219794945E+03  0.25219794947E+03  0.25500000920E-02 0. -1.
    10030    2    1    2    0    0  0.00000000000E+00  0.00000000000E+00  0.55821827513E+03  0.10626141741E+04  0.90417987161E+03 0.  0.
        5    1    3    3  502    0  0.12880949837E+03 -0.89079387706E+02  0.77748766605E+03  0.79311801458E+03  0.46999998093E+01 0.  1.
       -5    1    3    3    0  502 -0.12880949837E+03  0.89079387706E+02 -0.21926939092E+03  0.26949615948E+03  0.46999998093E+01 0. -1.
</event>
<event>
 5   0  0.9321543E-04  0.9013809E+03  0.7818609E-02  0.9423857E-01
       -1   -1    0    0    0  501  0.00000000000E+00  0.00000000000E+00  0.27477805760E+03  0.27477805765E+03  0.50400001928E-02 0.  1.
        1   -1    0    0  501    0  0.00000000000E+00  0.00000000000E+00 -0.73922165633E+03  0.73922165635E+03  0.50400001928E-02 0. -1.
    10030    2    1    2    0    0  0.00000000000E+00  0.00000000000E+00 -0.46444359872E+03  0.10139997140E+04  0.90138092036E+03 0.  0.
        3    1    3    3  502    0  0.80697780862E+02  0.44177378045E+03 -0.27499432762E+03  0.52659101336E+03  0.10100000352E+00 0. -1.
       -3    1    3    3    0  502 -0.80697780862E+02 -0.44177378045E+03 -0.18944927110E+03  0.48740870063E+03  0.10100000352E+00 0.  1.
</event>
<event>
 5   0  0.1536020E-03  0.9005792E+03  0.7818609E-02  0.9424858E-01
       -2   -1    0    0    0  501  0.00000000000E+00  0.00000000000E+00  0.70700871619E+02  0.70700871665E+02  0.25500000920E-02 0.  1.
        2   -1    0    0  501    0  0.00000000000E+00  0.00000000000E+00 -0.28678675138E+04  0.28678675138E+04  0.25500000920E-02 0. -1.
    10030    2    1    2    0    0  0.00000000000E+00  0.00000000000E+00 -0.27971666422E+04  0.29385683855E+04  0.90057922025E+03 0.  0.
        2    1    3    3  502    0  0.39531040000E+03  0.19068131686E+03 -0.17270121250E+04  0.17819092448E+04  0.25500000920E-02 0. -1.
       -2    1    3    3    0  502 -0.39531040000E+03 -0.19068131686E+03 -0.10701545173E+04  0.11566591407E+04  0.25500000920E-02 0.  1.
</event>
<event>
 5   0  0.9697941E-04  0.8990791E+03  0.7818609E-02  0.9426733E-01
       -1   -1    0    0    0  501  0.00000000000E+00  0.00000000000E+00  0.20190748266E+03  0.20190748273E+03  0.50400001928E-02 0.  1.
        1   -1    0    0  501    0  0.00000000000E+00  0.00000000000E+00 -0.10008831152E+04  0.10008831152E+04  0.50400001928E-02 0. -1.
    10030    2    1    2    0    0  0.00000000000E+00  0.00000000000E+00 -0.79897563252E+03  0.12027905979E+04  0.89907906276E+03 0.  0.
        5    1    3    3  502    0  0.18124093022E+03 -0.21883157658E+03  0.66498279085E+02  0.29185552045E+03  0.46999998093E+01 0.  1.
       -5    1    3    3    0  502 -0.18124093022E+03  0.21883157658E+03 -0.86547391161E+03  0.91093507747E+03  0.46999998093E+01 0. -1.
</event>
<event>
 5   0  0.1007561E-03  0.9000225E+03  0.7818609E-02  0.9425553E-01
        1   -1    0    0  501    0  0.00000000000E+00  0.00000000000E+00  0.12037433680E+04  0.12037433680E+04  0.50400001928E-02 0.  1.
       -1   -1    0    0    0  501  0.00000000000E+00  0.00000000000E+00 -0.16823363126E+03  0.16823363134E+03  0.50400001928E-02 0. -1.
    10030    2    1    2    0    0  0.00000000000E+00  0.00000000000E+00  0.10355097368E+04  0.13719769994E+04  0.90002248409E+03 0.  0.
        2    1    3    3  502    0  0.14522179412E+03 -0.31361330983E+03  0.78406633553E+02  0.35438718625E+03  0.25500000920E-02 0. -1.
       -2    1    3    3    0  502 -0.14522179412E+03  0.31361330983E+03  0.95710310321E+03  0.10175898131E+04  0.25500000920E-02 0.  1.
</event>
<event>
 5   0  0.9697941E-04  0.8979227E+03  0.7818609E-02  0.9428182E-01
       -1   -1    0    0    0  501  0.00000000000E+00  0.00000000000E+00  0.35583234716E+03  0.35583234719E+03  0.50400001928E-02 0. -1.
        1   -1    0    0  501    0  0.00000000000E+00  0.00000000000E+00 -0.56646427521E+03  0.56646427523E+03  0.50400001928E-02 0.  1.
    10030    2    1    2    0    0  0.00000000000E+00  0.00000000000E+00 -0.21063192806E+03  0.92229662243E+03  0.89792274201E+03 0.  0.
        5    1    3    3  502    0  0.39122294048E+03 -0.17710373481E+03  0.29091334193E+02  0.43045268935E+03  0.46999998093E+01 0.  1.
       -5    1    3    3    0  502 -0.39122294048E+03  0.17710373481E+03 -0.23972326225E+03  0.49184393308E+03  0.46999998093E+01 0. -1.
</event>
<event>
 5   0  0.1635686E-03  0.9000541E+03  0.7818609E-02  0.9425514E-01
       -2   -1    0    0    0  501  0.00000000000E+00  0.00000000000E+00  0.92389672879E+02  0.92389672914E+02  0.25500000920E-02 0. -1.
        2   -1    0    0  501    0  0.00000000000E+00  0.00000000000E+00 -0.21920667459E+04  0.21920667459E+04  0.25500000920E-02 0.  1.
    10030    2    1    2    0    0  0.00000000000E+00  0.00000000000E+00 -0.20996770730E+04  0.22844564188E+04  0.90005406420E+03 0.  0.
        5    1    3    3  502    0  0.25981076579E+03  0.11738398217E+03 -0.19335374018E+04  0.19544486709E+04  0.46999998093E+01 0.  1.
       -5    1    3    3    0  502 -0.25981076579E+03 -0.11738398217E+03 -0.16613967123E+03  0.33000774785E+03  0.46999998093E+01 0. -1.
</event>
<event>
 5   0  0.9697941E-04  0.8996992E+03  0.7818609E-02  0.9425957E-01
        1   -1    0    0  501    0  0.00000000000E+00  0.00000000000E+00  0.35891521187E+03  0.35891521190E+03  0.50400001928E-02 0. -1.
       -1   -1    0    0    0  501  0.00000000000E+00  0.00000000000E+00 -0.56382305300E+03  0.56382305302E+03  0.50400001928E-02 0.  1.
    10030    2    1    2    0    0  0.00000000000E+00  0.00000000000E+00 -0.20490784113E+03  0.92273826493E+03  0.89969921763E+03 0.  0.
        5    1    3    3  502    0 -0.17765606504E+03 -0.38132062945E+03 -0.26582994604E+03  0.49764922395E+03  0.46999998093E+01 0.  1.
       -5    1    3    3    0  502  0.17765606504E+03  0.38132062945E+03  0.60922104911E+02  0.42508904097E+03  0.46999998093E+01 0. -1.
</event>
<event>
 5   0  0.1641516E-03  0.9049400E+03  0.7818609E-02  0.9419427E-01
        2   -1    0    0  501    0  0.00000000000E+00  0.00000000000E+00  0.53700376715E+03  0.53700376715E+03  0.25500000920E-02 0.  1.
       -2   -1    0    0    0  501  0.00000000000E+00  0.00000000000E+00 -0.38124331518E+03  0.38124331519E+03  0.25500000920E-02 0. -1.
    10030    2    1    2    0    0  0.00000000000E+00  0.00000000000E+00  0.15576045196E+03  0.91824708234E+03  0.90493999019E+03 0.  0.
        1    1    3    3  502    0  0.16234124373E+03 -0.41476217010E+03 -0.29578167306E+01  0.44541114250E+03  0.50400001928E-02 0.  1.
       -1    1    3    3    0  502 -0.16234124373E+03  0.41476217010E+03  0.15871826870E+03  0.47283593984E+03  0.50400001928E-02 0. -1.
</event>
<event>
 5   0  0.1635686E-03  0.9041250E+03  0.7818609E-02  0.9420440E-01
        2   -1    0    0  501    0  0.00000000000E+00  0.00000000000E+00  0.75565725179E+03  0.75565725179E+03  0.25500000920E-02 0.  1.
       -2   -1    0    0    0  501  0.00000000000E+00  0.00000000000E+00 -0.27044074777E+03  0.27044074779E+03  0.25500000920E-02 0. -1.
    10030    2    1    2    0    0  0.00000000000E+00  0.00000000000E+00  0.48521650402E+03  0.10260979996E+04  0.90412501844E+03 0.  0.
        5    1    3    3  502    0 -0.15711265760E+03 -0.37406311040E+03  0.46882468122E+03  0.62002118469E+03  0.46999998093E+01 0.  1.
       -5    1    3    3    0  502  0.15711265760E+03  0.37406311040E+03  0.16391822799E+02  0.40607681489E+03  0.46999998093E+01 0. -1.
</event>
<event>
 5   0  0.1635686E-03  0.9000243E+03  0.7818609E-02  0.9425551E-01
        2   -1    0    0  501    0  0.00000000000E+00  0.00000000000E+00  0.16564955292E+04  0.16564955292E+04  0.25500000920E-02 0.  1.
       -2   -1    0    0    0  501  0.00000000000E+00  0.00000000000E+00 -0.12225263840E+03  0.12225263843E+03  0.25500000920E-02 0. -1.
    10030    2    1    2    0    0  0.00000000000E+00  0.00000000000E+00  0.15342428908E+04  0.17787481676E+04  0.90002433071E+03 0.  0.
        5    1    3    3  502    0  0.75026134318E+02 -0.42096600423E+03  0.49009926497E+03  0.65043114706E+03  0.46999998093E+01 0.  1.
       -5    1    3    3    0  502 -0.75026134318E+02  0.42096600423E+03  0.10441436258E+04  0.11283170205E+04  0.46999998093E+01 0. -1.
</event>
<event>
 5   0  0.9321543E-04  0.8995447E+03  0.7818609E-02  0.9426151E-01
       -1   -1    0    0    0  501  0.00000000000E+00  0.00000000000E+00  0.73700914271E+02  0.73700914443E+02  0.50400001928E-02 0.  1.
        1   -1    0    0  501    0  0.00000000000E+00  0.00000000000E+00 -0.27448120936E+04  0.27448120936E+04  0.50400001928E-02 0. -1.
    10030    2    1    2    0    0  0.00000000000E+00  0.00000000000E+00 -0.26711111793E+04  0.28185130081E+04  0.89954468716E+03 0.  0.
        3    1    3    3  502    0 -0.22954206897E+03  0.36309929820E+03 -0.17531682547E+04  0.18050289752E+04  0.10100000352E+00 0. -1.
       -3    1    3    3    0  502  0.22954206897E+03 -0.36309929820E+03 -0.91794292465E+03  0.10134840329E+04  0.10100000352E+00 0.  1.
</event>
<event>
 5   0  0.9697941E-04  0.9004412E+03  0.7818609E-02  0.9425030E-01
        1   -1    0    0  501    0  0.00000000000E+00  0.00000000000E+00  0.26439487056E+03  0.26439487061E+03  0.50400001928E-02 0. -1.
       -1   -1    0    0    0  501  0.00000000000E+00  0.00000000000E+00 -0.76665102373E+03  0.76665102375E+03  0.50400001928E-02 0.  1.
    10030    2    1    2    0    0  0.00000000000E+00  0.00000000000E+00 -0.50225615317E+03  0.10310458944E+04  0.90044122122E+03 0.  0.
        5    1    3    3  502    0  0.19303869107E+03  0.83745443859E+02  0.20459311089E+03  0.29352626226E+03  0.46999998093E+01 0. -1.
       -5    1    3    3    0  502 -0.19303869107E+03 -0.83745443859E+02 -0.70684926406E+03  0.73751963209E+03  0.46999998093E+01 0.  1.
</event>
<event>
 5   0  0.1635686E-03  0.8992057E+03  0.7818609E-02  0.9426575E-01
       -2   -1    0    0    0  501  0.00000000000E+00  0.00000000000E+00  0.51416834825E+03  0.51416834825E+03  0.25500000920E-02 0. -1.
        2   -1    0    0  501    0  0.00000000000E+00  0.00000000000E+00 -0.39314497961E+03  0.39314497962E+03  0.25500000920E-02 0.  1.
    10030    2    1    2    0    0  0.00000000000E+00  0.00000000000E+00  0.12102336864E+03  0.90731332787E+03  0.89920566012E+03 0.  0.
        5    1    3    3  502    0  0.38632382011E+03 -0.21648367282E+03  0.13873057538E+03  0.46409000972E+03  0.46999998093E+01 0. -1.
       -5    1    3    3    0  502 -0.38632382011E+03  0.21648367282E+03 -0.17707206744E+02  0.44322331815E+03  0.46999998093E+01 0.  1.
</event>
<event>
 5   0  0.9981885E-04  0.8991393E+03  0.7818609E-02  0.9426658E-01
       -1   -1    0    0    0  501  0.00000000000E+00  0.00000000000E+00  0.12608306136E+03  0.12608306146E+03  0.50400001928E-02 0. -1.
        1   -1    0    0  501    0  0.00000000000E+00  0.00000000000E+00 -0.16030135212E+04  0.16030135212E+04  0.50400001928E-02 0.  1.
    10030    2    1    2    0    0  0.00000000000E+00  0.00000000000E+00 -0.14769304599E+04  0.17290965827E+04  0.89913926008E+03 0.  0.
        4    1    3    3  502    0  0.34062285485E+03  0.29183950338E+03 -0.79669973145E+03  0.91429005243E+03  0.12699999809E+01 0.  1.
       -4    1    3    3    0  502 -0.34062285485E+03 -0.29183950338E+03 -0.68023072843E+03  0.81480653028E+03  0.12699999809E+01 0. -1.
</event>
<event>
 5   0  0.1641516E-03  0.9019795E+03  0.7818609E-02  0.9423110E-01
       -2   -1    0    0    0  501  0.00000000000E+00  0.00000000000E+00  0.25884867619E+03  0.25884867620E+03  0.25500000920E-02 0.  1.
        2   -1    0    0  501    0  0.00000000000E+00  0.00000000000E+00 -0.78575541089E+03  0.78575541090E+03  0.25500000920E-02 0. -1.
    10030    2    1    2    0    0  0.00000000000E+00  0.00000000000E+00 -0.52690673470E+03  0.10446040871E+04  0.90197948519E+03 0.  0.
        1    1    3    3  502    0  0.37695248078E+03  0.12809786033E+03 -0.50882678342E+03  0.64607037554E+03  0.50400001928E-02 0. -1.
       -1    1    3    3    0  502 -0.37695248078E+03 -0.12809786033E+03 -0.18079951277E+02  0.39853371156E+03  0.50400001928E-02 0.  1.
</event>
<event>
 5   0  0.9697941E-04  0.8988405E+03  0.7818609E-02  0.9427032E-01
        1   -1    0    0  501    0  0.00000000000E+00  0.00000000000E+00  0.26870268015E+03  0.26870268019E+03  0.50400001928E-02 0.  1.
       -1   -1    0    0    0  501  0.00000000000E+00  0.00000000000E+00 -0.75168040912E+03  0.75168040914E+03  0.50400001928E-02 0. -1.
    10030    2    1    2    0    0  0.00000000000E+00  0.00000000000E+00 -0.48297772898E+03  0.10203830893E+04  0.89884045431E+03 0.  0.
        5    1    3    3  502    0  0.20089539869E+02  0.17845255043E+03 -0.70914993722E+03  0.73154946915E+03  0.46999998093E+01 0. -1.
       -5    1    3    3    0  502 -0.20089539869E+02 -0.17845255043E+03  0.22617220824E+03  0.28883362018E+03  0.46999998093E+01 0.  1.
</event>
<event>
 5   0  0.9223454E-04  0.8940474E+03  0.7818609E-02  0.9433053E-01
        1   -1    0    0  501    0  0.00000000000E+00  0.00000000000E+00  0.14102896680E+03  0.14102896689E+03  0.50400001928E-02 0.  1.
       -1   -1    0    0    0  501  0.00000000000E+00  0.00000000000E+00 -0.14169442038E+04  0.14169442038E+04  0.50400001928E-02 0. -1.
    10030    2    1    2    0    0  0.00000000000E+00  0.00000000000E+00 -0.12759152370E+04  0.15579731707E+04  0.89404737490E+03 0.  0.
        1    1    3    3  502    0  0.36970228341E+03 -0.19365264467E+03 -0.35887351437E+03  0.55042831003E+03  0.50400001928E-02 0.  1.
       -1    1    3    3    0  502 -0.36970228341E+03  0.19365264467E+03 -0.91704172260E+03  0.10075448606E+04  0.50400001928E-02 0. -1.
</event>
<event>
 5   0  0.9223454E-04  0.9002759E+03  0.7818609E-02  0.9425237E-01
        1   -1    0    0  501    0  0.00000000000E+00  0.00000000000E+00  0.62980113933E+03  0.62980113935E+03  0.50400001928E-02 0.  1.
       -1   -1    0    0    0  501  0.00000000000E+00  0.00000000000E+00 -0.32172724528E+03  0.32172724532E+03  0.50400001928E-02 0. -1.
    10030    2    1    2    0    0  0.00000000000E+00  0.00000000000E+00  0.30807389406E+03  0.95152838467E+03  0.90027592583E+03 0.  0.
        1    1    3    3  502    0  0.44701108804E+03  0.33665162377E+02  0.11081989784E+03  0.46177191964E+03  0.50400001928E-02 0. -1.
       -1    1    3    3    0  502 -0.44701108804E+03 -0.33665162377E+02  0.19725399622E+03  0.48975646503E+03  0.50400001928E-02 0.  1.
</event>
<event>
 5   0  0.9981885E-04  0.8997232E+03  0.7818609E-02  0.9425927E-01
       -1   -1    0    0    0  501  0.00000000000E+00  0.00000000000E+00  0.32023776614E+03  0.32023776618E+03  0.50400001928E-02 0.  1.
        1   -1    0    0  501    0  0.00000000000E+00  0.00000000000E+00 -0.63195382537E+03  0.63195382539E+03  0.50400001928E-02 0. -1.
    10030    2    1    2    0    0  0.00000000000E+00  0.00000000000E+00 -0.31171605924E+03  0.95219159157E+03  0.89972324938E+03 0.  0.
        4    1    3    3  502    0  0.18529097323E+03 -0.19217734975E+03 -0.53906344238E+03  0.60154458383E+03  0.12699999809E+01 0. -1.
       -4    1    3    3    0  502 -0.18529097323E+03  0.19217734975E+03  0.22734738315E+03  0.35064700775E+03  0.12699999809E+01 0.  1.
</event>
<event>
 5   0  0.1630202E-03  0.9010003E+03  0.7818609E-02  0.9424332E-01
        2   -1    0    0  501    0  0.00000000000E+00  0.00000000000E+00  0.10110377667E+04  0.10110377667E+04  0.25500000920E-02 0.  1.
       -2   -1    0    0    0  501  0.00000000000E+00  0.00000000000E+00 -0.20073472671E+03  0.20073472673E+03  0.25500000920E-02 0. -1.
    10030    2    1    2    0    0  0.00000000000E+00  0.00000000000E+00  0.81030303996E+03  0.12117724934E+04  0.90100031032E+03 0.  0.
        4    1    3    3  502    0 -0.44070064285E+03 -0.65904114633E+02  0.31605768203E+03  0.54630987562E+03  0.12699999809E+01 0.  1.
       -4    1    3    3    0  502  0.44070064285E+03  0.65904114633E+02  0.49424535793E+03  0.66546261778E+03  0.12699999809E+01 0. -1.
</event>
<event>
 5   0  0.1641516E-03  0.8994123E+03  0.7818609E-02  0.9426316E-01
       -2   -1    0    0    0  501  0.00000000000E+00  0.00000000000E+00  0.20239388820E+03  0.20239388822E+03  0.25500000920E-02 0. -1.
        2   -1    0    0  501    0  0.00000000000E+00  0.00000000000E+00 -0.99921802250E+03  0.99921802250E+03  0.25500000920E-02 0.  1.
    10030    2    1    2    0    0  0.00000000000E+00  0.00000000000E+00 -0.79682413429E+03  0.12016119107E+04  0.89941229866E+03 0.  0.
        1    1    3    3  502    0  0.34042583530E+03 -0.59036833077E+02 -0.78298546518E+03  0.85582786570E+03  0.50400001928E-02 0.  1.
       -1    1    3    3    0  502 -0.34042583530E+03  0.59036833077E+02 -0.13838669117E+02  0.34578404502E+03  0.50400001928E-02 0. -1.
</event>
<event>
 5   0  0.9981885E-04  0.8998243E+03  0.7818609E-02  0.9425801E-01
        1   -1    0    0  501    0  0.00000000000E+00  0.00000000000E+00  0.46813987996E+03  0.46813987999E+03  0.50400001928E-02 0. -1.
       -1   -1    0    0    0  501  0.00000000000E+00  0.00000000000E+00 -0.43239414659E+03  0.43239414662E+03  0.50400001928E-02 0.  1.
    10030    2    1    2    0    0  0.00000000000E+00  0.00000000000E+00  0.35745733367E+02  0.90053402661E+03  0.89982430264E+03 0.  0.
        4    1    3    3  502    0  0.22651957541E+02  0.97663702367E+02  0.45681659425E+03  0.46769041429E+03  0.12699999809E+01 0. -1.
       -4    1    3    3    0  502 -0.22651957541E+02 -0.97663702367E+02 -0.42107086088E+03  0.43284361232E+03  0.12699999809E+01 0.  1.
</event>
<event>
 5   0  0.1635686E-03  0.8934964E+03  0.7818609E-02  0.9433748E-01
       -2   -1    0    0    0  501  0.00000000000E+00  0.00000000000E+00  0.32767806041E+03  0.32767806042E+03  0.25500000920E-02 0. -1.
        2   -1    0    0  501    0  0.00000000000E+00  0.00000000000E+00 -0.60908551297E+03  0.60908551298E+03  0.25500000920E-02 0.  1.
    10030    2    1    2    0    0  0.00000000000E+00  0.00000000000E+00 -0.28140745256E+03  0.93676357340E+03  0.89349641190E+03 0.  0.
        5    1    3    3  502    0 -0.27981230289E+03  0.51497865979E+02  0.22037909890E+03  0.35991108941E+03  0.46999998093E+01 0. -1.
       -5    1    3    3    0  502  0.27981230289E+03 -0.51497865979E+02 -0.50178655147E+03  0.57685248399E+03  0.46999998093E+01 0.  1.
</event>
<event>
 5   0  0.1704416E-03  0.9006497E+03  0.7818609E-02  0.9424770E-01
        2   -1    0    0  501    0  0.00000000000E+00  0.00000000000E+00  0.64957557306E+03  0.64957557306E+03  0.25500000920E-02 0.  1.
       -2   -1    0    0    0  501  0.00000000000E+00  0.00000000000E+00 -0.31219229262E+03  0.31219229263E+03  0.25500000920E-02 0. -1.
    10030    2    1    2    0    0  0.00000000000E+00  0.00000000000E+00  0.33738328044E+03  0.96176786569E+03  0.90064973744E+03 0.  0.
        3    1    3    3  502    0 -0.14528332260E+03  0.54897270052E+02 -0.28268804102E+03  0.32254223417E+03  0.10100000352E+00 0. -1.
       -3    1    3    3    0  502  0.14528332260E+03 -0.54897270052E+02  0.62007132146E+03  0.63922563152E+03  0.10100000352E+00 0.  1.
</event>
<event>
 5   0  0.1536020E-03  0.9014762E+03  0.7818609E-02  0.9423738E-01
        2   -1    0    0  501    0  0.00000000000E+00  0.00000000000E+00  0.56740972445E+03  0.56740972446E+03  0.25500000920E-02 0.  1.
       -2   -1    0    0    0  501  0.00000000000E+00  0.00000000000E+00 -0.35805665536E+03  0.35805665537E+03  0.25500000920E-02 0. -1.
    10030    2    1    2    0    0  0.00000000000E+00  0.00000000000E+00  0.20935306910E+03  0.92546637983E+03  0.90147618529E+03 0.  0.
        2    1    3    3  502    0 -0.16567165311E+03  0.74946187202E+02  0.52808502928E+03  0.55851394412E+03  0.25500000920E-02 0.  1.
       -2    1    3    3    0  502  0.16567165311E+03 -0.74946187202E+02 -0.31873196019E+03  0.36695243570E+03  0.25500000920E-02 0. -1.
</event>
<event>
 5   0  0.1536020E-03  0.9001286E+03  0.7818609E-02  0.9425421E-01
       -2   -1    0    0    0  501  0.00000000000E+00  0.00000000000E+00  0.12212219955E+03  0.12212219958E+03  0.25500000920E-02 0. -1.
        2   -1    0    0  501    0  0.00000000000E+00  0.00000000000E+00 -0.16586489179E+04  0.16586489179E+04  0.25500000920E-02 0.  1.
    10030    2    1    2    0    0  0.00000000000E+00  0.00000000000E+00 -0.15365267183E+04  0.17807711174E+04  0.90012855562E+03 0.  0.
        2    1    3    3  502    0 -0.50557240756E+01 -0.19770432763E+03 -0.15680787781E+04  0.15805010648E+04  0.25500000920E-02 0.  1.
       -2    1    3    3    0  502  0.50557240756E+01  0.19770432763E+03  0.31552059778E+02  0.20027005266E+03  0.25500000920E-02 0. -1.
</event>
<event>
 5   0  0.1536020E-03  0.9005785E+03  0.7818609E-02  0.9424859E-01
        2   -1    0    0  501    0  0.00000000000E+00  0.00000000000E+00  0.83469955309E+03  0.83469955310E+03  0.25500000920E-02 0. -1.
       -2   -1    0    0    0  501  0.00000000000E+00  0.00000000000E+00 -0.24291423072E+03  0.24291423073E+03  0.25500000920E-02 0.  1.
    10030    2    1    2    0    0  0.00000000000E+00  0.00000000000E+00  0.59178532237E+03  0.10776137838E+04  0.90057848038E+03 0.  0.
        2    1    3    3  502    0 -0.17763180840E+03  0.13762732041E+03  0.76281336278E+03  0.79522233691E+03  0.25500000920E-02 0. -1.
       -2    1    3    3    0  502  0.17763180840E+03 -0.13762732041E+03 -0.17102804041E+03  0.28239144692E+03  0.25500000920E-02 0.  1.
</event>
<event>
 5   0  0.1536020E-03  0.8979843E+03  0.7818609E-02  0.9428105E-01
        2   -1    0    0  501    0  0.00000000000E+00  0.00000000000E+00  0.13725132198E+04  0.13725132198E+04  0.25500000920E-02 0.  1.
       -2   -1    0    0    0  501  0.00000000000E+00  0.00000000000E+00 -0.14687942264E+03  0.14687942266E+03  0.25500000920E-02 0. -1.
    10030    2    1    2    0    0  0.00000000000E+00  0.00000000000E+00  0.12256337972E+04  0.15193926425E+04  0.89798429676E+03 0.  0.
        2    1    3    3  502    0  0.41079362459E+03 -0.30140087559E+02  0.31045381217E+03  0.51579200883E+03  0.25500000920E-02 0. -1.
       -2    1    3    3    0  502 -0.41079362459E+03  0.30140087559E+02  0.91517998499E+03  0.10036006336E+04  0.25500000920E-02 0.  1.
</event>
<event>
 5   0  0.1704416E-03  0.8994652E+03  0.7818609E-02  0.9426250E-01
        2   -1    0    0  501    0  0.00000000000E+00  0.00000000000E+00  0.20154045338E+03  0.20154045340E+03  0.25500000920E-02 0.  1.
       -2   -1    0    0    0  501  0.00000000000E+00  0.00000000000E+00 -0.10035672891E+04  0.10035672891E+04  0.25500000920E-02 0. -1.
    10030    2    1    2    0    0  0.00000000000E+00  0.00000000000E+00 -0.80202683573E+03  0.12051077425E+04  0.89946518878E+03 0.  0.
        3    1    3    3  502    0 -0.31477632718E+03  0.47921437114E+02 -0.82655446886E+03  0.88576119834E+03  0.10100000352E+00 0. -1.
       -3    1    3    3    0  502  0.31477632718E+03 -0.47921437114E+02  0.24527633129E+02  0.31934654417E+03  0.10100000352E+00 0.  1.
</event>
<event>
 5   0  0.1630202E-03  0.9004535E+03  0.7818609E-02  0.9425015E-01
       -2   -1    0    0    0  501  0.00000000000E+00  0.00000000000E+00  0.26395342119E+03  0.26395342120E+03  0.25500000920E-02 0. -1.
        2   -1    0    0  501    0  0.00000000000E+00  0.00000000000E+00 -0.76795418680E+03  0.76795418680E+03  0.25500000920E-02 0.  1.
    10030    2    1    2    0    0  0.00000000000E+00  0.00000000000E+00 -0.50400076561E+03  0.10319076080E+04  0.90045351891E+03 0.  0.
        4    1    3    3  502    0  0.40444655040E+03  0.58251674490E+02 -0.35374816623E+02  0.41015028985E+03  0.12699999809E+01 0. -1.
       -4    1    3    3    0  502 -0.40444655040E+03 -0.58251674490E+02 -0.46862594899E+03  0.62175731815E+03  0.12699999809E+01 0.  1.
</event>
<event>
 5   0  0.1641516E-03  0.8995616E+03  0.7818609E-02  0.9426130E-01
       -2   -1    0    0    0  501  0.00000000000E+00  0.00000000000E+00  0.32285235957E+03  0.32285235958E+03  0.25500000920E-02 0. -1.
        2   -1    0    0  501    0  0.00000000000E+00  0.00000000000E+00 -0.62661072391E+03  0.62661072391E+03  0.25500000920E-02 0.  1.
    10030    2    1    2    0    0  0.00000000000E+00  0.00000000000E+00 -0.30375836434E+03  0.94946308349E+03  0.89956156154E+03 0.  0.
        1    1    3    3  502    0  0.24748593187E+03 -0.18621417830E+03  0.19236973411E+03  0.36459720419E+03  0.50400001928E-02 0. -1.
       -1    1    3    3    0  502 -0.24748593187E+03  0.18621417830E+03 -0.49612809845E+03  0.58486587930E+03  0.50400001928E-02 0.  1.
</event>
<event>
 5   0  0.9223454E-04  0.8993829E+03  0.7818609E-02  0.9426353E-01
        1   -1    0    0  501    0  0.00000000000E+00  0.00000000000E+00  0.67987778518E+03  0.67987778520E+03  0.50400001928E-02 0. -1.
       -1   -1    0    0    0  501  0.00000000000E+00  0.00000000000E+00 -0.29743931955E+03  0.29743931959E+03  0.50400001928E-02 0.  1.
    10030    2    1    2    0    0  0.00000000000E+00  0.00000000000E+00  0.38243846563E+03  0.97731710479E+03  0.89938286804E+03 0.  0.
        1    1    3    3  502    0 -0.57528384887E+02  0.24495889545E+03 -0.21378031134E+03  0.33017631210E+03  0.50400001928E-02 0.  1.
       -1    1    3    3    0  502  0.57528384887E+02 -0.24495889545E+03  0.59621877697E+03  0.64714079269E+03  0.50400001928E-02 0. -1.
</event>
<event>
 5   0  0.9321543E-04  0.8997942E+03  0.7818609E-02  0.9425839E-01
        1   -1    0    0  501    0  0.00000000000E+00  0.00000000000E+00  0.52081074984E+03  0.52081074986E+03  0.50400001928E-02 0. -1.
       -1   -1    0    0    0  501  0.00000000000E+00  0.00000000000E+00 -0.38863904376E+03  0.38863904379E+03  0.50400001928E-02 0.  1.
    10030    2    1    2    0    0  0.00000000000E+00  0.00000000000E+00  0.13217170607E+03  0.90944979366E+03  0.89979418052E+03 0.  0.
        3    1    3    3  502    0 -0.26648864744E+03 -0.34427689266E+03 -0.48553507004E+02  0.43806418625E+03  0.10100000352E+00 0.  1.
       -3    1    3    3    0  502  0.26648864744E+03  0.34427689266E+03  0.18072521308E+03  0.47138560741E+03  0.10100000352E+00 0. -1.
</event>
<event>
 5   0  0.9223454E-04  0.8979345E+03  0.7818609E-02  0.9428167E-01
       -1   -1    0    0    0  501  0.00000000000E+00  0.00000000000E+00  0.46664918452E+03  0.46664918455E+03  0.50400001928E-02 0. -1.
        1   -1    0    0  501    0  0.00000000000E+00  0.00000000000E+00 -0.43195526002E+03  0.43195526005E+03  0.50400001928E-02 0.  1.
    10030    2    1    2    0    0  0.00000000000E+00  0.00000000000E+00  0.34693924500E+02  0.89860444460E+03  0.89793445165E+03 0.  0.
        1    1    3    3  502    0  0.76989258797E+02 -0.42389565376E+02  0.45795646575E+03  0.46631357022E+03  0.50400001928E-02 0. -1.
       -1    1    3    3    0  502 -0.76989258797E+02  0.42389565376E+02 -0.42326254125E+03  0.43229087438E+03  0.50400001928E-02 0.  1.
</event>
<event>
 5   0  0.1630202E-03  0.9006153E+03  0.7818609E-02  0.9424813E-01
       -2   -1    0    0    0  501  0.00000000000E+00  0.00000000000E+00  0.23447452555E+03  0.23447452557E+03  0.25500000920E-02 0. -1.
        2   -1    0    0  501    0  0.00000000000E+00  0.00000000000E+00 -0.86481448189E+03  0.86481448190E+03  0.25500000920E-02 0.  1.
    10030    2    1    2    0    0  0.00000000000E+00  0.00000000000E+00 -0.63033995634E+03  0.10992890075E+04  0.90061526823E+03 0.  0.
        4    1    3    3  502    0 -0.18651510708E+02  0.43738552112E+03 -0.18644823563E+03  0.47583456201E+03  0.12699999809E+01 0. -1.
       -4    1    3    3    0  502  0.18651510708E+02 -0.43738552112E+03 -0.44389172071E+03  0.62345444545E+03  0.12699999809E+01 0.  1.
</event>
<event>
 5   0  0.1536020E-03  0.8984207E+03  0.7818609E-02  0.9427558E-01
       -2   -1    0    0    0  501  0.00000000000E+00  0.00000000000E+00  0.55636643223E+03  0.55636643223E+03  0.25500000920E-02 0. -1.
        2   -1    0    0  501    0  0.00000000000E+00  0.00000000000E+00 -0.36269252036E+03  0.36269252036E+03  0.25500000920E-02 0.  1.
    10030    2    1    2    0    0  0.00000000000E+00  0.00000000000E+00  0.19367391187E+03  0.91905895260E+03  0.89842071114E+03 0.  0.
        2    1    3    3  502    0 -0.26677783552E+03  0.15103627016E+03  0.43272013393E+03  0.53031036454E+03  0.25500000920E-02 0. -1.
       -2    1    3    3    0  502  0.26677783552E+03 -0.15103627016E+03 -0.23904622206E+03  0.38874858805E+03  0.25500000920E-02 0.  1.
</event>
<event>
 5   0  0.1536020E-03  0.8994653E+03  0.7818609E-02  0.9426250E-01
       -2   -1    0    0    0  501  0.00000000000E+00  0.00000000000E+00  0.19972788037E+03  0.19972788038E+03  0.25500000920E-02 0.  1.
        2   -1    0    0  501    0  0.00000000000E+00  0.00000000000E+00 -0.10126752080E+04  0.10126752081E+04  0.25500000920E-02 0. -1.
    10030    2    1    2    0    0  0.00000000000E+00  0.00000000000E+00 -0.81294732768E+03  0.12124030884E+04  0.89946533633E+03 0.  0.
        2    1    3    3  502    0 -0.41785180727E+02 -0.44718803071E+03 -0.43768995822E+03  0.62713286923E+03  0.25500000920E-02 0.  1.
       -2    1    3    3    0  502  0.41785180727E+02  0.44718803071E+03 -0.37525736947E+03  0.58527021920E+03  0.25500000920E-02 0. -1.
</event>
<event>
 5   0  0.1641516E-03  0.8997581E+03  0.7818609E-02  0.9425884E-01
       -2   -1    0    0    0  501  0.00000000000E+00  0.00000000000E+00  0.11657976898E+03  0.11657976901E+03  0.25500000920E-02 0. -1.
        2   -1    0    0  501    0  0.00000000000E+00  0.00000000000E+00 -0.17360743534E+04  0.17360743534E+04  0.25500000920E-02 0.  1.
    10030    2    1    2    0    0  0.00000000000E+00  0.00000000000E+00 -0.16194945844E+04  0.18526541224E+04  0.89975807211E+03 0.  0.
        1    1    3    3  502    0 -0.20264717662E+03 -0.39859793724E+03 -0.91156044321E+03  0.10153268614E+04  0.50400001928E-02 0. -1.
       -1    1    3    3    0  502  0.20264717662E+03  0.39859793724E+03 -0.70793414119E+03  0.83732726103E+03  0.50400001928E-02 0.  1.
</event>
<event>
 5   0  0.1635686E-03  0.9007775E+03  0.7818609E-02  0.9424610E-01
       -2   -1    0    0    0  501  0.00000000000E+00  0.00000000000E+00  0.11073563343E+03  0.11073563346E+03  0.25500000920E-02 0.  1.
        2   -1    0    0  501    0  0.00000000000E+00  0.00000000000E+00 -0.18318404878E+04  0.18318404878E+04  0.25500000920E-02 0. -1.
    10030    2    1    2    0    0  0.00000000000E+00  0.00000000000E+00 -0.17211048544E+04  0.19425761213E+04  0.90077747929E+03 0.  0.
        5    1    3    3  502    0  0.44867404890E+03 -0.37583974771E+02 -0.83824803089E+03  0.95152656748E+03  0.46999998093E+01 0. -1.
       -5    1    3    3    0  502 -0.44867404890E+03  0.37583974771E+02 -0.88285682347E+03  0.99104955379E+03  0.46999998093E+01 0.  1.
</event>
<event>
 5   0  0.1007561E-03  0.9003477E+03  0.7818609E-02  0.9425147E-01
        1   -1    0    0  501    0  0.00000000000E+00  0.00000000000E+00  0.16119479081E+04  0.16119479081E+04  0.50400001928E-02 0. -1.
       -1   -1    0    0    0  501  0.00000000000E+00  0.00000000000E+00 -0.12572149318E+03  0.12572149329E+03  0.50400001928E-02 0.  1.
    10030    2    1    2    0    0  0.00000000000E+00  0.00000000000E+00  0.14862264149E+04  0.17376694014E+04  0.90034770624E+03 0.  0.
        2    1    3    3  502    0  0.15589546225E+03 -0.13545143147E+03  0.15151269700E+04  0.15291370837E+04  0.25500000920E-02 0. -1.
       -2    1    3    3    0  502 -0.15589546225E+03  0.13545143147E+03 -0.28900555094E+02  0.20853231771E+03  0.25500000920E-02 0.  1.
</event>
<event>
 5   0  0.9321543E-04  0.9005961E+03  0.7818609E-02  0.9424837E-01
       -1   -1    0    0    0  501  0.00000000000E+00  0.00000000000E+00  0.13774998768E+03  0.13774998777E+03  0.50400001928E-02 0. -1.
        1   -1    0    0  501    0  0.00000000000E+00  0.00000000000E+00 -0.14720024321E+04  0.14720024322E+04  0.50400001928E-02 0.  1.
    10030    2    1    2    0    0  0.00000000000E+00  0.00000000000E+00 -0.13342524445E+04  0.16097524199E+04  0.90059606255E+03 0.  0.
        3    1    3    3  502    0 -0.15541001864E+03  0.25783635770E+03 -0.68573465075E+02  0.30876235450E+03  0.10100000352E+00 0. -1.
       -3    1    3    3    0  502  0.15541001864E+03 -0.25783635770E+03 -0.12656789794E+04  0.13009900654E+04  0.10100000352E+00 0.  1.
</event>
<event>
 5   0  0.9223454E-04  0.8999879E+03  0.7818609E-02  0.9425597E-01
        1   -1    0    0  501    0  0.00000000000E+00  0.00000000000E+00  0.38731247290E+03  0.38731247293E+03  0.50400001928E-02 0. -1.
       -1   -1    0    0    0  501  0.00000000000E+00  0.00000000000E+00 -0.52281962760E+03  0.52281962762E+03  0.50400001928E-02 0.  1.
    10030    2    1    2    0    0  0.00000000000E+00  0.00000000000E+00 -0.13550715470E+03  0.91013210055E+03  0.89998791741E+03 0.  0.
        1    1    3    3  502    0  0.31306052092E+02  0.36674328945E+03  0.19403461215E+03  0.41608910103E+03  0.50400001928E-02 0. -1.
       -1    1    3    3    0  502 -0.31306052092E+02 -0.36674328945E+03 -0.32954176685E+03  0.49404299953E+03  0.50400001928E-02 0.  1.
</event>
<event>
 5   0  0.1007561E-03  0.8987053E+03  0.7818609E-02  0.9427201E-01
       -1   -1    0    0    0  501  0.00000000000E+00  0.00000000000E+00  0.61260427991E+03  0.61260427993E+03  0.50400001928E-02 0. -1.
        1   -1    0    0  501    0  0.00000000000E+00  0.00000000000E+00 -0.32960563992E+03  0.32960563996E+03  0.50400001928E-02 0.  1.
    10030    2    1    2    0    0  0.00000000000E+00  0.00000000000E+00  0.28299863999E+03  0.94220991989E+03  0.89870534821E+03 0.  0.
        2    1    3    3  502    0 -0.41765577869E+03 -0.16560909256E+03  0.14928191963E+03  0.47344251240E+03  0.25500000920E-02 0. -1.
       -2    1    3    3    0  502  0.41765577869E+03  0.16560909256E+03  0.13371672036E+03  0.46876740749E+03  0.25500000920E-02 0.  1.
</event>
<event>
 5   0  0.1704416E-03  0.8997646E+03  0.7818609E-02  0.9425876E-01
       -2   -1    0    0    0  501  0.00000000000E+00  0.00000000000E+00  0.81869473976E+03  0.81869473976E+03  0.25500000920E-02 0.  1.
        2   -1    0    0  501    0  0.00000000000E+00  0.00000000000E+00 -0.24721554889E+03  0.24721554891E+03  0.25500000920E-02 0. -1.
    10030    2    1    2    0    0  0.00000000000E+00  0.00000000000E+00  0.57147919087E+03  0.10659102887E+04  0.89976456804E+03 0.  0.
        3    1    3    3  502    0  0.28303413754E+03  0.58594868106E+02 -0.12266978117E+03  0.31398975619E+03  0.10100000352E+00 0. -1.
       -3    1    3    3    0  502 -0.28303413754E+03 -0.58594868106E+02  0.69414897204E+03  0.75192053248E+03  0.10100000352E+00 0.  1.
</event>
<event>
 5   0  0.1007561E-03  0.8991729E+03  0.7818609E-02  0.9426616E-01
        1   -1    0    0  501    0  0.00000000000E+00  0.00000000000E+00  0.12643973879E+04  0.12643973879E+04  0.50400001928E-02 0.  1.
       -1   -1    0    0    0  501  0.00000000000E+00  0.00000000000E+00 -0.15986111119E+03  0.15986111127E+03  0.50400001928E-02 0. -1.
    10030    2    1    2    0    0  0.00000000000E+00  0.00000000000E+00  0.11045362767E+04  0.14242584992E+04  0.89917288989E+03 0.  0.
        2    1    3    3  502    0 -0.43581291472E+03 -0.83778240013E+02  0.66622869233E+03  0.80050756438E+03  0.25500000920E-02 0.  1.
       -2    1    3    3    0  502  0.43581291472E+03  0.83778240013E+02  0.43830758438E+03  0.62375093480E+03  0.25500000920E-02 0. -1.
</event>
<event>
 5   0  0.1635686E-03  0.8994468E+03  0.7818609E-02  0.9426273E-01
        2   -1    0    0  501    0  0.00000000000E+00  0.00000000000E+00  0.36526288969E+03  0.36526288970E+03  0.25500000920E-02 0. -1.
       -2   -1    0    0    0  501  0.00000000000E+00  0.00000000000E+00 -0.55371390127E+03  0.55371390128E+03  0.25500000920E-02 0.  1.
    10030    2    1    2    0    0  0.00000000000E+00  0.00000000000E+00 -0.18845101158E+03  0.91897679098E+03  0.89944680698E+03 0.  0.
        5    1    3    3  502    0 -0.31662040722E+03 -0.10277420486E+03  0.21469375612E+03  0.39613951881E+03  0.46999998093E+01 0. -1.
       -5    1    3    3    0  502  0.31662040722E+03  0.10277420486E+03 -0.40314476769E+03  0.52283727217E+03  0.46999998093E+01 0.  1.
</event>
<event>
 5   0  0.1630202E-03  0.8989221E+03  0.7818609E-02  0.9426930E-01
       -2   -1    0    0    0  501  0.00000000000E+00  0.00000000000E+00  0.10793946062E+03  0.10793946065E+03  0.25500000920E-02 0. -1.
        2   -1    0    0  501    0  0.00000000000E+00  0.00000000000E+00 -0.18715604246E+04  0.18715604246E+04  0.25500000920E-02 0.  1.
    10030    2    1    2    0    0  0.00000000000E+00  0.00000000000E+00 -0.17636209640E+04  0.19794998853E+04  0.89892207178E+03 0.  0.
        4    1    3    3  502    0 -0.34698213112E+03  0.23119125517E+03 -0.51223047619E+03  0.66047533597E+03  0.12699999809E+01 0. -1.
       -4    1    3    3    0  502  0.34698213112E+03 -0.23119125517E+03 -0.12513904878E+04  0.13190245493E+04  0.12699999809E+01 0.  1.
</event>
<event>
 5   0  0.9697941E-04  0.9002454E+03  0.7818609E-02  0.9425275E-01
       -1   -1    0    0    0  501  0.00000000000E+00  0.00000000000E+00  0.20222333049E+03  0.20222333056E+03  0.50400001928E-02 0.  1.
        1   -1    0    0  501    0  0.00000000000E+00  0.00000000000E+00 -0.10019143672E+04  0.10019143672E+04  0.50400001928E-02 0. -1.
    10030    2    1    2    0    0  0.00000000000E+00  0.00000000000E+00 -0.79969103672E+03  0.12041376978E+04  0.90024543376E+03 0.  0.
        5    1    3    3  502    0  0.41517821567E+03 -0.13978371115E+03 -0.53804873697E+03  0.69385226816E+03  0.46999998093E+01 0. -1.
       -5    1    3    3    0  502 -0.41517821567E+03  0.13978371115E+03 -0.26164229975E+03  0.51028542963E+03  0.46999998093E+01 0.  1.
</event>
<event>
 5   0  0.9321543E-04  0.8992018E+03  0.7818609E-02  0.9426580E-01
       -1   -1    0    0    0  501  0.00000000000E+00  0.00000000000E+00  0.74100870076E+03  0.74100870078E+03  0.50400001928E-02 0. -1.
        1   -1    0    0  501    0  0.00000000000E+00  0.00000000000E+00 -0.27279163457E+03  0.27279163462E+03  0.50400001928E-02 0.  1.
    10030    2    1    2    0    0  0.00000000000E+00  0.00000000000E+00  0.46821706619E+03  0.10138003354E+04  0.89920181215E+03 0.  0.
        3    1    3    3  502    0 -0.43512868684E+03 -0.10094885662E+03  0.29174421711E+03  0.53351883208E+03  0.10100000352E+00 0.  1.
       -3    1    3    3    0  502  0.43512868684E+03  0.10094885662E+03  0.17647284908E+03  0.48028150331E+03  0.10100000352E+00 0. -1.
</event>
<event>
 5   0  0.9981885E-04  0.9016822E+03  0.7818609E-02  0.9423481E-01
        1   -1    0    0  501    0  0.00000000000E+00  0.00000000000E+00  0.64138467228E+03  0.64138467230E+03  0.50400001928E-02 0. -1.
       -1   -1    0    0    0  501  0.00000000000E+00  0.00000000000E+00 -0.31690451564E+03  0.31690451568E+03  0.50400001928E-02 0.  1.
    10030    2    1    2    0    0  0.00000000000E+00  0.00000000000E+00  0.32448015664E+03  0.95828918798E+03  0.90168220330E+03 0.  0.
        4    1    3    3  502    0  0.84302829823E+02  0.31877620528E+02 -0.30723049971E+03  0.32018017218E+03  0.12699999809E+01 0.  1.
       -4    1    3    3    0  502 -0.84302829823E+02 -0.31877620528E+02  0.63171065634E+03  0.63810901580E+03  0.12699999809E+01 0. -1.
</event>
<event>
 5   0  0.9697941E-04  0.8990045E+03  0.7818609E-02  0.9426827E-01
       -1   -1    0    0    0  501  0.00000000000E+00  0.00000000000E+00  0.34752301694E+03  0.34752301698E+03  0.50400001928E-02 0. -1.
        1   -1    0    0  501    0  0.00000000000E+00  0.00000000000E+00 -0.58140690895E+03  0.58140690897E+03  0.50400001928E-02 0.  1.
    10030    2    1    2    0    0  0.00000000000E+00  0.00000000000E+00 -0.23388389201E+03  0.92892992594E+03  0.89900452300E+03 0.  0.
        5    1    3    3  502    0  0.14717694726E+03  0.42399377099E+03 -0.91664996824E+02  0.45810078944E+03  0.46999998093E+01 0.  1.
       -5    1    3    3    0  502 -0.14717694726E+03 -0.42399377099E+03 -0.14221889518E+03  0.47082913651E+03  0.46999998093E+01 0. -1.
</event>
<event>
 5   0  0.1536020E-03  0.8983604E+03  0.7818609E-02  0.9427633E-01
       -2   -1    0    0    0  501  0.00000000000E+00  0.00000000000E+00  0.24212970213E+03  0.24212970215E+03  0.25500000920E-02 0. -1.
        2   -1    0    0  501    0  0.00000000000E+00  0.00000000000E+00 -0.83328413885E+03  0.83328413885E+03  0.25500000920E-02 0.  1.
    10030    2    1    2    0    0  0.00000000000E+00  0.00000000000E+00 -0.59115443671E+03  0.10754138410E+04  0.89836037389E+03 0.  0.
        2    1    3    3  502    0 -0.23993215257E+03  0.24680067816E+03 -0.64104534142E+03  0.72761057052E+03  0.25500000920E-02 0.  1.
       -2    1    3    3    0  502  0.23993215257E+03 -0.24680067816E+03  0.49890904701E+02  0.34780327048E+03  0.25500000920E-02 0. -1.
</event>
<event>
 5   0  0.1007561E-03  0.9002782E+03  0.7818609E-02  0.9425234E-01
       -1   -1    0    0    0  501  0.00000000000E+00  0.00000000000E+00  0.19758544535E+03  0.19758544541E+03  0.50400001928E-02 0. -1.
        1   -1    0    0  501    0  0.00000000000E+00  0.00000000000E+00 -0.10255066913E+04  0.10255066913E+04  0.50400001928E-02 0.  1.
    10030    2    1    2    0    0  0.00000000000E+00  0.00000000000E+00 -0.82792124592E+03  0.12230921367E+04  0.90027817111E+03 0.  0.
        2    1    3    3  502    0  0.16934819261E+02  0.40837529759E+03 -0.67018020985E+03  0.78498323897E+03  0.25500000920E-02 0.  1.
       -2    1    3    3    0  502 -0.16934819261E+02 -0.40837529759E+03 -0.15774103607E+03  0.43810889771E+03  0.25500000920E-02 0. -1.
</event>
<event>
 5   0  0.1635686E-03  0.9000477E+03  0.7818609E-02  0.9425522E-01
       -2   -1    0    0    0  501  0.00000000000E+00  0.00000000000E+00  0.15125291557E+03  0.15125291559E+03  0.25500000920E-02 0. -1.
        2   -1    0    0  501    0  0.00000000000E+00  0.00000000000E+00 -0.13389591337E+04  0.13389591337E+04  0.25500000920E-02 0.  1.
    10030    2    1    2    0    0  0.00000000000E+00  0.00000000000E+00 -0.11877062182E+04  0.14902120493E+04  0.90004771613E+03 0.  0.
        5    1    3    3  502    0 -0.73904058458E+01  0.21923991155E+03 -0.12443962796E+04  0.12635920812E+04  0.46999998093E+01 0.  1.
       -5    1    3    3    0  502  0.73904058458E+01 -0.21923991155E+03  0.56690061423E+02  0.22661996817E+03  0.46999998093E+01 0. -1.
</event>
<event>
 5   0  0.9223454E-04  0.8974704E+03  0.7818609E-02  0.9428749E-01
        1   -1    0    0  501    0  0.00000000000E+00  0.00000000000E+00  0.45059626209E+03  0.45059626211E+03  0.50400001928E-02 0. -1.
       -1   -1    0    0    0  501  0.00000000000E+00  0.00000000000E+00 -0.44688186397E+03  0.44688186400E+03  0.50400001928E-02 0.  1.
    10030    2    1    2    0    0  0.00000000000E+00  0.00000000000E+00  0.37143981118E+01  0.89747812612E+03  0.89747043968E+03 0.  0.
        1    1    3    3  502    0 -0.27630554100E+03 -0.22208216200E+03 -0.27327795952E+03  0.44760035953E+03  0.50400001928E-02 0. -1.
       -1    1    3    3    0  502  0.27630554100E+03  0.22208216200E+03  0.27699235763E+03  0.44987776659E+03  0.50400001928E-02 0.  1.
</event>
<event>
 5   0  0.1704416E-03  0.9001483E+03  0.7818609E-02  0.9425396E-01
        2   -1    0    0  501    0  0.00000000000E+00  0.00000000000E+00  0.73749058383E+03  0.73749058383E+03  0.25500000920E-02 0. -1.
       -2   -1    0    0    0  501  0.00000000000E+00  0.00000000000E+00 -0.27467025008E+03  0.27467025009E+03  0.25500000920E-02 0.  1.
    10030    2    1    2    0    0  0.00000000000E+00  0.00000000000E+00  0.46282033375E+03  0.10121608339E+04  0.90014826135E+03 0.  0.
        3    1    3    3  502    0 -0.43446991839E+03 -0.14703450718E+02  0.10034482568E+03  0.44614952167E+03  0.10100000352E+00 0.  1.
       -3    1    3    3    0  502  0.43446991839E+03  0.14703450718E+02  0.36247550807E+03  0.56601131225E+03  0.10100000352E+00 0. -1.
</event>
<event>
 5   0  0.1635686E-03  0.8995161E+03  0.7818609E-02  0.9426186E-01
       -2   -1    0    0    0  501  0.00000000000E+00  0.00000000000E+00  0.19309005904E+03  0.19309005905E+03  0.25500000920E-02 0.  1.
        2   -1    0    0  501    0  0.00000000000E+00  0.00000000000E+00 -0.10476060863E+04  0.10476060863E+04  0.25500000920E-02 0. -1.
    10030    2    1    2    0    0  0.00000000000E+00  0.00000000000E+00 -0.85451602727E+03  0.12406961454E+04  0.89951613896E+03 0.  0.
        5    1    3    3  502    0 -0.24563836903E+03  0.20191925121E+01  0.92349151304E+02  0.26247426773E+03  0.46999998093E+01 0.  1.
       -5    1    3    3    0  502  0.24563836903E+03 -0.20191925121E+01 -0.94686517858E+03  0.97822187763E+03  0.46999998093E+01 0. -1.
</event>
<event>
 5   0  0.1635686E-03  0.9001138E+03  0.7818609E-02  0.9425439E-01
       -2   -1    0    0    0  501  0.00000000000E+00  0.00000000000E+00  0.17897813646E+03  0.17897813648E+03  0.25500000920E-02 0.  1.
        2   -1    0    0  501    0  0.00000000000E+00  0.00000000000E+00 -0.11317092682E+04  0.11317092682E+04  0.25500000920E-02 0. -1.
    10030    2    1    2    0    0  0.00000000000E+00  0.00000000000E+00 -0.95273113175E+03  0.13106874047E+04  0.90011380582E+03 0.  0.
        5    1    3    3  502    0 -0.14792328053E+03 -0.39609044333E+03 -0.70081920669E+03  0.81849776217E+03  0.46999998093E+01 0. -1.
       -5    1    3    3    0  502  0.14792328053E+03  0.39609044333E+03 -0.25191192506E+03  0.49218964253E+03  0.46999998093E+01 0.  1.
</event>
<event>
 5   0  0.1704416E-03  0.8986477E+03  0.7818609E-02  0.9427273E-01
       -2   -1    0    0    0  501  0.00000000000E+00  0.00000000000E+00  0.10514766209E+03  0.10514766212E+03  0.25500000920E-02 0.  1.
        2   -1    0    0  501    0  0.00000000000E+00  0.00000000000E+00 -0.19200798809E+04  0.19200798809E+04  0.25500000920E-02 0. -1.
    10030    2    1    2    0    0  0.00000000000E+00  0.00000000000E+00 -0.18149322188E+04  0.20252275430E+04  0.89864767407E+03 0.  0.
        3    1    3    3  502    0 -0.78705122667E+02  0.59626873456E+02 -0.18953264930E+04  0.18978968322E+04  0.10100000352E+00 0. -1.
       -3    1    3    3    0  502  0.78705122667E+02 -0.59626873456E+02  0.80394274245E+02  0.12733071077E+03  0.10100000352E+00 0.  1.
</event>
<event>
 5   0  0.9223454E-04  0.8751298E+03  0.7818609E-02  0.9457216E-01
       -1   -1    0    0    0  501  0.00000000000E+00  0.00000000000E+00  0.13981617920E+04  0.13981617920E+04  0.50400001928E-02 0. -1.
        1   -1    0    0  501    0  0.00000000000E+00  0.00000000000E+00 -0.13693912846E+03  0.13693912855E+03  0.50400001928E-02 0.  1.
    10030    2    1    2    0    0  0.00000000000E+00  0.00000000000E+00  0.12612226635E+04  0.15351009205E+04  0.87512983565E+03 0.  0.
        1    1    3    3  502    0  0.10728771254E+03 -0.29520258072E+03  0.96223235987E+02  0.32850285858E+03  0.50400001928E-02 0.  1.
       -1    1    3    3    0  502 -0.10728771254E+03  0.29520258072E+03  0.11649994275E+04  0.12065980619E+04  0.50400001928E-02 0. -1.
</event>
<event>
 5   0  0.1007561E-03  0.9007569E+03  0.7818609E-02  0.9424636E-01
       -1   -1    0    0    0  501  0.00000000000E+00  0.00000000000E+00  0.27335837553E+03  0.27335837558E+03  0.50400001928E-02 0. -1.
        1   -1    0    0  501    0  0.00000000000E+00  0.00000000000E+00 -0.74203237662E+03  0.74203237664E+03  0.50400001928E-02 0.  1.
    10030    2    1    2    0    0  0.00000000000E+00  0.00000000000E+00 -0.46867400109E+03  0.10153907522E+04  0.90075693747E+03 0.  0.
        2    1    3    3  502    0  0.42920439123E+03 -0.61461728418E+02 -0.96982723748E+02  0.44429675018E+03  0.25500000920E-02 0. -1.
       -2    1    3    3    0  502 -0.42920439123E+03  0.61461728418E+02 -0.37169127734E+03  0.57109400204E+03  0.25500000920E-02 0.  1.
</event>
<event>
 5   0  0.9697941E-04  0.8990575E+03  0.7818609E-02  0.9426760E-01
        1   -1    0    0  501    0  0.00000000000E+00  0.00000000000E+00  0.54758711843E+03  0.54758711845E+03  0.50400001928E-02 0.  1.
       -1   -1    0    0    0  501  0.00000000000E+00  0.00000000000E+00 -0.36903007489E+03  0.36903007493E+03  0.50400001928E-02 0. -1.
    10030    2    1    2    0    0  0.00000000000E+00  0.00000000000E+00  0.17855704354E+03  0.91661719338E+03  0.89905754065E+03 0.  0.
        5    1    3    3  502    0 -0.43382307774E+03 -0.38196784073E+02 -0.24217639054E+02  0.43619954279E+03  0.46999998093E+01 0. -1.
       -5    1    3    3    0  502  0.43382307774E+03  0.38196784073E+02  0.20277468259E+03  0.48041765058E+03  0.46999998093E+01 0.  1.
</event>
<event>
 5   0  0.1536020E-03  0.9010272E+03  0.7818609E-02  0.9424298E-01
        2   -1    0    0  501    0  0.00000000000E+00  0.00000000000E+00  0.18882074796E+04  0.18882074796E+04  0.25500000920E-02 0. -1.
       -2   -1    0    0    0  501  0.00000000000E+00  0.00000000000E+00 -0.10748951945E+03  0.10748951948E+03  0.25500000920E-02 0.  1.
    10030    2    1    2    0    0  0.00000000000E+00  0.00000000000E+00  0.17807179602E+04  0.19956969991E+04  0.90102722407E+03 0.  0.
        2    1    3    3  502    0  0.58299296244E+02 -0.10980402532E+02  0.18795182830E+04  0.18804542944E+04  0.25500000920E-02 0. -1.
       -2    1    3    3    0  502 -0.58299296244E+02  0.10980402532E+02 -0.98800322843E+02  0.11524270468E+03  0.25500000920E-02 0.  1.
</event>
<event>
 5   0  0.9321543E-04  0.9002113E+03  0.7818609E-02  0.9425317E-01
       -1   -1    0    0    0  501  0.00000000000E+00  0.00000000000E+00  0.29551196853E+03  0.29551196857E+03  0.50400001928E-02 0.  1.
        1   -1    0    0  501    0  0.00000000000E+00  0.00000000000E+00 -0.68557318146E+03  0.68557318148E+03  0.50400001928E-02 0. -1.
    10030    2    1    2    0    0  0.00000000000E+00  0.00000000000E+00 -0.39006121293E+03  0.98108515005E+03  0.90021126510E+03 0.  0.
        3    1    3    3  502    0  0.65090418088E+01  0.11255997716E+03  0.27987276059E+03  0.30172982684E+03  0.10100000352E+00 0.  1.
       -3    1    3    3    0  502 -0.65090418088E+01 -0.11255997716E+03 -0.66993397352E+03  0.67935532320E+03  0.10100000352E+00 0. -1.
</event>
<event>
 5   0  0.9981885E-04  0.8992470E+03  0.7818609E-02  0.9426523E-01
        1   -1    0    0  501    0  0.00000000000E+00  0.00000000000E+00  0.92087590196E+03  0.92087590197E+03  0.50400001928E-02 0. -1.
       -1   -1    0    0    0  501  0.00000000000E+00  0.00000000000E+00 -0.21953153198E+03  0.21953153203E+03  0.50400001928E-02 0.  1.
    10030    2    1    2    0    0  0.00000000000E+00  0.00000000000E+00  0.70134436998E+03  0.11404074340E+04  0.89924701291E+03 0.  0.
        4    1    3    3  502    0 -0.37321501446E+03 -0.22291660284E+03  0.49625590213E+03  0.65973691131E+03  0.12699999809E+01 0.  1.
       -4    1    3    3    0  502  0.37321501446E+03  0.22291660284E+03  0.20508846785E+03  0.48067052270E+03  0.12699999809E+01 0. -1.
</event>
<event>
 5   0  0.1630202E-03  0.8978918E+03  0.7818609E-02  0.9428221E-01
       -2   -1    0    0    0  501  0.00000000000E+00  0.00000000000E+00  0.10588227374E+03  0.10588227377E+03  0.25500000920E-02 0. -1.
        2   -1    0    0  501    0  0.00000000000E+00  0.00000000000E+00 -0.19035521998E+04  0.19035521998E+04  0.25500000920E-02 0.  1.
    10030    2    1    2    0    0  0.00000000000E+00  0.00000000000E+00 -0.17976699260E+04  0.20094344735E+04  0.89789183117E+03 0.  0.
        4    1    3    3  502    0  0.27280587120E+03  0.91971082192E+02 -0.16697715388E+04  0.16944085481E+04  0.12699999809E+01 0.  1.
       -4    1    3    3    0  502 -0.27280587120E+03 -0.91971082192E+02 -0.12789838724E+03  0.31502592541E+03  0.12699999809E+01 0. -1.
</event>
<event>
 5   0  0.6375625E-04  0.8991898E+03  0.7818609E-02  0.9426595E-01
       -3   -1    0    0    0  501  0.00000000000E+00  0.00000000000E+00  0.45433341364E+03  0.45433342487E+03  0.10100000352E+00 0.  1.
        3   -1    0    0  501    0  0.00000000000E+00  0.00000000000E+00 -0.44490574587E+03  0.44490575734E+03  0.10100000352E+00 0. -1.
    10030    2    1    2    0    0  0.00000000000E+00  0.00000000000E+00  0.94276677710E+01  0.89923918221E+03  0.89918976078E+03 0.  0.
        3    1    3    3  502    0 -0.41702572184E+03 -0.12554605516E+03  0.11635903839E+03  0.45079008491E+03  0.10100000352E+00 0.  1.
       -3    1    3    3    0  502  0.41702572184E+03  0.12554605516E+03 -0.10693137062E+03  0.44844909729E+03  0.10100000352E+00 0. -1.
</event>
<event>
 5   0  0.9981885E-04  0.9006194E+03  0.7818609E-02  0.9424807E-01
       -1   -1    0    0    0  501  0.00000000000E+00  0.00000000000E+00  0.40964362509E+03  0.40964362512E+03  0.50400001928E-02 0.  1.
        1   -1    0    0  501    0  0.00000000000E+00  0.00000000000E+00 -0.49501275293E+03  0.49501275296E+03  0.50400001928E-02 0. -1.
    10030    2    1    2    0    0  0.00000000000E+00  0.00000000000E+00 -0.85369127841E+02  0.90465637808E+03  0.90061938377E+03 0.  0.
        4    1    3    3  502    0  0.12152100284E+03  0.71964644559E+02 -0.47218855855E+03  0.49285891686E+03  0.12699999809E+01 0. -1.
       -4    1    3    3    0  502 -0.12152100284E+03 -0.71964644559E+02  0.38681943071E+03  0.41179746123E+03  0.12699999809E+01 0.  1.
</event>
<event>
 5   0  0.9981885E-04  0.9016443E+03  0.7818609E-02  0.9423528E-01
       -1   -1    0    0    0  501  0.00000000000E+00  0.00000000000E+00  0.20018237624E+03  0.20018237631E+03  0.50400001928E-02 0.  1.
        1   -1    0    0  501    0  0.00000000000E+00  0.00000000000E+00 -0.10152771907E+04  0.10152771907E+04  0.50400001928E-02 0. -1.
    10030    2    1    2    0    0  0.00000000000E+00  0.00000000000E+00 -0.81509481449E+03  0.12154595671E+04  0.90164427716E+03 0.  0.
        4    1    3    3  502    0  0.27471555163E+03 -0.25783163799E+03 -0.74128984453E+03  0.83153955671E+03  0.12699999809E+01 0. -1.
       -4    1    3    3    0  502 -0.27471555163E+03  0.25783163799E+03 -0.73804969958E+02  0.38392001035E+03  0.12699999809E+01 0.  1.
</event>
<event>
 5   0  0.9223454E-04  0.9032540E+03  0.7818609E-02  0.9421523E-01
        1   -1    0    0  501    0  0.00000000000E+00  0.00000000000E+00  0.85942672006E+03  0.85942672008E+03  0.50400001928E-02 0.  1.
       -1   -1    0    0    0  501  0.00000000000E+00  0.00000000000E+00 -0.23732905769E+03  0.23732905774E+03  0.50400001928E-02 0. -1.
    10030    2    1    2    0    0  0.00000000000E+00  0.00000000000E+00  0.62209766238E+03  0.10967557778E+04  0.90325397018E+03 0.  0.
        1    1    3    3  502    0  0.21743115322E+03 -0.27280683924E+03 -0.37218733495E+02  0.35083487865E+03  0.50400001928E-02 0. -1.
       -1    1    3    3    0  502 -0.21743115322E+03  0.27280683924E+03  0.65931639587E+03  0.74592089917E+03  0.50400001928E-02 0.  1.
</event>
<event>
 5   0  0.1641516E-03  0.8997607E+03  0.7818609E-02  0.9425881E-01
       -2   -1    0    0    0  501  0.00000000000E+00  0.00000000000E+00  0.26575863152E+03  0.26575863153E+03  0.25500000920E-02 0. -1.
        2   -1    0    0  501    0  0.00000000000E+00  0.00000000000E+00 -0.76156443603E+03  0.76156443603E+03  0.25500000920E-02 0.  1.
    10030    2    1    2    0    0  0.00000000000E+00  0.00000000000E+00 -0.49580580450E+03  0.10273230676E+04  0.89976068450E+03 0.  0.
        1    1    3    3  502    0 -0.39503870677E+03  0.11030457886E+03 -0.45896013709E+03  0.61552180093E+03  0.50400001928E-02 0.  1.
       -1    1    3    3    0  502  0.39503870677E+03 -0.11030457886E+03 -0.36845667419E+02  0.41180126663E+03  0.50400001928E-02 0. -1.
</event>
<event>
 5   0  0.9321543E-04  0.8914573E+03  0.7818609E-02  0.9436324E-01
        1   -1    0    0  501    0  0.00000000000E+00  0.00000000000E+00  0.46874758268E+03  0.46874758271E+03  0.50400001928E-02 0.  1.
       -1   -1    0    0    0  501  0.00000000000E+00  0.00000000000E+00 -0.42384015517E+03  0.42384015520E+03  0.50400001928E-02 0. -1.
    10030    2    1    2    0    0  0.00000000000E+00  0.00000000000E+00  0.44907427504E+02  0.89258773791E+03  0.89145734212E+03 0.  0.
        3    1    3    3  502    0 -0.81994640444E+01  0.37482042767E+03 -0.21892551941E+03  0.43414971779E+03  0.10100000352E+00 0. -1.
       -3    1    3    3    0  502  0.81994640444E+01 -0.37482042767E+03  0.26383294691E+03  0.45843802012E+03  0.10100000352E+00 0.  1.
</event>
<event>
 5   0  0.1536020E-03  0.9030917E+03  0.7818609E-02  0.9421725E-01
        2   -1    0    0  501    0  0.00000000000E+00  0.00000000000E+00  0.31291282785E+03  0.31291282786E+03  0.25500000920E-02 0. -1.
       -2   -1    0    0    0  501  0.00000000000E+00  0.00000000000E+00 -0.65159886435E+03  0.65159886435E+03  0.25500000920E-02 0.  1.
    10030    2    1    2    0    0  0.00000000000E+00  0.00000000000E+00 -0.33868603649E+03  0.96451169222E+03  0.90309167481E+03 0.  0.
        2    1    3    3  502    0 -0.25492152994E+03 -0.15637276007E+03  0.19197976862E+03  0.35537819023E+03  0.25500000920E-02 0. -1.
       -2    1    3    3    0  502  0.25492152994E+03  0.15637276007E+03 -0.53066580511E+03  0.60913350199E+03  0.25500000920E-02 0.  1.
</event>
<event>
 5   0  0.1704416E-03  0.9003383E+03  0.7818609E-02  0.9425159E-01
       -2   -1    0    0    0  501  0.00000000000E+00  0.00000000000E+00  0.24015227444E+03  0.24015227445E+03  0.25500000920E-02 0.  1.
        2   -1    0    0  501    0  0.00000000000E+00  0.00000000000E+00 -0.84384895611E+03  0.84384895611E+03  0.25500000920E-02 0. -1.
    10030    2    1    2    0    0  0.00000000000E+00  0.00000000000E+00 -0.60369668167E+03  0.10840012306E+04  0.90033826110E+03 0.  0.
        3    1    3    3  502    0  0.36417980454E+03 -0.50208815166E+02 -0.61466512535E+03  0.71621301418E+03  0.10100000352E+00 0. -1.
       -3    1    3    3    0  502 -0.36417980454E+03  0.50208815166E+02  0.10968443678E+02  0.36778821639E+03  0.10100000352E+00 0.  1.
</event>
<event>
 5   0  0.6375625E-04  0.9014401E+03  0.7818609E-02  0.9423783E-01
        3   -1    0    0  501    0  0.00000000000E+00  0.00000000000E+00  0.21266451217E+03  0.21266453615E+03  0.10100000352E+00 0. -1.
       -3   -1    0    0    0  501  0.00000000000E+00  0.00000000000E+00 -0.95525364161E+03  0.95525364695E+03  0.10100000352E+00 0.  1.
    10030    2    1    2    0    0  0.00000000000E+00  0.00000000000E+00 -0.74258912944E+03  0.11679181831E+04  0.90144010741E+03 0.  0.
        4    1    3    3  502    0  0.34689602266E+03  0.28757541664E+03 -0.35767624536E+03  0.57530025220E+03  0.12699999809E+01 0.  1.
       -4    1    3    3    0  502 -0.34689602266E+03 -0.28757541664E+03 -0.38491288408E+03  0.59261793090E+03  0.12699999809E+01 0. -1.
</event>
<event>
 5   0  0.9697941E-04  0.8995273E+03  0.7818609E-02  0.9426172E-01
       -1   -1    0    0    0  501  0.00000000000E+00  0.00000000000E+00  0.99391413695E+03  0.99391413697E+03  0.50400001928E-02 0. -1.
        1   -1    0    0  501    0  0.00000000000E+00  0.00000000000E+00 -0.20352598082E+03  0.20352598088E+03  0.50400001928E-02 0.  1.
    10030    2    1    2    0    0  0.00000000000E+00  0.00000000000E+00  0.79038815614E+03  0.11974401178E+04  0.89952731947E+03 0.  0.
        5    1    3    3  502    0  0.38120096966E+03  0.16614999307E+03  0.16715544532E+03  0.44819976836E+03  0.46999998093E+01 0.  1.
       -5    1    3    3    0  502 -0.38120096966E+03 -0.16614999307E+03  0.62323271082E+03  0.74924034948E+03  0.46999998093E+01 0. -1.
</event>
<event>
 5   0  0.1630202E-03  0.9006614E+03  0.7818609E-02  0.9424755E-01
        2   -1    0    0  501    0  0.00000000000E+00  0.00000000000E+00  0.97450460190E+03  0.97450460191E+03  0.25500000920E-02 0. -1.
       -2   -1    0    0    0  501  0.00000000000E+00  0.00000000000E+00 -0.20810340521E+03  0.20810340523E+03  0.25500000920E-02 0.  1.
    10030    2    1    2    0    0  0.00000000000E+00  0.00000000000E+00  0.76640119669E+03  0.11826080071E+04  0.90066137047E+03 0.  0.
        4    1    3    3  502    0 -0.25354992778E+03 -0.12873938725E+03  0.84170442765E+03  0.88844209273E+03  0.12699999809E+01 0. -1.
       -4    1    3    3    0  502  0.25354992778E+03  0.12873938725E+03 -0.75303230957E+02  0.29416591441E+03  0.12699999809E+01 0.  1.
</event>
<event>
 5   0  0.1630202E-03  0.9003869E+03  0.7818609E-02  0.9425098E-01
        2   -1    0    0  501    0  0.00000000000E+00  0.00000000000E+00  0.68930376520E+03  0.68930376520E+03  0.25500000920E-02 0.  1.
       -2   -1    0    0    0  501  0.00000000000E+00  0.00000000000E+00 -0.29402732408E+03  0.29402732409E+03  0.25500000920E-02 0. -1.
    10030    2    1    2    0    0  0.00000000000E+00  0.00000000000E+00  0.39527644111E+03  0.98333108929E+03  0.90038689810E+03 0.  0.
        4    1    3    3  502    0 -0.28854604354E+03 -0.27750803081E+03 -0.27251138613E+02  0.40126520390E+03  0.12699999809E+01 0.  1.
       -4    1    3    3    0  502  0.28854604354E+03  0.27750803081E+03  0.42252757973E+03  0.58206588539E+03  0.12699999809E+01 0. -1.
</event>
<event>
 5   0  0.1536020E-03  0.8897108E+03  0.7818609E-02  0.9438536E-01
        2   -1    0    0  501    0  0.00000000000E+00  0.00000000000E+00  0.18344384092E+03  0.18344384093E+03  0.25500000920E-02 0.  1.
       -2   -1    0    0    0  501  0.00000000000E+00  0.00000000000E+00 -0.10787843706E+04  0.10787843706E+04  0.25500000920E-02 0. -1.
    10030    2    1    2    0    0  0.00000000000E+00  0.00000000000E+00 -0.89534052965E+03  0.12622282115E+04  0.88971084847E+03 0.  0.
        2    1    3    3  502    0  0.24405915589E+03  0.11967204588E+03 -0.94726457951E+03  0.98549300035E+03  0.25500000920E-02 0. -1.
       -2    1    3    3    0  502 -0.24405915589E+03 -0.11967204588E+03  0.51924049856E+02  0.27673521116E+03  0.25500000920E-02 0.  1.
</event>
<event>
 5   0  0.9321543E-04  0.8976236E+03  0.7818609E-02  0.9428557E-01
        1   -1    0    0  501    0  0.00000000000E+00  0.00000000000E+00  0.10763519723E+04  0.10763519723E+04  0.50400001928E-02 0. -1.
       -1   -1    0    0    0  501  0.00000000000E+00  0.00000000000E+00 -0.18714325963E+03  0.18714325970E+03  0.50400001928E-02 0.  1.
    10030    2    1    2    0    0  0.00000000000E+00  0.00000000000E+00  0.88920871271E+03  0.12634952320E+04  0.89762356622E+03 0.  0.
        3    1    3    3  502    0 -0.34594905935E+03 -0.21547182194E+03  0.18005356412E+03  0.44556498276E+03  0.10100000352E+00 0.  1.
       -3    1    3    3    0  502  0.34594905935E+03  0.21547182194E+03  0.70915514859E+03  0.81793024928E+03  0.10100000352E+00 0. -1.
</event>
<event>
 5   0  0.1704416E-03  0.8986696E+03  0.7818609E-02  0.9427246E-01
       -2   -1    0    0    0  501  0.00000000000E+00  0.00000000000E+00  0.89220277074E+02  0.89220277110E+02  0.25500000920E-02 0.  1.
        2   -1    0    0  501    0  0.00000000000E+00  0.00000000000E+00 -0.22629582977E+04  0.22629582977E+04  0.25500000920E-02 0. -1.
    10030    2    1    2    0    0  0.00000000000E+00  0.00000000000E+00 -0.21737380206E+04  0.23521785748E+04  0.89866960863E+03 0.  0.
        3    1    3    3  502    0  0.65505612404E+02  0.42996378796E+03 -0.13823214189E+04  0.14491281378E+04  0.10100000352E+00 0. -1.
       -3    1    3    3    0  502 -0.65505612404E+02 -0.42996378796E+03 -0.79141660164E+03  0.90305043700E+03  0.10100000352E+00 0.  1.
</event>
<event>
 5   0  0.9697941E-04  0.8975615E+03  0.7818609E-02  0.9428635E-01
       -1   -1    0    0    0  501  0.00000000000E+00  0.00000000000E+00  0.14829647121E+03  0.14829647129E+03  0.50400001928E-02 0. -1.
        1   -1    0    0  501    0  0.00000000000E+00  0.00000000000E+00 -0.13581185132E+04  0.13581185132E+04  0.50400001928E-02 0.  1.
    10030    2    1    2    0    0  0.00000000000E+00  0.00000000000E+00 -0.12098220420E+04  0.15064149845E+04  0.89756154788E+03 0.  0.
        5    1    3    3  502    0 -0.41115307994E+03  0.17451565948E+03 -0.53214910046E+03  0.69477141973E+03  0.46999998093E+01 0.  1.
       -5    1    3    3    0  502  0.41115307994E+03 -0.17451565948E+03 -0.67767294153E+03  0.81164356477E+03  0.46999998093E+01 0. -1.
</event>
<event>
 5   0  0.9321543E-04  0.9005264E+03  0.7818609E-02  0.9424924E-01
       -1   -1    0    0    0  501  0.00000000000E+00  0.00000000000E+00  0.19442748741E+03  0.19442748747E+03  0.50400001928E-02 0.  1.
        1   -1    0    0  501    0  0.00000000000E+00  0.00000000000E+00 -0.10427381867E+04  0.10427381867E+04  0.50400001928E-02 0. -1.
    10030    2    1    2    0    0  0.00000000000E+00  0.00000000000E+00 -0.84831069925E+03  0.12371656741E+04  0.90052643649E+03 0.  0.
        3    1    3    3  502    0  0.27031759161E+03 -0.23188182526E+03 -0.45676741936E+02  0.35906427861E+03  0.10100000352E+00 0.  1.
       -3    1    3    3    0  502 -0.27031759161E+03  0.23188182526E+03 -0.80263395731E+03  0.87810139554E+03  0.10100000352E+00 0. -1.
</event>
<event>
 5   0  0.9697941E-04  0.9007314E+03  0.7818609E-02  0.9424668E-01
        1   -1    0    0  501    0  0.00000000000E+00  0.00000000000E+00  0.82717760915E+03  0.82717760916E+03  0.50400001928E-02 0.  1.
       -1   -1    0    0    0  501  0.00000000000E+00  0.00000000000E+00 -0.24520641651E+03  0.24520641656E+03  0.50400001928E-02 0. -1.
    10030    2    1    2    0    0  0.00000000000E+00  0.00000000000E+00  0.58197119264E+03  0.10723840257E+04  0.90073138592E+03 0.  0.
        5    1    3    3  502    0 -0.13138466832E+03 -0.11075546966E+03  0.78658107167E+03  0.80514630810E+03  0.46999998093E+01 0.  1.
       -5    1    3    3    0  502  0.13138466832E+03  0.11075546966E+03 -0.20460987904E+03  0.26723771763E+03  0.46999998093E+01 0. -1.
</event>
<event>
 5   0  0.1630202E-03  0.8995121E+03  0.7818609E-02  0.9426191E-01
       -2   -1    0    0    0  501  0.00000000000E+00  0.00000000000E+00  0.16880535351E+03  0.16880535353E+03  0.25500000920E-02 0.  1.
        2   -1    0    0  501    0  0.00000000000E+00  0.00000000000E+00 -0.11983062819E+04  0.11983062819E+04  0.25500000920E-02 0. -1.
    10030    2    1    2    0    0  0.00000000000E+00  0.00000000000E+00 -0.10295009284E+04  0.13671116354E+04  0.89951212453E+03 0.  0.
        4    1    3    3  502    0 -0.23601773276E+03 -0.37860138327E+03 -0.42829959950E+03  0.61845415143E+03  0.12699999809E+01 0. -1.
       -4    1    3    3    0  502  0.23601773276E+03  0.37860138327E+03 -0.60120132890E+03  0.74865748401E+03  0.12699999809E+01 0.  1.
</event>
<event>
 5   0  0.9981885E-04  0.8999419E+03  0.7818609E-02  0.9425654E-01
       -1   -1    0    0    0  501  0.00000000000E+00  0.00000000000E+00  0.87018690187E+02  0.87018690333E+02  0.50400001928E-02 0.  1.
        1   -1    0    0  501    0  0.00000000000E+00  0.00000000000E+00 -0.23267860485E+04  0.23267860485E+04  0.50400001928E-02 0. -1.
    10030    2    1    2    0    0  0.00000000000E+00  0.00000000000E+00 -0.22397673583E+04  0.24138047388E+04  0.89994194139E+03 0.  0.
        4    1    3    3  502    0  0.25932230243E+03  0.36198294692E+03 -0.94621286947E+03  0.10457533732E+04  0.12699999809E+01 0.  1.
       -4    1    3    3    0  502 -0.25932230243E+03 -0.36198294692E+03 -0.12935544888E+04  0.13680513656E+04  0.12699999809E+01 0. -1.
</event>
<event>
 5   0  0.9321543E-04  0.9005346E+03  0.7818609E-02  0.9424913E-01
       -1   -1    0    0    0  501  0.00000000000E+00  0.00000000000E+00  0.37346500496E+03  0.37346500499E+03  0.50400001928E-02 0.  1.
        1   -1    0    0  501    0  0.00000000000E+00  0.00000000000E+00 -0.54286382747E+03  0.54286382749E+03  0.50400001928E-02 0. -1.
    10030    2    1    2    0    0  0.00000000000E+00  0.00000000000E+00 -0.16939882251E+03  0.91632883249E+03  0.90053460132E+03 0.  0.
        3    1    3    3  502    0 -0.29505791898E+03 -0.31725077112E+03  0.40061810558E+02  0.43510020248E+03  0.10100000352E+00 0.  1.
       -3    1    3    3    0  502  0.29505791898E+03  0.31725077112E+03 -0.20946063307E+03  0.48122863001E+03  0.10100000352E+00 0. -1.
</event>
<event>
 5   0  0.1536020E-03  0.9020679E+03  0.7818609E-02  0.9423000E-01
       -2   -1    0    0    0  501  0.00000000000E+00  0.00000000000E+00  0.48934098157E+03  0.48934098157E+03  0.25500000920E-02 0.  1.
        2   -1    0    0  501    0  0.00000000000E+00  0.00000000000E+00 -0.41572565808E+03  0.41572565809E+03  0.25500000920E-02 0. -1.
    10030    2    1    2    0    0  0.00000000000E+00  0.00000000000E+00  0.73615323483E+02  0.90506663967E+03  0.90206785021E+03 0.  0.
        2    1    3    3  502    0 -0.29882769607E+03  0.22237450734E+03 -0.21836671415E+03  0.43177822468E+03  0.25500000920E-02 0. -1.
       -2    1    3    3    0  502  0.29882769607E+03 -0.22237450734E+03  0.29198203763E+03  0.47328841499E+03  0.25500000920E-02 0.  1.
</event>
<event>
 5   0  0.9321543E-04  0.8992090E+03  0.7818609E-02  0.9426571E-01
       -1   -1    0    0    0  501  0.00000000000E+00  0.00000000000E+00  0.10774595010E+03  0.10774595022E+03  0.50400001928E-02 0. -1.
        1   -1    0    0  501    0  0.00000000000E+00  0.00000000000E+00 -0.18761189195E+04  0.18761189195E+04  0.50400001928E-02 0.  1.
    10030    2    1    2    0    0  0.00000000000E+00  0.00000000000E+00 -0.17683729694E+04  0.19838648697E+04  0.89920902044E+03 0.  0.
        3    1    3    3  502    0  0.87527552227E+01  0.11831817213E+03 -0.18409604573E+04  0.18447794492E+04  0.10100000352E+00 0.  1.
       -3    1    3    3    0  502 -0.87527552227E+01 -0.11831817213E+03  0.72587487969E+02  0.13908542048E+03  0.10100000352E+00 0. -1.
</event>
<event>
 5   0  0.1630202E-03  0.8991679E+03  0.7818609E-02  0.9426622E-01
       -2   -1    0    0    0  501  0.00000000000E+00  0.00000000000E+00  0.18339021523E+03  0.18339021525E+03  0.25500000920E-02 0. -1.
        2   -1    0    0  501    0  0.00000000000E+00  0.00000000000E+00 -0.11021618969E+04  0.11021618969E+04  0.25500000920E-02 0.  1.
    10030    2    1    2    0    0  0.00000000000E+00  0.00000000000E+00 -0.91877168167E+03  0.12855521122E+04  0.89916785420E+03 0.  0.
        4    1    3    3  502    0  0.29930820988E+03 -0.12485909604E+02  0.19904661465E+02  0.30023176196E+03  0.12699999809E+01 0. -1.
       -4    1    3    3    0  502 -0.29930820988E+03  0.12485909604E+02 -0.93867634314E+03  0.98532035019E+03  0.12699999809E+01 0.  1.
</event>
<event>
 5   0  0.1641516E-03  0.9000233E+03  0.7818609E-02  0.9425552E-01
        2   -1    0    0  501    0  0.00000000000E+00  0.00000000000E+00  0.50701099110E+03  0.50701099111E+03  0.25500000920E-02 0.  1.
       -2   -1    0    0    0  501  0.00000000000E+00  0.00000000000E+00 -0.39942032071E+03  0.39942032072E+03  0.25500000920E-02 0. -1.
    10030    2    1    2    0    0  0.00000000000E+00  0.00000000000E+00  0.10759067039E+03  0.90643131182E+03  0.90002331675E+03 0.  0.
        1    1    3    3  502    0 -0.26193415719E+02  0.18252125226E+03  0.46721818908E+03  0.50228770519E+03  0.50400001928E-02 0.  1.
       -1    1    3    3    0  502  0.26193415719E+02 -0.18252125226E+03 -0.35962751869E+03  0.40414360663E+03  0.50400001928E-02 0. -1.
</event>
<event>
 5   0  0.1641516E-03  0.8996979E+03  0.7818609E-02  0.9425959E-01
        2   -1    0    0  501    0  0.00000000000E+00  0.00000000000E+00  0.13239979366E+04  0.13239979366E+04  0.25500000920E-02 0. -1.
       -2   -1    0    0    0  501  0.00000000000E+00  0.00000000000E+00 -0.15284319295E+03  0.15284319297E+03  0.25500000920E-02 0.  1.
    10030    2    1    2    0    0  0.00000000000E+00  0.00000000000E+00  0.11711547436E+04  0.14768411296E+04  0.89969788731E+03 0.  0.
        1    1    3    3  502    0 -0.27896965364E+03  0.27732582721E+02  0.80848467936E+01  0.28046127820E+03  0.50400001928E-02 0.  1.
       -1    1    3    3    0  502  0.27896965364E+03 -0.27732582721E+02  0.11630698968E+04  0.11963798514E+04  0.50400001928E-02 0. -1.
</event>
<event>
 5   0  0.1704416E-03  0.8996096E+03  0.7818609E-02  0.9426070E-01
        2   -1    0    0  501    0  0.00000000000E+00  0.00000000000E+00  0.68380871502E+03  0.68380871502E+03  0.25500000920E-02 0.  1.
       -2   -1    0    0    0  501  0.00000000000E+00  0.00000000000E+00 -0.29587860443E+03  0.29587860444E+03  0.25500000920E-02 0. -1.
    10030    2    1    2    0    0  0.00000000000E+00  0.00000000000E+00  0.38793011059E+03  0.97968731946E+03  0.89960962267E+03 0.  0.
        3    1    3    3  502    0  0.29372706060E+03 -0.31889689543E+03  0.32443573883E+03  0.54150657879E+03  0.10100000352E+00 0.  1.
       -3    1    3    3    0  502 -0.29372706060E+03  0.31889689543E+03  0.63494371760E+02  0.43818074067E+03  0.10100000352E+00 0. -1.
</event>
<event>
 5   0  0.1635686E-03  0.8986432E+03  0.7818609E-02  0.9427279E-01
        2   -1    0    0  501    0  0.00000000000E+00  0.00000000000E+00  0.11901275358E+04  0.11901275358E+04  0.25500000920E-02 0.  1.
       -2   -1    0    0    0  501  0.00000000000E+00  0.00000000000E+00 -0.16963719453E+03  0.16963719455E+03  0.25500000920E-02 0. -1.
    10030    2    1    2    0    0  0.00000000000E+00  0.00000000000E+00  0.10204903412E+04  0.13597647303E+04  0.89864319128E+03 0.  0.
        5    1    3    3  502    0  0.35175209414E+03 -0.11594159096E+03  0.12537470217E+03  0.39104078328E+03  0.46999998093E+01 0. -1.
       -5    1    3    3    0  502 -0.35175209414E+03  0.11594159096E+03  0.89511563906E+03  0.96872394702E+03  0.46999998093E+01 0.  1.
</event>
<event>
 5   0  0.9321543E-04  0.9119737E+03  0.7818609E-02  0.9410736E-01
       -1   -1    0    0    0  501  0.00000000000E+00  0.00000000000E+00  0.62066311947E+03  0.62066311949E+03  0.50400001928E-02 0. -1.
        1   -1    0    0  501    0  0.00000000000E+00  0.00000000000E+00 -0.33500300442E+03  0.33500300446E+03  0.50400001928E-02 0.  1.
    10030    2    1    2    0    0  0.00000000000E+00  0.00000000000E+00  0.28566011505E+03  0.95566612395E+03  0.91197370529E+03 0.  0.
        3    1    3    3  502    0  0.23578888392E+03 -0.90445008755E+02 -0.25502706229E+03  0.35890877684E+03  0.10100000352E+00 0.  1.
       -3    1    3    3    0  502 -0.23578888392E+03  0.90445008755E+02  0.54068717734E+03  0.59675734711E+03  0.10100000352E+00 0. -1.
</event>
<event>
 5   0  0.9981885E-04  0.9001249E+03  0.7818609E-02  0.9425425E-01
        1   -1    0    0  501    0  0.00000000000E+00  0.00000000000E+00  0.13497441992E+04  0.13497441992E+04  0.50400001928E-02 0. -1.
       -1   -1    0    0    0  501  0.00000000000E+00  0.00000000000E+00 -0.15007007317E+03  0.15007007326E+03  0.50400001928E-02 0.  1.
    10030    2    1    2    0    0  0.00000000000E+00  0.00000000000E+00  0.11996741260E+04  0.14998142724E+04  0.90012490423E+03 0.  0.
        4    1    3    3  502    0  0.19688412336E+03 -0.74774603719E+02 -0.62894938386E+02  0.21979987618E+03  0.12699999809E+01 0.  1.
       -4    1    3    3    0  502 -0.19688412336E+03  0.74774603719E+02  0.12625690644E+04  0.12800143962E+04  0.12699999809E+01 0. -1.
</event>
<event>
 5   0  0.1630202E-03  0.8997814E+03  0.7818609E-02  0.9425855E-01
        2   -1    0    0  501    0  0.00000000000E+00  0.00000000000E+00  0.23337730057E+04  0.23337730057E+04  0.25500000920E-02 0.  1.
       -2   -1    0    0    0  501  0.00000000000E+00  0.00000000000E+00 -0.86727214864E+02  0.86727214902E+02  0.25500000920E-02 0. -1.
    10030    2    1    2    0    0  0.00000000000E+00  0.00000000000E+00  0.22470457908E+04  0.24205002206E+04  0.89978138001E+03 0.  0.
        4    1    3    3  502    0 -0.25371633152E+03  0.13731220537E+03  0.19486064427E+03  0.34813632705E+03  0.12699999809E+01 0. -1.
       -4    1    3    3    0  502  0.25371633152E+03 -0.13731220537E+03  0.20521851465E+04  0.20723638935E+04  0.12699999809E+01 0.  1.
</event>
<event>
 5   0  0.9321543E-04  0.8999138E+03  0.7818609E-02  0.9425689E-01
       -1   -1    0    0    0  501  0.00000000000E+00  0.00000000000E+00  0.63625194855E+03  0.63625194857E+03  0.50400001928E-02 0.  1.
        1   -1    0    0  501    0  0.00000000000E+00  0.00000000000E+00 -0.31820918571E+03  0.31820918575E+03  0.50400001928E-02 0. -1.
    10030    2    1    2    0    0  0.00000000000E+00  0.00000000000E+00  0.31804276284E+03  0.95446113432E+03  0.89991380583E+03 0.  0.
        3    1    3    3  502    0 -0.43364166934E+03  0.97597860516E+02  0.23319435844E+03  0.50194627081E+03  0.10100000352E+00 0.  1.
       -3    1    3    3    0  502  0.43364166934E+03 -0.97597860516E+02  0.84848404405E+02  0.45251486351E+03  0.10100000352E+00 0. -1.
</event>
<event>
 5   0  0.1007561E-03  0.8970520E+03  0.7818609E-02  0.9429274E-01
       -1   -1    0    0    0  501  0.00000000000E+00  0.00000000000E+00  0.57565528129E+03  0.57565528132E+03  0.50400001928E-02 0.  1.
        1   -1    0    0  501    0  0.00000000000E+00  0.00000000000E+00 -0.34947233353E+03  0.34947233356E+03  0.50400001928E-02 0. -1.
    10030    2    1    2    0    0  0.00000000000E+00  0.00000000000E+00  0.22618294777E+03  0.92512761488E+03  0.89705204863E+03 0.  0.
        2    1    3    3  502    0 -0.22554799234E+03  0.26805789967E+01 -0.28672294599E+03  0.36481382939E+03  0.25500000920E-02 0. -1.
       -2    1    3    3    0  502  0.22554799234E+03 -0.26805789967E+01  0.51290589376E+03  0.56031378549E+03  0.25500000920E-02 0.  1.
</event>
<event>
 5   0  0.9321543E-04  0.8991695E+03  0.7818609E-02  0.9426620E-01
        1   -1    0    0  501    0  0.00000000000E+00  0.00000000000E+00  0.49828880873E+03  0.49828880876E+03  0.50400001928E-02 0. -1.
       -1   -1    0    0    0  501  0.00000000000E+00  0.00000000000E+00 -0.40564112390E+03  0.40564112393E+03  0.50400001928E-02 0.  1.
    10030    2    1    2    0    0  0.00000000000E+00  0.00000000000E+00  0.92647684834E+02  0.90392993269E+03  0.89916946662E+03 0.  0.
        3    1    3    3  502    0 -0.24087936927E+02 -0.36607429187E+03 -0.21492854123E+03  0.42518808063E+03  0.10100000352E+00 0.  1.
       -3    1    3    3    0  502  0.24087936927E+02  0.36607429187E+03  0.30757622607E+03  0.47874185206E+03  0.10100000352E+00 0. -1.
</event>
<event>
 5   0  0.9321543E-04  0.8830431E+03  0.7818609E-02  0.9447030E-01
        1   -1    0    0  501    0  0.00000000000E+00  0.00000000000E+00  0.13930006186E+04  0.13930006186E+04  0.50400001928E-02 0. -1.
       -1   -1    0    0    0  501  0.00000000000E+00  0.00000000000E+00 -0.13994341552E+03  0.13994341561E+03  0.50400001928E-02 0.  1.
    10030    2    1    2    0    0  0.00000000000E+00  0.00000000000E+00  0.12530572031E+04  0.15329440342E+04  0.88304306684E+03 0.  0.
        3    1    3    3  502    0  0.34612755950E+02  0.29116616206E+02 -0.13591089950E+03  0.14323966984E+03  0.10100000352E+00 0.  1.
       -3    1    3    3    0  502 -0.34612755950E+02 -0.29116616206E+02  0.13889681026E+04  0.13897043644E+04  0.10100000352E+00 0. -1.
</event>
<event>
 5   0  0.9697941E-04  0.8994807E+03  0.7818609E-02  0.9426231E-01
       -1   -1    0    0    0  501  0.00000000000E+00  0.00000000000E+00  0.19923416132E+03  0.19923416139E+03  0.50400001928E-02 0. -1.
        1   -1    0    0  501    0  0.00000000000E+00  0.00000000000E+00 -0.10152193646E+04  0.10152193647E+04  0.50400001928E-02 0.  1.
    10030    2    1    2    0    0  0.00000000000E+00  0.00000000000E+00 -0.81598520332E+03  0.12144535260E+04  0.89948069178E+03 0.  0.
        5    1    3    3  502    0  0.38015617467E+03  0.24012064877E+03 -0.39688784901E+03  0.59976553568E+03  0.46999998093E+01 0. -1.
       -5    1    3    3    0  502 -0.38015617467E+03 -0.24012064877E+03 -0.41909735431E+03  0.61468799036E+03  0.46999998093E+01 0.  1.
</event>
<event>
 5   0  0.1007561E-03  0.9000165E+03  0.7818609E-02  0.9425561E-01
       -1   -1    0    0    0  501  0.00000000000E+00  0.00000000000E+00  0.19373528485E+03  0.19373528492E+03  0.50400001928E-02 0.  1.
        1   -1    0    0  501    0  0.00000000000E+00  0.00000000000E+00 -0.10452790822E+04  0.10452790823E+04  0.50400001928E-02 0. -1.
    10030    2    1    2    0    0  0.00000000000E+00  0.00000000000E+00 -0.85154379740E+03  0.12390143672E+04  0.90001653495E+03 0.  0.
        2    1    3    3  502    0 -0.21391783176E+02 -0.42628831698E+03 -0.62205110021E+03  0.75440500320E+03  0.25500000920E-02 0. -1.
       -2    1    3    3    0  502  0.21391783176E+02  0.42628831698E+03 -0.22949269719E+03  0.48460936397E+03  0.25500000920E-02 0.  1.
</event>
<event>
 5   0  0.6375625E-04  0.9002118E+03  0.7818609E-02  0.9425317E-01
        3   -1    0    0  501    0  0.00000000000E+00  0.00000000000E+00  0.34330653646E+03  0.34330655131E+03  0.10100000352E+00 0. -1.
       -3   -1    0    0    0  501  0.00000000000E+00  0.00000000000E+00 -0.59012949264E+03  0.59012950128E+03  0.10100000352E+00 0.  1.
    10030    2    1    2    0    0  0.00000000000E+00  0.00000000000E+00 -0.24682295618E+03  0.93343605260E+03  0.90021180429E+03 0.  0.
        4    1    3    3  502    0 -0.11870208313E+03 -0.43305787564E+03 -0.15561244634E+03  0.47523273725E+03  0.12699999809E+01 0.  1.
       -4    1    3    3    0  502  0.11870208313E+03  0.43305787564E+03 -0.91210509843E+02  0.45820331535E+03  0.12699999809E+01 0. -1.
</event>
<event>
 5   0  0.6375625E-04  0.8964083E+03  0.7818609E-02  0.9430082E-01
       -4   -1    0    0    0  501  0.00000000000E+00  0.00000000000E+00  0.87087511713E+03  0.87087604315E+03  0.12699999809E+01 0.  1.
        4   -1    0    0  501    0  0.00000000000E+00  0.00000000000E+00 -0.23066970611E+03  0.23067320221E+03  0.12699999809E+01 0. -1.
    10030    2    1    2    0    0  0.00000000000E+00  0.00000000000E+00  0.64020541102E+03  0.11015492454E+04  0.89640826170E+03 0.  0.
        3    1    3    3  502    0  0.23408359755E+03 -0.43425720685E+02  0.78675106709E+03  0.82198429159E+03  0.10100000352E+00 0.  1.
       -3    1    3    3    0  502 -0.23408359755E+03  0.43425720685E+02 -0.14654565606E+03  0.27956495377E+03  0.10100000352E+00 0. -1.
</event>
<event>
 5   0  0.1635686E-03  0.8993334E+03  0.7818609E-02  0.9426415E-01
       -2   -1    0    0    0  501  0.00000000000E+00  0.00000000000E+00  0.53615006841E+03  0.53615006842E+03  0.25500000920E-02 0. -1.
        2   -1    0    0  501    0  0.00000000000E+00  0.00000000000E+00 -0.37713344649E+03  0.37713344649E+03  0.25500000920E-02 0.  1.
    10030    2    1    2    0    0  0.00000000000E+00  0.00000000000E+00  0.15901662193E+03  0.91328351491E+03  0.89933336009E+03 0.  0.
        5    1    3    3  502    0 -0.32928876234E+03  0.13789929172E+03 -0.19810131812E+03  0.40830567703E+03  0.46999998093E+01 0.  1.
       -5    1    3    3    0  502  0.32928876234E+03 -0.13789929172E+03  0.35711794004E+03  0.50497783789E+03  0.46999998093E+01 0. -1.
</event>
<event>
 5   0  0.9321543E-04  0.9012031E+03  0.7818609E-02  0.9424079E-01
        1   -1    0    0  501    0  0.00000000000E+00  0.00000000000E+00  0.27153456327E+03  0.27153456332E+03  0.50400001928E-02 0. -1.
       -1   -1    0    0    0  501  0.00000000000E+00  0.00000000000E+00 -0.74775659142E+03  0.74775659144E+03  0.50400001928E-02 0.  1.
    10030    2    1    2    0    0  0.00000000000E+00  0.00000000000E+00 -0.47622202815E+03  0.10192911548E+04  0.90120310589E+03 0.  0.
        3    1    3    3  502    0  0.32196338279E+03  0.37248506668E+02  0.11594750503E+03  0.34422624134E+03  0.10100000352E+00 0. -1.
       -3    1    3    3    0  502 -0.32196338279E+03 -0.37248506668E+02 -0.59216953318E+03  0.67506491342E+03  0.10100000352E+00 0.  1.
</event>
<event>
 5   0  0.1635686E-03  0.9003205E+03  0.7818609E-02  0.9425181E-01
        2   -1    0    0  501    0  0.00000000000E+00  0.00000000000E+00  0.87542419582E+03  0.87542419582E+03  0.25500000920E-02 0. -1.
       -2   -1    0    0    0  501  0.00000000000E+00  0.00000000000E+00 -0.23148122502E+03  0.23148122503E+03  0.25500000920E-02 0.  1.
    10030    2    1    2    0    0  0.00000000000E+00  0.00000000000E+00  0.64394297080E+03  0.11069054209E+04  0.90032053241E+03 0.  0.
        5    1    3    3  502    0 -0.17991150056E+03 -0.18777880213E+03  0.77369138544E+03  0.81624106517E+03  0.46999998093E+01 0. -1.
       -5    1    3    3    0  502  0.17991150056E+03  0.18777880213E+03 -0.12974841465E+03  0.29066435568E+03  0.46999998093E+01 0.  1.
</event>
<event>
 5   0  0.9321543E-04  0.9034794E+03  0.7818609E-02  0.9421242E-01
       -1   -1    0    0    0  501  0.00000000000E+00  0.00000000000E+00  0.55273618254E+03  0.55273618256E+03  0.50400001928E-02 0.  1.
        1   -1    0    0  501    0  0.00000000000E+00  0.00000000000E+00 -0.36919739846E+03  0.36919739850E+03  0.50400001928E-02 0. -1.
    10030    2    1    2    0    0  0.00000000000E+00  0.00000000000E+00  0.18353878407E+03  0.92193358106E+03  0.90347940908E+03 0.  0.
        3    1    3    3  502    0  0.13609289809E+03  0.41427133367E+03  0.21219144898E+03  0.48494044586E+03  0.10100000352E+00 0. -1.
       -3    1    3    3    0  502 -0.13609289809E+03 -0.41427133367E+03 -0.28652664905E+02  0.43699313520E+03  0.10100000352E+00 0.  1.
</event>
<event>
 5   0  0.1630202E-03  0.8957942E+03  0.7818609E-02  0.9430854E-01
       -2   -1    0    0    0  501  0.00000000000E+00  0.00000000000E+00  0.16234119250E+03  0.16234119252E+03  0.25500000920E-02 0. -1.
        2   -1    0    0  501    0  0.00000000000E+00  0.00000000000E+00 -0.12357418964E+04  0.12357418964E+04  0.25500000920E-02 0.  1.
    10030    2    1    2    0    0  0.00000000000E+00  0.00000000000E+00 -0.10734007039E+04  0.13980830890E+04  0.89579420205E+03 0.  0.
        4    1    3    3  502    0 -0.31089644968E+03 -0.20291445014E+03 -0.92775103775E+03  0.99927697734E+03  0.12699999809E+01 0.  1.
       -4    1    3    3    0  502  0.31089644968E+03  0.20291445014E+03 -0.14564966618E+03  0.39880611161E+03  0.12699999809E+01 0. -1.
</event>
<event>
 5   0  0.9981885E-04  0.9006505E+03  0.7818609E-02  0.9424769E-01
       -1   -1    0    0    0  501  0.00000000000E+00  0.00000000000E+00  0.31256355416E+03  0.31256355420E+03  0.50400001928E-02 0.  1.
        1   -1    0    0  501    0  0.00000000000E+00  0.00000000000E+00 -0.64880513481E+03  0.64880513483E+03  0.50400001928E-02 0. -1.
    10030    2    1    2    0    0  0.00000000000E+00  0.00000000000E+00 -0.33624158065E+03  0.96136868904E+03  0.90065051807E+03 0.  0.
        4    1    3    3  502    0  0.22644025146E+03 -0.38857181267E+03 -0.19264779077E+03  0.48926273644E+03  0.12699999809E+01 0.  1.
       -4    1    3    3    0  502 -0.22644025146E+03  0.38857181267E+03 -0.14359378989E+03  0.47210595260E+03  0.12699999809E+01 0. -1.
</event>
<event>
 5   0  0.1630202E-03  0.9021480E+03  0.7818609E-02  0.9422900E-01
        2   -1    0    0  501    0  0.00000000000E+00  0.00000000000E+00  0.66374695877E+03  0.66374695878E+03  0.25500000920E-02 0.  1.
       -2   -1    0    0    0  501  0.00000000000E+00  0.00000000000E+00 -0.30654416832E+03  0.30654416833E+03  0.25500000920E-02 0. -1.
    10030    2    1    2    0    0  0.00000000000E+00  0.00000000000E+00  0.35720279045E+03  0.97029112711E+03  0.90214801326E+03 0.  0.
        4    1    3    3  502    0 -0.19513611829E+03 -0.11642199270E+03  0.59769277175E+03  0.63942978297E+03  0.12699999809E+01 0.  1.
       -4    1    3    3    0  502  0.19513611829E+03  0.11642199270E+03 -0.24048998129E+03  0.33086134414E+03  0.12699999809E+01 0. -1.
</event>
<event>
 5   0  0.1536020E-03  0.9018473E+03  0.7818609E-02  0.9423275E-01
       -2   -1    0    0    0  501  0.00000000000E+00  0.00000000000E+00  0.38594126568E+03  0.38594126569E+03  0.25500000920E-02 0.  1.
        2   -1    0    0  501    0  0.00000000000E+00  0.00000000000E+00 -0.52684735853E+03  0.52684735853E+03  0.25500000920E-02 0. -1.
    10030    2    1    2    0    0  0.00000000000E+00  0.00000000000E+00 -0.14090609284E+03  0.91278862423E+03  0.90184729612E+03 0.  0.
        2    1    3    3  502    0  0.21356302344E+03  0.30363258184E+03  0.18864136556E+03  0.41639821630E+03  0.25500000920E-02 0.  1.
       -2    1    3    3    0  502 -0.21356302344E+03 -0.30363258184E+03 -0.32954745840E+03  0.49639040792E+03  0.25500000920E-02 0. -1.
</event>
<event>
 5   0  0.9223454E-04  0.9000865E+03  0.7818609E-02  0.9425473E-01
       -1   -1    0    0    0  501  0.00000000000E+00  0.00000000000E+00  0.29978582239E+03  0.29978582243E+03  0.50400001928E-02 0. -1.
        1   -1    0    0  501    0  0.00000000000E+00  0.00000000000E+00 -0.67561213406E+03  0.67561213407E+03  0.50400001928E-02 0.  1.
    10030    2    1    2    0    0  0.00000000000E+00  0.00000000000E+00 -0.37582631167E+03  0.97539795651E+03  0.90008652752E+03 0.  0.
        1    1    3    3  502    0 -0.35238112174E+03 -0.11732154530E+03 -0.46334936342E+03  0.59382609622E+03  0.50400001928E-02 0.  1.
       -1    1    3    3    0  502  0.35238112174E+03  0.11732154530E+03  0.87523051756E+02  0.38157186028E+03  0.50400001928E-02 0. -1.
</event>
<event>
 5   0  0.6375625E-04  0.9000743E+03  0.7818609E-02  0.9425489E-01
        3   -1    0    0  501    0  0.00000000000E+00  0.00000000000E+00  0.53571703934E+03  0.53571704887E+03  0.10100000352E+00 0.  1.
       -3   -1    0    0    0  501  0.00000000000E+00  0.00000000000E+00 -0.37806041605E+03  0.37806042954E+03  0.10100000352E+00 0. -1.
    10030    2    1    2    0    0  0.00000000000E+00  0.00000000000E+00  0.15765662329E+03  0.91377747841E+03  0.90007425759E+03 0.  0.
        2    1    3    3  502    0 -0.10627558328E+03  0.29344456265E+03 -0.25034438241E+03  0.40009563951E+03  0.25500000920E-02 0. -1.
       -2    1    3    3    0  502  0.10627558328E+03 -0.29344456265E+03  0.40800100570E+03  0.51368183889E+03  0.25500000920E-02 0.  1.
</event>
<event>
 5   0  0.9223454E-04  0.8986444E+03  0.7818609E-02  0.9427278E-01
        1   -1    0    0  501    0  0.00000000000E+00  0.00000000000E+00  0.39108479235E+03  0.39108479239E+03  0.50400001928E-02 0. -1.
       -1   -1    0    0    0  501  0.00000000000E+00  0.00000000000E+00 -0.51623188106E+03  0.51623188109E+03  0.50400001928E-02 0.  1.
    10030    2    1    2    0    0  0.00000000000E+00  0.00000000000E+00 -0.12514708871E+03  0.90731667348E+03  0.89864439694E+03 0.  0.
        1    1    3    3  502    0 -0.19240589838E+03  0.20146796370E+03  0.29336376173E+03  0.40456355107E+03  0.50400001928E-02 0. -1.
       -1    1    3    3    0  502  0.19240589838E+03 -0.20146796370E+03 -0.41851085044E+03  0.50275312241E+03  0.50400001928E-02 0.  1.
</event>
<event>
 5   0  0.1635686E-03  0.8992732E+03  0.7818609E-02  0.9426490E-01
        2   -1    0    0  501    0  0.00000000000E+00  0.00000000000E+00  0.63144596446E+03  0.63144596446E+03  0.25500000920E-02 0. -1.
       -2   -1    0    0    0  501  0.00000000000E+00  0.00000000000E+00 -0.32017476171E+03  0.32017476172E+03  0.25500000920E-02 0.  1.
    10030    2    1    2    0    0  0.00000000000E+00  0.00000000000E+00  0.31127120275E+03  0.95162072618E+03  0.89927317587E+03 0.  0.
        5    1    3    3  502    0  0.22808870436E+03  0.54606140490E+02 -0.25028822235E+03  0.34303435963E+03  0.46999998093E+01 0.  1.
       -5    1    3    3    0  502 -0.22808870436E+03 -0.54606140490E+02  0.56155942510E+03  0.60858636655E+03  0.46999998093E+01 0. -1.
</event>
<event>
 5   0  0.1704416E-03  0.8999605E+03  0.7818609E-02  0.9425631E-01
        2   -1    0    0  501    0  0.00000000000E+00  0.00000000000E+00  0.15020752943E+04  0.15020752943E+04  0.25500000920E-02 0. -1.
       -2   -1    0    0    0  501  0.00000000000E+00  0.00000000000E+00 -0.13480165542E+03  0.13480165544E+03  0.25500000920E-02 0.  1.
    10030    2    1    2    0    0  0.00000000000E+00  0.00000000000E+00  0.13672736389E+04  0.16368769497E+04  0.89996052414E+03 0.  0.
        3    1    3    3  502    0 -0.70553586643E+02 -0.17073946629E+03  0.14299176674E+04  0.14418024551E+04  0.10100000352E+00 0. -1.
       -3    1    3    3    0  502  0.70553586643E+02  0.17073946629E+03 -0.62644028503E+02  0.19507449460E+03  0.10100000352E+00 0.  1.
</event>
<event>
 5   0  0.1635686E-03  0.8990052E+03  0.7818609E-02  0.9426826E-01
        2   -1    0    0  501    0  0.00000000000E+00  0.00000000000E+00  0.70810000654E+03  0.70810000654E+03  0.25500000920E-02 0.  1.
       -2   -1    0    0    0  501  0.00000000000E+00  0.00000000000E+00 -0.28534467432E+03  0.28534467433E+03  0.25500000920E-02 0. -1.
    10030    2    1    2    0    0  0.00000000000E+00  0.00000000000E+00  0.42275533222E+03  0.99344468088E+03  0.89900515185E+03 0.  0.
        5    1    3    3  502    0 -0.43090468895E+03 -0.67401569614E+02  0.33146071131E+03  0.54782306970E+03  0.46999998093E+01 0.  1.
       -5    1    3    3    0  502  0.43090468895E+03  0.67401569614E+02  0.91294620907E+02  0.44562161118E+03  0.46999998093E+01 0. -1.
</event>
<event>
 5   0  0.1007561E-03  0.9010559E+03  0.7818609E-02  0.9424263E-01
       -1   -1    0    0    0  501  0.00000000000E+00  0.00000000000E+00  0.88335107016E+03  0.88335107017E+03  0.50400001928E-02 0. -1.
        1   -1    0    0  501    0  0.00000000000E+00  0.00000000000E+00 -0.22977887651E+03  0.22977887657E+03  0.50400001928E-02 0.  1.
    10030    2    1    2    0    0  0.00000000000E+00  0.00000000000E+00  0.65357219364E+03  0.11131299467E+04  0.90105586177E+03 0.  0.
        2    1    3    3  502    0  0.19901782162E+03  0.36100848787E+03  0.10223486050E+03  0.42472012944E+03  0.25500000920E-02 0.  1.
       -2    1    3    3    0  502 -0.19901782162E+03 -0.36100848787E+03  0.55133733314E+03  0.68840981731E+03  0.25500000920E-02 0. -1.
</event>
<event>
 5   0  0.1630202E-03  0.8993862E+03  0.7818609E-02  0.9426349E-01
        2   -1    0    0  501    0  0.00000000000E+00  0.00000000000E+00  0.88554811510E+03  0.88554811510E+03  0.25500000920E-02 0. -1.
       -2   -1    0    0    0  501  0.00000000000E+00  0.00000000000E+00 -0.22836013227E+03  0.22836013229E+03  0.25500000920E-02 0.  1.
    10030    2    1    2    0    0  0.00000000000E+00  0.00000000000E+00  0.65718798283E+03  0.11139082474E+04  0.89938620115E+03 0.  0.
        4    1    3    3  502    0  0.12071353239E+03  0.50432741479E+02  0.86145590895E+03  0.87133410026E+03  0.12699999809E+01 0. -1.
       -4    1    3    3    0  502 -0.12071353239E+03 -0.50432741479E+02 -0.20426792612E+03  0.24257414713E+03  0.12699999809E+01 0.  1.
</event>
<event>
 5   0  0.9223454E-04  0.9050045E+03  0.7818609E-02  0.9419347E-01
        1   -1    0    0  501    0  0.00000000000E+00  0.00000000000E+00  0.12460573711E+04  0.12460573711E+04  0.50400001928E-02 0.  1.
       -1   -1    0    0    0  501  0.00000000000E+00  0.00000000000E+00 -0.16432492921E+03  0.16432492929E+03  0.50400001928E-02 0. -1.
    10030    2    1    2    0    0  0.00000000000E+00  0.00000000000E+00  0.10817324419E+04  0.14103823004E+04  0.90500450686E+03 0.  0.
        1    1    3    3  502    0  0.41233080088E+03 -0.12819527857E+02  0.83065488515E+03  0.92745273081E+03  0.50400001928E-02 0.  1.
       -1    1    3    3    0  502 -0.41233080088E+03  0.12819527857E+02  0.25107755672E+03  0.48292956957E+03  0.50400001928E-02 0. -1.
</event>
<event>
 5   0  0.1704416E-03  0.9019031E+03  0.7818609E-02  0.9423206E-01
       -2   -1    0    0    0  501  0.00000000000E+00  0.00000000000E+00  0.39189717630E+03  0.39189717631E+03  0.25500000920E-02 0. -1.
        2   -1    0    0  501    0  0.00000000000E+00  0.00000000000E+00 -0.51890468578E+03  0.51890468579E+03  0.25500000920E-02 0.  1.
    10030    2    1    2    0    0  0.00000000000E+00  0.00000000000E+00 -0.12700750948E+03  0.91080186209E+03  0.90190305717E+03 0.  0.
        3    1    3    3  502    0  0.14413201129E+03 -0.15038157393E+03 -0.46741081546E+03  0.51172408099E+03  0.10100000352E+00 0.  1.
       -3    1    3    3    0  502 -0.14413201129E+03  0.15038157393E+03  0.34040330597E+03  0.39907778111E+03  0.10100000352E+00 0. -1.
</event>
<event>
 5   0  0.9223454E-04  0.9018072E+03  0.7818609E-02  0.9423325E-01
        1   -1    0    0  501    0  0.00000000000E+00  0.00000000000E+00  0.39347212743E+03  0.39347212746E+03  0.50400001928E-02 0. -1.
       -1   -1    0    0    0  501  0.00000000000E+00  0.00000000000E+00 -0.51671780568E+03  0.51671780571E+03  0.50400001928E-02 0.  1.
    10030    2    1    2    0    0  0.00000000000E+00  0.00000000000E+00 -0.12324567825E+03  0.91018993317E+03  0.90180719516E+03 0.  0.
        1    1    3    3  502    0  0.28238186228E+03 -0.32762836937E+03  0.66974990890E+02  0.43768197815E+03  0.50400001928E-02 0. -1.
       -1    1    3    3    0  502 -0.28238186228E+03  0.32762836937E+03 -0.19022066914E+03  0.47250795502E+03  0.50400001928E-02 0.  1.
</event>
<event>
 5   0  0.1635686E-03  0.8980887E+03  0.7818609E-02  0.9427974E-01
       -2   -1    0    0    0  501  0.00000000000E+00  0.00000000000E+00  0.29820035552E+03  0.29820035553E+03  0.25500000920E-02 0. -1.
        2   -1    0    0  501    0  0.00000000000E+00  0.00000000000E+00 -0.67619252046E+03  0.67619252046E+03  0.25500000920E-02 0.  1.
    10030    2    1    2    0    0  0.00000000000E+00  0.00000000000E+00 -0.37799216493E+03  0.97439287599E+03  0.89808874842E+03 0.  0.
        5    1    3    3  502    0 -0.11224111932E+03  0.41968920172E+03 -0.65855601154E+02  0.43942706461E+03  0.46999998093E+01 0. -1.
       -5    1    3    3    0  502  0.11224111932E+03 -0.41968920172E+03 -0.31213656378E+03  0.53496581139E+03  0.46999998093E+01 0.  1.
</event>
<event>
 5   0  0.6375625E-04  0.9020584E+03  0.7818609E-02  0.9423012E-01
        3   -1    0    0  501    0  0.00000000000E+00  0.00000000000E+00  0.71865884281E+03  0.71865884991E+03  0.10100000352E+00 0. -1.
       -3   -1    0    0    0  501  0.00000000000E+00  0.00000000000E+00 -0.28306520718E+03  0.28306522520E+03  0.10100000352E+00 0.  1.
    10030    2    1    2    0    0  0.00000000000E+00  0.00000000000E+00  0.43559363563E+03  0.10017240751E+04  0.90205837241E+03 0.  0.
        2    1    3    3  502    0  0.10118624463E+03  0.10130609054E+02  0.70576208367E+03  0.71305077245E+03  0.25500000920E-02 0. -1.
       -2    1    3    3    0  502 -0.10118624463E+03 -0.10130609054E+02 -0.27016844804E+03  0.28867330265E+03  0.25500000920E-02 0.  1.
</event>
<event>
 5   0  0.9981885E-04  0.8999186E+03  0.7818609E-02  0.9425683E-01
       -1   -1    0    0    0  501  0.00000000000E+00  0.00000000000E+00  0.29050457624E+03  0.29050457629E+03  0.50400001928E-02 0.  1.
        1   -1    0    0  501    0  0.00000000000E+00  0.00000000000E+00 -0.69693687071E+03  0.69693687073E+03  0.50400001928E-02 0. -1.
    10030    2    1    2    0    0  0.00000000000E+00  0.00000000000E+00 -0.40643229447E+03  0.98744144702E+03  0.89991855259E+03 0.  0.
        4    1    3    3  502    0  0.91181416870E+02 -0.19477512674E+03  0.23045749886E+03  0.31522003816E+03  0.12699999809E+01 0.  1.
       -4    1    3    3    0  502 -0.91181416870E+02  0.19477512674E+03 -0.63688979333E+03  0.67222140885E+03  0.12699999809E+01 0. -1.
</event>
<event>
 5   0  0.1536020E-03  0.8974198E+03  0.7818609E-02  0.9428813E-01
        2   -1    0    0  501    0  0.00000000000E+00  0.00000000000E+00  0.60435715274E+03  0.60435715274E+03  0.25500000920E-02 0.  1.
       -2   -1    0    0    0  501  0.00000000000E+00  0.00000000000E+00 -0.33314831121E+03  0.33314831122E+03  0.25500000920E-02 0. -1.
    10030    2    1    2    0    0  0.00000000000E+00  0.00000000000E+00  0.27120884152E+03  0.93750546397E+03  0.89741977872E+03 0.  0.
        2    1    3    3  502    0 -0.29151715232E+03 -0.33952707379E+03  0.10127820923E+03  0.45882257966E+03  0.25500000920E-02 0.  1.
       -2    1    3    3    0  502  0.29151715232E+03  0.33952707379E+03  0.16993063230E+03  0.47868288431E+03  0.25500000920E-02 0. -1.
</event>
<event>
 5   0  0.1704416E-03  0.9008338E+03  0.7818609E-02  0.9424540E-01
        2   -1    0    0  501    0  0.00000000000E+00  0.00000000000E+00  0.56704797710E+03  0.56704797711E+03  0.25500000920E-02 0.  1.
       -2   -1    0    0    0  501  0.00000000000E+00  0.00000000000E+00 -0.35777462914E+03  0.35777462915E+03  0.25500000920E-02 0. -1.
    10030    2    1    2    0    0  0.00000000000E+00  0.00000000000E+00  0.20927334796E+03  0.92482260626E+03  0.90083379093E+03 0.  0.
        3    1    3    3  502    0 -0.17507304002E+03  0.31620356748E+03 -0.17129588596E+03  0.39997194423E+03  0.10100000352E+00 0. -1.
       -3    1    3    3    0  502  0.17507304002E+03 -0.31620356748E+03  0.38056923391E+03  0.52485066203E+03  0.10100000352E+00 0.  1.
</event>
<event>
 5   0  0.9321543E-04  0.9160051E+03  0.7818609E-02  0.9405793E-01
        1   -1    0    0  501    0  0.00000000000E+00  0.00000000000E+00  0.82413555980E+03  0.82413555981E+03  0.50400001928E-02 0. -1.
       -1   -1    0    0    0  501  0.00000000000E+00  0.00000000000E+00 -0.25452890843E+03  0.25452890848E+03  0.50400001928E-02 0.  1.
    10030    2    1    2    0    0  0.00000000000E+00  0.00000000000E+00  0.56960665137E+03  0.10786644683E+04  0.91600507525E+03 0.  0.
        3    1    3    3  502    0  0.39538786445E+03 -0.51462248490E+02  0.19427012724E+02  0.39919587347E+03  0.10100000352E+00 0.  1.
       -3    1    3    3    0  502 -0.39538786445E+03  0.51462248490E+02  0.55017963864E+03  0.67946859482E+03  0.10100000352E+00 0. -1.
</event>
<event>
 5   0  0.6375625E-04  0.8953537E+03  0.7818609E-02  0.9431408E-01
        4   -1    0    0  501    0  0.00000000000E+00  0.00000000000E+00  0.27326701397E+03  0.27326996509E+03  0.12699999809E+01 0.  1.
       -4   -1    0    0    0  501  0.00000000000E+00  0.00000000000E+00 -0.73339454287E+03  0.73339564249E+03  0.12699999809E+01 0. -1.
    10030    2    1    2    0    0  0.00000000000E+00  0.00000000000E+00 -0.46012752891E+03  0.10066656076E+04  0.89535373045E+03 0.  0.
        4    1    3    3  502    0 -0.34806699478E+03  0.28046293583E+03 -0.25766973182E+03  0.51595096165E+03  0.12699999809E+01 0.  1.
       -4    1    3    3    0  502  0.34806699478E+03 -0.28046293583E+03 -0.20245779708E+03  0.49071464593E+03  0.12699999809E+01 0. -1.
</event>
<event>
 5   0  0.1630202E-03  0.9013494E+03  0.7818609E-02  0.9423896E-01
        2   -1    0    0  501    0  0.00000000000E+00  0.00000000000E+00  0.49510592167E+03  0.49510592168E+03  0.25500000920E-02 0.  1.
       -2   -1    0    0    0  501  0.00000000000E+00  0.00000000000E+00 -0.41023076921E+03  0.41023076922E+03  0.25500000920E-02 0. -1.
    10030    2    1    2    0    0  0.00000000000E+00  0.00000000000E+00  0.84875152462E+02  0.90533669090E+03  0.90134939529E+03 0.  0.
        4    1    3    3  502    0  0.12575472486E+03  0.29924676174E+03 -0.27158452497E+03  0.42322882976E+03  0.12699999809E+01 0. -1.
       -4    1    3    3    0  502 -0.12575472486E+03 -0.29924676174E+03  0.35645967743E+03  0.48210786114E+03  0.12699999809E+01 0.  1.
</event>
<event>
 5   0  0.1536020E-03  0.9064778E+03  0.7818609E-02  0.9417520E-01
        2   -1    0    0  501    0  0.00000000000E+00  0.00000000000E+00  0.22159424617E+04  0.22159424617E+04  0.25500000920E-02 0. -1.
       -2   -1    0    0    0  501  0.00000000000E+00  0.00000000000E+00 -0.92703448168E+02  0.92703448203E+02  0.25500000920E-02 0.  1.
    10030    2    1    2    0    0  0.00000000000E+00  0.00000000000E+00  0.21232390135E+04  0.23086459099E+04  0.90647781480E+03 0.  0.
        2    1    3    3  502    0 -0.91309626152E+02  0.40241286805E+03  0.58411792368E+03  0.71516942955E+03  0.25500000920E-02 0.  1.
       -2    1    3    3    0  502  0.91309626152E+02 -0.40241286805E+03  0.15391210898E+04  0.15934764803E+04  0.25500000920E-02 0. -1.
</event>
<event>
 5   0  0.1007561E-03  0.8992877E+03  0.7818609E-02  0.9426472E-01
        1   -1    0    0  501    0  0.00000000000E+00  0.00000000000E+00  0.57596383667E+03  0.57596383669E+03  0.50400001928E-02 0. -1.
       -1   -1    0    0    0  501  0.00000000000E+00  0.00000000000E+00 -0.35102824415E+03  0.35102824418E+03  0.50400001928E-02 0.  1.
    10030    2    1    2    0    0  0.00000000000E+00  0.00000000000E+00  0.22493559252E+03  0.92699208087E+03  0.89928766099E+03 0.  0.
        2    1    3    3  502    0  0.14968438256E+03 -0.16619477617E+03  0.51455319323E+03  0.56106248019E+03  0.25500000920E-02 0. -1.
       -2    1    3    3    0  502 -0.14968438256E+03  0.16619477617E+03 -0.28961760071E+03  0.36592960068E+03  0.25500000920E-02 0.  1.
</event>
<event>
 5   0  0.1536020E-03  0.9016100E+03  0.7818609E-02  0.9423571E-01
       -2   -1    0    0    0  501  0.00000000000E+00  0.00000000000E+00  0.19253007203E+03  0.19253007205E+03  0.25500000920E-02 0.  1.
        2   -1    0    0  501    0  0.00000000000E+00  0.00000000000E+00 -0.10555501807E+04  0.10555501807E+04  0.25500000920E-02 0. -1.
    10030    2    1    2    0    0  0.00000000000E+00  0.00000000000E+00 -0.86302010864E+03  0.12480802527E+04  0.90161000955E+03 0.  0.
        2    1    3    3  502    0 -0.22020593197E+03  0.39332774469E+03 -0.42421329818E+03  0.61899457960E+03  0.25500000920E-02 0.  1.
       -2    1    3    3    0  502  0.22020593197E+03 -0.39332774469E+03 -0.43880681046E+03  0.62908567312E+03  0.25500000920E-02 0. -1.
</event>
<event>
 5   0  0.1635686E-03  0.9246870E+03  0.7818609E-02  0.9395237E-01
       -2   -1    0    0    0  501  0.00000000000E+00  0.00000000000E+00  0.26564610782E+04  0.26564610782E+04  0.25500000920E-02 0. -1.
        2   -1    0    0  501    0  0.00000000000E+00  0.00000000000E+00 -0.80468525049E+02  0.80468525089E+02  0.25500000920E-02 0.  1.
    10030    2    1    2    0    0  0.00000000000E+00  0.00000000000E+00  0.25759925531E+04  0.27369296033E+04  0.92468698459E+03 0.  0.
        5    1    3    3  502    0  0.87248342528E+00 -0.15119055986E+03 -0.51545241846E+01  0.15135390889E+03  0.46999998093E+01 0.  1.
       -5    1    3    3    0  502 -0.87248342528E+00  0.15119055986E+03  0.25811470773E+04  0.25855756944E+04  0.46999998093E+01 0. -1.
</event>
<event>
 5   0  0.1630202E-03  0.9001733E+03  0.7818609E-02  0.9425365E-01
       -2   -1    0    0    0  501  0.00000000000E+00  0.00000000000E+00  0.19400385603E+03  0.19400385605E+03  0.25500000920E-02 0.  1.
        2   -1    0    0  501    0  0.00000000000E+00  0.00000000000E+00 -0.10441956083E+04  0.10441956083E+04  0.25500000920E-02 0. -1.
    10030    2    1    2    0    0  0.00000000000E+00  0.00000000000E+00 -0.85019175226E+03  0.12381994643E+04  0.90017325992E+03 0.  0.
        4    1    3    3  502    0 -0.41624002510E+03 -0.17116148352E+03 -0.41830836266E+03  0.61443918422E+03  0.12699999809E+01 0. -1.
       -4    1    3    3    0  502  0.41624002510E+03  0.17116148352E+03 -0.43188338960E+03  0.62376028011E+03  0.12699999809E+01 0.  1.
</event>
<event>
 5   0  0.1536020E-03  0.9035517E+03  0.7818609E-02  0.9421153E-01
        2   -1    0    0  501    0  0.00000000000E+00  0.00000000000E+00  0.19256613409E+04  0.19256613409E+04  0.25500000920E-02 0. -1.
       -2   -1    0    0    0  501  0.00000000000E+00  0.00000000000E+00 -0.10599029235E+03  0.10599029238E+03  0.25500000920E-02 0.  1.
    10030    2    1    2    0    0  0.00000000000E+00  0.00000000000E+00  0.18196710485E+04  0.20316516332E+04  0.90355167757E+03 0.  0.
        2    1    3    3  502    0 -0.24179083634E+03  0.25109234490E+03  0.26364107473E+03  0.43705467678E+03  0.25500000920E-02 0.  1.
       -2    1    3    3    0  502  0.24179083634E+03 -0.25109234490E+03  0.15560299738E+04  0.15945969565E+04  0.25500000920E-02 0. -1.
</event>
<event>
 5   0  0.1635686E-03  0.8993007E+03  0.7818609E-02  0.9426456E-01
        2   -1    0    0  501    0  0.00000000000E+00  0.00000000000E+00  0.19828991998E+04  0.19828991998E+04  0.25500000920E-02 0. -1.
       -2   -1    0    0    0  501  0.00000000000E+00  0.00000000000E+00 -0.10196456540E+03  0.10196456543E+03  0.25500000920E-02 0.  1.
    10030    2    1    2    0    0  0.00000000000E+00  0.00000000000E+00  0.18809346344E+04  0.20848637653E+04  0.89930073984E+03 0.  0.
        5    1    3    3  502    0  0.34569468291E+03 -0.17843191481E+03  0.41783935967E+03  0.57092432292E+03  0.46999998093E+01 0.  1.
       -5    1    3    3    0  502 -0.34569468291E+03  0.17843191481E+03  0.14630952748E+04  0.15139394423E+04  0.46999998093E+01 0. -1.
</event>
<event>
 5   0  0.9223454E-04  0.9006308E+03  0.7818609E-02  0.9424793E-01
       -1   -1    0    0    0  501  0.00000000000E+00  0.00000000000E+00  0.73392807465E+02  0.73392807638E+02  0.50400001928E-02 0. -1.
        1   -1    0    0  501    0  0.00000000000E+00  0.00000000000E+00 -0.27629951844E+04  0.27629951844E+04  0.50400001928E-02 0.  1.
    10030    2    1    2    0    0  0.00000000000E+00  0.00000000000E+00 -0.26896023770E+04  0.28363879921E+04  0.90063083191E+03 0.  0.
        1    1    3    3  502    0 -0.27246242971E+03 -0.26196122987E+03 -0.21157420799E+04  0.21492380069E+04  0.50400001928E-02 0.  1.
       -1    1    3    3    0  502  0.27246242971E+03  0.26196122987E+03 -0.57386029703E+03  0.68714998515E+03  0.50400001928E-02 0. -1.
</event>
<event>
 5   0  0.1704416E-03  0.8999083E+03  0.7818609E-02  0.9425696E-01
        2   -1    0    0  501    0  0.00000000000E+00  0.00000000000E+00  0.53734194449E+03  0.53734194449E+03  0.25500000920E-02 0.  1.
       -2   -1    0    0    0  501  0.00000000000E+00  0.00000000000E+00 -0.37677820906E+03  0.37677820907E+03  0.25500000920E-02 0. -1.
    10030    2    1    2    0    0  0.00000000000E+00  0.00000000000E+00  0.16056373542E+03  0.91412015357E+03  0.89990829645E+03 0.  0.
        3    1    3    3  502    0 -0.22192410565E+03  0.79221356697E+02  0.46965304880E+03  0.52545249878E+03  0.10100000352E+00 0.  1.
       -3    1    3    3    0  502  0.22192410565E+03 -0.79221356697E+02 -0.30908931338E+03  0.38866765478E+03  0.10100000352E+00 0. -1.
</event>
<event>
 5   0  0.9223454E-04  0.9055186E+03  0.7818609E-02  0.9418709E-01
       -1   -1    0    0    0  501  0.00000000000E+00  0.00000000000E+00  0.51398422438E+03  0.51398422441E+03  0.50400001928E-02 0. -1.
        1   -1    0    0  501    0  0.00000000000E+00  0.00000000000E+00 -0.39882736913E+03  0.39882736916E+03  0.50400001928E-02 0.  1.
    10030    2    1    2    0    0  0.00000000000E+00  0.00000000000E+00  0.11515685526E+03  0.91281159357E+03  0.90551858294E+03 0.  0.
        1    1    3    3  502    0  0.14775299096E+03  0.17659662813E+03 -0.33539930479E+03  0.40682921366E+03  0.50400001928E-02 0.  1.
       -1    1    3    3    0  502 -0.14775299096E+03 -0.17659662813E+03  0.45055616004E+03  0.50598237992E+03  0.50400001928E-02 0. -1.
</event>
<event>
 5   0  0.1536020E-03  0.9010792E+03  0.7818609E-02  0.9424233E-01
        2   -1    0    0  501    0  0.00000000000E+00  0.00000000000E+00  0.10254408790E+04  0.10254408790E+04  0.25500000920E-02 0. -1.
       -2   -1    0    0    0  501  0.00000000000E+00  0.00000000000E+00 -0.19794991529E+03  0.19794991530E+03  0.25500000920E-02 0.  1.
    10030    2    1    2    0    0  0.00000000000E+00  0.00000000000E+00  0.82749096368E+03  0.12233907943E+04  0.90107920880E+03 0.  0.
        2    1    3    3  502    0  0.44618666878E+03 -0.54795368868E+02  0.45449577324E+03  0.63925854217E+03  0.25500000920E-02 0. -1.
       -2    1    3    3    0  502 -0.44618666878E+03  0.54795368868E+02  0.37299519044E+03  0.58413225210E+03  0.25500000920E-02 0.  1.
</event>
<event>
 5   0  0.1635686E-03  0.8995715E+03  0.7818609E-02  0.9426117E-01
        2   -1    0    0  501    0  0.00000000000E+00  0.00000000000E+00  0.50228125321E+03  0.50228125321E+03  0.25500000920E-02 0. -1.
       -2   -1    0    0    0  501  0.00000000000E+00  0.00000000000E+00 -0.40277676139E+03  0.40277676140E+03  0.25500000920E-02 0.  1.
    10030    2    1    2    0    0  0.00000000000E+00  0.00000000000E+00  0.99504491817E+02  0.90505801461E+03  0.89957149017E+03 0.  0.
        5    1    3    3  502    0 -0.10833805236E+03  0.20666185811E+02 -0.38893566665E+03  0.40429848827E+03  0.46999998093E+01 0.  1.
       -5    1    3    3    0  502  0.10833805236E+03 -0.20666185811E+02  0.48844015847E+03  0.50075952634E+03  0.46999998093E+01 0. -1.
</event>
<event>
 5   0  0.9223454E-04  0.8986857E+03  0.7818609E-02  0.9427226E-01
       -1   -1    0    0    0  501  0.00000000000E+00  0.00000000000E+00  0.21895501624E+03  0.21895501630E+03  0.50400001928E-02 0.  1.
        1   -1    0    0  501    0  0.00000000000E+00  0.00000000000E+00 -0.92214837652E+03  0.92214837653E+03  0.50400001928E-02 0. -1.
    10030    2    1    2    0    0  0.00000000000E+00  0.00000000000E+00 -0.70319336028E+03  0.11411033928E+04  0.89868573549E+03 0.  0.
        1    1    3    3  502    0  0.26065758610E+03  0.45080275274E+02 -0.81280398647E+03  0.85476600825E+03  0.50400001928E-02 0. -1.
       -1    1    3    3    0  502 -0.26065758610E+03 -0.45080275274E+02  0.10961062619E+03  0.28633738458E+03  0.50400001928E-02 0.  1.
</event>
<event>
 5   0  0.9981885E-04  0.9007097E+03  0.7818609E-02  0.9424695E-01
        1   -1    0    0  501    0  0.00000000000E+00  0.00000000000E+00  0.28601868079E+03  0.28601868084E+03  0.50400001928E-02 0.  1.
       -1   -1    0    0    0  501  0.00000000000E+00  0.00000000000E+00 -0.70911279111E+03  0.70911279113E+03  0.50400001928E-02 0. -1.
    10030    2    1    2    0    0  0.00000000000E+00  0.00000000000E+00 -0.42309411031E+03  0.99513147197E+03  0.90070973144E+03 0.  0.
        4    1    3    3  502    0  0.44341169048E+03  0.21929363040E+02 -0.29512853536E+03  0.53310157522E+03  0.12699999809E+01 0.  1.
       -4    1    3    3    0  502 -0.44341169048E+03 -0.21929363040E+02 -0.12796557495E+03  0.46202989675E+03  0.12699999809E+01 0. -1.
</event>
<event>
 5   0  0.9321543E-04  0.9002220E+03  0.7818609E-02  0.9425304E-01
       -1   -1    0    0    0  501  0.00000000000E+00  0.00000000000E+00  0.40718508148E+03  0.40718508151E+03  0.50400001928E-02 0. -1.
        1   -1    0    0  501    0  0.00000000000E+00  0.00000000000E+00 -0.49756226661E+03  0.49756226664E+03  0.50400001928E-02 0.  1.
    10030    2    1    2    0    0  0.00000000000E+00  0.00000000000E+00 -0.90377185137E+02  0.90474734815E+03  0.90022204393E+03 0.  0.
        3    1    3    3  502    0 -0.31314980565E+03  0.40317440388E+02 -0.36759962450E+03  0.48458001497E+03  0.10100000352E+00 0.  1.
       -3    1    3    3    0  502  0.31314980565E+03 -0.40317440388E+02  0.27722243936E+03  0.42016733317E+03  0.10100000352E+00 0. -1.
</event>
<event>
 5   0  0.6375625E-04  0.9002071E+03  0.7818609E-02  0.9425323E-01
       -3   -1    0    0    0  501  0.00000000000E+00  0.00000000000E+00  0.44781357606E+03  0.44781358745E+03  0.10100000352E+00 0.  1.
        3   -1    0    0  501    0  0.00000000000E+00  0.00000000000E+00 -0.45240516569E+03  0.45240517696E+03  0.10100000352E+00 0. -1.
    10030    2    1    2    0    0  0.00000000000E+00  0.00000000000E+00 -0.45915896279E+01  0.90021876441E+03  0.90020705457E+03 0.  0.
        2    1    3    3  502    0  0.30963676249E+02 -0.18087382806E+03 -0.41329882272E+03  0.45220571402E+03  0.25500000920E-02 0. -1.
       -2    1    3    3    0  502 -0.30963676249E+02  0.18087382806E+03  0.40870723309E+03  0.44801305039E+03  0.25500000920E-02 0.  1.
</event>
<event>
 5   0  0.9697941E-04  0.8995549E+03  0.7818609E-02  0.9426138E-01
       -1   -1    0    0    0  501  0.00000000000E+00  0.00000000000E+00  0.13032445139E+03  0.13032445149E+03  0.50400001928E-02 0.  1.
        1   -1    0    0  501    0  0.00000000000E+00  0.00000000000E+00 -0.15522779318E+04  0.15522779318E+04  0.50400001928E-02 0. -1.
    10030    2    1    2    0    0  0.00000000000E+00  0.00000000000E+00 -0.14219534804E+04  0.16826023833E+04  0.89955493429E+03 0.  0.
        5    1    3    3  502    0 -0.41376534701E+03 -0.17561598450E+03 -0.68230621967E+03  0.81707196978E+03  0.46999998093E+01 0.  1.
       -5    1    3    3    0  502  0.41376534701E+03  0.17561598450E+03 -0.73964726072E+03  0.86553041350E+03  0.46999998093E+01 0. -1.
</event>
<event>
 5   0  0.9321543E-04  0.8781764E+03  0.7818609E-02  0.9453281E-01
       -1   -1    0    0    0  501  0.00000000000E+00  0.00000000000E+00  0.32257004707E+03  0.32257004711E+03  0.50400001928E-02 0. -1.
        1   -1    0    0  501    0  0.00000000000E+00  0.00000000000E+00 -0.59769487855E+03  0.59769487857E+03  0.50400001928E-02 0.  1.
    10030    2    1    2    0    0  0.00000000000E+00  0.00000000000E+00 -0.27512483148E+03  0.92026492568E+03  0.87817644044E+03 0.  0.
        3    1    3    3  502    0 -0.15591083613E+03 -0.16803387881E+03 -0.53001760983E+03  0.57746190366E+03  0.10100000352E+00 0.  1.
       -3    1    3    3    0  502  0.15591083613E+03  0.16803387881E+03  0.25489277834E+03  0.34280302202E+03  0.10100000352E+00 0. -1.
</event>
<event>
 5   0  0.1635686E-03  0.8999794E+03  0.7818609E-02  0.9425607E-01
       -2   -1    0    0    0  501  0.00000000000E+00  0.00000000000E+00  0.22035467213E+03  0.22035467214E+03  0.25500000920E-02 0.  1.
        2   -1    0    0  501    0  0.00000000000E+00  0.00000000000E+00 -0.91893088523E+03  0.91893088523E+03  0.25500000920E-02 0. -1.
    10030    2    1    2    0    0  0.00000000000E+00  0.00000000000E+00 -0.69857621310E+03  0.11392855574E+04  0.89997936405E+03 0.  0.
        5    1    3    3  502    0 -0.24846818105E+03  0.53466544620E+02 -0.81933421903E+03  0.85786115477E+03  0.46999998093E+01 0. -1.
       -5    1    3    3    0  502  0.24846818105E+03 -0.53466544620E+02  0.12075800592E+03  0.28142440261E+03  0.46999998093E+01 0.  1.
</event>
<event>
 5   0  0.9697941E-04  0.9003772E+03  0.7818609E-02  0.9425110E-01
        1   -1    0    0  501    0  0.00000000000E+00  0.00000000000E+00  0.80860812760E+03  0.80860812761E+03  0.50400001928E-02 0.  1.
       -1   -1    0    0    0  501  0.00000000000E+00  0.00000000000E+00 -0.25064031070E+03  0.25064031075E+03  0.50400001928E-02 0. -1.
    10030    2    1    2    0    0  0.00000000000E+00  0.00000000000E+00  0.55796781689E+03  0.10592484384E+04  0.90037723733E+03 0.  0.
        5    1    3    3  502    0 -0.10657339383E+03  0.41157309620E+03  0.45307221756E+03  0.62132666619E+03  0.46999998093E+01 0. -1.
       -5    1    3    3    0  502  0.10657339383E+03 -0.41157309620E+03  0.10489559933E+03  0.43792177218E+03  0.46999998093E+01 0.  1.
</event>
<event>
 5   0  0.1635686E-03  0.8991577E+03  0.7818609E-02  0.9426635E-01
        2   -1    0    0  501    0  0.00000000000E+00  0.00000000000E+00  0.19092604187E+04  0.19092604187E+04  0.25500000920E-02 0.  1.
       -2   -1    0    0    0  501  0.00000000000E+00  0.00000000000E+00 -0.10586358081E+03  0.10586358084E+03  0.25500000920E-02 0. -1.
    10030    2    1    2    0    0  0.00000000000E+00  0.00000000000E+00  0.18033968378E+04  0.20151239995E+04  0.89915770506E+03 0.  0.
        5    1    3    3  502    0  0.14787347611E+03 -0.33345366735E+03  0.31282779944E+03  0.48056345607E+03  0.46999998093E+01 0. -1.
       -5    1    3    3    0  502 -0.14787347611E+03  0.33345366735E+03  0.14905690384E+04  0.15345605434E+04  0.46999998093E+01 0.  1.
</event>
<event>
 5   0  0.9981885E-04  0.9004564E+03  0.7818609E-02  0.9425011E-01
        1   -1    0    0  501    0  0.00000000000E+00  0.00000000000E+00  0.62308954278E+03  0.62308954280E+03  0.50400001928E-02 0.  1.
       -1   -1    0    0    0  501  0.00000000000E+00  0.00000000000E+00 -0.32532312699E+03  0.32532312703E+03  0.50400001928E-02 0. -1.
    10030    2    1    2    0    0  0.00000000000E+00  0.00000000000E+00  0.29776641579E+03  0.94841266983E+03  0.90045641422E+03 0.  0.
        4    1    3    3  502    0  0.26248079771E+03 -0.31884117823E+03 -0.39964343072E+02  0.41491520546E+03  0.12699999809E+01 0. -1.
       -4    1    3    3    0  502 -0.26248079771E+03  0.31884117823E+03  0.33773075887E+03  0.53349746437E+03  0.12699999809E+01 0.  1.
</event>
<event>
 5   0  0.9697941E-04  0.9018708E+03  0.7818609E-02  0.9423246E-01
        1   -1    0    0  501    0  0.00000000000E+00  0.00000000000E+00  0.18549409622E+04  0.18549409622E+04  0.50400001928E-02 0. -1.
       -1   -1    0    0    0  501  0.00000000000E+00  0.00000000000E+00 -0.10962220716E+03  0.10962220727E+03  0.50400001928E-02 0.  1.
    10030    2    1    2    0    0  0.00000000000E+00  0.00000000000E+00  0.17453187551E+04  0.19645631695E+04  0.90187077245E+03 0.  0.
        5    1    3    3  502    0 -0.10343038232E+03 -0.39638240512E+03  0.46221059987E+03  0.61763871617E+03  0.46999998093E+01 0.  1.
       -5    1    3    3    0  502  0.10343038232E+03  0.39638240512E+03  0.12831081552E+04  0.13469244533E+04  0.46999998093E+01 0. -1.
</event>
<event>
 5   0  0.1704416E-03  0.9001206E+03  0.7818609E-02  0.9425431E-01
       -2   -1    0    0    0  501  0.00000000000E+00  0.00000000000E+00  0.17869525410E+03  0.17869525411E+03  0.25500000920E-02 0.  1.
        2   -1    0    0  501    0  0.00000000000E+00  0.00000000000E+00 -0.11335180318E+04  0.11335180318E+04  0.25500000920E-02 0. -1.
    10030    2    1    2    0    0  0.00000000000E+00  0.00000000000E+00 -0.95482277771E+03  0.13122132859E+04  0.90012064242E+03 0.  0.
        3    1    3    3  502    0  0.18768345147E+03  0.40872477891E+03 -0.50150997042E+03  0.67364180651E+03  0.10100000352E+00 0.  1.
       -3    1    3    3    0  502 -0.18768345147E+03 -0.40872477891E+03 -0.45331280730E+03  0.63857147941E+03  0.10100000352E+00 0. -1.
</event>
<event>
 5   0  0.1635686E-03  0.9014732E+03  0.7818609E-02  0.9423742E-01
        2   -1    0    0  501    0  0.00000000000E+00  0.00000000000E+00  0.28453199631E+03  0.28453199633E+03  0.25500000920E-02 0.  1.
       -2   -1    0    0    0  501  0.00000000000E+00  0.00000000000E+00 -0.71402680865E+03  0.71402680866E+03  0.25500000920E-02 0. -1.
    10030    2    1    2    0    0  0.00000000000E+00  0.00000000000E+00 -0.42949481234E+03  0.99855880498E+03  0.90147317940E+03 0.  0.
        5    1    3    3  502    0  0.22659991223E+03 -0.33531496235E+02  0.21521799672E+03  0.31434496588E+03  0.46999998093E+01 0.  1.
       -5    1    3    3    0  502 -0.22659991223E+03  0.33531496235E+02 -0.64471280905E+03  0.68421383910E+03  0.46999998093E+01 0. -1.
</event>
<event>
 5   0  0.6375625E-04  0.9047212E+03  0.7818609E-02  0.9419699E-01
        3   -1    0    0  501    0  0.00000000000E+00  0.00000000000E+00  0.62277080687E+03  0.62277081506E+03  0.10100000352E+00 0. -1.
       -3   -1    0    0    0  501  0.00000000000E+00  0.00000000000E+00 -0.32858010101E+03  0.32858011653E+03  0.10100000352E+00 0.  1.
    10030    2    1    2    0    0  0.00000000000E+00  0.00000000000E+00  0.29419070585E+03  0.95135093159E+03  0.90472118557E+03 0.  0.
        2    1    3    3  502    0  0.31652593092E+02 -0.39827569768E+03 -0.75981682703E+02  0.40669230890E+03  0.25500000920E-02 0.  1.
       -2    1    3    3    0  502 -0.31652593092E+02  0.39827569768E+03  0.37017238856E+03  0.54465862269E+03  0.25500000920E-02 0. -1.
</event>
<event>
 5   0  0.1630202E-03  0.8993840E+03  0.7818609E-02  0.9426352E-01
        2   -1    0    0  501    0  0.00000000000E+00  0.00000000000E+00  0.59727962370E+03  0.59727962371E+03  0.25500000920E-02 0. -1.
       -2   -1    0    0    0  501  0.00000000000E+00  0.00000000000E+00 -0.33857320035E+03  0.33857320036E+03  0.25500000920E-02 0.  1.
    10030    2    1    2    0    0  0.00000000000E+00  0.00000000000E+00  0.25870642335E+03  0.93585282407E+03  0.89938395295E+03 0.  0.
        4    1    3    3  502    0  0.19743157703E+03 -0.40301763921E+03  0.99577956142E+02  0.45969536366E+03  0.12699999809E+01 0.  1.
       -4    1    3    3    0  502 -0.19743157703E+03  0.40301763921E+03  0.15912846721E+03  0.47615746040E+03  0.12699999809E+01 0. -1.
</event>
<event>
 5   0  0.9223454E-04  0.8992883E+03  0.7818609E-02  0.9426472E-01
       -1   -1    0    0    0  501  0.00000000000E+00  0.00000000000E+00  0.20387757757E+03  0.20387757763E+03  0.50400001928E-02 0.  1.
        1   -1    0    0  501    0  0.00000000000E+00  0.00000000000E+00 -0.99167285620E+03  0.99167285621E+03  0.50400001928E-02 0. -1.
    10030    2    1    2    0    0  0.00000000000E+00  0.00000000000E+00 -0.78779527863E+03  0.11955504338E+04  0.89928829573E+03 0.  0.
        1    1    3    3  502    0  0.23596122767E+03 -0.70522118895E+02  0.10624209184E+03  0.26821344545E+03  0.50400001928E-02 0.  1.
       -1    1    3    3    0  502 -0.23596122767E+03  0.70522118895E+02 -0.89403737047E+03  0.92733698839E+03  0.50400001928E-02 0. -1.
</event>
<event>
 5   0  0.1007561E-03  0.9010541E+03  0.7818609E-02  0.9424265E-01
       -1   -1    0    0    0  501  0.00000000000E+00  0.00000000000E+00  0.44236891388E+03  0.44236891391E+03  0.50400001928E-02 0. -1.
        1   -1    0    0  501    0  0.00000000000E+00  0.00000000000E+00 -0.45883563244E+03  0.45883563247E+03  0.50400001928E-02 0.  1.
    10030    2    1    2    0    0  0.00000000000E+00  0.00000000000E+00 -0.16466718557E+02  0.90120454637E+03  0.90105409471E+03 0.  0.
        2    1    3    3  502    0 -0.20202858376E+03  0.38713106693E+03  0.10263914780E+03  0.44857642192E+03  0.25500000920E-02 0. -1.
       -2    1    3    3    0  502  0.20202858376E+03 -0.38713106693E+03 -0.11910586635E+03  0.45262812445E+03  0.25500000920E-02 0.  1.
</event>
<event>
 5   0  0.9981885E-04  0.8982013E+03  0.7818609E-02  0.9427833E-01
        1   -1    0    0  501    0  0.00000000000E+00  0.00000000000E+00  0.18158299509E+04  0.18158299509E+04  0.50400001928E-02 0. -1.
       -1   -1    0    0    0  501  0.00000000000E+00  0.00000000000E+00 -0.11107395098E+03  0.11107395109E+03  0.50400001928E-02 0.  1.
    10030    2    1    2    0    0  0.00000000000E+00  0.00000000000E+00  0.17047559999E+04  0.19269039020E+04  0.89820132948E+03 0.  0.
        4    1    3    3  502    0 -0.19435857474E+03  0.30327248341E+03  0.27697436140E+03  0.45438515000E+03  0.12699999809E+01 0.  1.
       -4    1    3    3    0  502  0.19435857474E+03 -0.30327248341E+03  0.14277816385E+04  0.14725187520E+04  0.12699999809E+01 0. -1.
</event>
<event>
 5   0  0.9981885E-04  0.8999560E+03  0.7818609E-02  0.9425636E-01
        1   -1    0    0  501    0  0.00000000000E+00  0.00000000000E+00  0.12818946544E+04  0.12818946544E+04  0.50400001928E-02 0.  1.
       -1   -1    0    0    0  501  0.00000000000E+00  0.00000000000E+00 -0.15795386033E+03  0.15795386041E+03  0.50400001928E-02 0. -1.
    10030    2    1    2    0    0  0.00000000000E+00  0.00000000000E+00  0.11239407941E+04  0.14398485148E+04  0.89995601953E+03 0.  0.
        4    1    3    3  502    0  0.10727275540E+03 -0.37270982525E+03  0.19692951741E+03  0.43497460341E+03  0.12699999809E+01 0. -1.
       -4    1    3    3    0  502 -0.10727275540E+03  0.37270982525E+03  0.92701127668E+03  0.10048739114E+04  0.12699999809E+01 0.  1.
</event>
<event>
 5   0  0.9223454E-04  0.8991618E+03  0.7818609E-02  0.9426630E-01
       -1   -1    0    0    0  501  0.00000000000E+00  0.00000000000E+00  0.16843497454E+03  0.16843497462E+03  0.50400001928E-02 0. -1.
        1   -1    0    0  501    0  0.00000000000E+00  0.00000000000E+00 -0.12000059392E+04  0.12000059392E+04  0.50400001928E-02 0.  1.
    10030    2    1    2    0    0  0.00000000000E+00  0.00000000000E+00 -0.10315709646E+04  0.13684409138E+04  0.89916176492E+03 0.  0.
        1    1    3    3  502    0  0.54795355836E+02 -0.24273343329E+03  0.54068581447E+02  0.25464772174E+03  0.50400001928E-02 0. -1.
       -1    1    3    3    0  502 -0.54795355836E+02  0.24273343329E+03 -0.10856395461E+04  0.11137931921E+04  0.50400001928E-02 0.  1.
</event>
<event>
 5   0  0.9697941E-04  0.9003520E+03  0.7818609E-02  0.9425141E-01
        1   -1    0    0  501    0  0.00000000000E+00  0.00000000000E+00  0.93437499870E+03  0.93437499871E+03  0.50400001928E-02 0. -1.
       -1   -1    0    0    0  501  0.00000000000E+00  0.00000000000E+00 -0.21689198627E+03  0.21689198633E+03  0.50400001928E-02 0.  1.
    10030    2    1    2    0    0  0.00000000000E+00  0.00000000000E+00  0.71748301243E+03  0.11512669850E+04  0.90035204099E+03 0.  0.
        5    1    3    3  502    0 -0.19992945950E+03 -0.15158174702E+03  0.83664756774E+03  0.87347012393E+03  0.46999998093E+01 0. -1.
       -5    1    3    3    0  502  0.19992945950E+03  0.15158174702E+03 -0.11916455531E+03  0.27779686111E+03  0.46999998093E+01 0.  1.
</event>
<event>
 5   0  0.1630202E-03  0.8990095E+03  0.7818609E-02  0.9426820E-01
       -2   -1    0    0    0  501  0.00000000000E+00  0.00000000000E+00  0.11880690369E+03  0.11880690372E+03  0.25500000920E-02 0. -1.
        2   -1    0    0  501    0  0.00000000000E+00  0.00000000000E+00 -0.17006969152E+04  0.17006969152E+04  0.25500000920E-02 0.  1.
    10030    2    1    2    0    0  0.00000000000E+00  0.00000000000E+00 -0.15818900115E+04  0.18195038189E+04  0.89900953196E+03 0.  0.
        4    1    3    3  502    0 -0.30575606577E+03 -0.31193178978E+03 -0.10057521167E+04  0.10965067927E+04  0.12699999809E+01 0. -1.
       -4    1    3    3    0  502  0.30575606577E+03  0.31193178978E+03 -0.57613789481E+03  0.72299702625E+03  0.12699999809E+01 0.  1.
</event>
<event>
 5   0  0.9697941E-04  0.9092573E+03  0.7818609E-02  0.9414083E-01
       -1   -1    0    0    0  501  0.00000000000E+00  0.00000000000E+00  0.42263013696E+03  0.42263013699E+03  0.50400001928E-02 0.  1.
        1   -1    0    0  501    0  0.00000000000E+00  0.00000000000E+00 -0.48904983448E+03  0.48904983450E+03  0.50400001928E-02 0. -1.
    10030    2    1    2    0    0  0.00000000000E+00  0.00000000000E+00 -0.66419697515E+02  0.91167997149E+03  0.90925727613E+03 0.  0.
        5    1    3    3  502    0  0.14273201043E+03 -0.37094129558E+03 -0.25446779189E+03  0.47195955195E+03  0.46999998093E+01 0. -1.
       -5    1    3    3    0  502 -0.14273201043E+03  0.37094129558E+03  0.18804809438E+03  0.43972041954E+03  0.46999998093E+01 0.  1.
</event>
<event>
 5   0  0.1630202E-03  0.8997759E+03  0.7818609E-02  0.9425862E-01
        2   -1    0    0  501    0  0.00000000000E+00  0.00000000000E+00  0.69399698237E+03  0.69399698238E+03  0.25500000920E-02 0. -1.
       -2   -1    0    0    0  501  0.00000000000E+00  0.00000000000E+00 -0.29164273433E+03  0.29164273434E+03  0.25500000920E-02 0.  1.
    10030    2    1    2    0    0  0.00000000000E+00  0.00000000000E+00  0.40235424805E+03  0.98563971672E+03  0.89977592224E+03 0.  0.
        4    1    3    3  502    0 -0.19256796140E+03  0.39289029731E+01  0.64654600842E+03  0.67462671897E+03  0.12699999809E+01 0. -1.
       -4    1    3    3    0  502  0.19256796140E+03 -0.39289029731E+01 -0.24419176037E+03  0.31101299775E+03  0.12699999809E+01 0.  1.
</event>
<event>
 5   0  0.9223454E-04  0.8998005E+03  0.7818609E-02  0.9425831E-01
        1   -1    0    0  501    0  0.00000000000E+00  0.00000000000E+00  0.11849254990E+04  0.11849254990E+04  0.50400001928E-02 0.  1.
       -1   -1    0    0    0  501  0.00000000000E+00  0.00000000000E+00 -0.17082105055E+03  0.17082105063E+03  0.50400001928E-02 0. -1.
    10030    2    1    2    0    0  0.00000000000E+00  0.00000000000E+00  0.10141044485E+04  0.13557465497E+04  0.89980046372E+03 0.  0.
        1    1    3    3  502    0 -0.55559900826E+01 -0.43547780301E+03  0.33699687680E+03  0.55067111867E+03  0.50400001928E-02 0. -1.
       -1    1    3    3    0  502  0.55559900826E+01  0.43547780301E+03  0.67710757168E+03  0.80507543099E+03  0.50400001928E-02 0.  1.
</event>
<event>
 5   0  0.6375625E-04  0.9002815E+03  0.7818609E-02  0.9425230E-01
       -3   -1    0    0    0  501  0.00000000000E+00  0.00000000000E+00  0.35047295695E+03  0.35047297151E+03  0.10100000352E+00 0.  1.
        3   -1    0    0  501    0  0.00000000000E+00  0.00000000000E+00 -0.57815214909E+03  0.57815215791E+03  0.10100000352E+00 0. -1.
    10030    2    1    2    0    0  0.00000000000E+00  0.00000000000E+00 -0.22767919214E+03  0.92862512942E+03  0.90028152067E+03 0.  0.
        3    1    3    3  502    0  0.48250726103E+02 -0.11996310914E+03  0.33090476536E+03  0.35527067718E+03  0.10100000352E+00 0.  1.
       -3    1    3    3    0  502 -0.48250726103E+02  0.11996310914E+03 -0.55858395750E+03  0.57335445224E+03  0.10100000352E+00 0. -1.
</event>
<event>
 5   0  0.1641516E-03  0.8817892E+03  0.7818609E-02  0.9448637E-01
       -2   -1    0    0    0  501  0.00000000000E+00  0.00000000000E+00  0.45425580442E+03  0.45425580443E+03  0.25500000920E-02 0. -1.
        2   -1    0    0  501    0  0.00000000000E+00  0.00000000000E+00 -0.42792638759E+03  0.42792638760E+03  0.25500000920E-02 0.  1.
    10030    2    1    2    0    0  0.00000000000E+00  0.00000000000E+00  0.26329416830E+02  0.88218219202E+03  0.88178919347E+03 0.  0.
        1    1    3    3  502    0  0.23214130060E+03 -0.77688350056E+02 -0.35369066458E+03  0.43014201075E+03  0.50400001928E-02 0.  1.
       -1    1    3    3    0  502 -0.23214130060E+03  0.77688350056E+02  0.38002008141E+03  0.45204018127E+03  0.50400001928E-02 0. -1.
</event>
<event>
 5   0  0.9321543E-04  0.8981354E+03  0.7818609E-02  0.9427915E-01
        1   -1    0    0  501    0  0.00000000000E+00  0.00000000000E+00  0.12503221222E+04  0.12503221222E+04  0.50400001928E-02 0. -1.
       -1   -1    0    0    0  501  0.00000000000E+00  0.00000000000E+00 -0.16128786090E+03  0.16128786098E+03  0.50400001928E-02 0.  1.
    10030    2    1    2    0    0  0.00000000000E+00  0.00000000000E+00  0.10890342613E+04  0.14116099832E+04  0.89813535858E+03 0.  0.
        3    1    3    3  502    0  0.43669559647E+03 -0.79173372981E+02  0.65215705800E+03  0.78884745386E+03  0.10100000352E+00 0.  1.
       -3    1    3    3    0  502 -0.43669559647E+03  0.79173372981E+02  0.43687720328E+03  0.62276252931E+03  0.10100000352E+00 0. -1.
</event>
<event>
 5   0  0.1536020E-03  0.8992357E+03  0.7818609E-02  0.9426537E-01
        2   -1    0    0  501    0  0.00000000000E+00  0.00000000000E+00  0.21696169498E+03  0.21696169499E+03  0.25500000920E-02 0.  1.
       -2   -1    0    0    0  501  0.00000000000E+00  0.00000000000E+00 -0.93175999148E+03  0.93175999148E+03  0.25500000920E-02 0. -1.
    10030    2    1    2    0    0  0.00000000000E+00  0.00000000000E+00 -0.71479829651E+03  0.11487216865E+04  0.89923573566E+03 0.  0.
        2    1    3    3  502    0 -0.25268112072E+02  0.14871176382E+03 -0.89847179802E+03  0.91104623265E+03  0.25500000920E-02 0. -1.
       -2    1    3    3    0  502  0.25268112072E+02 -0.14871176382E+03  0.18367350151E+03  0.23767545382E+03  0.25500000920E-02 0.  1.
</event>
<event>
 5   0  0.9223454E-04  0.9116998E+03  0.7818609E-02  0.9411073E-01
        1   -1    0    0  501    0  0.00000000000E+00  0.00000000000E+00  0.26220667333E+03  0.26220667338E+03  0.50400001928E-02 0. -1.
       -1   -1    0    0    0  501  0.00000000000E+00  0.00000000000E+00 -0.79250135972E+03  0.79250135974E+03  0.50400001928E-02 0.  1.
    10030    2    1    2    0    0  0.00000000000E+00  0.00000000000E+00 -0.53029468639E+03  0.10547080331E+04  0.91169983038E+03 0.  0.
        1    1    3    3  502    0  0.10897290352E+03  0.38941765378E+02  0.24493112182E+03  0.27089261573E+03  0.50400001928E-02 0. -1.
       -1    1    3    3    0  502 -0.10897290352E+03 -0.38941765378E+02 -0.77522580821E+03  0.78381541739E+03  0.50400001928E-02 0.  1.
</event>
<event>
 5   0  0.9321543E-04  0.8768094E+03  0.7818609E-02  0.9455044E-01
       -1   -1    0    0    0  501  0.00000000000E+00  0.00000000000E+00  0.44223744854E+03  0.44223744857E+03  0.50400001928E-02 0. -1.
        1   -1    0    0  501    0  0.00000000000E+00  0.00000000000E+00 -0.43460519612E+03  0.43460519615E+03  0.50400001928E-02 0.  1.
    10030    2    1    2    0    0  0.00000000000E+00  0.00000000000E+00  0.76322524226E+01  0.87684264472E+03  0.87680942759E+03 0.  0.
        3    1    3    3  502    0 -0.22691759711E+03  0.32762053387E+03 -0.17887049443E+03  0.43683117342E+03  0.10100000352E+00 0.  1.
       -3    1    3    3    0  502  0.22691759711E+03 -0.32762053387E+03  0.18650274685E+03  0.44001147130E+03  0.10100000352E+00 0. -1.
</event>
<event>
 5   0  0.9223454E-04  0.8989763E+03  0.7818609E-02  0.9426862E-01
       -1   -1    0    0    0  501  0.00000000000E+00  0.00000000000E+00  0.29031698904E+03  0.29031698909E+03  0.50400001928E-02 0.  1.
        1   -1    0    0  501    0  0.00000000000E+00  0.00000000000E+00 -0.69592758735E+03  0.69592758737E+03  0.50400001928E-02 0. -1.
    10030    2    1    2    0    0  0.00000000000E+00  0.00000000000E+00 -0.40561059831E+03  0.98624457646E+03  0.89897631066E+03 0.  0.
        1    1    3    3  502    0 -0.30836817382E+03 -0.31683525408E+03 -0.11392126860E+03  0.45656715204E+03  0.50400001928E-02 0. -1.
       -1    1    3    3    0  502  0.30836817382E+03  0.31683525408E+03 -0.29168932971E+03  0.52967742442E+03  0.50400001928E-02 0.  1.
</event>
<event>
 5   0  0.1635686E-03  0.9047073E+03  0.7818609E-02  0.9419716E-01
        2   -1    0    0  501    0  0.00000000000E+00  0.00000000000E+00  0.91522857519E+03  0.91522857519E+03  0.25500000920E-02 0. -1.
       -2   -1    0    0    0  501  0.00000000000E+00  0.00000000000E+00 -0.22357671924E+03  0.22357671926E+03  0.25500000920E-02 0.  1.
    10030    2    1    2    0    0  0.00000000000E+00  0.00000000000E+00  0.69165185595E+03  0.11388052944E+04  0.90470725035E+03 0.  0.
        5    1    3    3  502    0  0.23636638583E+03  0.38560893959E+03  0.33802676471E+03  0.56466583596E+03  0.46999998093E+01 0.  1.
       -5    1    3    3    0  502 -0.23636638583E+03 -0.38560893959E+03  0.35362509124E+03  0.57413945849E+03  0.46999998093E+01 0. -1.
</event>
<event>
 5   0  0.1704416E-03  0.8997169E+03  0.7818609E-02  0.9425935E-01
        2   -1    0    0  501    0  0.00000000000E+00  0.00000000000E+00  0.95284315783E+03  0.95284315783E+03  0.25500000920E-02 0.  1.
       -2   -1    0    0    0  501  0.00000000000E+00  0.00000000000E+00 -0.21238818129E+03  0.21238818130E+03  0.25500000920E-02 0. -1.
    10030    2    1    2    0    0  0.00000000000E+00  0.00000000000E+00  0.74045497654E+03  0.11652313391E+04  0.89971690070E+03 0.  0.
        3    1    3    3  502    0  0.17737924472E+03 -0.11462018249E+03  0.88465058842E+03  0.90950967916E+03  0.10100000352E+00 0.  1.
       -3    1    3    3    0  502 -0.17737924472E+03  0.11462018249E+03 -0.14419561188E+03  0.25572165997E+03  0.10100000352E+00 0. -1.
</event>
<event>
 5   0  0.1641516E-03  0.9001135E+03  0.7818609E-02  0.9425440E-01
       -2   -1    0    0    0  501  0.00000000000E+00  0.00000000000E+00  0.18688329556E+03  0.18688329557E+03  0.25500000920E-02 0. -1.
        2   -1    0    0  501    0  0.00000000000E+00  0.00000000000E+00 -0.10838373074E+04  0.10838373074E+04  0.25500000920E-02 0.  1.
    10030    2    1    2    0    0  0.00000000000E+00  0.00000000000E+00 -0.89695401183E+03  0.12707206030E+04  0.90011352143E+03 0.  0.
        1    1    3    3  502    0 -0.70835779876E+02 -0.60180779160E+02 -0.10701396068E+04  0.10741686143E+04  0.50400001928E-02 0.  1.
       -1    1    3    3    0  502  0.70835779876E+02  0.60180779160E+02  0.17318559500E+03  0.19655198863E+03  0.50400001928E-02 0. -1.
</event>
<event>
 5   0  0.1007561E-03  0.9013412E+03  0.7818609E-02  0.9423906E-01
       -1   -1    0    0    0  501  0.00000000000E+00  0.00000000000E+00  0.40851432898E+03  0.40851432901E+03  0.50400001928E-02 0. -1.
        1   -1    0    0  501    0  0.00000000000E+00  0.00000000000E+00 -0.49717718516E+03  0.49717718519E+03  0.50400001928E-02 0.  1.
    10030    2    1    2    0    0  0.00000000000E+00  0.00000000000E+00 -0.88662856184E+02  0.90569151420E+03  0.90134123218E+03 0.  0.
        2    1    3    3  502    0  0.39900220107E+02  0.44572499769E+03  0.92287728328E+01  0.44760247027E+03  0.25500000920E-02 0. -1.
       -2    1    3    3    0  502 -0.39900220107E+02 -0.44572499769E+03 -0.97891629017E+02  0.45808904393E+03  0.25500000920E-02 0.  1.
</event>
<event>
 5   0  0.9223454E-04  0.9005516E+03  0.7818609E-02  0.9424892E-01
       -1   -1    0    0    0  501  0.00000000000E+00  0.00000000000E+00  0.14416632507E+03  0.14416632516E+03  0.50400001928E-02 0. -1.
        1   -1    0    0  501    0  0.00000000000E+00  0.00000000000E+00 -0.14063498267E+04  0.14063498267E+04  0.50400001928E-02 0.  1.
    10030    2    1    2    0    0  0.00000000000E+00  0.00000000000E+00 -0.12621835016E+04  0.15505161519E+04  0.90055157843E+03 0.  0.
        1    1    3    3  502    0 -0.11919236076E+03 -0.13000314385E+03  0.82217371692E+02  0.19459530444E+03  0.50400001928E-02 0. -1.
       -1    1    3    3    0  502  0.11919236076E+03  0.13000314385E+03 -0.13444008733E+04  0.13559208474E+04  0.50400001928E-02 0.  1.
</event>
<event>
 5   0  0.1635686E-03  0.8997953E+03  0.7818609E-02  0.9425837E-01
       -2   -1    0    0    0  501  0.00000000000E+00  0.00000000000E+00  0.96575418392E+02  0.96575418425E+02  0.25500000920E-02 0. -1.
        2   -1    0    0  501    0  0.00000000000E+00  0.00000000000E+00 -0.20958533432E+04  0.20958533432E+04  0.25500000920E-02 0.  1.
    10030    2    1    2    0    0  0.00000000000E+00  0.00000000000E+00 -0.19992779248E+04  0.21924287616E+04  0.89979534016E+03 0.  0.
        5    1    3    3  502    0 -0.26303618017E+03  0.24357102560E+03 -0.33739412070E+03  0.49231266414E+03  0.46999998093E+01 0. -1.
       -5    1    3    3    0  502  0.26303618017E+03 -0.24357102560E+03 -0.16618838041E+04  0.17001160975E+04  0.46999998093E+01 0.  1.
</event>
<event>
 5   0  0.9321543E-04  0.9007353E+03  0.7818609E-02  0.9424663E-01
       -1   -1    0    0    0  501  0.00000000000E+00  0.00000000000E+00  0.34719765952E+03  0.34719765956E+03  0.50400001928E-02 0. -1.
        1   -1    0    0  501    0  0.00000000000E+00  0.00000000000E+00 -0.58419469836E+03  0.58419469838E+03  0.50400001928E-02 0.  1.
    10030    2    1    2    0    0  0.00000000000E+00  0.00000000000E+00 -0.23699703884E+03  0.93139235794E+03  0.90073532628E+03 0.  0.
        3    1    3    3  502    0 -0.18210191131E+03  0.34987576539E+03  0.10628679036E+03  0.40849853037E+03  0.10100000352E+00 0. -1.
       -3    1    3    3    0  502  0.18210191131E+03 -0.34987576539E+03 -0.34328382920E+03  0.52289382756E+03  0.10100000352E+00 0.  1.
</event>
<event>
 5   0  0.9981885E-04  0.9002677E+03  0.7818609E-02  0.9425247E-01
       -1   -1    0    0    0  501  0.00000000000E+00  0.00000000000E+00  0.33119266568E+03  0.33119266571E+03  0.50400001928E-02 0. -1.
        1   -1    0    0  501    0  0.00000000000E+00  0.00000000000E+00 -0.61179040943E+03  0.61179040945E+03  0.50400001928E-02 0.  1.
    10030    2    1    2    0    0  0.00000000000E+00  0.00000000000E+00 -0.28059774376E+03  0.94298307517E+03  0.90026773032E+03 0.  0.
        4    1    3    3  502    0  0.43767330165E+03  0.17122096467E+00 -0.25045994097E+03  0.50427149753E+03  0.12699999809E+01 0. -1.
       -4    1    3    3    0  502 -0.43767330165E+03 -0.17122096467E+00 -0.30137802784E+02  0.43871157763E+03  0.12699999809E+01 0.  1.
</event>
<event>
 5   0  0.1635686E-03  0.9001765E+03  0.7818609E-02  0.9425361E-01
       -2   -1    0    0    0  501  0.00000000000E+00  0.00000000000E+00  0.75057987932E+03  0.75057987932E+03  0.25500000920E-02 0.  1.
        2   -1    0    0  501    0  0.00000000000E+00  0.00000000000E+00 -0.26989724788E+03  0.26989724789E+03  0.25500000920E-02 0. -1.
    10030    2    1    2    0    0  0.00000000000E+00  0.00000000000E+00  0.48068263144E+03  0.10204771272E+04  0.90017652436E+03 0.  0.
        5    1    3    3  502    0 -0.14450134650E+03 -0.28150840699E+03  0.60315913536E+03  0.68113923314E+03  0.46999998093E+01 0.  1.
       -5    1    3    3    0  502  0.14450134650E+03  0.28150840699E+03 -0.12247650392E+03  0.33933789408E+03  0.46999998093E+01 0. -1.
</event>
<event>
 5   0  0.9697941E-04  0.9008412E+03  0.7818609E-02  0.9424531E-01
        1   -1    0    0  501    0  0.00000000000E+00  0.00000000000E+00  0.56563286205E+03  0.56563286208E+03  0.50400001928E-02 0. -1.
       -1   -1    0    0    0  501  0.00000000000E+00  0.00000000000E+00 -0.35867558464E+03  0.35867558467E+03  0.50400001928E-02 0.  1.
    10030    2    1    2    0    0  0.00000000000E+00  0.00000000000E+00  0.20695727742E+03  0.92430844675E+03  0.90084115695E+03 0.  0.
        5    1    3    3  502    0 -0.21290715075E+01  0.43557113878E+03 -0.14091954821E+02  0.43582958031E+03  0.46999998093E+01 0.  1.
       -5    1    3    3    0  502  0.21290715075E+01 -0.43557113878E+03  0.22104923224E+03  0.48847886644E+03  0.46999998093E+01 0. -1.
</event>
<event>
 5   0  0.1635686E-03  0.8991089E+03  0.7818609E-02  0.9426696E-01
        2   -1    0    0  501    0  0.00000000000E+00  0.00000000000E+00  0.19944815874E+04  0.19944815874E+04  0.25500000920E-02 0.  1.
       -2   -1    0    0    0  501  0.00000000000E+00  0.00000000000E+00 -0.10132919872E+03  0.10132919875E+03  0.25500000920E-02 0. -1.
    10030    2    1    2    0    0  0.00000000000E+00  0.00000000000E+00  0.18931523887E+04  0.20958107862E+04  0.89910893921E+03 0.  0.
        5    1    3    3  502    0  0.50548026593E+02 -0.44016408447E+03  0.76939658069E+03  0.88785849808E+03  0.46999998093E+01 0.  1.
       -5    1    3    3    0  502 -0.50548026593E+02  0.44016408447E+03  0.11237558080E+04  0.12079522881E+04  0.46999998093E+01 0. -1.
</event>
<event>
 5   0  0.1630202E-03  0.8992451E+03  0.7818609E-02  0.9426526E-01
        2   -1    0    0  501    0  0.00000000000E+00  0.00000000000E+00  0.74456647022E+03  0.74456647023E+03  0.25500000920E-02 0. -1.
       -2   -1    0    0    0  501  0.00000000000E+00  0.00000000000E+00 -0.27151430262E+03  0.27151430264E+03  0.25500000920E-02 0.  1.
    10030    2    1    2    0    0  0.00000000000E+00  0.00000000000E+00  0.47305216760E+03  0.10160807729E+04  0.89924511881E+03 0.  0.
        4    1    3    3  502    0 -0.15760130731E+03  0.92805104499E+02  0.70063276444E+03  0.72411245190E+03  0.12699999809E+01 0. -1.
       -4    1    3    3    0  502  0.15760130731E+03 -0.92805104499E+02 -0.22758059684E+03  0.29196832096E+03  0.12699999809E+01 0.  1.
</event>
<event>
 5   0  0.1641516E-03  0.8997785E+03  0.7818609E-02  0.9425858E-01
       -2   -1    0    0    0  501  0.00000000000E+00  0.00000000000E+00  0.57671009299E+03  0.57671009299E+03  0.25500000920E-02 0. -1.
        2   -1    0    0  501    0  0.00000000000E+00  0.00000000000E+00 -0.35095679984E+03  0.35095679985E+03  0.25500000920E-02 0.  1.
    10030    2    1    2    0    0  0.00000000000E+00  0.00000000000E+00  0.22575329315E+03  0.92766689284E+03  0.89977848091E+03 0.  0.
        1    1    3    3  502    0  0.31498237837E+03 -0.23908215246E+03  0.33406323996E+03  0.51766052836E+03  0.50400001928E-02 0. -1.
       -1    1    3    3    0  502 -0.31498237837E+03  0.23908215246E+03 -0.10830994681E+03  0.41000636448E+03  0.50400001928E-02 0.  1.
</event>
<event>
 5   0  0.1641516E-03  0.8997079E+03  0.7818609E-02  0.9425947E-01
       -2   -1    0    0    0  501  0.00000000000E+00  0.00000000000E+00  0.12940210513E+03  0.12940210515E+03  0.25500000920E-02 0.  1.
        2   -1    0    0  501    0  0.00000000000E+00  0.00000000000E+00 -0.15638739143E+04  0.15638739143E+04  0.25500000920E-02 0. -1.
    10030    2    1    2    0    0  0.00000000000E+00  0.00000000000E+00 -0.14344718092E+04  0.16932760194E+04  0.89970790078E+03 0.  0.
        1    1    3    3  502    0 -0.20451606610E+03  0.11445249450E+03  0.54297129324E+01  0.23442627113E+03  0.50400001928E-02 0.  1.
       -1    1    3    3    0  502  0.20451606610E+03 -0.11445249450E+03 -0.14399015221E+04  0.14588497483E+04  0.50400001928E-02 0. -1.
</event>
<event>
 5   0  0.1007561E-03  0.8997335E+03  0.7818609E-02  0.9425915E-01
       -1   -1    0    0    0  501  0.00000000000E+00  0.00000000000E+00  0.55361177572E+03  0.55361177574E+03  0.50400001928E-02 0. -1.
        1   -1    0    0  501    0  0.00000000000E+00  0.00000000000E+00 -0.36556321748E+03  0.36556321751E+03  0.50400001928E-02 0.  1.
    10030    2    1    2    0    0  0.00000000000E+00  0.00000000000E+00  0.18804855824E+03  0.91917499325E+03  0.89973352053E+03 0.  0.
        2    1    3    3  502    0  0.16601882101E+03  0.39674794123E+03 -0.40769629502E+02  0.43201081062E+03  0.25500000920E-02 0.  1.
       -2    1    3    3    0  502 -0.16601882101E+03 -0.39674794123E+03  0.22881818774E+03  0.48716418263E+03  0.25500000920E-02 0. -1.
</event>
<event>
 5   0  0.1641516E-03  0.8991581E+03  0.7818609E-02  0.9426634E-01
       -2   -1    0    0    0  501  0.00000000000E+00  0.00000000000E+00  0.11718014931E+03  0.11718014934E+03  0.25500000920E-02 0. -1.
        2   -1    0    0  501    0  0.00000000000E+00  0.00000000000E+00 -0.17248767052E+04  0.17248767052E+04  0.25500000920E-02 0.  1.
    10030    2    1    2    0    0  0.00000000000E+00  0.00000000000E+00 -0.16076965559E+04  0.18420568546E+04  0.89915807262E+03 0.  0.
        1    1    3    3  502    0  0.23028396241E+03 -0.91755242331E+02 -0.15722178684E+04  0.15916402714E+04  0.50400001928E-02 0.  1.
       -1    1    3    3    0  502 -0.23028396241E+03  0.91755242331E+02 -0.35478687552E+02  0.25041658319E+03  0.50400001928E-02 0. -1.
</event>
<event>
 5   0  0.9697941E-04  0.8996455E+03  0.7818609E-02  0.9426025E-01
       -1   -1    0    0    0  501  0.00000000000E+00  0.00000000000E+00  0.38082848493E+03  0.38082848497E+03  0.50400001928E-02 0. -1.
        1   -1    0    0  501    0  0.00000000000E+00  0.00000000000E+00 -0.53131662549E+03  0.53131662551E+03  0.50400001928E-02 0.  1.
    10030    2    1    2    0    0  0.00000000000E+00  0.00000000000E+00 -0.15048814055E+03  0.91214511048E+03  0.89964549803E+03 0.  0.
        5    1    3    3  502    0  0.12644540541E+03  0.13648822537E+02 -0.51268224083E+03  0.52824227488E+03  0.46999998093E+01 0.  1.
       -5    1    3    3    0  502 -0.12644540541E+03 -0.13648822537E+02  0.36219410028E+03  0.38390283560E+03  0.46999998093E+01 0. -1.
</event>
<event>
 5   0  0.9321543E-04  0.8986026E+03  0.7818609E-02  0.9427330E-01
       -1   -1    0    0    0  501  0.00000000000E+00  0.00000000000E+00  0.37416656844E+03  0.37416656847E+03  0.50400001928E-02 0.  1.
        1   -1    0    0  501    0  0.00000000000E+00  0.00000000000E+00 -0.53952346552E+03  0.53952346554E+03  0.50400001928E-02 0. -1.
    10030    2    1    2    0    0  0.00000000000E+00  0.00000000000E+00 -0.16535689708E+03  0.91369003401E+03  0.89860256779E+03 0.  0.
        3    1    3    3  502    0  0.38344029940E+03  0.20917089369E+03 -0.18976871867E+03  0.47622589467E+03  0.10100000352E+00 0. -1.
       -3    1    3    3    0  502 -0.38344029940E+03 -0.20917089369E+03  0.24411821595E+02  0.43746413933E+03  0.10100000352E+00 0.  1.
</event>
<event>
 5   0  0.1630202E-03  0.8991937E+03  0.7818609E-02  0.9426590E-01
        2   -1    0    0  501    0  0.00000000000E+00  0.00000000000E+00  0.18400066110E+04  0.18400066110E+04  0.25500000920E-02 0.  1.
       -2   -1    0    0    0  501  0.00000000000E+00  0.00000000000E+00 -0.10985685285E+03  0.10985685288E+03  0.25500000920E-02 0. -1.
    10030    2    1    2    0    0  0.00000000000E+00  0.00000000000E+00  0.17301497581E+04  0.19498634638E+04  0.89919371780E+03 0.  0.
        4    1    3    3  502    0  0.17560157780E+03  0.89922822334E+02 -0.10975809715E+02  0.19759582334E+03  0.12699999809E+01 0. -1.
       -4    1    3    3    0  502 -0.17560157780E+03 -0.89922822334E+02  0.17411255678E+04  0.17522676405E+04  0.12699999809E+01 0.  1.
</event>
<event>
 5   0  0.9981885E-04  0.8994505E+03  0.7818609E-02  0.9426269E-01
       -1   -1    0    0    0  501  0.00000000000E+00  0.00000000000E+00  0.18586975324E+03  0.18586975331E+03  0.50400001928E-02 0.  1.
        1   -1    0    0  501    0  0.00000000000E+00  0.00000000000E+00 -0.10881425923E+04  0.10881425923E+04  0.50400001928E-02 0. -1.
    10030    2    1    2    0    0  0.00000000000E+00  0.00000000000E+00 -0.90227283908E+03  0.12740123456E+04  0.89945048818E+03 0.  0.
        4    1    3    3  502    0  0.40146011401E+02 -0.65789008056E+02  0.17644345667E+03  0.19254558451E+03  0.12699999809E+01 0.  1.
       -4    1    3    3    0  502 -0.40146011401E+02  0.65789008056E+02 -0.10787162957E+04  0.10814667611E+04  0.12699999809E+01 0. -1.
</event>
<event>
 5   0  0.1704416E-03  0.8831661E+03  0.7818609E-02  0.9446873E-01
       -2   -1    0    0    0  501  0.00000000000E+00  0.00000000000E+00  0.85641834952E+02  0.85641834990E+02  0.25500000920E-02 0. -1.
        2   -1    0    0  501    0  0.00000000000E+00  0.00000000000E+00 -0.22768731750E+04  0.22768731750E+04  0.25500000920E-02 0.  1.
    10030    2    1    2    0    0  0.00000000000E+00  0.00000000000E+00 -0.21912313401E+04  0.23625150100E+04  0.88316611509E+03 0.  0.
        3    1    3    3  502    0 -0.36821545841E+02 -0.23237940404E+03 -0.20952391172E+04  0.21084076888E+04  0.10100000352E+00 0.  1.
       -3    1    3    3    0  502  0.36821545841E+02  0.23237940404E+03 -0.95992222898E+02  0.25410732126E+03  0.10100000352E+00 0. -1.
</event>
<event>
 5   0  0.1704416E-03  0.8979792E+03  0.7818609E-02  0.9428111E-01
        2   -1    0    0  501    0  0.00000000000E+00  0.00000000000E+00  0.29368951616E+03  0.29368951617E+03  0.25500000920E-02 0. -1.
       -2   -1    0    0    0  501  0.00000000000E+00  0.00000000000E+00 -0.68641075835E+03  0.68641075835E+03  0.25500000920E-02 0.  1.
    10030    2    1    2    0    0  0.00000000000E+00  0.00000000000E+00 -0.39272124219E+03  0.98010027452E+03  0.89797916126E+03 0.  0.
        3    1    3    3  502    0  0.19577929323E+01 -0.43203572694E+03 -0.62984899628E+02  0.43660715762E+03  0.10100000352E+00 0. -1.
       -3    1    3    3    0  502 -0.19577929323E+01  0.43203572694E+03 -0.32973634256E+03  0.54349311690E+03  0.10100000352E+00 0.  1.
</event>
<event>
 5   0  0.1704416E-03  0.8988585E+03  0.7818609E-02  0.9427009E-01
        2   -1    0    0  501    0  0.00000000000E+00  0.00000000000E+00  0.26183074237E+03  0.26183074239E+03  0.25500000920E-02 0. -1.
       -2   -1    0    0    0  501  0.00000000000E+00  0.00000000000E+00 -0.77143980126E+03  0.77143980126E+03  0.25500000920E-02 0.  1.
    10030    2    1    2    0    0  0.00000000000E+00  0.00000000000E+00 -0.50960905888E+03  0.10332705436E+04  0.89885851138E+03 0.  0.
        3    1    3    3  502    0  0.25650849228E+03  0.70145081890E+02 -0.67129490576E+03  0.72204833621E+03  0.10100000352E+00 0.  1.
       -3    1    3    3    0  502 -0.25650849228E+03 -0.70145081890E+02  0.16168584687E+03  0.31122220744E+03  0.10100000352E+00 0. -1.
</event>
<event>
 5   0  0.1007561E-03  0.8996571E+03  0.7818609E-02  0.9426010E-01
        1   -1    0    0  501    0  0.00000000000E+00  0.00000000000E+00  0.77748829561E+03  0.77748829562E+03  0.50400001928E-02 0. -1.
       -1   -1    0    0    0  501  0.00000000000E+00  0.00000000000E+00 -0.26025566007E+03  0.26025566012E+03  0.50400001928E-02 0.  1.
    10030    2    1    2    0    0  0.00000000000E+00  0.00000000000E+00  0.51723263554E+03  0.10377439557E+04  0.89965711158E+03 0.  0.
        2    1    3    3  502    0  0.68689749679E+02  0.44128301064E+03  0.32069877291E+03  0.54981513270E+03  0.25500000920E-02 0. -1.
       -2    1    3    3    0  502 -0.68689749679E+02 -0.44128301064E+03  0.19653386262E+03  0.48792882304E+03  0.25500000920E-02 0.  1.
</event>
<event>
 5   0  0.1635686E-03  0.9018716E+03  0.7818609E-02  0.9423245E-01
        2   -1    0    0  501    0  0.00000000000E+00  0.00000000000E+00  0.13237656680E+03  0.13237656683E+03  0.25500000920E-02 0.  1.
       -2   -1    0    0    0  501  0.00000000000E+00  0.00000000000E+00 -0.15360958197E+04  0.15360958197E+04  0.25500000920E-02 0. -1.
    10030    2    1    2    0    0  0.00000000000E+00  0.00000000000E+00 -0.14037192529E+04  0.16684723865E+04  0.90187158935E+03 0.  0.
        5    1    3    3  502    0  0.17773329298E+03  0.20885020576E+03 -0.13640329992E+04  0.13913359209E+04  0.46999998093E+01 0. -1.
       -5    1    3    3    0  502 -0.17773329298E+03 -0.20885020576E+03 -0.39686253758E+02  0.27713646569E+03  0.46999998093E+01 0.  1.
</event>
<event>
 5   0  0.1635686E-03  0.9011199E+03  0.7818609E-02  0.9424183E-01
        2   -1    0    0  501    0  0.00000000000E+00  0.00000000000E+00  0.39399846558E+03  0.39399846559E+03  0.25500000920E-02 0. -1.
       -2   -1    0    0    0  501  0.00000000000E+00  0.00000000000E+00 -0.51524126480E+03  0.51524126481E+03  0.25500000920E-02 0.  1.
    10030    2    1    2    0    0  0.00000000000E+00  0.00000000000E+00 -0.12124279922E+03  0.90923973039E+03  0.90111989822E+03 0.  0.
        5    1    3    3  502    0 -0.35705979213E+03 -0.14021283098E+03  0.17779324244E+03  0.42282840513E+03  0.46999998093E+01 0. -1.
       -5    1    3    3    0  502  0.35705979213E+03  0.14021283098E+03 -0.29903604167E+03  0.48641132526E+03  0.46999998093E+01 0.  1.
</event>
<event>
 5   0  0.1630202E-03  0.8989789E+03  0.7818609E-02  0.9426859E-01
        2   -1    0    0  501    0  0.00000000000E+00  0.00000000000E+00  0.13379107562E+04  0.13379107562E+04  0.25500000920E-02 0.  1.
       -2   -1    0    0    0  501  0.00000000000E+00  0.00000000000E+00 -0.15101214755E+03  0.15101214757E+03  0.25500000920E-02 0. -1.
    10030    2    1    2    0    0  0.00000000000E+00  0.00000000000E+00  0.11868986087E+04  0.14889229038E+04  0.89897892421E+03 0.  0.
        4    1    3    3  502    0  0.16906714211E+03 -0.24106594844E+03  0.11559430624E+04  0.11928547549E+04  0.12699999809E+01 0.  1.
       -4    1    3    3    0  502 -0.16906714211E+03  0.24106594844E+03  0.30955546338E+02  0.29606814889E+03  0.12699999809E+01 0. -1.
</event>
<event>
 5   0  0.1630202E-03  0.9007306E+03  0.7818609E-02  0.9424669E-01
        2   -1    0    0  501    0  0.00000000000E+00  0.00000000000E+00  0.16253438221E+03  0.16253438223E+03  0.25500000920E-02 0.  1.
       -2   -1    0    0    0  501  0.00000000000E+00  0.00000000000E+00 -0.12479139154E+04  0.12479139154E+04  0.25500000920E-02 0. -1.
    10030    2    1    2    0    0  0.00000000000E+00  0.00000000000E+00 -0.10853795332E+04  0.14104482976E+04  0.90073063077E+03 0.  0.
        4    1    3    3  502    0  0.28202277424E+03 -0.84421819055E+02 -0.10763894263E+04  0.11159210092E+04  0.12699999809E+01 0. -1.
       -4    1    3    3    0  502 -0.28202277424E+03  0.84421819055E+02 -0.89901068769E+01  0.29452728846E+03  0.12699999809E+01 0.  1.
</event>
<event>
 5   0  0.1007561E-03  0.8999931E+03  0.7818609E-02  0.9425590E-01
       -1   -1    0    0    0  501  0.00000000000E+00  0.00000000000E+00  0.19401195894E+03  0.19401195900E+03  0.50400001928E-02 0.  1.
        1   -1    0    0  501    0  0.00000000000E+00  0.00000000000E+00 -0.10437341302E+04  0.10437341302E+04  0.50400001928E-02 0. -1.
    10030    2    1    2    0    0  0.00000000000E+00  0.00000000000E+00 -0.84972217124E+03  0.12377460892E+04  0.89999311831E+03 0.  0.
        2    1    3    3  502    0 -0.23478633358E+03 -0.36314609737E+03 -0.25365512066E+03  0.50133883823E+03  0.25500000920E-02 0.  1.
       -2    1    3    3    0  502  0.23478633358E+03  0.36314609737E+03 -0.59606705058E+03  0.73640725096E+03  0.25500000920E-02 0. -1.
</event>
<event>
 5   0  0.1704416E-03  0.9001564E+03  0.7818609E-02  0.9425386E-01
       -2   -1    0    0    0  501  0.00000000000E+00  0.00000000000E+00  0.11589811495E+03  0.11589811498E+03  0.25500000920E-02 0. -1.
        2   -1    0    0  501    0  0.00000000000E+00  0.00000000000E+00 -0.17478316826E+04  0.17478316826E+04  0.25500000920E-02 0.  1.
    10030    2    1    2    0    0  0.00000000000E+00  0.00000000000E+00 -0.16319335677E+04  0.18637297976E+04  0.90015642484E+03 0.  0.
        3    1    3    3  502    0  0.55191509104E+02  0.40235201826E+03 -0.41429321226E+03  0.58014836481E+03  0.10100000352E+00 0. -1.
       -3    1    3    3    0  502 -0.55191509104E+02 -0.40235201826E+03 -0.12176403554E+04  0.12835814328E+04  0.10100000352E+00 0.  1.
</event>
<event>
 5   0  0.9981885E-04  0.8963731E+03  0.7818609E-02  0.9430127E-01
        1   -1    0    0  501    0  0.00000000000E+00  0.00000000000E+00  0.32771478176E+03  0.32771478180E+03  0.50400001928E-02 0.  1.
       -1   -1    0    0    0  501  0.00000000000E+00  0.00000000000E+00 -0.61294520649E+03  0.61294520651E+03  0.50400001928E-02 0. -1.
    10030    2    1    2    0    0  0.00000000000E+00  0.00000000000E+00 -0.28523042473E+03  0.94065998831E+03  0.89637314686E+03 0.  0.
        4    1    3    3  502    0 -0.80164270466E+01  0.35882636810E+03 -0.42429631391E+03  0.55574238676E+03  0.12699999809E+01 0. -1.
       -4    1    3    3    0  502  0.80164270466E+01 -0.35882636810E+03  0.13906588918E+03  0.38491760155E+03  0.12699999809E+01 0.  1.
</event>
<event>
 5   0  0.1641516E-03  0.8997485E+03  0.7818609E-02  0.9425896E-01
        2   -1    0    0  501    0  0.00000000000E+00  0.00000000000E+00  0.52733464053E+03  0.52733464054E+03  0.25500000920E-02 0.  1.
       -2   -1    0    0    0  501  0.00000000000E+00  0.00000000000E+00 -0.38379204514E+03  0.38379204515E+03  0.25500000920E-02 0. -1.
    10030    2    1    2    0    0  0.00000000000E+00  0.00000000000E+00  0.14354259539E+03  0.91112668569E+03  0.89974849858E+03 0.  0.
        1    1    3    3  502    0  0.19251712001E+03  0.17219489384E+03  0.44476733481E+03  0.51432665214E+03  0.50400001928E-02 0.  1.
       -1    1    3    3    0  502 -0.19251712001E+03 -0.17219489384E+03 -0.30122473942E+03  0.39680003355E+03  0.50400001928E-02 0. -1.
</event>
<event>
 5   0  0.1536020E-03  0.8976937E+03  0.7818609E-02  0.9428469E-01
        2   -1    0    0  501    0  0.00000000000E+00  0.00000000000E+00  0.36628936570E+03  0.36628936571E+03  0.25500000920E-02 0.  1.
       -2   -1    0    0    0  501  0.00000000000E+00  0.00000000000E+00 -0.55001185948E+03  0.55001185949E+03  0.25500000920E-02 0. -1.
    10030    2    1    2    0    0  0.00000000000E+00  0.00000000000E+00 -0.18372249378E+03  0.91630122520E+03  0.89769370087E+03 0.  0.
        2    1    3    3  502    0 -0.22404190538E+03 -0.32926549307E+03 -0.30316172325E+03  0.50051730315E+03  0.25500000920E-02 0. -1.
       -2    1    3    3    0  502  0.22404190538E+03  0.32926549307E+03  0.11943922947E+03  0.41578392206E+03  0.25500000920E-02 0.  1.
</event>
<event>
 5   0  0.9981885E-04  0.9022145E+03  0.7818609E-02  0.9422817E-01
       -1   -1    0    0    0  501  0.00000000000E+00  0.00000000000E+00  0.45073868961E+03  0.45073868964E+03  0.50400001928E-02 0.  1.
        1   -1    0    0  501    0  0.00000000000E+00  0.00000000000E+00 -0.45147607741E+03  0.45147607744E+03  0.50400001928E-02 0. -1.
    10030    2    1    2    0    0  0.00000000000E+00  0.00000000000E+00 -0.73738780120E+00  0.90221476708E+03  0.90221446575E+03 0.  0.
        4    1    3    3  502    0  0.12228011739E+03 -0.14824186388E+03 -0.40849631684E+03  0.45144094972E+03  0.12699999809E+01 0. -1.
       -4    1    3    3    0  502 -0.12228011739E+03  0.14824186388E+03  0.40775892903E+03  0.45077381736E+03  0.12699999809E+01 0.  1.
</event>
<event>
 5   0  0.1007561E-03  0.9023537E+03  0.7818609E-02  0.9422644E-01
        1   -1    0    0  501    0  0.00000000000E+00  0.00000000000E+00  0.49878950318E+03  0.49878950320E+03  0.50400001928E-02 0. -1.
       -1   -1    0    0    0  501  0.00000000000E+00  0.00000000000E+00 -0.40810915461E+03  0.40810915464E+03  0.50400001928E-02 0.  1.
    10030    2    1    2    0    0  0.00000000000E+00  0.00000000000E+00  0.90680348572E+02  0.90689865784E+03  0.90235372775E+03 0.  0.
        2    1    3    3  502    0  0.29596714553E+03 -0.33340366261E+03  0.11501473398E+03  0.46041605371E+03  0.25500000920E-02 0.  1.
       -2    1    3    3    0  502 -0.29596714553E+03  0.33340366261E+03 -0.24334385407E+02  0.44648260413E+03  0.25500000920E-02 0. -1.
</event>
<event>
 5   0  0.1630202E-03  0.9017626E+03  0.7818609E-02  0.9423381E-01
       -2   -1    0    0    0  501  0.00000000000E+00  0.00000000000E+00  0.21435836368E+03  0.21435836370E+03  0.25500000920E-02 0.  1.
        2   -1    0    0  501    0  0.00000000000E+00  0.00000000000E+00 -0.94838357017E+03  0.94838357017E+03  0.25500000920E-02 0. -1.
    10030    2    1    2    0    0  0.00000000000E+00  0.00000000000E+00 -0.73402520649E+03  0.11627419339E+04  0.90176260791E+03 0.  0.
        4    1    3    3  502    0 -0.47935721020E+02  0.33522470104E+03  0.16830992655E+02  0.33905505269E+03  0.12699999809E+01 0.  1.
       -4    1    3    3    0  502  0.47935721020E+02 -0.33522470104E+03 -0.75085619914E+03  0.82368688118E+03  0.12699999809E+01 0. -1.
</event>
<event>
 5   0  0.1630202E-03  0.8979966E+03  0.7818609E-02  0.9428089E-01
        2   -1    0    0  501    0  0.00000000000E+00  0.00000000000E+00  0.13776373275E+04  0.13776373276E+04  0.25500000920E-02 0.  1.
       -2   -1    0    0    0  501  0.00000000000E+00  0.00000000000E+00 -0.14633711412E+03  0.14633711414E+03  0.25500000920E-02 0. -1.
    10030    2    1    2    0    0  0.00000000000E+00  0.00000000000E+00  0.12313002134E+04  0.15239744417E+04  0.89799659428E+03 0.  0.
        4    1    3    3  502    0 -0.30063893467E+03 -0.46080657499E+00  0.11816058658E+04  0.12192530567E+04  0.12699999809E+01 0.  1.
       -4    1    3    3    0  502  0.30063893467E+03  0.46080657499E+00  0.49694347672E+02  0.30472138499E+03  0.12699999809E+01 0. -1.
</event>
<event>
 5   0  0.9981885E-04  0.9121613E+03  0.7818609E-02  0.9410506E-01
        1   -1    0    0  501    0  0.00000000000E+00  0.00000000000E+00  0.80617210242E+03  0.80617210244E+03  0.50400001928E-02 0. -1.
       -1   -1    0    0    0  501  0.00000000000E+00  0.00000000000E+00 -0.25802128596E+03  0.25802128601E+03  0.50400001928E-02 0.  1.
    10030    2    1    2    0    0  0.00000000000E+00  0.00000000000E+00  0.54815081646E+03  0.10641933885E+04  0.91216130725E+03 0.  0.
        4    1    3    3  502    0  0.10537417382E+03 -0.37380722816E+03  0.55303550294E+03  0.67578505513E+03  0.12699999809E+01 0.  1.
       -4    1    3    3    0  502 -0.10537417382E+03  0.37380722816E+03 -0.48846864771E+01  0.38840833332E+03  0.12699999809E+01 0. -1.
</event>
<event>
 5   0  0.1007561E-03  0.9010933E+03  0.7818609E-02  0.9424216E-01
        1   -1    0    0  501    0  0.00000000000E+00  0.00000000000E+00  0.71943729800E+03  0.71943729802E+03  0.50400001928E-02 0.  1.
       -1   -1    0    0    0  501  0.00000000000E+00  0.00000000000E+00 -0.28215423340E+03  0.28215423345E+03  0.50400001928E-02 0. -1.
    10030    2    1    2    0    0  0.00000000000E+00  0.00000000000E+00  0.43728306460E+03  0.10015915315E+04  0.90109329002E+03 0.  0.
        2    1    3    3  502    0 -0.46500002514E+02  0.10060850652E+03 -0.26676464131E+03  0.28887314808E+03  0.25500000920E-02 0. -1.
       -2    1    3    3    0  502  0.46500002514E+02 -0.10060850652E+03  0.70404770591E+03  0.71271838339E+03  0.25500000920E-02 0.  1.
</event>
<event>
 5   0  0.1635686E-03  0.8975436E+03  0.7818609E-02  0.9428657E-01
        2   -1    0    0  501    0  0.00000000000E+00  0.00000000000E+00  0.50403232403E+03  0.50403232403E+03  0.25500000920E-02 0.  1.
       -2   -1    0    0    0  501  0.00000000000E+00  0.00000000000E+00 -0.39956988011E+03  0.39956988012E+03  0.25500000920E-02 0. -1.
    10030    2    1    2    0    0  0.00000000000E+00  0.00000000000E+00  0.10446244392E+03  0.90360220415E+03  0.89754361519E+03 0.  0.
        5    1    3    3  502    0  0.86157541321E+02  0.93006013492E+02  0.48560274726E+03  0.50190174199E+03  0.46999998093E+01 0.  1.
       -5    1    3    3    0  502 -0.86157541321E+02 -0.93006013492E+02 -0.38114030334E+03  0.40170046216E+03  0.46999998093E+01 0. -1.
</event>
<event>
 5   0  0.1635686E-03  0.9028397E+03  0.7818609E-02  0.9422039E-01
        2   -1    0    0  501    0  0.00000000000E+00  0.00000000000E+00  0.17972123076E+04  0.17972123076E+04  0.25500000920E-02 0.  1.
       -2   -1    0    0    0  501  0.00000000000E+00  0.00000000000E+00 -0.11338664917E+03  0.11338664920E+03  0.25500000920E-02 0. -1.
    10030    2    1    2    0    0  0.00000000000E+00  0.00000000000E+00  0.16838256584E+04  0.19105989568E+04  0.90283970103E+03 0.  0.
        5    1    3    3  502    0  0.44364704569E+03  0.36203184326E+02  0.68320521990E+03  0.81542923310E+03  0.46999998093E+01 0. -1.
       -5    1    3    3    0  502 -0.44364704569E+03 -0.36203184326E+02  0.10006204385E+04  0.10951697237E+04  0.46999998093E+01 0.  1.
</event>
<event>
 5   0  0.9697941E-04  0.8985987E+03  0.7818609E-02  0.9427335E-01
        1   -1    0    0  501    0  0.00000000000E+00  0.00000000000E+00  0.97338883809E+03  0.97338883810E+03  0.50400001928E-02 0.  1.
       -1   -1    0    0    0  501  0.00000000000E+00  0.00000000000E+00 -0.20738876255E+03  0.20738876261E+03  0.50400001928E-02 0. -1.
    10030    2    1    2    0    0  0.00000000000E+00  0.00000000000E+00  0.76600007554E+03  0.11807776007E+04  0.89859870166E+03 0.  0.
        5    1    3    3  502    0  0.15398315416E+03  0.38814857468E+03  0.16518271282E+03  0.44908523290E+03  0.46999998093E+01 0. -1.
       -5    1    3    3    0  502 -0.15398315416E+03 -0.38814857468E+03  0.60081736271E+03  0.73169236782E+03  0.46999998093E+01 0.  1.
</event>
<event>
 5   0  0.1536020E-03  0.8949550E+03  0.7818609E-02  0.9431910E-01
       -2   -1    0    0    0  501  0.00000000000E+00  0.00000000000E+00  0.86370953243E+02  0.86370953281E+02  0.25500000920E-02 0. -1.
        2   -1    0    0  501    0  0.00000000000E+00  0.00000000000E+00 -0.23183271788E+04  0.23183271788E+04  0.25500000920E-02 0.  1.
    10030    2    1    2    0    0  0.00000000000E+00  0.00000000000E+00 -0.22319562256E+04  0.24046981321E+04  0.89495503443E+03 0.  0.
        2    1    3    3  502    0 -0.12657855272E+03 -0.33540697373E+03 -0.18355395250E+04  0.18702206597E+04  0.25500000920E-02 0.  1.
       -2    1    3    3    0  502  0.12657855272E+03  0.33540697373E+03 -0.39641670059E+03  0.53447747244E+03  0.25500000920E-02 0. -1.
</event>
<event>
 5   0  0.9981885E-04  0.8981006E+03  0.7818609E-02  0.9427959E-01
        1   -1    0    0  501    0  0.00000000000E+00  0.00000000000E+00  0.73376117634E+03  0.73376117636E+03  0.50400001928E-02 0. -1.
       -1   -1    0    0    0  501  0.00000000000E+00  0.00000000000E+00 -0.27481175185E+03  0.27481175190E+03  0.50400001928E-02 0.  1.
    10030    2    1    2    0    0  0.00000000000E+00  0.00000000000E+00  0.45894942449E+03  0.10085729283E+04  0.89810064991E+03 0.  0.
        4    1    3    3  502    0  0.40134537413E+03 -0.16575025985E+02  0.45489360431E+03  0.60686295402E+03  0.12699999809E+01 0. -1.
       -4    1    3    3    0  502 -0.40134537413E+03  0.16575025985E+02  0.40558201788E+01  0.40170997423E+03  0.12699999809E+01 0.  1.
</event>
<event>
 5   0  0.1704416E-03  0.8964208E+03  0.7818609E-02  0.9430067E-01
        2   -1    0    0  501    0  0.00000000000E+00  0.00000000000E+00  0.56792741321E+03  0.56792741321E+03  0.25500000920E-02 0. -1.
       -2   -1    0    0    0  501  0.00000000000E+00  0.00000000000E+00 -0.35372932287E+03  0.35372932288E+03  0.25500000920E-02 0.  1.
    10030    2    1    2    0    0  0.00000000000E+00  0.00000000000E+00  0.21419809034E+03  0.92165673609E+03  0.89642083715E+03 0.  0.
        3    1    3    3  502    0 -0.44612384325E+03 -0.19457193511E+02  0.67445116989E+02  0.45161257722E+03  0.10100000352E+00 0. -1.
       -3    1    3    3    0  502  0.44612384325E+03  0.19457193511E+02  0.14675297335E+03  0.47004415887E+03  0.10100000352E+00 0.  1.
</event>
<event>
 5   0  0.6375625E-04  0.8997802E+03  0.7818609E-02  0.9425856E-01
       -4   -1    0    0    0  501  0.00000000000E+00  0.00000000000E+00  0.11422250761E+04  0.11422257821E+04  0.12699999809E+01 0. -1.
        4   -1    0    0  501    0  0.00000000000E+00  0.00000000000E+00 -0.17719594475E+03  0.17720049587E+03  0.12699999809E+01 0.  1.
    10030    2    1    2    0    0  0.00000000000E+00  0.00000000000E+00  0.96502913133E+03  0.13194262780E+04  0.89978023913E+03 0.  0.
        2    1    3    3  502    0  0.36949528437E+03 -0.45219862494E+02  0.85299003990E+03  0.93067911189E+03  0.25500000920E-02 0. -1.
       -2    1    3    3    0  502 -0.36949528437E+03  0.45219862494E+02  0.11203909144E+03  0.38874716610E+03  0.25500000920E-02 0.  1.
</event>
<event>
 5   0  0.1536020E-03  0.9001660E+03  0.7818609E-02  0.9425374E-01
        2   -1    0    0  501    0  0.00000000000E+00  0.00000000000E+00  0.17771197145E+04  0.17771197146E+04  0.25500000920E-02 0.  1.
       -2   -1    0    0    0  501  0.00000000000E+00  0.00000000000E+00 -0.11399047821E+03  0.11399047824E+03  0.25500000920E-02 0. -1.
    10030    2    1    2    0    0  0.00000000000E+00  0.00000000000E+00  0.16631292363E+04  0.18911101928E+04  0.90016604275E+03 0.  0.
        2    1    3    3  502    0  0.37310455636E+02  0.14436194780E+03  0.17237251208E+04  0.17301620543E+04  0.25500000920E-02 0.  1.
       -2    1    3    3    0  502 -0.37310455636E+02 -0.14436194780E+03 -0.60595884439E+02  0.16094813851E+03  0.25500000920E-02 0. -1.
</event>
<event>
 5   0  0.9321543E-04  0.8910142E+03  0.7818609E-02  0.9436884E-01
        1   -1    0    0  501    0  0.00000000000E+00  0.00000000000E+00  0.43622282868E+03  0.43622282871E+03  0.50400001928E-02 0.  1.
       -1   -1    0    0    0  501  0.00000000000E+00  0.00000000000E+00 -0.45498893396E+03  0.45498893399E+03  0.50400001928E-02 0. -1.
    10030    2    1    2    0    0  0.00000000000E+00  0.00000000000E+00 -0.18766105280E+02  0.89121176270E+03  0.89101416334E+03 0.  0.
        3    1    3    3  502    0 -0.24500729525E+03 -0.30121657876E+03 -0.22787267259E+03  0.45020658276E+03  0.10100000352E+00 0. -1.
       -3    1    3    3    0  502  0.24500729525E+03  0.30121657876E+03  0.20910656731E+03  0.44100517994E+03  0.10100000352E+00 0.  1.
</event>
<event>
 5   0  0.1536020E-03  0.9027796E+03  0.7818609E-02  0.9422113E-01
       -2   -1    0    0    0  501  0.00000000000E+00  0.00000000000E+00  0.34932673404E+03  0.34932673405E+03  0.25500000920E-02 0.  1.
        2   -1    0    0  501    0  0.00000000000E+00  0.00000000000E+00 -0.58327266487E+03  0.58327266488E+03  0.25500000920E-02 0. -1.
    10030    2    1    2    0    0  0.00000000000E+00  0.00000000000E+00 -0.23394593084E+03  0.93259939892E+03  0.90277956352E+03 0.  0.
        2    1    3    3  502    0  0.14397490185E+03 -0.20261529282E+03 -0.50620918112E+03  0.56394101137E+03  0.25500000920E-02 0. -1.
       -2    1    3    3    0  502 -0.14397490185E+03  0.20261529282E+03  0.27226325028E+03  0.36865838755E+03  0.25500000920E-02 0.  1.
</event>
<event>
 5   0  0.9697941E-04  0.8997707E+03  0.7818609E-02  0.9425868E-01
       -1   -1    0    0    0  501  0.00000000000E+00  0.00000000000E+00  0.44712783840E+03  0.44712783843E+03  0.50400001928E-02 0.  1.
        1   -1    0    0  501    0  0.00000000000E+00  0.00000000000E+00 -0.45265988220E+03  0.45265988223E+03  0.50400001928E-02 0. -1.
    10030    2    1    2    0    0  0.00000000000E+00  0.00000000000E+00 -0.55320437997E+01  0.89978772066E+03  0.89977071453E+03 0.  0.
        5    1    3    3  502    0 -0.40677409081E+03  0.12174583114E+03 -0.15138759259E+03  0.45080761034E+03  0.46999998093E+01 0. -1.
       -5    1    3    3    0  502  0.40677409081E+03 -0.12174583114E+03  0.14585554879E+03  0.44898011032E+03  0.46999998093E+01 0.  1.
</event>
<event>
 5   0  0.9981885E-04  0.9033804E+03  0.7818609E-02  0.9421366E-01
       -1   -1    0    0    0  501  0.00000000000E+00  0.00000000000E+00  0.40067804614E+03  0.40067804617E+03  0.50400001928E-02 0.  1.
        1   -1    0    0  501    0  0.00000000000E+00  0.00000000000E+00 -0.50919696082E+03  0.50919696085E+03  0.50400001928E-02 0. -1.
    10030    2    1    2    0    0  0.00000000000E+00  0.00000000000E+00 -0.10851891468E+03  0.90987500702E+03  0.90338041464E+03 0.  0.
        4    1    3    3  502    0  0.92152535906E+02 -0.23955021820E+03 -0.42861155841E+03  0.49958570618E+03  0.12699999809E+01 0. -1.
       -4    1    3    3    0  502 -0.92152535906E+02  0.23955021820E+03  0.32009264373E+03  0.41028930084E+03  0.12699999809E+01 0.  1.
</event>
<event>
 5   0  0.1704416E-03  0.9191953E+03  0.7818609E-02  0.9401899E-01
        2   -1    0    0  501    0  0.00000000000E+00  0.00000000000E+00  0.91584303213E+03  0.91584303214E+03  0.25500000920E-02 0. -1.
       -2   -1    0    0    0  501  0.00000000000E+00  0.00000000000E+00 -0.23063996386E+03  0.23063996388E+03  0.25500000920E-02 0.  1.
    10030    2    1    2    0    0  0.00000000000E+00  0.00000000000E+00  0.68520306827E+03  0.11464829960E+04  0.91919530861E+03 0.  0.
        3    1    3    3  502    0 -0.27579210263E+03 -0.63656626750E+02  0.79423754722E+03  0.84316471796E+03  0.10100000352E+00 0. -1.
       -3    1    3    3    0  502  0.27579210263E+03  0.63656626750E+02 -0.10903447895E+03  0.30331827805E+03  0.10100000352E+00 0.  1.
</event>
<event>
 5   0  0.9321543E-04  0.8996042E+03  0.7818609E-02  0.9426076E-01
       -1   -1    0    0    0  501  0.00000000000E+00  0.00000000000E+00  0.13421547313E+03  0.13421547323E+03  0.50400001928E-02 0.  1.
        1   -1    0    0  501    0  0.00000000000E+00  0.00000000000E+00 -0.15074412063E+04  0.15074412063E+04  0.50400001928E-02 0. -1.
    10030    2    1    2    0    0  0.00000000000E+00  0.00000000000E+00 -0.13732257332E+04  0.16416566795E+04  0.89960421254E+03 0.  0.
        3    1    3    3  502    0  0.22054604571E+03  0.36831819824E+03 -0.44162461602E+03  0.61589866465E+03  0.10100000352E+00 0.  1.
       -3    1    3    3    0  502 -0.22054604571E+03 -0.36831819824E+03 -0.93160111714E+03  0.10257580149E+04  0.10100000352E+00 0. -1.
</event>
<event>
 5   0  0.1007561E-03  0.9007838E+03  0.7818609E-02  0.9424602E-01
       -1   -1    0    0    0  501  0.00000000000E+00  0.00000000000E+00  0.17571475847E+03  0.17571475855E+03  0.50400001928E-02 0.  1.
        1   -1    0    0  501    0  0.00000000000E+00  0.00000000000E+00 -0.11544439595E+04  0.11544439596E+04  0.50400001928E-02 0. -1.
    10030    2    1    2    0    0  0.00000000000E+00  0.00000000000E+00 -0.97872920107E+03  0.13301587181E+04  0.90078375114E+03 0.  0.
        2    1    3    3  502    0  0.10403860774E+03 -0.31751627619E+03 -0.93533850194E+03  0.99322642472E+03  0.25500000920E-02 0. -1.
       -2    1    3    3    0  502 -0.10403860774E+03  0.31751627619E+03 -0.43390699130E+02  0.33693229338E+03  0.25500000920E-02 0.  1.
</event>
<event>
 5   0  0.1007561E-03  0.9026108E+03  0.7818609E-02  0.9422324E-01
        1   -1    0    0  501    0  0.00000000000E+00  0.00000000000E+00  0.35025617104E+03  0.35025617108E+03  0.50400001928E-02 0.  1.
       -1   -1    0    0    0  501  0.00000000000E+00  0.00000000000E+00 -0.58150740680E+03  0.58150740682E+03  0.50400001928E-02 0. -1.
    10030    2    1    2    0    0  0.00000000000E+00  0.00000000000E+00 -0.23125123576E+03  0.93176357790E+03  0.90261078603E+03 0.  0.
        2    1    3    3  502    0  0.60510773034E+02  0.11578702788E+03  0.33030856971E+03  0.35520689846E+03  0.25500000920E-02 0.  1.
       -2    1    3    3    0  502 -0.60510773034E+02 -0.11578702788E+03 -0.56155980548E+03  0.57655667944E+03  0.25500000920E-02 0. -1.
</event>
<event>
 5   0  0.1630202E-03  0.8998533E+03  0.7818609E-02  0.9425765E-01
       -2   -1    0    0    0  501  0.00000000000E+00  0.00000000000E+00  0.46487261570E+03  0.46487261571E+03  0.25500000920E-02 0. -1.
        2   -1    0    0  501    0  0.00000000000E+00  0.00000000000E+00 -0.43546124398E+03  0.43546124399E+03  0.25500000920E-02 0.  1.
    10030    2    1    2    0    0  0.00000000000E+00  0.00000000000E+00  0.29411371718E+02  0.90033385970E+03  0.89985333812E+03 0.  0.
        4    1    3    3  502    0  0.31431050348E+03 -0.12518374997E+03  0.31146199693E+03  0.45986112282E+03  0.12699999809E+01 0. -1.
       -4    1    3    3    0  502 -0.31431050348E+03  0.12518374997E+03 -0.28205062521E+03  0.44047273688E+03  0.12699999809E+01 0.  1.
</event>
<event>
 5   0  0.9981885E-04  0.8994540E+03  0.7818609E-02  0.9426264E-01
        1   -1    0    0  501    0  0.00000000000E+00  0.00000000000E+00  0.91090881089E+03  0.91090881090E+03  0.50400001928E-02 0. -1.
       -1   -1    0    0    0  501  0.00000000000E+00  0.00000000000E+00 -0.22203581113E+03  0.22203581118E+03  0.50400001928E-02 0.  1.
    10030    2    1    2    0    0  0.00000000000E+00  0.00000000000E+00  0.68887299976E+03  0.11329446221E+04  0.89945400489E+03 0.  0.
        4    1    3    3  502    0  0.43542744195E+03  0.93719143241E+02  0.26605357881E+03  0.51881254293E+03  0.12699999809E+01 0. -1.
       -4    1    3    3    0  502 -0.43542744195E+03 -0.93719143241E+02  0.42281942096E+03  0.61413207915E+03  0.12699999809E+01 0.  1.
</event>
<event>
 5   0  0.9223454E-04  0.9012380E+03  0.7818609E-02  0.9424035E-01
       -1   -1    0    0    0  501  0.00000000000E+00  0.00000000000E+00  0.96052586688E+03  0.96052586689E+03  0.50400001928E-02 0. -1.
        1   -1    0    0  501    0  0.00000000000E+00  0.00000000000E+00 -0.21140240898E+03  0.21140240904E+03  0.50400001928E-02 0.  1.
    10030    2    1    2    0    0  0.00000000000E+00  0.00000000000E+00  0.74912345790E+03  0.11719282759E+04  0.90123799785E+03 0.  0.
        1    1    3    3  502    0 -0.25610425834E+03  0.67928865776E+02  0.84852912115E+03  0.88893497592E+03  0.50400001928E-02 0. -1.
       -1    1    3    3    0  502  0.25610425834E+03 -0.67928865776E+02 -0.99405663249E+02  0.28299330002E+03  0.50400001928E-02 0.  1.
</event>
<event>
 5   0  0.1635686E-03  0.9004495E+03  0.7818609E-02  0.9425020E-01
       -2   -1    0    0    0  501  0.00000000000E+00  0.00000000000E+00  0.21597502094E+03  0.21597502096E+03  0.25500000920E-02 0. -1.
        2   -1    0    0  501    0  0.00000000000E+00  0.00000000000E+00 -0.93854518898E+03  0.93854518899E+03  0.25500000920E-02 0.  1.
    10030    2    1    2    0    0  0.00000000000E+00  0.00000000000E+00 -0.72257016804E+03  0.11545202099E+04  0.90044948077E+03 0.  0.
        5    1    3    3  502    0 -0.18057251803E+03  0.30926630767E+03 -0.11492352454E+02  0.35833817476E+03  0.46999998093E+01 0. -1.
       -5    1    3    3    0  502  0.18057251803E+03 -0.30926630767E+03 -0.71107781559E+03  0.79618203518E+03  0.46999998093E+01 0.  1.
</event>
<event>
 5   0  0.1641516E-03  0.9005625E+03  0.7818609E-02  0.9424879E-01
        2   -1    0    0  501    0  0.00000000000E+00  0.00000000000E+00  0.15704085329E+03  0.15704085331E+03  0.25500000920E-02 0.  1.
       -2   -1    0    0    0  501  0.00000000000E+00  0.00000000000E+00 -0.12910857253E+04  0.12910857253E+04  0.25500000920E-02 0. -1.
    10030    2    1    2    0    0  0.00000000000E+00  0.00000000000E+00 -0.11340448720E+04  0.14481265786E+04  0.90056249977E+03 0.  0.
        1    1    3    3  502    0  0.32204648586E+03  0.24813037882E+03 -0.87829287192E+03  0.96782281067E+03  0.50400001928E-02 0. -1.
       -1    1    3    3    0  502 -0.32204648586E+03 -0.24813037882E+03 -0.25575200010E+03  0.48030376797E+03  0.50400001928E-02 0.  1.
</event>
<event>
 5   0  0.1641516E-03  0.9028172E+03  0.7818609E-02  0.9422067E-01
        2   -1    0    0  501    0  0.00000000000E+00  0.00000000000E+00  0.82335115418E+03  0.82335115419E+03  0.25500000920E-02 0. -1.
       -2   -1    0    0    0  501  0.00000000000E+00  0.00000000000E+00 -0.24748826180E+03  0.24748826181E+03  0.25500000920E-02 0.  1.
    10030    2    1    2    0    0  0.00000000000E+00  0.00000000000E+00  0.57586289239E+03  0.10708394160E+04  0.90281724841E+03 0.  0.
        1    1    3    3  502    0 -0.42034307370E+03 -0.13900521698E+03  0.18345286522E+03  0.47923449765E+03  0.50400001928E-02 0.  1.
       -1    1    3    3    0  502  0.42034307370E+03  0.13900521698E+03  0.39241002717E+03  0.59160491834E+03  0.50400001928E-02 0. -1.
</event>
<event>
 5   0  0.9321543E-04  0.8992442E+03  0.7818609E-02  0.9426527E-01
       -1   -1    0    0    0  501  0.00000000000E+00  0.00000000000E+00  0.13495950669E+03  0.13495950678E+03  0.50400001928E-02 0.  1.
        1   -1    0    0  501    0  0.00000000000E+00  0.00000000000E+00 -0.14979311819E+04  0.14979311819E+04  0.50400001928E-02 0. -1.
    10030    2    1    2    0    0  0.00000000000E+00  0.00000000000E+00 -0.13629716753E+04  0.16328906887E+04  0.89924424591E+03 0.  0.
        3    1    3    3  502    0  0.33290733386E+03 -0.17411921617E+03 -0.23294846112E+03  0.44205179574E+03  0.10100000352E+00 0.  1.
       -3    1    3    3    0  502 -0.33290733386E+03  0.17411921617E+03 -0.11300232141E+04  0.11908388930E+04  0.10100000352E+00 0. -1.
</event>
<event>
 5   0  0.1635686E-03  0.8999120E+03  0.7818609E-02  0.9425691E-01
        2   -1    0    0  501    0  0.00000000000E+00  0.00000000000E+00  0.12327295483E+04  0.12327295483E+04  0.25500000920E-02 0.  1.
       -2   -1    0    0    0  501  0.00000000000E+00  0.00000000000E+00 -0.16423749163E+03  0.16423749165E+03  0.25500000920E-02 0. -1.
    10030    2    1    2    0    0  0.00000000000E+00  0.00000000000E+00  0.10684920566E+04  0.13969670399E+04  0.89991201545E+03 0.  0.
        5    1    3    3  502    0  0.20972855301E+03  0.29055251643E+03  0.11187477854E+03  0.37542627349E+03  0.46999998093E+01 0. -1.
       -5    1    3    3    0  502 -0.20972855301E+03 -0.29055251643E+03  0.95661727811E+03  0.10215407665E+04  0.46999998093E+01 0.  1.
</event>
<event>
 5   0  0.1536020E-03  0.8995054E+03  0.7818609E-02  0.9426200E-01
        2   -1    0    0  501    0  0.00000000000E+00  0.00000000000E+00  0.14266974739E+03  0.14266974741E+03  0.25500000920E-02 0. -1.
       -2   -1    0    0    0  501  0.00000000000E+00  0.00000000000E+00 -0.14178022172E+04  0.14178022173E+04  0.25500000920E-02 0.  1.
    10030    2    1    2    0    0  0.00000000000E+00  0.00000000000E+00 -0.12751324699E+04  0.15604719647E+04  0.89950538454E+03 0.  0.
        2    1    3    3  502    0  0.11083453951E+03 -0.87513151660E+02 -0.13783420447E+04  0.13855575193E+04  0.25500000920E-02 0.  1.
       -2    1    3    3    0  502 -0.11083453951E+03  0.87513151660E+02  0.10320957488E+03  0.17491444541E+03  0.25500000920E-02 0. -1.
</event>
<event>
 5   0  0.9697941E-04  0.8973576E+03  0.7818609E-02  0.9428891E-01
       -1   -1    0    0    0  501  0.00000000000E+00  0.00000000000E+00  0.12506890113E+03  0.12506890123E+03  0.50400001928E-02 0.  1.
        1   -1    0    0  501    0  0.00000000000E+00  0.00000000000E+00 -0.16096141910E+04  0.16096141910E+04  0.50400001928E-02 0. -1.
    10030    2    1    2    0    0  0.00000000000E+00  0.00000000000E+00 -0.14845452899E+04  0.17346830923E+04  0.89735762817E+03 0.  0.
        5    1    3    3  502    0  0.21781038285E+03  0.92423351931E+02 -0.14791548653E+04  0.14979668369E+04  0.46999998093E+01 0. -1.
       -5    1    3    3    0  502 -0.21781038285E+03 -0.92423351931E+02 -0.53904245350E+01  0.23671625532E+03  0.46999998093E+01 0.  1.
</event>
<event>
 5   0  0.1641516E-03  0.8984009E+03  0.7818609E-02  0.9427583E-01
       -2   -1    0    0    0  501  0.00000000000E+00  0.00000000000E+00  0.31076042182E+03  0.31076042183E+03  0.25500000920E-02 0.  1.
        2   -1    0    0  501    0  0.00000000000E+00  0.00000000000E+00 -0.64931377393E+03  0.64931377393E+03  0.25500000920E-02 0. -1.
    10030    2    1    2    0    0  0.00000000000E+00  0.00000000000E+00 -0.33855335210E+03  0.96007419576E+03  0.89840085104E+03 0.  0.
        1    1    3    3  502    0 -0.23297584682E+03  0.37360873668E+03 -0.74174282734E+02  0.44650090433E+03  0.50400001928E-02 0.  1.
       -1    1    3    3    0  502  0.23297584682E+03 -0.37360873668E+03 -0.26437906937E+03  0.51357329143E+03  0.50400001928E-02 0. -1.
</event>
<event>
 5   0  0.1630202E-03  0.8995967E+03  0.7818609E-02  0.9426086E-01
        2   -1    0    0  501    0  0.00000000000E+00  0.00000000000E+00  0.68329933564E+03  0.68329933565E+03  0.25500000920E-02 0. -1.
       -2   -1    0    0    0  501  0.00000000000E+00  0.00000000000E+00 -0.29609067969E+03  0.29609067970E+03  0.25500000920E-02 0.  1.
    10030    2    1    2    0    0  0.00000000000E+00  0.00000000000E+00  0.38720865595E+03  0.97939001535E+03  0.89959672016E+03 0.  0.
        4    1    3    3  502    0  0.25435066204E+03 -0.60127726163E+02 -0.20493585594E+03  0.33212937341E+03  0.12699999809E+01 0.  1.
       -4    1    3    3    0  502 -0.25435066204E+03  0.60127726163E+02  0.59214451189E+03  0.64726064194E+03  0.12699999809E+01 0. -1.
</event>
<event>
 5   0  0.1641516E-03  0.8928571E+03  0.7818609E-02  0.9434555E-01
        2   -1    0    0  501    0  0.00000000000E+00  0.00000000000E+00  0.17530956430E+04  0.17530956430E+04  0.25500000920E-02 0. -1.
       -2   -1    0    0    0  501  0.00000000000E+00  0.00000000000E+00 -0.11368372121E+03  0.11368372124E+03  0.25500000920E-02 0.  1.
    10030    2    1    2    0    0  0.00000000000E+00  0.00000000000E+00  0.16394119218E+04  0.18667793642E+04  0.89285706890E+03 0.  0.
        1    1    3    3  502    0  0.19747542123E+03 -0.75163145885E+01 -0.17252366960E+02  0.19837006116E+03  0.50400001928E-02 0.  1.
       -1    1    3    3    0  502 -0.19747542123E+03  0.75163145885E+01  0.16566642887E+04  0.16684093031E+04  0.50400001928E-02 0. -1.
</event>
<event>
 5   0  0.1536020E-03  0.9005849E+03  0.7818609E-02  0.9424851E-01
       -2   -1    0    0    0  501  0.00000000000E+00  0.00000000000E+00  0.22953408670E+03  0.22953408672E+03  0.25500000920E-02 0.  1.
        2   -1    0    0  501    0  0.00000000000E+00  0.00000000000E+00 -0.88336887907E+03  0.88336887908E+03  0.25500000920E-02 0. -1.
    10030    2    1    2    0    0  0.00000000000E+00  0.00000000000E+00 -0.65383479237E+03  0.11129029658E+04  0.90058485195E+03 0.  0.
        2    1    3    3  502    0 -0.20925065650E+03 -0.38523702398E+03 -0.45396527639E+03  0.63109260340E+03  0.25500000920E-02 0. -1.
       -2    1    3    3    0  502  0.20925065650E+03  0.38523702398E+03 -0.19986951599E+03  0.48181036240E+03  0.25500000920E-02 0.  1.
</event>
<event>
 5   0  0.1007561E-03  0.9001243E+03  0.7818609E-02  0.9425426E-01
        1   -1    0    0  501    0  0.00000000000E+00  0.00000000000E+00  0.92071723486E+03  0.92071723487E+03  0.50400001928E-02 0.  1.
       -1   -1    0    0    0  501  0.00000000000E+00  0.00000000000E+00 -0.21999799245E+03  0.21999799251E+03  0.50400001928E-02 0. -1.
    10030    2    1    2    0    0  0.00000000000E+00  0.00000000000E+00  0.70071924240E+03  0.11407152274E+04  0.90012430992E+03 0.  0.
        2    1    3    3  502    0  0.16532628909E+03 -0.67247710030E+02 -0.17323196885E+03  0.24872545388E+03  0.25500000920E-02 0. -1.
       -2    1    3    3    0  502 -0.16532628909E+03  0.67247710030E+02  0.87395121126E+03  0.89198977350E+03  0.25500000920E-02 0.  1.
</event>
<event>
 5   0  0.1007561E-03  0.9025722E+03  0.7818609E-02  0.9422372E-01
        1   -1    0    0  501    0  0.00000000000E+00  0.00000000000E+00  0.85539736006E+03  0.85539736007E+03  0.50400001928E-02 0.  1.
       -1   -1    0    0    0  501  0.00000000000E+00  0.00000000000E+00 -0.23808715488E+03  0.23808715493E+03  0.50400001928E-02 0. -1.
    10030    2    1    2    0    0  0.00000000000E+00  0.00000000000E+00  0.61731020518E+03  0.10934845150E+04  0.90257215508E+03 0.  0.
        2    1    3    3  502    0  0.41560065671E+03  0.12713403645E+03  0.16140600914E+03  0.46361500070E+03  0.25500000920E-02 0. -1.
       -2    1    3    3    0  502 -0.41560065671E+03 -0.12713403645E+03  0.45590419604E+03  0.62986951431E+03  0.25500000920E-02 0.  1.
</event>
<event>
 5   0  0.1641516E-03  0.8994325E+03  0.7818609E-02  0.9426291E-01
       -2   -1    0    0    0  501  0.00000000000E+00  0.00000000000E+00  0.99812756019E+02  0.99812756052E+02  0.25500000920E-02 0.  1.
        2   -1    0    0  501    0  0.00000000000E+00  0.00000000000E+00 -0.20262411075E+04  0.20262411075E+04  0.25500000920E-02 0. -1.
    10030    2    1    2    0    0  0.00000000000E+00  0.00000000000E+00 -0.19264283515E+04  0.21260538636E+04  0.89943250850E+03 0.  0.
        1    1    3    3  502    0 -0.40913355429E+03  0.24426882463E+02 -0.52570694322E+03  0.66659937594E+03  0.50400001928E-02 0.  1.
       -1    1    3    3    0  502  0.40913355429E+03 -0.24426882463E+02 -0.14007214083E+04  0.14594544876E+04  0.50400001928E-02 0. -1.
</event>
<event>
 5   0  0.9223454E-04  0.8981402E+03  0.7818609E-02  0.9427909E-01
       -1   -1    0    0    0  501  0.00000000000E+00  0.00000000000E+00  0.16058493914E+03  0.16058493921E+03  0.50400001928E-02 0.  1.
        1   -1    0    0  501    0  0.00000000000E+00  0.00000000000E+00 -0.12558087275E+04  0.12558087275E+04  0.50400001928E-02 0. -1.
    10030    2    1    2    0    0  0.00000000000E+00  0.00000000000E+00 -0.10952237884E+04  0.14163936667E+04  0.89814022988E+03 0.  0.
        1    1    3    3  502    0  0.20072724426E+03  0.36523604690E+03 -0.28384140452E+03  0.50423678911E+03  0.50400001928E-02 0. -1.
       -1    1    3    3    0  502 -0.20072724426E+03 -0.36523604690E+03 -0.81138238385E+03  0.91215687762E+03  0.50400001928E-02 0.  1.
</event>
<event>
 5   0  0.9697941E-04  0.9008332E+03  0.7818609E-02  0.9424541E-01
       -1   -1    0    0    0  501  0.00000000000E+00  0.00000000000E+00  0.44373961596E+03  0.44373961599E+03  0.50400001928E-02 0.  1.
        1   -1    0    0  501    0  0.00000000000E+00  0.00000000000E+00 -0.45719401269E+03  0.45719401272E+03  0.50400001928E-02 0. -1.
    10030    2    1    2    0    0  0.00000000000E+00  0.00000000000E+00 -0.13454396735E+02  0.90093362871E+03  0.90083316022E+03 0.  0.
        5    1    3    3  502    0 -0.63054219220E+02  0.44588319407E+03  0.13575341147E+01  0.45034607827E+03  0.46999998093E+01 0. -1.
       -5    1    3    3    0  502  0.63054219220E+02 -0.44588319407E+03 -0.14811930849E+02  0.45058755044E+03  0.46999998093E+01 0.  1.
</event>
<event>
 5   0  0.1641516E-03  0.9011931E+03  0.7818609E-02  0.9424091E-01
        2   -1    0    0  501    0  0.00000000000E+00  0.00000000000E+00  0.23821154080E+03  0.23821154081E+03  0.25500000920E-02 0.  1.
       -2   -1    0    0    0  501  0.00000000000E+00  0.00000000000E+00 -0.85234006199E+03  0.85234006200E+03  0.25500000920E-02 0. -1.
    10030    2    1    2    0    0  0.00000000000E+00  0.00000000000E+00 -0.61412852120E+03  0.10905516028E+04  0.90119307467E+03 0.  0.
        1    1    3    3  502    0  0.30955313274E+03 -0.24545200930E+03 -0.44807511140E+02  0.39758966779E+03  0.50400001928E-02 0.  1.
       -1    1    3    3    0  502 -0.30955313274E+03  0.24545200930E+03 -0.56932101006E+03  0.69296193501E+03  0.50400001928E-02 0. -1.
</event>
<event>
 5   0  0.9981885E-04  0.9030232E+03  0.7818609E-02  0.9421810E-01
        1   -1    0    0  501    0  0.00000000000E+00  0.00000000000E+00  0.73084980575E+03  0.73084980577E+03  0.50400001928E-02 0.  1.
       -1   -1    0    0    0  501  0.00000000000E+00  0.00000000000E+00 -0.27893930587E+03  0.27893930591E+03  0.50400001928E-02 0. -1.
    10030    2    1    2    0    0  0.00000000000E+00  0.00000000000E+00  0.45191049988E+03  0.10097891117E+04  0.90302322792E+03 0.  0.
        4    1    3    3  502    0  0.11901355201E+03  0.10013710968E+03  0.69994493557E+03  0.71701896211E+03  0.12699999809E+01 0.  1.
       -4    1    3    3    0  502 -0.11901355201E+03 -0.10013710968E+03 -0.24803443568E+03  0.29277014957E+03  0.12699999809E+01 0. -1.
</event>
<event>
 5   0  0.1536020E-03  0.8987048E+03  0.7818609E-02  0.9427202E-01
       -2   -1    0    0    0  501  0.00000000000E+00  0.00000000000E+00  0.14234149705E+03  0.14234149707E+03  0.25500000920E-02 0.  1.
        2   -1    0    0  501    0  0.00000000000E+00  0.00000000000E+00 -0.14185432112E+04  0.14185432112E+04  0.25500000920E-02 0. -1.
    10030    2    1    2    0    0  0.00000000000E+00  0.00000000000E+00 -0.12762017141E+04  0.15608847082E+04  0.89870476648E+03 0.  0.
        2    1    3    3  502    0  0.14134860187E+03 -0.69383377729E+02  0.92857422046E+02  0.18280038619E+03  0.25500000920E-02 0.  1.
       -2    1    3    3    0  502 -0.14134860187E+03  0.69383377729E+02 -0.13690591362E+04  0.13780843220E+04  0.25500000920E-02 0. -1.
</event>
<event>
 5   0  0.9981885E-04  0.9133612E+03  0.7818609E-02  0.9409032E-01
        1   -1    0    0  501    0  0.00000000000E+00  0.00000000000E+00  0.10872917782E+04  0.10872917782E+04  0.50400001928E-02 0.  1.
       -1   -1    0    0    0  501  0.00000000000E+00  0.00000000000E+00 -0.19181341652E+03  0.19181341658E+03  0.50400001928E-02 0. -1.
    10030    2    1    2    0    0  0.00000000000E+00  0.00000000000E+00  0.89547836167E+03  0.12791051948E+04  0.91336115699E+03 0.  0.
        4    1    3    3  502    0  0.27575281298E+02 -0.48553021102E+02  0.10824908406E+04  0.10839307288E+04  0.12699999809E+01 0.  1.
       -4    1    3    3    0  502 -0.27575281298E+02  0.48553021102E+02 -0.18701247892E+03  0.19517446597E+03  0.12699999809E+01 0. -1.
</event>
<event>
 5   0  0.9223454E-04  0.8853175E+03  0.7818609E-02  0.9444124E-01
       -1   -1    0    0    0  501  0.00000000000E+00  0.00000000000E+00  0.57759328688E+03  0.57759328690E+03  0.50400001928E-02 0. -1.
        1   -1    0    0  501    0  0.00000000000E+00  0.00000000000E+00 -0.33924696483E+03  0.33924696487E+03  0.50400001928E-02 0.  1.
    10030    2    1    2    0    0  0.00000000000E+00  0.00000000000E+00  0.23834632205E+03  0.91684025177E+03  0.88531750125E+03 0.  0.
        1    1    3    3  502    0 -0.82113430642E+02 -0.25139068678E+03  0.48678690962E+03  0.55398681239E+03  0.50400001928E-02 0. -1.
       -1    1    3    3    0  502  0.82113430642E+02  0.25139068678E+03 -0.24844058757E+03  0.36285343938E+03  0.50400001928E-02 0.  1.
</event>
<event>
 5   0  0.1635686E-03  0.9076252E+03  0.7818609E-02  0.9416099E-01
       -2   -1    0    0    0  501  0.00000000000E+00  0.00000000000E+00  0.58693702356E+03  0.58693702356E+03  0.25500000920E-02 0. -1.
        2   -1    0    0  501    0  0.00000000000E+00  0.00000000000E+00 -0.35088238949E+03  0.35088238950E+03  0.25500000920E-02 0.  1.
    10030    2    1    2    0    0  0.00000000000E+00  0.00000000000E+00  0.23605463407E+03  0.93781941306E+03  0.90762517663E+03 0.  0.
        5    1    3    3  502    0  0.40179328290E+01 -0.12243964695E+03  0.56950265781E+03  0.58254869168E+03  0.46999998093E+01 0. -1.
       -5    1    3    3    0  502 -0.40179328290E+01  0.12243964695E+03 -0.33344802374E+03  0.35527072138E+03  0.46999998093E+01 0.  1.
</event>
<event>
 5   0  0.9321543E-04  0.8981739E+03  0.7818609E-02  0.9427867E-01
        1   -1    0    0  501    0  0.00000000000E+00  0.00000000000E+00  0.11386103711E+04  0.11386103711E+04  0.50400001928E-02 0. -1.
       -1   -1    0    0    0  501  0.00000000000E+00  0.00000000000E+00 -0.17712737703E+03  0.17712737710E+03  0.50400001928E-02 0.  1.
    10030    2    1    2    0    0  0.00000000000E+00  0.00000000000E+00  0.96148299406E+03  0.13157377482E+04  0.89817385521E+03 0.  0.
        3    1    3    3  502    0  0.30134437619E+02 -0.33737860991E+03  0.91269335495E+03  0.97352020067E+03  0.10100000352E+00 0. -1.
       -3    1    3    3    0  502 -0.30134437619E+02  0.33737860991E+03  0.48789639118E+02  0.34221754753E+03  0.10100000352E+00 0.  1.
</event>
<event>
 5   0  0.9321543E-04  0.9000397E+03  0.7818609E-02  0.9425532E-01
       -1   -1    0    0    0  501  0.00000000000E+00  0.00000000000E+00  0.60805040410E+03  0.60805040412E+03  0.50400001928E-02 0.  1.
        1   -1    0    0  501    0  0.00000000000E+00  0.00000000000E+00 -0.33306094847E+03  0.33306094851E+03  0.50400001928E-02 0. -1.
    10030    2    1    2    0    0  0.00000000000E+00  0.00000000000E+00  0.27498945563E+03  0.94111135263E+03  0.90003965320E+03 0.  0.
        3    1    3    3  502    0  0.37300247967E+03  0.12657439741E+03  0.36506330493E+03  0.53705042103E+03  0.10100000352E+00 0.  1.
       -3    1    3    3    0  502 -0.37300247967E+03 -0.12657439741E+03 -0.90073849300E+02  0.40406093160E+03  0.10100000352E+00 0. -1.
</event>
<event>
 5   0  0.1536020E-03  0.9007397E+03  0.7818609E-02  0.9424657E-01
       -2   -1    0    0    0  501  0.00000000000E+00  0.00000000000E+00  0.58684718333E+03  0.58684718333E+03  0.25500000920E-02 0. -1.
        2   -1    0    0  501    0  0.00000000000E+00  0.00000000000E+00 -0.34563173178E+03  0.34563173179E+03  0.25500000920E-02 0.  1.
    10030    2    1    2    0    0  0.00000000000E+00  0.00000000000E+00  0.24121545155E+03  0.93247891513E+03  0.90073971440E+03 0.  0.
        2    1    3    3  502    0 -0.35088658951E+03 -0.87992460707E+02  0.39833098368E+03  0.53808144774E+03  0.25500000920E-02 0. -1.
       -2    1    3    3    0  502  0.35088658951E+03  0.87992460707E+02 -0.15711553213E+03  0.39439746739E+03  0.25500000920E-02 0.  1.
</event>
<event>
 5   0  0.1630202E-03  0.8992394E+03  0.7818609E-02  0.9426533E-01
        2   -1    0    0  501    0  0.00000000000E+00  0.00000000000E+00  0.74291931331E+03  0.74291931331E+03  0.25500000920E-02 0. -1.
       -2   -1    0    0    0  501  0.00000000000E+00  0.00000000000E+00 -0.27211279754E+03  0.27211279755E+03  0.25500000920E-02 0.  1.
    10030    2    1    2    0    0  0.00000000000E+00  0.00000000000E+00  0.47080651577E+03  0.10150321109E+04  0.89923935122E+03 0.  0.
        4    1    3    3  502    0  0.25033303820E+01  0.26681467666E+03 -0.17307942294E+03  0.31804785472E+03  0.12699999809E+01 0.  1.
       -4    1    3    3    0  502 -0.25033303820E+01 -0.26681467666E+03  0.64388593871E+03  0.69698425615E+03  0.12699999809E+01 0. -1.
</event>
<event>
 5   0  0.9321543E-04  0.8980428E+03  0.7818609E-02  0.9428031E-01
        1   -1    0    0  501    0  0.00000000000E+00  0.00000000000E+00  0.31572290133E+03  0.31572290137E+03  0.50400001928E-02 0.  1.
       -1   -1    0    0    0  501  0.00000000000E+00  0.00000000000E+00 -0.63859871458E+03  0.63859871460E+03  0.50400001928E-02 0. -1.
    10030    2    1    2    0    0  0.00000000000E+00  0.00000000000E+00 -0.32287581325E+03  0.95432161596E+03  0.89804284748E+03 0.  0.
        3    1    3    3  502    0 -0.33968370871E+03  0.63791387631E+02  0.14317157695E+03  0.37410222366E+03  0.10100000352E+00 0.  1.
       -3    1    3    3    0  502  0.33968370871E+03 -0.63791387631E+02 -0.46604739020E+03  0.58021939231E+03  0.10100000352E+00 0. -1.
</event>
<event>
 5   0  0.1536020E-03  0.8982955E+03  0.7818609E-02  0.9427715E-01
        2   -1    0    0  501    0  0.00000000000E+00  0.00000000000E+00  0.10829574886E+04  0.10829574886E+04  0.25500000920E-02 0.  1.
       -2   -1    0    0    0  501  0.00000000000E+00  0.00000000000E+00 -0.18628036861E+03  0.18628036863E+03  0.25500000920E-02 0. -1.
    10030    2    1    2    0    0  0.00000000000E+00  0.00000000000E+00  0.89667711996E+03  0.12692378572E+04  0.89829554196E+03 0.  0.
        2    1    3    3  502    0  0.75362894741E+02 -0.52535667937E+01  0.10739162122E+04  0.10765701077E+04  0.25500000920E-02 0.  1.
       -2    1    3    3    0  502 -0.75362894741E+02  0.52535667937E+01 -0.17723909227E+03  0.19266774952E+03  0.25500000920E-02 0. -1.
</event>
<event>
 5   0  0.1630202E-03  0.8999657E+03  0.7818609E-02  0.9425624E-01
       -2   -1    0    0    0  501  0.00000000000E+00  0.00000000000E+00  0.42599537236E+03  0.42599537236E+03  0.25500000920E-02 0.  1.
        2   -1    0    0  501    0  0.00000000000E+00  0.00000000000E+00 -0.47532102725E+03  0.47532102726E+03  0.25500000920E-02 0. -1.
    10030    2    1    2    0    0  0.00000000000E+00  0.00000000000E+00 -0.49325654894E+02  0.90131639962E+03  0.89996568379E+03 0.  0.
        4    1    3    3  502    0 -0.72074174332E+02  0.27925660398E+03  0.32125969542E+03  0.43172716184E+03  0.12699999809E+01 0.  1.
       -4    1    3    3    0  502  0.72074174332E+02 -0.27925660398E+03 -0.37058535031E+03  0.46958923778E+03  0.12699999809E+01 0. -1.
</event>
<event>
 5   0  0.1704416E-03  0.8973615E+03  0.7818609E-02  0.9428886E-01
        2   -1    0    0  501    0  0.00000000000E+00  0.00000000000E+00  0.72723102850E+03  0.72723102850E+03  0.25500000920E-02 0.  1.
       -2   -1    0    0    0  501  0.00000000000E+00  0.00000000000E+00 -0.27682316483E+03  0.27682316484E+03  0.25500000920E-02 0. -1.
    10030    2    1    2    0    0  0.00000000000E+00  0.00000000000E+00  0.45040786367E+03  0.10040541933E+04  0.89736145422E+03 0.  0.
        3    1    3    3  502    0  0.64699582900E+02  0.92748914450E+02 -0.26061603027E+03  0.28409351030E+03  0.10100000352E+00 0. -1.
       -3    1    3    3    0  502 -0.64699582900E+02 -0.92748914450E+02  0.71102389395E+03  0.71996068304E+03  0.10100000352E+00 0.  1.
</event>
<event>
 5   0  0.9321543E-04  0.9001316E+03  0.7818609E-02  0.9425417E-01
       -1   -1    0    0    0  501  0.00000000000E+00  0.00000000000E+00  0.44297726810E+03  0.44297726813E+03  0.50400001928E-02 0. -1.
        1   -1    0    0  501    0  0.00000000000E+00  0.00000000000E+00 -0.45726775941E+03  0.45726775944E+03  0.50400001928E-02 0.  1.
    10030    2    1    2    0    0  0.00000000000E+00  0.00000000000E+00 -0.14290491311E+02  0.90024502757E+03  0.90013159678E+03 0.  0.
        3    1    3    3  502    0 -0.20285640394E+03  0.29807009886E+03  0.26226336125E+03  0.44584592104E+03  0.10100000352E+00 0. -1.
       -3    1    3    3    0  502  0.20285640394E+03 -0.29807009886E+03 -0.27655385256E+03  0.45439910653E+03  0.10100000352E+00 0.  1.
</event>
<event>
 5   0  0.1536020E-03  0.8994171E+03  0.7818609E-02  0.9426310E-01
        2   -1    0    0  501    0  0.00000000000E+00  0.00000000000E+00  0.50605818468E+03  0.50605818469E+03  0.25500000920E-02 0.  1.
       -2   -1    0    0    0  501  0.00000000000E+00  0.00000000000E+00 -0.39963348506E+03  0.39963348507E+03  0.25500000920E-02 0. -1.
    10030    2    1    2    0    0  0.00000000000E+00  0.00000000000E+00  0.10642469962E+03  0.90569166976E+03  0.89941713570E+03 0.  0.
        2    1    3    3  502    0 -0.32595493043E+03  0.28066072131E+03 -0.78930937332E+02  0.43731813366E+03  0.25500000920E-02 0. -1.
       -2    1    3    3    0  502  0.32595493043E+03 -0.28066072131E+03  0.18535563695E+03  0.46837353609E+03  0.25500000920E-02 0.  1.
</event>
<event>
 5   0  0.9697941E-04  0.9005872E+03  0.7818609E-02  0.9424848E-01
        1   -1    0    0  501    0  0.00000000000E+00  0.00000000000E+00  0.32067446374E+03  0.32067446378E+03  0.50400001928E-02 0.  1.
       -1   -1    0    0    0  501  0.00000000000E+00  0.00000000000E+00 -0.63230578946E+03  0.63230578948E+03  0.50400001928E-02 0. -1.
    10030    2    1    2    0    0  0.00000000000E+00  0.00000000000E+00 -0.31163132573E+03  0.95298025326E+03  0.90058718619E+03 0.  0.
        5    1    3    3  502    0 -0.44754028079E+03 -0.13997696249E+02 -0.10557743855E+03  0.46006186971E+03  0.46999998093E+01 0. -1.
       -5    1    3    3    0  502  0.44754028079E+03  0.13997696249E+02 -0.20605388717E+03  0.49291838355E+03  0.46999998093E+01 0.  1.
</event>
<event>
 5   0  0.9981885E-04  0.9046294E+03  0.7818609E-02  0.9419813E-01
       -1   -1    0    0    0  501  0.00000000000E+00  0.00000000000E+00  0.64025543571E+03  0.64025543573E+03  0.50400001928E-02 0. -1.
        1   -1    0    0  501    0  0.00000000000E+00  0.00000000000E+00 -0.31954214395E+03  0.31954214399E+03  0.50400001928E-02 0.  1.
    10030    2    1    2    0    0  0.00000000000E+00  0.00000000000E+00  0.32071329176E+03  0.95979757972E+03  0.90462941503E+03 0.  0.
        4    1    3    3  502    0  0.10697752075E+03 -0.12022144342E+03 -0.28813935935E+03  0.33003528404E+03  0.12699999809E+01 0.  1.
       -4    1    3    3    0  502 -0.10697752075E+03  0.12022144342E+03  0.60885265111E+03  0.62976229569E+03  0.12699999809E+01 0. -1.
</event>
<event>
 5   0  0.1536020E-03  0.8989792E+03  0.7818609E-02  0.9426858E-01
        2   -1    0    0  501    0  0.00000000000E+00  0.00000000000E+00  0.12923365664E+04  0.12923365664E+04  0.25500000920E-02 0. -1.
       -2   -1    0    0    0  501  0.00000000000E+00  0.00000000000E+00 -0.15633766869E+03  0.15633766871E+03  0.25500000920E-02 0.  1.
    10030    2    1    2    0    0  0.00000000000E+00  0.00000000000E+00  0.11359988978E+04  0.14486742351E+04  0.89897916766E+03 0.  0.
        2    1    3    3  502    0  0.30212895069E+03  0.32282007577E+03  0.69838069860E+03  0.82657746422E+03  0.25500000920E-02 0. -1.
       -2    1    3    3    0  502 -0.30212895069E+03 -0.32282007577E+03  0.43761819915E+03  0.62209677093E+03  0.25500000920E-02 0.  1.
</event>
<event>
 5   0  0.9697941E-04  0.8978930E+03  0.7818609E-02  0.9428219E-01
        1   -1    0    0  501    0  0.00000000000E+00  0.00000000000E+00  0.19232190317E+03  0.19232190324E+03  0.50400001928E-02 0. -1.
       -1   -1    0    0    0  501  0.00000000000E+00  0.00000000000E+00 -0.10479980425E+04  0.10479980425E+04  0.50400001928E-02 0.  1.
    10030    2    1    2    0    0  0.00000000000E+00  0.00000000000E+00 -0.85567613935E+03  0.12403199458E+04  0.89789304064E+03 0.  0.
        5    1    3    3  502    0 -0.86087435940E+02  0.36405207850E+03 -0.77064520968E+03  0.85665692764E+03  0.46999998093E+01 0.  1.
       -5    1    3    3    0  502  0.86087435940E+02 -0.36405207850E+03 -0.85030929677E+02  0.38366301813E+03  0.46999998093E+01 0. -1.
</event>
<event>
 5   0  0.9321543E-04  0.8988043E+03  0.7818609E-02  0.9427077E-01
        1   -1    0    0  501    0  0.00000000000E+00  0.00000000000E+00  0.41148980822E+03  0.41148980826E+03  0.50400001928E-02 0.  1.
       -1   -1    0    0    0  501  0.00000000000E+00  0.00000000000E+00 -0.49080751068E+03  0.49080751071E+03  0.50400001928E-02 0. -1.
    10030    2    1    2    0    0  0.00000000000E+00  0.00000000000E+00 -0.79317702458E+02  0.90229731896E+03  0.89880429120E+03 0.  0.
        3    1    3    3  502    0 -0.11551816042E+03 -0.19174201825E+03  0.35153856402E+03  0.41675990587E+03  0.10100000352E+00 0.  1.
       -3    1    3    3    0  502  0.11551816042E+03  0.19174201825E+03 -0.43085626648E+03  0.48553741309E+03  0.10100000352E+00 0. -1.
</event>
<event>
 5   0  0.9321543E-04  0.8987452E+03  0.7818609E-02  0.9427151E-01
        1   -1    0    0  501    0  0.00000000000E+00  0.00000000000E+00  0.11735051099E+04  0.11735051099E+04  0.50400001928E-02 0. -1.
       -1   -1    0    0    0  501  0.00000000000E+00  0.00000000000E+00 -0.17207910973E+03  0.17207910981E+03  0.50400001928E-02 0.  1.
    10030    2    1    2    0    0  0.00000000000E+00  0.00000000000E+00  0.10014260002E+04  0.13455842197E+04  0.89874515772E+03 0.  0.
        3    1    3    3  502    0 -0.10796289342E+02 -0.30515430140E+03  0.99432884011E+03  0.10401565075E+04  0.10100000352E+00 0. -1.
       -3    1    3    3    0  502  0.10796289342E+02  0.30515430140E+03  0.70971600468E+01  0.30542771225E+03  0.10100000352E+00 0.  1.
</event>
<event>
 5   0  0.1007561E-03  0.8995454E+03  0.7818609E-02  0.9426150E-01
        1   -1    0    0  501    0  0.00000000000E+00  0.00000000000E+00  0.35330187040E+03  0.35330187043E+03  0.50400001928E-02 0. -1.
       -1   -1    0    0    0  501  0.00000000000E+00  0.00000000000E+00 -0.57258533967E+03  0.57258533969E+03  0.50400001928E-02 0.  1.
    10030    2    1    2    0    0  0.00000000000E+00  0.00000000000E+00 -0.21928346927E+03  0.92588721013E+03  0.89954537739E+03 0.  0.
        2    1    3    3  502    0 -0.94931383079E+02 -0.11439660415E+03 -0.54656854237E+03  0.56642362419E+03  0.25500000920E-02 0.  1.
       -2    1    3    3    0  502  0.94931383079E+02  0.11439660415E+03  0.32728507309E+03  0.35946358593E+03  0.25500000920E-02 0. -1.
</event>
<event>
 5   0  0.1635686E-03  0.8990446E+03  0.7818609E-02  0.9426776E-01
       -2   -1    0    0    0  501  0.00000000000E+00  0.00000000000E+00  0.85691994442E+03  0.85691994442E+03  0.25500000920E-02 0. -1.
        2   -1    0    0  501    0  0.00000000000E+00  0.00000000000E+00 -0.23581003316E+03  0.23581003318E+03  0.25500000920E-02 0.  1.
    10030    2    1    2    0    0  0.00000000000E+00  0.00000000000E+00  0.62110991125E+03  0.10927299776E+04  0.89904464966E+03 0.  0.
        5    1    3    3  502    0  0.13897461709E+03 -0.42598764189E+03  0.26726064806E+03  0.52175641753E+03  0.46999998093E+01 0. -1.
       -5    1    3    3    0  502 -0.13897461709E+03  0.42598764189E+03  0.35384926319E+03  0.57097356007E+03  0.46999998093E+01 0.  1.
</event>
<event>
 5   0  0.9981885E-04  0.9041375E+03  0.7818609E-02  0.9420424E-01
       -1   -1    0    0    0  501  0.00000000000E+00  0.00000000000E+00  0.89409973732E+02  0.89409973874E+02  0.50400001928E-02 0. -1.
        1   -1    0    0  501    0  0.00000000000E+00  0.00000000000E+00 -0.22857197187E+04  0.22857197187E+04  0.50400001928E-02 0.  1.
    10030    2    1    2    0    0  0.00000000000E+00  0.00000000000E+00 -0.21963097450E+04  0.23751296926E+04  0.90413746783E+03 0.  0.
        4    1    3    3  502    0 -0.67674395882E+02 -0.12742266196E+02 -0.22718557547E+04  0.22728995518E+04  0.12699999809E+01 0.  1.
       -4    1    3    3    0  502  0.67674395882E+02  0.12742266196E+02  0.75546009747E+02  0.10223014083E+03  0.12699999809E+01 0. -1.
</event>
<event>
 5   0  0.9321543E-04  0.8996793E+03  0.7818609E-02  0.9425982E-01
        1   -1    0    0  501    0  0.00000000000E+00  0.00000000000E+00  0.15659381026E+04  0.15659381026E+04  0.50400001928E-02 0. -1.
       -1   -1    0    0    0  501  0.00000000000E+00  0.00000000000E+00 -0.12922330716E+03  0.12922330726E+03  0.50400001928E-02 0.  1.
    10030    2    1    2    0    0  0.00000000000E+00  0.00000000000E+00  0.14367147954E+04  0.16951614098E+04  0.89967927731E+03 0.  0.
        3    1    3    3  502    0 -0.19102502390E+03 -0.17207699886E+03  0.22854433325E+02  0.25811506856E+03  0.10100000352E+00 0.  1.
       -3    1    3    3    0  502  0.19102502390E+03  0.17207699886E+03  0.14138603621E+04  0.14370463413E+04  0.10100000352E+00 0. -1.
</event>
<event>
 5   0  0.1536020E-03  0.9002325E+03  0.7818609E-02  0.9425291E-01
        2   -1    0    0  501    0  0.00000000000E+00  0.00000000000E+00  0.66523817230E+03  0.66523817231E+03  0.25500000920E-02 0.  1.
       -2   -1    0    0    0  501  0.00000000000E+00  0.00000000000E+00 -0.30455956326E+03  0.30455956327E+03  0.25500000920E-02 0. -1.
    10030    2    1    2    0    0  0.00000000000E+00  0.00000000000E+00  0.36067860904E+03  0.96979773558E+03  0.90023251936E+03 0.  0.
        2    1    3    3  502    0 -0.16096070621E+03 -0.16434105222E+03  0.59713230911E+03  0.63990884114E+03  0.25500000920E-02 0.  1.
       -2    1    3    3    0  502  0.16096070621E+03  0.16434105222E+03 -0.23645370007E+03  0.32988889443E+03  0.25500000920E-02 0. -1.
</event>
<event>
 5   0  0.6375625E-04  0.8990920E+03  0.7818609E-02  0.9426717E-01
       -4   -1    0    0    0  501  0.00000000000E+00  0.00000000000E+00  0.34054551432E+03  0.34054788242E+03  0.12699999809E+01 0.  1.
        4   -1    0    0  501    0  0.00000000000E+00  0.00000000000E+00 -0.59342988514E+03  0.59343124411E+03  0.12699999809E+01 0. -1.
    10030    2    1    2    0    0  0.00000000000E+00  0.00000000000E+00 -0.25288437082E+03  0.93397912653E+03  0.89909204411E+03 0.  0.
        5    1    3    3  502    0 -0.40994306755E+03  0.15940326363E+03 -0.30069425450E+02  0.44089565594E+03  0.46999998093E+01 0. -1.
       -5    1    3    3    0  502  0.40994306755E+03 -0.15940326363E+03 -0.22281494537E+03  0.49308347059E+03  0.46999998093E+01 0.  1.
</event>
<event>
 5   0  0.1635686E-03  0.9147032E+03  0.7818609E-02  0.9407386E-01
        2   -1    0    0  501    0  0.00000000000E+00  0.00000000000E+00  0.83724380992E+03  0.83724380992E+03  0.25500000920E-02 0.  1.
       -2   -1    0    0    0  501  0.00000000000E+00  0.00000000000E+00 -0.24983222882E+03  0.24983222883E+03  0.25500000920E-02 0. -1.
    10030    2    1    2    0    0  0.00000000000E+00  0.00000000000E+00  0.58741158110E+03  0.10870760388E+04  0.91470320237E+03 0.  0.
        5    1    3    3  502    0 -0.16830631333E+03 -0.33618326567E+03 -0.15752125741E+02  0.37631957521E+03  0.46999998093E+01 0. -1.
       -5    1    3    3    0  502  0.16830631333E+03  0.33618326567E+03  0.60316370684E+03  0.71075646354E+03  0.46999998093E+01 0.  1.
</event>
<event>
 5   0  0.9223454E-04  0.9012410E+03  0.7818609E-02  0.9424031E-01
       -1   -1    0    0    0  501  0.00000000000E+00  0.00000000000E+00  0.17040642273E+03  0.17040642280E+03  0.50400001928E-02 0.  1.
        1   -1    0    0  501    0  0.00000000000E+00  0.00000000000E+00 -0.11916149926E+04  0.11916149926E+04  0.50400001928E-02 0. -1.
    10030    2    1    2    0    0  0.00000000000E+00  0.00000000000E+00 -0.10212085698E+04  0.13620214154E+04  0.90124102927E+03 0.  0.
        1    1    3    3  502    0 -0.25619695374E+03 -0.12770518088E+03  0.15339103739E+02  0.28667190385E+03  0.50400001928E-02 0.  1.
       -1    1    3    3    0  502  0.25619695374E+03  0.12770518088E+03 -0.10365476736E+04  0.10753495115E+04  0.50400001928E-02 0. -1.
</event>
<event>
 5   0  0.1704416E-03  0.9007172E+03  0.7818609E-02  0.9424685E-01
       -2   -1    0    0    0  501  0.00000000000E+00  0.00000000000E+00  0.13008942625E+03  0.13008942627E+03  0.25500000920E-02 0. -1.
        2   -1    0    0  501    0  0.00000000000E+00  0.00000000000E+00 -0.15591033858E+04  0.15591033858E+04  0.25500000920E-02 0.  1.
    10030    2    1    2    0    0  0.00000000000E+00  0.00000000000E+00 -0.14290139596E+04  0.16891928121E+04  0.90071719190E+03 0.  0.
        3    1    3    3  502    0 -0.83181867747E+00  0.64683317333E+02  0.12133117531E+03  0.13749868279E+03  0.10100000352E+00 0. -1.
       -3    1    3    3    0  502  0.83181867747E+00 -0.64683317333E+02 -0.15503451349E+04  0.15516941293E+04  0.10100000352E+00 0.  1.
</event>
<event>
 5   0  0.1635686E-03  0.8999711E+03  0.7818609E-02  0.9425618E-01
        2   -1    0    0  501    0  0.00000000000E+00  0.00000000000E+00  0.19310861868E+04  0.19310861868E+04  0.25500000920E-02 0. -1.
       -2   -1    0    0    0  501  0.00000000000E+00  0.00000000000E+00 -0.10485652017E+03  0.10485652020E+03  0.25500000920E-02 0.  1.
    10030    2    1    2    0    0  0.00000000000E+00  0.00000000000E+00  0.18262296667E+04  0.20359427070E+04  0.89997106116E+03 0.  0.
        5    1    3    3  502    0 -0.14637428742E+03 -0.20864685298E+03  0.74238875883E+02  0.26550412796E+03  0.46999998093E+01 0.  1.
       -5    1    3    3    0  502  0.14637428742E+03  0.20864685298E+03  0.17519907908E+04  0.17704385791E+04  0.46999998093E+01 0. -1.
</event>
<event>
 5   0  0.9223454E-04  0.9013163E+03  0.7818609E-02  0.9423938E-01
       -1   -1    0    0    0  501  0.00000000000E+00  0.00000000000E+00  0.74529155886E+03  0.74529155888E+03  0.50400001928E-02 0.  1.
        1   -1    0    0  501    0  0.00000000000E+00  0.00000000000E+00 -0.27250108336E+03  0.27250108341E+03  0.50400001928E-02 0. -1.
    10030    2    1    2    0    0  0.00000000000E+00  0.00000000000E+00  0.47279047550E+03  0.10177926423E+04  0.90131627577E+03 0.  0.
        1    1    3    3  502    0  0.35532336339E+03 -0.25395732117E+03  0.11093516332E+03  0.45061693713E+03  0.50400001928E-02 0.  1.
       -1    1    3    3    0  502 -0.35532336339E+03  0.25395732117E+03  0.36185531219E+03  0.56717570516E+03  0.50400001928E-02 0. -1.
</event>
<event>
 5   0  0.1536020E-03  0.8904352E+03  0.7818609E-02  0.9437617E-01
        2   -1    0    0  501    0  0.00000000000E+00  0.00000000000E+00  0.74258697370E+03  0.74258697371E+03  0.25500000920E-02 0. -1.
       -2   -1    0    0    0  501  0.00000000000E+00  0.00000000000E+00 -0.26692998371E+03  0.26692998373E+03  0.25500000920E-02 0.  1.
    10030    2    1    2    0    0  0.00000000000E+00  0.00000000000E+00  0.47565698999E+03  0.10095169574E+04  0.89043523921E+03 0.  0.
        2    1    3    3  502    0  0.76858104738E+02  0.15123575589E+03 -0.22885061644E+03  0.28487194803E+03  0.25500000920E-02 0.  1.
       -2    1    3    3    0  502 -0.76858104738E+02 -0.15123575589E+03  0.70450760643E+03  0.72464500940E+03  0.25500000920E-02 0. -1.
</event>
<event>
 5   0  0.1635686E-03  0.8995653E+03  0.7818609E-02  0.9426125E-01
       -2   -1    0    0    0  501  0.00000000000E+00  0.00000000000E+00  0.49938805916E+03  0.49938805917E+03  0.25500000920E-02 0.  1.
        2   -1    0    0  501    0  0.00000000000E+00  0.00000000000E+00 -0.40510464734E+03  0.40510464735E+03  0.25500000920E-02 0. -1.
    10030    2    1    2    0    0  0.00000000000E+00  0.00000000000E+00  0.94283411820E+02  0.90449270651E+03  0.89956528078E+03 0.  0.
        5    1    3    3  502    0 -0.65138363595E+02 -0.14824062103E+03  0.46903995422E+03  0.49622460317E+03  0.46999998093E+01 0.  1.
       -5    1    3    3    0  502  0.65138363595E+02  0.14824062103E+03 -0.37475654240E+03  0.40826810334E+03  0.46999998093E+01 0. -1.
</event>
<event>
 5   0  0.1007561E-03  0.8995503E+03  0.7818609E-02  0.9426144E-01
       -1   -1    0    0    0  501  0.00000000000E+00  0.00000000000E+00  0.82174644018E+02  0.82174644173E+02  0.50400001928E-02 0.  1.
        1   -1    0    0  501    0  0.00000000000E+00  0.00000000000E+00 -0.24618018411E+04  0.24618018411E+04  0.50400001928E-02 0. -1.
    10030    2    1    2    0    0  0.00000000000E+00  0.00000000000E+00 -0.23796271970E+04  0.25439764852E+04  0.89955031018E+03 0.  0.
        2    1    3    3  502    0  0.53249151049E+02  0.42580250812E+02  0.67475354897E+02  0.95924310639E+02  0.25500000920E-02 0.  1.
       -2    1    3    3    0  502 -0.53249151049E+02 -0.42580250812E+02 -0.24471025519E+04  0.24480521746E+04  0.25500000920E-02 0. -1.
</event>
<event>
 5   0  0.1635686E-03  0.9013358E+03  0.7818609E-02  0.9423913E-01
       -2   -1    0    0    0  501  0.00000000000E+00  0.00000000000E+00  0.46741226374E+03  0.46741226374E+03  0.25500000920E-02 0. -1.
        2   -1    0    0  501    0  0.00000000000E+00  0.00000000000E+00 -0.43452340670E+03  0.43452340670E+03  0.25500000920E-02 0.  1.
    10030    2    1    2    0    0  0.00000000000E+00  0.00000000000E+00  0.32888857041E+02  0.90193567045E+03  0.90133582904E+03 0.  0.
        5    1    3    3  502    0  0.16435056391E+03 -0.75954647306E+02 -0.39650351921E+03  0.43590979232E+03  0.46999998093E+01 0.  1.
       -5    1    3    3    0  502 -0.16435056391E+03  0.75954647306E+02  0.42939237625E+03  0.46602587812E+03  0.46999998093E+01 0. -1.
</event>
<event>
 5   0  0.9981885E-04  0.8999297E+03  0.7818609E-02  0.9425669E-01
        1   -1    0    0  501    0  0.00000000000E+00  0.00000000000E+00  0.12099582104E+04  0.12099582104E+04  0.50400001928E-02 0. -1.
       -1   -1    0    0    0  501  0.00000000000E+00  0.00000000000E+00 -0.16733500066E+03  0.16733500073E+03  0.50400001928E-02 0.  1.
    10030    2    1    2    0    0  0.00000000000E+00  0.00000000000E+00  0.10426232097E+04  0.13772932111E+04  0.89992968168E+03 0.  0.
        4    1    3    3  502    0 -0.38285593366E+03 -0.19169296900E+03  0.73305514986E+03  0.84893835226E+03  0.12699999809E+01 0. -1.
       -4    1    3    3    0  502  0.38285593366E+03  0.19169296900E+03  0.30956805988E+03  0.52835485888E+03  0.12699999809E+01 0.  1.
</event>
<event>
 5   0  0.9697941E-04  0.8990828E+03  0.7818609E-02  0.9426729E-01
        1   -1    0    0  501    0  0.00000000000E+00  0.00000000000E+00  0.17265718924E+04  0.17265718924E+04  0.50400001928E-02 0.  1.
       -1   -1    0    0    0  501  0.00000000000E+00  0.00000000000E+00 -0.11704550698E+03  0.11704550709E+03  0.50400001928E-02 0. -1.
    10030    2    1    2    0    0  0.00000000000E+00  0.00000000000E+00  0.16095263854E+04  0.18436173995E+04  0.89908282731E+03 0.  0.
        5    1    3    3  502    0  0.21713401121E+03  0.37820695415E+03  0.58128378062E+03  0.72670530658E+03  0.46999998093E+01 0. -1.
       -5    1    3    3    0  502 -0.21713401121E+03 -0.37820695415E+03  0.10282426048E+04  0.11169120929E+04  0.46999998093E+01 0.  1.
</event>
<event>
 5   0  0.9697941E-04  0.8988821E+03  0.7818609E-02  0.9426980E-01
       -1   -1    0    0    0  501  0.00000000000E+00  0.00000000000E+00  0.65642053111E+03  0.65642053113E+03  0.50400001928E-02 0. -1.
        1   -1    0    0  501    0  0.00000000000E+00  0.00000000000E+00 -0.30772538415E+03  0.30772538419E+03  0.50400001928E-02 0.  1.
    10030    2    1    2    0    0  0.00000000000E+00  0.00000000000E+00  0.34869514696E+03  0.96414591533E+03  0.89888210602E+03 0.  0.
        5    1    3    3  502    0 -0.84079403017E+02  0.40017556966E+03  0.37433986472E+03  0.55440261262E+03  0.46999998093E+01 0. -1.
       -5    1    3    3    0  502  0.84079403017E+02 -0.40017556966E+03 -0.25644717760E+02  0.40974330271E+03  0.46999998093E+01 0.  1.
</event>
<event>
 5   0  0.9697941E-04  0.8985147E+03  0.7818609E-02  0.9427440E-01
        1   -1    0    0  501    0  0.00000000000E+00  0.00000000000E+00  0.11659713829E+04  0.11659713829E+04  0.50400001928E-02 0.  1.
       -1   -1    0    0    0  501  0.00000000000E+00  0.00000000000E+00 -0.17310214464E+03  0.17310214471E+03  0.50400001928E-02 0. -1.
    10030    2    1    2    0    0  0.00000000000E+00  0.00000000000E+00  0.99286923825E+03  0.13390735276E+04  0.89851465657E+03 0.  0.
        5    1    3    3  502    0  0.11942504895E+03  0.32004798709E+03  0.61636742413E+02  0.34715160142E+03  0.46999998093E+01 0. -1.
       -5    1    3    3    0  502 -0.11942504895E+03 -0.32004798709E+03  0.93123249584E+03  0.99192192619E+03  0.46999998093E+01 0.  1.
</event>
<event>
 5   0  0.1704416E-03  0.8993389E+03  0.7818609E-02  0.9426408E-01
        2   -1    0    0  501    0  0.00000000000E+00  0.00000000000E+00  0.24782332145E+03  0.24782332147E+03  0.25500000920E-02 0.  1.
       -2   -1    0    0    0  501  0.00000000000E+00  0.00000000000E+00 -0.81591430312E+03  0.81591430313E+03  0.25500000920E-02 0. -1.
    10030    2    1    2    0    0  0.00000000000E+00  0.00000000000E+00 -0.56809098167E+03  0.10637376246E+04  0.89933885189E+03 0.  0.
        3    1    3    3  502    0 -0.32947952405E+02  0.43935469742E+03 -0.39039532082E+03  0.58866512929E+03  0.10100000352E+00 0. -1.
       -3    1    3    3    0  502  0.32947952405E+02 -0.43935469742E+03 -0.17769566085E+03  0.47507249531E+03  0.10100000352E+00 0.  1.
</event>
<event>
 5   0  0.9697941E-04  0.9005424E+03  0.7818609E-02  0.9424904E-01
       -1   -1    0    0    0  501  0.00000000000E+00  0.00000000000E+00  0.10455297265E+04  0.10455297265E+04  0.50400001928E-02 0.  1.
        1   -1    0    0  501    0  0.00000000000E+00  0.00000000000E+00 -0.19391524591E+03  0.19391524597E+03  0.50400001928E-02 0. -1.
    10030    2    1    2    0    0  0.00000000000E+00  0.00000000000E+00  0.85161448063E+03  0.12394449725E+04  0.90054240116E+03 0.  0.
        5    1    3    3  502    0 -0.77759149434E+02 -0.27531102901E+03 -0.52711841707E+02  0.29093517537E+03  0.46999998093E+01 0. -1.
       -5    1    3    3    0  502  0.77759149434E+02  0.27531102901E+03  0.90432632233E+03  0.94850979714E+03  0.46999998093E+01 0.  1.
</event>
<event>
 5   0  0.9697941E-04  0.9015191E+03  0.7818609E-02  0.9423685E-01
       -1   -1    0    0    0  501  0.00000000000E+00  0.00000000000E+00  0.54050117626E+03  0.54050117628E+03  0.50400001928E-02 0.  1.
        1   -1    0    0  501    0  0.00000000000E+00  0.00000000000E+00 -0.37591806088E+03  0.37591806092E+03  0.50400001928E-02 0. -1.
    10030    2    1    2    0    0  0.00000000000E+00  0.00000000000E+00  0.16458311538E+03  0.91641923720E+03  0.90151906050E+03 0.  0.
        5    1    3    3  502    0 -0.43059455355E+03 -0.29667341562E+02 -0.49740672247E+02  0.43449746280E+03  0.46999998093E+01 0. -1.
       -5    1    3    3    0  502  0.43059455355E+03  0.29667341562E+02  0.21432378762E+03  0.48192177440E+03  0.46999998093E+01 0.  1.
</event>
<event>
 5   0  0.1704416E-03  0.8847223E+03  0.7818609E-02  0.9444883E-01
        2   -1    0    0  501    0  0.00000000000E+00  0.00000000000E+00  0.51252431316E+03  0.51252431316E+03  0.25500000920E-02 0.  1.
       -2   -1    0    0    0  501  0.00000000000E+00  0.00000000000E+00 -0.38180315070E+03  0.38180315071E+03  0.25500000920E-02 0. -1.
    10030    2    1    2    0    0  0.00000000000E+00  0.00000000000E+00  0.13072116245E+03  0.89432746388E+03  0.88472232386E+03 0.  0.
        3    1    3    3  502    0 -0.20264555841E+03 -0.38076830001E+03 -0.33856258875E+02  0.43266150407E+03  0.10100000352E+00 0. -1.
       -3    1    3    3    0  502  0.20264555841E+03  0.38076830001E+03  0.16457742133E+03  0.46166595981E+03  0.10100000352E+00 0.  1.
</event>
<event>
 5   0  0.1641516E-03  0.8993534E+03  0.7818609E-02  0.9426390E-01
        2   -1    0    0  501    0  0.00000000000E+00  0.00000000000E+00  0.16405742886E+04  0.16405742886E+04  0.25500000920E-02 0. -1.
       -2   -1    0    0    0  501  0.00000000000E+00  0.00000000000E+00 -0.12325510412E+03  0.12325510415E+03  0.25500000920E-02 0.  1.
    10030    2    1    2    0    0  0.00000000000E+00  0.00000000000E+00  0.15173191845E+04  0.17638293927E+04  0.89935344506E+03 0.  0.
        1    1    3    3  502    0  0.17855166581E+03  0.40775486354E+02 -0.46792492981E+02  0.18903141293E+03  0.50400001928E-02 0.  1.
       -1    1    3    3    0  502 -0.17855166581E+03 -0.40775486354E+02  0.15641116775E+04  0.15747979798E+04  0.50400001928E-02 0. -1.
</event>
<event>
 5   0  0.1630202E-03  0.8988509E+03  0.7818609E-02  0.9427019E-01
       -2   -1    0    0    0  501  0.00000000000E+00  0.00000000000E+00  0.25776490767E+03  0.25776490768E+03  0.25500000920E-02 0. -1.
        2   -1    0    0  501    0  0.00000000000E+00  0.00000000000E+00 -0.78359470942E+03  0.78359470942E+03  0.25500000920E-02 0.  1.
    10030    2    1    2    0    0  0.00000000000E+00  0.00000000000E+00 -0.52582980175E+03  0.10413596171E+04  0.89885086178E+03 0.  0.
        4    1    3    3  502    0  0.12120343958E+02  0.43429691101E+03 -0.12970284611E+03  0.45341498745E+03  0.12699999809E+01 0.  1.
       -4    1    3    3    0  502 -0.12120343958E+02 -0.43429691101E+03 -0.39612695565E+03  0.58794462966E+03  0.12699999809E+01 0. -1.
</event>
<event>
 5   0  0.1007561E-03  0.9199480E+03  0.7818609E-02  0.9400983E-01
       -1   -1    0    0    0  501  0.00000000000E+00  0.00000000000E+00  0.52150166657E+03  0.52150166659E+03  0.50400001928E-02 0.  1.
        1   -1    0    0  501    0  0.00000000000E+00  0.00000000000E+00 -0.40570549733E+03  0.40570549736E+03  0.50400001928E-02 0. -1.
    10030    2    1    2    0    0  0.00000000000E+00  0.00000000000E+00  0.11579616923E+03  0.92720716395E+03  0.91994802683E+03 0.  0.
        2    1    3    3  502    0  0.22272332847E+03 -0.10869075305E+03  0.44845640141E+03  0.51237925877E+03  0.25500000920E-02 0.  1.
       -2    1    3    3    0  502 -0.22272332847E+03  0.10869075305E+03 -0.33266023217E+03  0.41482790519E+03  0.25500000920E-02 0. -1.
</event>
<event>
 5   0  0.1635686E-03  0.8999339E+03  0.7818609E-02  0.9425664E-01
       -2   -1    0    0    0  501  0.00000000000E+00  0.00000000000E+00  0.11211771840E+04  0.11211771840E+04  0.25500000920E-02 0. -1.
        2   -1    0    0  501    0  0.00000000000E+00  0.00000000000E+00 -0.18058722593E+03  0.18058722595E+03  0.25500000920E-02 0.  1.
    10030    2    1    2    0    0  0.00000000000E+00  0.00000000000E+00  0.94058995809E+03  0.13017644100E+04  0.89993394748E+03 0.  0.
        5    1    3    3  502    0  0.21317307514E+03 -0.30939114584E+03  0.11220665505E+03  0.39214546347E+03  0.46999998093E+01 0.  1.
       -5    1    3    3    0  502 -0.21317307514E+03  0.30939114584E+03  0.82838330304E+03  0.90961894651E+03  0.46999998093E+01 0. -1.
</event>
<event>
 5   0  0.9981885E-04  0.9005477E+03  0.7818609E-02  0.9424897E-01
        1   -1    0    0  501    0  0.00000000000E+00  0.00000000000E+00  0.52018134209E+03  0.52018134212E+03  0.50400001928E-02 0.  1.
       -1   -1    0    0    0  501  0.00000000000E+00  0.00000000000E+00 -0.38976130466E+03  0.38976130469E+03  0.50400001928E-02 0. -1.
    10030    2    1    2    0    0  0.00000000000E+00  0.00000000000E+00  0.13042003744E+03  0.90994264681E+03  0.90054774127E+03 0.  0.
        4    1    3    3  502    0 -0.38328472277E+03  0.10001128686E+01 -0.17355319166E+03  0.42074992830E+03  0.12699999809E+01 0. -1.
       -4    1    3    3    0  502  0.38328472277E+03 -0.10001128686E+01  0.30397322909E+03  0.48919271850E+03  0.12699999809E+01 0.  1.
</event>
<event>
 5   0  0.1641516E-03  0.9002631E+03  0.7818609E-02  0.9425253E-01
        2   -1    0    0  501    0  0.00000000000E+00  0.00000000000E+00  0.58493192852E+03  0.58493192852E+03  0.25500000920E-02 0. -1.
       -2   -1    0    0    0  501  0.00000000000E+00  0.00000000000E+00 -0.34639655504E+03  0.34639655505E+03  0.25500000920E-02 0.  1.
    10030    2    1    2    0    0  0.00000000000E+00  0.00000000000E+00  0.23853537348E+03  0.93132848358E+03  0.90026308373E+03 0.  0.
        1    1    3    3  502    0 -0.13889594901E+03  0.46274768790E+02 -0.32107878737E+03  0.35288103746E+03  0.50400001928E-02 0.  1.
       -1    1    3    3    0  502  0.13889594901E+03 -0.46274768790E+02  0.55961416084E+03  0.57844744612E+03  0.50400001928E-02 0. -1.
</event>
<event>
 5   0  0.1635686E-03  0.8989469E+03  0.7818609E-02  0.9426899E-01
       -2   -1    0    0    0  501  0.00000000000E+00  0.00000000000E+00  0.32689713763E+03  0.32689713764E+03  0.25500000920E-02 0. -1.
        2   -1    0    0  501    0  0.00000000000E+00  0.00000000000E+00 -0.61801206337E+03  0.61801206338E+03  0.25500000920E-02 0.  1.
    10030    2    1    2    0    0  0.00000000000E+00  0.00000000000E+00 -0.29111492575E+03  0.94490920101E+03  0.89894688284E+03 0.  0.
        5    1    3    3  502    0 -0.42560438460E+03  0.10589829448E+03 -0.24881848876E+03  0.50426805502E+03  0.46999998093E+01 0.  1.
       -5    1    3    3    0  502  0.42560438460E+03 -0.10589829448E+03 -0.42296436989E+02  0.44064114600E+03  0.46999998093E+01 0. -1.
</event>
<event>
 5   0  0.1536020E-03  0.8996699E+03  0.7818609E-02  0.9425994E-01
       -2   -1    0    0    0  501  0.00000000000E+00  0.00000000000E+00  0.38283577154E+03  0.38283577155E+03  0.25500000920E-02 0.  1.
        2   -1    0    0  501    0  0.00000000000E+00  0.00000000000E+00 -0.52855954520E+03  0.52855954520E+03  0.25500000920E-02 0. -1.
    10030    2    1    2    0    0  0.00000000000E+00  0.00000000000E+00 -0.14572377366E+03  0.91139531675E+03  0.89966994236E+03 0.  0.
        2    1    3    3  502    0 -0.38055173735E+03 -0.10454861892E+03  0.14582530911E+03  0.42073157631E+03  0.25500000920E-02 0.  1.
       -2    1    3    3    0  502  0.38055173735E+03  0.10454861892E+03 -0.29154908276E+03  0.49066374045E+03  0.25500000920E-02 0. -1.
</event>
<event>
 5   0  0.9223454E-04  0.9000522E+03  0.7818609E-02  0.9425516E-01
        1   -1    0    0  501    0  0.00000000000E+00  0.00000000000E+00  0.13339008729E+04  0.13339008729E+04  0.50400001928E-02 0.  1.
       -1   -1    0    0    0  501  0.00000000000E+00  0.00000000000E+00 -0.15182798531E+03  0.15182798539E+03  0.50400001928E-02 0. -1.
    10030    2    1    2    0    0  0.00000000000E+00  0.00000000000E+00  0.11820728876E+04  0.14857288583E+04  0.90005218116E+03 0.  0.
        1    1    3    3  502    0 -0.10300377020E+03  0.12366725944E+03  0.12847688007E+04  0.12948105031E+04  0.50400001928E-02 0.  1.
       -1    1    3    3    0  502  0.10300377020E+03 -0.12366725944E+03 -0.10269591314E+03  0.19091835515E+03  0.50400001928E-02 0. -1.
</event>
<event>
 5   0  0.9981885E-04  0.8980203E+03  0.7818609E-02  0.9428059E-01
        1   -1    0    0  501    0  0.00000000000E+00  0.00000000000E+00  0.29444364030E+03  0.29444364034E+03  0.50400001928E-02 0. -1.
       -1   -1    0    0    0  501  0.00000000000E+00  0.00000000000E+00 -0.68471552578E+03  0.68471552580E+03  0.50400001928E-02 0.  1.
    10030    2    1    2    0    0  0.00000000000E+00  0.00000000000E+00 -0.39027188548E+03  0.97915916615E+03  0.89802033833E+03 0.  0.
        4    1    3    3  502    0 -0.13205769627E+03  0.32981480585E+03 -0.49451971023E+03  0.60890754472E+03  0.12699999809E+01 0.  1.
       -4    1    3    3    0  502  0.13205769627E+03 -0.32981480585E+03  0.10424782475E+03  0.37025162143E+03  0.12699999809E+01 0. -1.
</event>
<event>
 5   0  0.1536020E-03  0.9067168E+03  0.7818609E-02  0.9417224E-01
        2   -1    0    0  501    0  0.00000000000E+00  0.00000000000E+00  0.13598034770E+04  0.13598034770E+04  0.25500000920E-02 0. -1.
       -2   -1    0    0    0  501  0.00000000000E+00  0.00000000000E+00 -0.15114966627E+03  0.15114966629E+03  0.25500000920E-02 0.  1.
    10030    2    1    2    0    0  0.00000000000E+00  0.00000000000E+00  0.12086538107E+04  0.15109531433E+04  0.90671680642E+03 0.  0.
        2    1    3    3  502    0  0.25332137287E+03 -0.37386742299E+03  0.67067546144E+03  0.80855064313E+03  0.25500000920E-02 0. -1.
       -2    1    3    3    0  502 -0.25332137287E+03  0.37386742299E+03  0.53797834931E+03  0.70240250018E+03  0.25500000920E-02 0.  1.
</event>
<event>
 5   0  0.1635686E-03  0.8993507E+03  0.7818609E-02  0.9426393E-01
       -2   -1    0    0    0  501  0.00000000000E+00  0.00000000000E+00  0.23110043747E+03  0.23110043748E+03  0.25500000920E-02 0. -1.
        2   -1    0    0  501    0  0.00000000000E+00  0.00000000000E+00 -0.87497851849E+03  0.87497851850E+03  0.25500000920E-02 0.  1.
    10030    2    1    2    0    0  0.00000000000E+00  0.00000000000E+00 -0.64387808103E+03  0.11060789560E+04  0.89935069558E+03 0.  0.
        5    1    3    3  502    0 -0.38193003155E+03 -0.22039652527E+03 -0.43014365945E+03  0.61602827461E+03  0.46999998093E+01 0. -1.
       -5    1    3    3    0  502  0.38193003155E+03  0.22039652527E+03 -0.21373442157E+03  0.49005068138E+03  0.46999998093E+01 0.  1.
</event>
<event>
 5   0  0.9981885E-04  0.9110088E+03  0.7818609E-02  0.9411924E-01
       -1   -1    0    0    0  501  0.00000000000E+00  0.00000000000E+00  0.21687983877E+03  0.21687983883E+03  0.50400001928E-02 0.  1.
        1   -1    0    0  501    0  0.00000000000E+00  0.00000000000E+00 -0.95667843642E+03  0.95667843644E+03  0.50400001928E-02 0. -1.
    10030    2    1    2    0    0  0.00000000000E+00  0.00000000000E+00 -0.73979859765E+03  0.11735582753E+04  0.91100881464E+03 0.  0.
        4    1    3    3  502    0  0.40827567343E+03 -0.16819671571E+03 -0.22585444983E+03  0.49597480390E+03  0.12699999809E+01 0. -1.
       -4    1    3    3    0  502 -0.40827567343E+03  0.16819671571E+03 -0.51394414782E+03  0.67758347137E+03  0.12699999809E+01 0.  1.
</event>
<event>
 5   0  0.1007561E-03  0.8999179E+03  0.7818609E-02  0.9425684E-01
        1   -1    0    0  501    0  0.00000000000E+00  0.00000000000E+00  0.30237419067E+03  0.30237419071E+03  0.50400001928E-02 0.  1.
       -1   -1    0    0    0  501  0.00000000000E+00  0.00000000000E+00 -0.66957786191E+03  0.66957786193E+03  0.50400001928E-02 0. -1.
    10030    2    1    2    0    0  0.00000000000E+00  0.00000000000E+00 -0.36720367124E+03  0.97195205264E+03  0.89991791651E+03 0.  0.
        2    1    3    3  502    0  0.11599414623E+03  0.16293625068E+03  0.25172499527E+03  0.32150946641E+03  0.25500000920E-02 0.  1.
       -2    1    3    3    0  502 -0.11599414623E+03 -0.16293625068E+03 -0.61892866651E+03  0.65044258623E+03  0.25500000920E-02 0. -1.
</event>
<event>
 5   0  0.6375625E-04  0.9013109E+03  0.7818609E-02  0.9423944E-01
       -3   -1    0    0    0  501  0.00000000000E+00  0.00000000000E+00  0.78386322980E+03  0.78386323630E+03  0.10100000352E+00 0. -1.
        3   -1    0    0  501    0  0.00000000000E+00  0.00000000000E+00 -0.25908899262E+03  0.25908901231E+03  0.10100000352E+00 0.  1.
    10030    2    1    2    0    0  0.00000000000E+00  0.00000000000E+00  0.52477423717E+03  0.10429522486E+04  0.90131093019E+03 0.  0.
        3    1    3    3  502    0  0.42750323904E+03  0.62809717281E+02  0.41051256828E+03  0.59600726413E+03  0.10100000352E+00 0.  1.
       -3    1    3    3    0  502 -0.42750323904E+03 -0.62809717281E+02  0.11426166889E+03  0.44694498448E+03  0.10100000352E+00 0. -1.
</event>
<event>
 5   0  0.1630202E-03  0.8994270E+03  0.7818609E-02  0.9426298E-01
        2   -1    0    0  501    0  0.00000000000E+00  0.00000000000E+00  0.11972538874E+04  0.11972538874E+04  0.25500000920E-02 0. -1.
       -2   -1    0    0    0  501  0.00000000000E+00  0.00000000000E+00 -0.16892176479E+03  0.16892176481E+03  0.25500000920E-02 0.  1.
    10030    2    1    2    0    0  0.00000000000E+00  0.00000000000E+00  0.10283321226E+04  0.13661756522E+04  0.89942701668E+03 0.  0.
        4    1    3    3  502    0 -0.19867223072E+03  0.32773993817E+03  0.87154169734E+03  0.95208753034E+03  0.12699999809E+01 0. -1.
       -4    1    3    3    0  502  0.19867223072E+03 -0.32773993817E+03  0.15679042529E+03  0.41408812190E+03  0.12699999809E+01 0.  1.
</event>
<event>
 5   0  0.9697941E-04  0.8971455E+03  0.7818609E-02  0.9429157E-01
       -1   -1    0    0    0  501  0.00000000000E+00  0.00000000000E+00  0.32470134455E+03  0.32470134459E+03  0.50400001928E-02 0. -1.
        1   -1    0    0  501    0  0.00000000000E+00  0.00000000000E+00 -0.61970025885E+03  0.61970025887E+03  0.50400001928E-02 0.  1.
    10030    2    1    2    0    0  0.00000000000E+00  0.00000000000E+00 -0.29499891430E+03  0.94440160346E+03  0.89714548941E+03 0.  0.
        5    1    3    3  502    0 -0.79151170686E+02 -0.57365980569E+02 -0.60832498218E+03  0.61614700964E+03  0.46999998093E+01 0.  1.
       -5    1    3    3    0  502  0.79151170686E+02  0.57365980569E+02  0.31332606788E+03  0.32825459381E+03  0.46999998093E+01 0. -1.
</event>
<event>
 5   0  0.1630202E-03  0.9037003E+03  0.7818609E-02  0.9420968E-01
       -2   -1    0    0    0  501  0.00000000000E+00  0.00000000000E+00  0.12385466568E+03  0.12385466571E+03  0.25500000920E-02 0.  1.
        2   -1    0    0  501    0  0.00000000000E+00  0.00000000000E+00 -0.16484525360E+04  0.16484525360E+04  0.25500000920E-02 0. -1.
    10030    2    1    2    0    0  0.00000000000E+00  0.00000000000E+00 -0.15245978703E+04  0.17723072017E+04  0.90370025509E+03 0.  0.
        4    1    3    3  502    0 -0.22090599133E+03 -0.10633084812E+03 -0.15066676973E+04  0.15264844805E+04  0.12699999809E+01 0. -1.
       -4    1    3    3    0  502  0.22090599133E+03  0.10633084812E+03 -0.17930173057E+02  0.24582272123E+03  0.12699999809E+01 0.  1.
</event>
<event>
 5   0  0.1630202E-03  0.8974834E+03  0.7818609E-02  0.9428733E-01
       -2   -1    0    0    0  501  0.00000000000E+00  0.00000000000E+00  0.32275523013E+03  0.32275523014E+03  0.25500000920E-02 0.  1.
        2   -1    0    0  501    0  0.00000000000E+00  0.00000000000E+00 -0.62390651848E+03  0.62390651849E+03  0.25500000920E-02 0. -1.
    10030    2    1    2    0    0  0.00000000000E+00  0.00000000000E+00 -0.30115128835E+03  0.94666174863E+03  0.89748335241E+03 0.  0.
        4    1    3    3  502    0  0.32392849825E+03  0.99409963413E+02 -0.46089986790E+03  0.57205097145E+03  0.12699999809E+01 0. -1.
       -4    1    3    3    0  502 -0.32392849825E+03 -0.99409963413E+02  0.15974857956E+03  0.37461077718E+03  0.12699999809E+01 0.  1.
</event>
<event>
 5   0  0.1704416E-03  0.8995088E+03  0.7818609E-02  0.9426196E-01
       -2   -1    0    0    0  501  0.00000000000E+00  0.00000000000E+00  0.32760451200E+03  0.32760451201E+03  0.25500000920E-02 0. -1.
        2   -1    0    0  501    0  0.00000000000E+00  0.00000000000E+00 -0.61744877218E+03  0.61744877219E+03  0.25500000920E-02 0.  1.
    10030    2    1    2    0    0  0.00000000000E+00  0.00000000000E+00 -0.28984426018E+03  0.94505328420E+03  0.89950876306E+03 0.  0.
        3    1    3    3  502    0 -0.34631948288E+03  0.13525482103E+03  0.12096877911E+03  0.39097890807E+03  0.10100000352E+00 0. -1.
       -3    1    3    3    0  502  0.34631948288E+03 -0.13525482103E+03 -0.41081303929E+03  0.55407437613E+03  0.10100000352E+00 0.  1.
</event>
<event>
 5   0  0.1007561E-03  0.9015523E+03  0.7818609E-02  0.9423643E-01
        1   -1    0    0  501    0  0.00000000000E+00  0.00000000000E+00  0.11371352003E+04  0.11371352003E+04  0.50400001928E-02 0. -1.
       -1   -1    0    0    0  501  0.00000000000E+00  0.00000000000E+00 -0.17869391944E+03  0.17869391951E+03  0.50400001928E-02 0.  1.
    10030    2    1    2    0    0  0.00000000000E+00  0.00000000000E+00  0.95844128088E+03  0.13158291198E+04  0.90155231891E+03 0.  0.
        2    1    3    3  502    0 -0.11843383106E+02 -0.12426699964E+03 -0.15296435094E+03  0.19743516806E+03  0.25500000920E-02 0.  1.
       -2    1    3    3    0  502  0.11843383106E+02  0.12426699964E+03  0.11114056318E+04  0.11183939518E+04  0.25500000920E-02 0. -1.
</event>
<event>
 5   0  0.9223454E-04  0.9019298E+03  0.7818609E-02  0.9423172E-01
       -1   -1    0    0    0  501  0.00000000000E+00  0.00000000000E+00  0.37589039591E+03  0.37589039594E+03  0.50400001928E-02 0.  1.
        1   -1    0    0  501    0  0.00000000000E+00  0.00000000000E+00 -0.54103356494E+03  0.54103356497E+03  0.50400001928E-02 0. -1.
    10030    2    1    2    0    0  0.00000000000E+00  0.00000000000E+00 -0.16514316904E+03  0.91692396091E+03  0.90192975547E+03 0.  0.
        1    1    3    3  502    0  0.23051008997E+03 -0.38546314681E+03 -0.12389936572E+03  0.46590534659E+03  0.50400001928E-02 0. -1.
       -1    1    3    3    0  502 -0.23051008997E+03  0.38546314681E+03 -0.41243803321E+02  0.45101861432E+03  0.50400001928E-02 0.  1.
</event>
<event>
 5   0  0.9697941E-04  0.8932889E+03  0.7818609E-02  0.9434010E-01
        1   -1    0    0  501    0  0.00000000000E+00  0.00000000000E+00  0.88944906013E+03  0.88944906015E+03  0.50400001928E-02 0. -1.
       -1   -1    0    0    0  501  0.00000000000E+00  0.00000000000E+00 -0.22428632030E+03  0.22428632036E+03  0.50400001928E-02 0.  1.
    10030    2    1    2    0    0  0.00000000000E+00  0.00000000000E+00  0.66516273983E+03  0.11137353805E+04  0.89328888235E+03 0.  0.
        5    1    3    3  502    0 -0.27405993239E+03 -0.29858130639E+03  0.56652981491E+03  0.69659009773E+03  0.46999998093E+01 0. -1.
       -5    1    3    3    0  502  0.27405993239E+03  0.29858130639E+03  0.98632924924E+02  0.41714528278E+03  0.46999998093E+01 0.  1.
</event>
<event>
 5   0  0.1641516E-03  0.9028794E+03  0.7818609E-02  0.9421989E-01
       -2   -1    0    0    0  501  0.00000000000E+00  0.00000000000E+00  0.15902777912E+03  0.15902777914E+03  0.25500000920E-02 0. -1.
        2   -1    0    0  501    0  0.00000000000E+00  0.00000000000E+00 -0.12815233912E+04  0.12815233912E+04  0.25500000920E-02 0.  1.
    10030    2    1    2    0    0  0.00000000000E+00  0.00000000000E+00 -0.11224956121E+04  0.14405511703E+04  0.90287943560E+03 0.  0.
        1    1    3    3  502    0  0.20413367031E+03 -0.69773464494E+02 -0.11939605505E+04  0.12132933231E+04  0.50400001928E-02 0.  1.
       -1    1    3    3    0  502 -0.20413367031E+03  0.69773464494E+02  0.71464938387E+02  0.22725784727E+03  0.50400001928E-02 0. -1.
</event>
<event>
 5   0  0.1635686E-03  0.8995490E+03  0.7818609E-02  0.9426145E-01
       -2   -1    0    0    0  501  0.00000000000E+00  0.00000000000E+00  0.20569380548E+03  0.20569380550E+03  0.25500000920E-02 0.  1.
        2   -1    0    0  501    0  0.00000000000E+00  0.00000000000E+00 -0.98348664425E+03  0.98348664425E+03  0.25500000920E-02 0. -1.
    10030    2    1    2    0    0  0.00000000000E+00  0.00000000000E+00 -0.77779283877E+03  0.11891804498E+04  0.89954902148E+03 0.  0.
        5    1    3    3  502    0  0.33632982022E+03  0.16749652107E+03 -0.62119551170E+02  0.38085924063E+03  0.46999998093E+01 0.  1.
       -5    1    3    3    0  502 -0.33632982022E+03 -0.16749652107E+03 -0.71567328760E+03  0.80832120912E+03  0.46999998093E+01 0. -1.
</event>
<event>
 5   0  0.1630202E-03  0.9011785E+03  0.7818609E-02  0.9424109E-01
        2   -1    0    0  501    0  0.00000000000E+00  0.00000000000E+00  0.18896597877E+03  0.18896597879E+03  0.25500000920E-02 0.  1.
       -2   -1    0    0    0  501  0.00000000000E+00  0.00000000000E+00 -0.10744296754E+04  0.10744296754E+04  0.25500000920E-02 0. -1.
    10030    2    1    2    0    0  0.00000000000E+00  0.00000000000E+00 -0.88546369667E+03  0.12633956542E+04  0.90117846235E+03 0.  0.
        4    1    3    3  502    0 -0.31697317791E+03  0.11659931441E+03 -0.24583889112E+02  0.33863457611E+03  0.12699999809E+01 0.  1.
       -4    1    3    3    0  502  0.31697317791E+03 -0.11659931441E+03 -0.86087980756E+03  0.92476107811E+03  0.12699999809E+01 0. -1.
</event>
<event>
 5   0  0.9697941E-04  0.9013246E+03  0.7818609E-02  0.9423927E-01
        1   -1    0    0  501    0  0.00000000000E+00  0.00000000000E+00  0.24602543323E+03  0.24602543328E+03  0.50400001928E-02 0. -1.
       -1   -1    0    0    0  501  0.00000000000E+00  0.00000000000E+00 -0.82551014284E+03  0.82551014286E+03  0.50400001928E-02 0.  1.
    10030    2    1    2    0    0  0.00000000000E+00  0.00000000000E+00 -0.57948470961E+03  0.10715355761E+04  0.90132455989E+03 0.  0.
        5    1    3    3  502    0 -0.21645192981E+03 -0.39420972190E+03 -0.25566460718E+03  0.51733859717E+03  0.46999998093E+01 0.  1.
       -5    1    3    3    0  502  0.21645192981E+03  0.39420972190E+03 -0.32382010243E+03  0.55419697897E+03  0.46999998093E+01 0. -1.
</event>
<event>
 5   0  0.9223454E-04  0.9004441E+03  0.7818609E-02  0.9425026E-01
       -1   -1    0    0    0  501  0.00000000000E+00  0.00000000000E+00  0.10249335619E+04  0.10249335619E+04  0.50400001928E-02 0.  1.
        1   -1    0    0  501    0  0.00000000000E+00  0.00000000000E+00 -0.19776880764E+03  0.19776880770E+03  0.50400001928E-02 0. -1.
    10030    2    1    2    0    0  0.00000000000E+00  0.00000000000E+00  0.82716475427E+03  0.12227023696E+04  0.90044408708E+03 0.  0.
        1    1    3    3  502    0 -0.20744767142E+03  0.25274103017E+02  0.95508286436E+03  0.97767918791E+03  0.50400001928E-02 0.  1.
       -1    1    3    3    0  502  0.20744767142E+03 -0.25274103017E+02 -0.12791811008E+03  0.24502318171E+03  0.50400001928E-02 0. -1.
</event>
<event>
 5   0  0.1007561E-03  0.9026218E+03  0.7818609E-02  0.9422310E-01
        1   -1    0    0  501    0  0.00000000000E+00  0.00000000000E+00  0.37579181424E+03  0.37579181428E+03  0.50400001928E-02 0. -1.
       -1   -1    0    0    0  501  0.00000000000E+00  0.00000000000E+00 -0.54200626875E+03  0.54200626877E+03  0.50400001928E-02 0.  1.
    10030    2    1    2    0    0  0.00000000000E+00  0.00000000000E+00 -0.16621445450E+03  0.91779808305E+03  0.90262177924E+03 0.  0.
        2    1    3    3  502    0  0.16190951030E+03  0.18017980654E+03  0.30408660825E+03  0.38877772253E+03  0.25500000920E-02 0. -1.
       -2    1    3    3    0  502 -0.16190951030E+03 -0.18017980654E+03 -0.47030106275E+03  0.52902036052E+03  0.25500000920E-02 0.  1.
</event>
<event>
 5   0  0.1007561E-03  0.9004889E+03  0.7818609E-02  0.9424970E-01
        1   -1    0    0  501    0  0.00000000000E+00  0.00000000000E+00  0.31997810748E+03  0.31997810752E+03  0.50400001928E-02 0. -1.
       -1   -1    0    0    0  501  0.00000000000E+00  0.00000000000E+00 -0.63354357277E+03  0.63354357279E+03  0.50400001928E-02 0.  1.
    10030    2    1    2    0    0  0.00000000000E+00  0.00000000000E+00 -0.31356546529E+03  0.95352168030E+03  0.90048891930E+03 0.  0.
        2    1    3    3  502    0 -0.15506143724E+03  0.28865642829E+03 -0.48376221107E+03  0.58428799387E+03  0.25500000920E-02 0.  1.
       -2    1    3    3    0  502  0.15506143724E+03 -0.28865642829E+03  0.17019674579E+03  0.36923368643E+03  0.25500000920E-02 0. -1.
</event>
<event>
 5   0  0.9321543E-04  0.8971851E+03  0.7818609E-02  0.9429107E-01
        1   -1    0    0  501    0  0.00000000000E+00  0.00000000000E+00  0.45383140261E+03  0.45383140264E+03  0.50400001928E-02 0. -1.
       -1   -1    0    0    0  501  0.00000000000E+00  0.00000000000E+00 -0.44341417682E+03  0.44341417685E+03  0.50400001928E-02 0.  1.
    10030    2    1    2    0    0  0.00000000000E+00  0.00000000000E+00  0.10417225789E+02  0.89724557948E+03  0.89718510426E+03 0.  0.
        3    1    3    3  502    0 -0.22680579611E+03  0.29162090028E+03  0.25968921830E+03  0.45157736760E+03  0.10100000352E+00 0. -1.
       -3    1    3    3    0  502  0.22680579611E+03 -0.29162090028E+03 -0.24927199251E+03  0.44566821188E+03  0.10100000352E+00 0.  1.
</event>
<event>
 5   0  0.1641516E-03  0.9020759E+03  0.7818609E-02  0.9422990E-01
        2   -1    0    0  501    0  0.00000000000E+00  0.00000000000E+00  0.55385783350E+03  0.55385783350E+03  0.25500000920E-02 0. -1.
       -2   -1    0    0    0  501  0.00000000000E+00  0.00000000000E+00 -0.36730586707E+03  0.36730586708E+03  0.25500000920E-02 0.  1.
    10030    2    1    2    0    0  0.00000000000E+00  0.00000000000E+00  0.18655196643E+03  0.92116370058E+03  0.90207589874E+03 0.  0.
        1    1    3    3  502    0 -0.21571521948E+03 -0.19084448749E+03 -0.26117176383E+03  0.38879990299E+03  0.50400001928E-02 0.  1.
       -1    1    3    3    0  502  0.21571521948E+03  0.19084448749E+03  0.44772373026E+03  0.53236379759E+03  0.50400001928E-02 0. -1.
</event>
<event>
 5   0  0.1007561E-03  0.9039576E+03  0.7818609E-02  0.9420648E-01
       -1   -1    0    0    0  501  0.00000000000E+00  0.00000000000E+00  0.19400349748E+03  0.19400349754E+03  0.50400001928E-02 0.  1.
        1   -1    0    0  501    0  0.00000000000E+00  0.00000000000E+00 -0.10529957252E+04  0.10529957252E+04  0.50400001928E-02 0. -1.
    10030    2    1    2    0    0  0.00000000000E+00  0.00000000000E+00 -0.85899222768E+03  0.12469992227E+04  0.90395763963E+03 0.  0.
        2    1    3    3  502    0  0.79131619804E+02 -0.37239439605E+03 -0.76555225170E+03  0.85499102309E+03  0.25500000920E-02 0. -1.
       -2    1    3    3    0  502 -0.79131619804E+02  0.37239439605E+03 -0.93439975981E+02  0.39200819963E+03  0.25500000920E-02 0.  1.
</event>
<event>
 5   0  0.9223454E-04  0.8986817E+03  0.7818609E-02  0.9427231E-01
        1   -1    0    0  501    0  0.00000000000E+00  0.00000000000E+00  0.28991762590E+04  0.28991762590E+04  0.50400001928E-02 0.  1.
       -1   -1    0    0    0  501  0.00000000000E+00  0.00000000000E+00 -0.69642957270E+02  0.69642957452E+02  0.50400001928E-02 0. -1.
    10030    2    1    2    0    0  0.00000000000E+00  0.00000000000E+00  0.28295333017E+04  0.29688192164E+04  0.89868172030E+03 0.  0.
        1    1    3    3  502    0 -0.37208194966E+03 -0.24823514324E+03  0.12730016551E+04  0.13492956968E+04  0.50400001928E-02 0.  1.
       -1    1    3    3    0  502  0.37208194966E+03  0.24823514324E+03  0.15565316466E+04  0.16195235196E+04  0.50400001928E-02 0. -1.
</event>
<event>
 5   0  0.1630202E-03  0.9016962E+03  0.7818609E-02  0.9423464E-01
        2   -1    0    0  501    0  0.00000000000E+00  0.00000000000E+00  0.23908432756E+03  0.23908432757E+03  0.25500000920E-02 0.  1.
       -2   -1    0    0    0  501  0.00000000000E+00  0.00000000000E+00 -0.85017701023E+03  0.85017701024E+03  0.25500000920E-02 0. -1.
    10030    2    1    2    0    0  0.00000000000E+00  0.00000000000E+00 -0.61109268268E+03  0.10892613378E+04  0.90169617678E+03 0.  0.
        4    1    3    3  502    0  0.10180414989E+03  0.47271147658E+02 -0.83302624016E+03  0.84055515942E+03  0.12699999809E+01 0. -1.
       -4    1    3    3    0  502 -0.10180414989E+03 -0.47271147658E+02  0.22193355748E+03  0.24870617839E+03  0.12699999809E+01 0.  1.
</event>
<event>
 5   0  0.9697941E-04  0.8998570E+03  0.7818609E-02  0.9425760E-01
        1   -1    0    0  501    0  0.00000000000E+00  0.00000000000E+00  0.12970845214E+04  0.12970845214E+04  0.50400001928E-02 0. -1.
       -1   -1    0    0    0  501  0.00000000000E+00  0.00000000000E+00 -0.15606976258E+03  0.15606976267E+03  0.50400001928E-02 0.  1.
    10030    2    1    2    0    0  0.00000000000E+00  0.00000000000E+00  0.11410147588E+04  0.14531542841E+04  0.89985704059E+03 0.  0.
        5    1    3    3  502    0 -0.16072140461E+03 -0.36531085827E+03  0.90588099647E+03  0.98991204803E+03  0.46999998093E+01 0. -1.
       -5    1    3    3    0  502  0.16072140461E+03  0.36531085827E+03  0.23513376234E+03  0.46324223605E+03  0.46999998093E+01 0.  1.
</event>
<event>
 5   0  0.9697941E-04  0.8732866E+03  0.7818609E-02  0.9459605E-01
       -1   -1    0    0    0  501  0.00000000000E+00  0.00000000000E+00  0.36044307442E+03  0.36044307446E+03  0.50400001928E-02 0. -1.
        1   -1    0    0  501    0  0.00000000000E+00  0.00000000000E+00 -0.52895278388E+03  0.52895278391E+03  0.50400001928E-02 0.  1.
    10030    2    1    2    0    0  0.00000000000E+00  0.00000000000E+00 -0.16850970946E+03  0.88939585837E+03  0.87328659139E+03 0.  0.
        5    1    3    3  502    0 -0.42893986199E+03 -0.52648779647E+02 -0.14764429433E+03  0.45670803239E+03  0.46999998093E+01 0. -1.
       -5    1    3    3    0  502  0.42893986199E+03  0.52648779647E+02 -0.20865415131E+02  0.43268782598E+03  0.46999998093E+01 0.  1.
</event>
<event>
 5   0  0.6375625E-04  0.9025310E+03  0.7818609E-02  0.9422423E-01
       -3   -1    0    0    0  501  0.00000000000E+00  0.00000000000E+00  0.77973494698E+03  0.77973495352E+03  0.10100000352E+00 0. -1.
        3   -1    0    0  501    0  0.00000000000E+00  0.00000000000E+00 -0.26116635976E+03  0.26116637929E+03  0.10100000352E+00 0.  1.
    10030    2    1    2    0    0  0.00000000000E+00  0.00000000000E+00  0.51856858722E+03  0.10409013328E+04  0.90253099946E+03 0.  0.
        5    1    3    3  502    0  0.35055276659E+03  0.23049569575E+03  0.45089740039E+03  0.61591075945E+03  0.46999998093E+01 0. -1.
       -5    1    3    3    0  502 -0.35055276659E+03 -0.23049569575E+03  0.67671186827E+02  0.42499057336E+03  0.46999998093E+01 0.  1.
</event>
<event>
 5   0  0.1007561E-03  0.8990341E+03  0.7818609E-02  0.9426790E-01
        1   -1    0    0  501    0  0.00000000000E+00  0.00000000000E+00  0.47889667621E+03  0.47889667624E+03  0.50400001928E-02 0. -1.
       -1   -1    0    0    0  501  0.00000000000E+00  0.00000000000E+00 -0.42193986349E+03  0.42193986352E+03  0.50400001928E-02 0.  1.
    10030    2    1    2    0    0  0.00000000000E+00  0.00000000000E+00  0.56956812727E+02  0.90083653976E+03  0.89903414443E+03 0.  0.
        2    1    3    3  502    0 -0.60563156498E+02 -0.42517674171E+03 -0.10453727247E+03  0.44200814354E+03  0.25500000920E-02 0.  1.
       -2    1    3    3    0  502  0.60563156498E+02  0.42517674171E+03  0.16149408520E+03  0.45882839622E+03  0.25500000920E-02 0. -1.
</event>
<event>
 5   0  0.1641516E-03  0.8993332E+03  0.7818609E-02  0.9426415E-01
       -2   -1    0    0    0  501  0.00000000000E+00  0.00000000000E+00  0.11311179539E+03  0.11311179542E+03  0.25500000920E-02 0.  1.
        2   -1    0    0  501    0  0.00000000000E+00  0.00000000000E+00 -0.17876125100E+04  0.17876125100E+04  0.25500000920E-02 0. -1.
    10030    2    1    2    0    0  0.00000000000E+00  0.00000000000E+00 -0.16745007146E+04  0.19007243054E+04  0.89933322079E+03 0.  0.
        1    1    3    3  502    0 -0.18209181803E+03  0.13981268711E+03 -0.16544193667E+04  0.16702719715E+04  0.50400001928E-02 0. -1.
       -1    1    3    3    0  502  0.18209181803E+03 -0.13981268711E+03 -0.20081347898E+02  0.23045233397E+03  0.50400001928E-02 0.  1.
</event>
<event>
 5   0  0.1007561E-03  0.8996137E+03  0.7818609E-02  0.9426064E-01
        1   -1    0    0  501    0  0.00000000000E+00  0.00000000000E+00  0.38652933949E+03  0.38652933953E+03  0.50400001928E-02 0.  1.
       -1   -1    0    0    0  501  0.00000000000E+00  0.00000000000E+00 -0.52344336105E+03  0.52344336108E+03  0.50400001928E-02 0. -1.
    10030    2    1    2    0    0  0.00000000000E+00  0.00000000000E+00 -0.13691402156E+03  0.90997270061E+03  0.89961373186E+03 0.  0.
        2    1    3    3  502    0 -0.11612085993E+03  0.21126820522E+03 -0.45257692740E+03  0.51278083415E+03  0.25500000920E-02 0. -1.
       -2    1    3    3    0  502  0.11612085993E+03 -0.21126820522E+03  0.31566290584E+03  0.39719186646E+03  0.25500000920E-02 0.  1.
</event>
<event>
 5   0  0.1641516E-03  0.9000952E+03  0.7818609E-02  0.9425462E-01
        2   -1    0    0  501    0  0.00000000000E+00  0.00000000000E+00  0.81516026876E+03  0.81516026877E+03  0.25500000920E-02 0.  1.
       -2   -1    0    0    0  501  0.00000000000E+00  0.00000000000E+00 -0.24846996793E+03  0.24846996794E+03  0.25500000920E-02 0. -1.
    10030    2    1    2    0    0  0.00000000000E+00  0.00000000000E+00  0.56669030084E+03  0.10636302367E+04  0.90009520795E+03 0.  0.
        1    1    3    3  502    0  0.15874661980E+02  0.40341694549E+03  0.48354080049E+02  0.40661450280E+03  0.50400001928E-02 0. -1.
       -1    1    3    3    0  502 -0.15874661980E+02 -0.40341694549E+03  0.51833622079E+03  0.65701573391E+03  0.50400001928E-02 0.  1.
</event>
<event>
 5   0  0.1704416E-03  0.9024036E+03  0.7818609E-02  0.9422582E-01
       -2   -1    0    0    0  501  0.00000000000E+00  0.00000000000E+00  0.47657148074E+03  0.47657148074E+03  0.25500000920E-02 0.  1.
        2   -1    0    0  501    0  0.00000000000E+00  0.00000000000E+00 -0.42718259833E+03  0.42718259834E+03  0.25500000920E-02 0. -1.
    10030    2    1    2    0    0  0.00000000000E+00  0.00000000000E+00  0.49388882404E+02  0.90375407908E+03  0.90240355371E+03 0.  0.
        3    1    3    3  502    0  0.12471198602E+03 -0.27403628942E+03  0.36125402003E+03  0.47026954459E+03  0.10100000352E+00 0.  1.
       -3    1    3    3    0  502 -0.12471198602E+03  0.27403628942E+03 -0.31186513763E+03  0.43348453449E+03  0.10100000352E+00 0. -1.
</event>
<event>
 5   0  0.1704416E-03  0.8985996E+03  0.7818609E-02  0.9427334E-01
       -2   -1    0    0    0  501  0.00000000000E+00  0.00000000000E+00  0.32225440346E+03  0.32225440347E+03  0.25500000920E-02 0. -1.
        2   -1    0    0  501    0  0.00000000000E+00  0.00000000000E+00 -0.62643152673E+03  0.62643152673E+03  0.25500000920E-02 0.  1.
    10030    2    1    2    0    0  0.00000000000E+00  0.00000000000E+00 -0.30417712327E+03  0.94868593020E+03  0.89859961709E+03 0.  0.
        3    1    3    3  502    0  0.36751788036E+03 -0.10325293924E+03 -0.40223334586E+03  0.55454687500E+03  0.10100000352E+00 0.  1.
       -3    1    3    3    0  502 -0.36751788036E+03  0.10325293924E+03  0.98056222596E+02  0.39413905520E+03  0.10100000352E+00 0. -1.
</event>
<event>
 5   0  0.9223454E-04  0.9028957E+03  0.7818609E-02  0.9421969E-01
        1   -1    0    0  501    0  0.00000000000E+00  0.00000000000E+00  0.33026487461E+03  0.33026487464E+03  0.50400001928E-02 0.  1.
       -1   -1    0    0    0  501  0.00000000000E+00  0.00000000000E+00 -0.61709607549E+03  0.61709607551E+03  0.50400001928E-02 0. -1.
    10030    2    1    2    0    0  0.00000000000E+00  0.00000000000E+00 -0.28683120089E+03  0.94736095016E+03  0.90289569280E+03 0.  0.
        1    1    3    3  502    0 -0.35939847506E+03  0.23706007755E+03 -0.28589865882E+03  0.51681987905E+03  0.50400001928E-02 0. -1.
       -1    1    3    3    0  502  0.35939847506E+03 -0.23706007755E+03 -0.93254206469E+00  0.43054107110E+03  0.50400001928E-02 0.  1.
</event>
<event>
 5   0  0.9697941E-04  0.9219875E+03  0.7818609E-02  0.9398506E-01
       -1   -1    0    0    0  501  0.00000000000E+00  0.00000000000E+00  0.72934482770E+03  0.72934482772E+03  0.50400001928E-02 0. -1.
        1   -1    0    0  501    0  0.00000000000E+00  0.00000000000E+00 -0.29137828967E+03  0.29137828971E+03  0.50400001928E-02 0.  1.
    10030    2    1    2    0    0  0.00000000000E+00  0.00000000000E+00  0.43796653803E+03  0.10207231174E+04  0.92198752379E+03 0.  0.
        5    1    3    3  502    0  0.39948159893E+03 -0.97614711374E+02  0.44956376459E+03  0.60929783209E+03  0.46999998093E+01 0. -1.
       -5    1    3    3    0  502 -0.39948159893E+03  0.97614711374E+02 -0.11597226558E+02  0.41142528534E+03  0.46999998093E+01 0.  1.
</event>
<event>
 5   0  0.1704416E-03  0.9021371E+03  0.7818609E-02  0.9422914E-01
       -2   -1    0    0    0  501  0.00000000000E+00  0.00000000000E+00  0.11213234352E+03  0.11213234355E+03  0.25500000920E-02 0.  1.
        2   -1    0    0  501    0  0.00000000000E+00  0.00000000000E+00 -0.18144884633E+04  0.18144884633E+04  0.25500000920E-02 0. -1.
    10030    2    1    2    0    0  0.00000000000E+00  0.00000000000E+00 -0.17023561198E+04  0.19266208069E+04  0.90213711533E+03 0.  0.
        3    1    3    3  502    0  0.26348532776E+03 -0.16679456781E+03 -0.15515676714E+03  0.34830816584E+03  0.10100000352E+00 0.  1.
       -3    1    3    3    0  502 -0.26348532776E+03  0.16679456781E+03 -0.15471993526E+04  0.15783126410E+04  0.10100000352E+00 0. -1.
</event>
<event>
 5   0  0.9697941E-04  0.9021407E+03  0.7818609E-02  0.9422909E-01
        1   -1    0    0  501    0  0.00000000000E+00  0.00000000000E+00  0.28912803766E+03  0.28912803770E+03  0.50400001928E-02 0.  1.
       -1   -1    0    0    0  501  0.00000000000E+00  0.00000000000E+00 -0.70371749563E+03  0.70371749565E+03  0.50400001928E-02 0. -1.
    10030    2    1    2    0    0  0.00000000000E+00  0.00000000000E+00 -0.41458945797E+03  0.99284553335E+03  0.90214069547E+03 0.  0.
        5    1    3    3  502    0 -0.42399050754E+03  0.15166611155E+03 -0.23582002986E+03  0.50833427620E+03  0.46999998093E+01 0.  1.
       -5    1    3    3    0  502  0.42399050754E+03 -0.15166611155E+03 -0.17876942811E+03  0.48451125715E+03  0.46999998093E+01 0. -1.
</event>
<event>
 5   0  0.1536020E-03  0.8979205E+03  0.7818609E-02  0.9428185E-01
       -2   -1    0    0    0  501  0.00000000000E+00  0.00000000000E+00  0.18688634939E+03  0.18688634941E+03  0.25500000920E-02 0.  1.
        2   -1    0    0  501    0  0.00000000000E+00  0.00000000000E+00 -0.10785447187E+04  0.10785447187E+04  0.25500000920E-02 0. -1.
    10030    2    1    2    0    0  0.00000000000E+00  0.00000000000E+00 -0.89165836928E+03  0.12654310681E+04  0.89792045336E+03 0.  0.
        2    1    3    3  502    0  0.40814672090E+03 -0.59061391310E+02 -0.19573150965E+03  0.45648966867E+03  0.25500000920E-02 0.  1.
       -2    1    3    3    0  502 -0.40814672090E+03  0.59061391310E+02 -0.69592685963E+03  0.80894139941E+03  0.25500000920E-02 0. -1.
</event>
<event>
 5   0  0.9223454E-04  0.9028652E+03  0.7818609E-02  0.9422007E-01
       -1   -1    0    0    0  501  0.00000000000E+00  0.00000000000E+00  0.25832876989E+03  0.25832876994E+03  0.50400001928E-02 0.  1.
        1   -1    0    0  501    0  0.00000000000E+00  0.00000000000E+00 -0.78888391549E+03  0.78888391550E+03  0.50400001928E-02 0. -1.
    10030    2    1    2    0    0  0.00000000000E+00  0.00000000000E+00 -0.53055514560E+03  0.10472126854E+04  0.90286524246E+03 0.  0.
        1    1    3    3  502    0  0.43488973733E+03  0.12053408631E+03 -0.25185794613E+03  0.51680748316E+03  0.50400001928E-02 0. -1.
       -1    1    3    3    0  502 -0.43488973733E+03 -0.12053408631E+03 -0.27869719947E+03  0.53040520229E+03  0.50400001928E-02 0.  1.
</event>
<event>
 5   0  0.9223454E-04  0.8961832E+03  0.7818609E-02  0.9430365E-01
        1   -1    0    0  501    0  0.00000000000E+00  0.00000000000E+00  0.15800937204E+04  0.15800937205E+04  0.50400001928E-02 0.  1.
       -1   -1    0    0    0  501  0.00000000000E+00  0.00000000000E+00 -0.12707226784E+03  0.12707226794E+03  0.50400001928E-02 0. -1.
    10030    2    1    2    0    0  0.00000000000E+00  0.00000000000E+00  0.14530214526E+04  0.17071659884E+04  0.89618322355E+03 0.  0.
        1    1    3    3  502    0  0.15010521299E+03  0.38547965662E+03  0.10545789455E+04  0.11328119407E+04  0.50400001928E-02 0.  1.
       -1    1    3    3    0  502 -0.15010521299E+03 -0.38547965662E+03  0.39844250714E+03  0.57435404774E+03  0.50400001928E-02 0. -1.
</event>
<event>
 5   0  0.9981885E-04  0.8984302E+03  0.7818609E-02  0.9427546E-01
       -1   -1    0    0    0  501  0.00000000000E+00  0.00000000000E+00  0.22349763301E+03  0.22349763306E+03  0.50400001928E-02 0. -1.
        1   -1    0    0  501    0  0.00000000000E+00  0.00000000000E+00 -0.90289192200E+03  0.90289192202E+03  0.50400001928E-02 0.  1.
    10030    2    1    2    0    0  0.00000000000E+00  0.00000000000E+00 -0.67939428900E+03  0.11263895551E+04  0.89843020312E+03 0.  0.
        4    1    3    3  502    0  0.27293045607E+03 -0.53916853250E+02 -0.78188307426E+03  0.82990410026E+03  0.12699999809E+01 0.  1.
       -4    1    3    3    0  502 -0.27293045607E+03  0.53916853250E+02  0.10248878527E+03  0.29648545482E+03  0.12699999809E+01 0. -1.
</event>
<event>
 5   0  0.1536020E-03  0.8994758E+03  0.7818609E-02  0.9426237E-01
       -2   -1    0    0    0  501  0.00000000000E+00  0.00000000000E+00  0.77689075388E+03  0.77689075388E+03  0.25500000920E-02 0.  1.
        2   -1    0    0  501    0  0.00000000000E+00  0.00000000000E+00 -0.26035084075E+03  0.26035084076E+03  0.25500000920E-02 0. -1.
    10030    2    1    2    0    0  0.00000000000E+00  0.00000000000E+00  0.51653991313E+03  0.10372415946E+04  0.89947576054E+03 0.  0.
        2    1    3    3  502    0 -0.81350408251E+02 -0.30685170292E+03 -0.10909561944E+03  0.33567500755E+03  0.25500000920E-02 0. -1.
       -2    1    3    3    0  502  0.81350408251E+02  0.30685170292E+03  0.62563553257E+03  0.70156658709E+03  0.25500000920E-02 0.  1.
</event>
<event>
 5   0  0.9321543E-04  0.8994025E+03  0.7818609E-02  0.9426329E-01
        1   -1    0    0  501    0  0.00000000000E+00  0.00000000000E+00  0.54956722440E+03  0.54956722443E+03  0.50400001928E-02 0. -1.
       -1   -1    0    0    0  501  0.00000000000E+00  0.00000000000E+00 -0.36798267870E+03  0.36798267873E+03  0.50400001928E-02 0.  1.
    10030    2    1    2    0    0  0.00000000000E+00  0.00000000000E+00  0.18158454571E+03  0.91754990316E+03  0.89940251142E+03 0.  0.
        3    1    3    3  502    0  0.21977502639E+03 -0.21440332067E+02 -0.30886525162E+03  0.37968210903E+03  0.10100000352E+00 0.  1.
       -3    1    3    3    0  502 -0.21977502639E+03  0.21440332067E+02  0.49044979732E+03  0.53786779413E+03  0.10100000352E+00 0. -1.
</event>
<event>
 5   0  0.9697941E-04  0.9004932E+03  0.7818609E-02  0.9424965E-01
        1   -1    0    0  501    0  0.00000000000E+00  0.00000000000E+00  0.35233885461E+03  0.35233885464E+03  0.50400001928E-02 0. -1.
       -1   -1    0    0    0  501  0.00000000000E+00  0.00000000000E+00 -0.57536084949E+03  0.57536084951E+03  0.50400001928E-02 0.  1.
    10030    2    1    2    0    0  0.00000000000E+00  0.00000000000E+00 -0.22302199488E+03  0.92769970415E+03  0.90049315982E+03 0.  0.
        5    1    3    3  502    0 -0.32638278765E+03  0.28905807142E+03 -0.22724202108E+03  0.49167196266E+03  0.46999998093E+01 0. -1.
       -5    1    3    3    0  502  0.32638278765E+03 -0.28905807142E+03  0.42200262024E+01  0.43602774149E+03  0.46999998093E+01 0.  1.
</event>
<event>
 5   0  0.9981885E-04  0.9001165E+03  0.7818609E-02  0.9425436E-01
        1   -1    0    0  501    0  0.00000000000E+00  0.00000000000E+00  0.82135801109E+03  0.82135801110E+03  0.50400001928E-02 0.  1.
       -1   -1    0    0    0  501  0.00000000000E+00  0.00000000000E+00 -0.24660674382E+03  0.24660674387E+03  0.50400001928E-02 0. -1.
    10030    2    1    2    0    0  0.00000000000E+00  0.00000000000E+00  0.57475126727E+03  0.10679647550E+04  0.90011649170E+03 0.  0.
        4    1    3    3  502    0 -0.37012562526E+03 -0.24940858629E+03  0.21867079773E+03  0.49700719519E+03  0.12699999809E+01 0.  1.
       -4    1    3    3    0  502  0.37012562526E+03  0.24940858629E+03  0.35608046954E+03  0.57095755978E+03  0.12699999809E+01 0. -1.
</event>
<event>
 5   0  0.1536020E-03  0.9014867E+03  0.7818609E-02  0.9423725E-01
        2   -1    0    0  501    0  0.00000000000E+00  0.00000000000E+00  0.62027685463E+03  0.62027685463E+03  0.25500000920E-02 0.  1.
       -2   -1    0    0    0  501  0.00000000000E+00  0.00000000000E+00 -0.32754655705E+03  0.32754655706E+03  0.25500000920E-02 0. -1.
    10030    2    1    2    0    0  0.00000000000E+00  0.00000000000E+00  0.29273029758E+03  0.94782341169E+03  0.90148665694E+03 0.  0.
        2    1    3    3  502    0  0.29227341300E+03 -0.30540951857E+03 -0.18107029664E+02  0.42311533476E+03  0.25500000920E-02 0. -1.
       -2    1    3    3    0  502 -0.29227341300E+03  0.30540951857E+03  0.31083732724E+03  0.52470807693E+03  0.25500000920E-02 0.  1.
</event>
<event>
 5   0  0.6375625E-04  0.9049191E+03  0.7818609E-02  0.9419453E-01
        3   -1    0    0  501    0  0.00000000000E+00  0.00000000000E+00  0.34389034269E+03  0.34389035752E+03  0.10100000352E+00 0. -1.
       -3   -1    0    0    0  501  0.00000000000E+00  0.00000000000E+00 -0.59530498158E+03  0.59530499014E+03  0.10100000352E+00 0.  1.
    10030    2    1    2    0    0  0.00000000000E+00  0.00000000000E+00 -0.25141463889E+03  0.93919534766E+03  0.90491910159E+03 0.  0.
        1    1    3    3  502    0  0.20189601398E+02 -0.25099936037E+03 -0.51586008863E+03  0.57403826526E+03  0.50400001928E-02 0.  1.
       -1    1    3    3    0  502 -0.20189601398E+02  0.25099936037E+03  0.26444544974E+03  0.36515708240E+03  0.50400001928E-02 0. -1.
</event>
<event>
 5   0  0.1630202E-03  0.8994278E+03  0.7818609E-02  0.9426297E-01
        2   -1    0    0  501    0  0.00000000000E+00  0.00000000000E+00  0.16381471755E+04  0.16381471755E+04  0.25500000920E-02 0. -1.
       -2   -1    0    0    0  501  0.00000000000E+00  0.00000000000E+00 -0.12345814230E+03  0.12345814232E+03  0.25500000920E-02 0.  1.
    10030    2    1    2    0    0  0.00000000000E+00  0.00000000000E+00  0.15146890332E+04  0.17616053179E+04  0.89942783396E+03 0.  0.
        4    1    3    3  502    0 -0.15490216343E+03 -0.89235189404E+02 -0.50873336405E+02  0.18586906284E+03  0.12699999809E+01 0.  1.
       -4    1    3    3    0  502  0.15490216343E+03  0.89235189404E+02  0.15655623697E+04  0.15757362550E+04  0.12699999809E+01 0. -1.
</event>
<event>
 5   0  0.1630202E-03  0.8885525E+03  0.7818609E-02  0.9440006E-01
       -2   -1    0    0    0  501  0.00000000000E+00  0.00000000000E+00  0.26185280214E+03  0.26185280216E+03  0.25500000920E-02 0. -1.
        2   -1    0    0  501    0  0.00000000000E+00  0.00000000000E+00 -0.75378751658E+03  0.75378751659E+03  0.25500000920E-02 0.  1.
    10030    2    1    2    0    0  0.00000000000E+00  0.00000000000E+00 -0.49193471444E+03  0.10156403187E+04  0.88855247104E+03 0.  0.
        4    1    3    3  502    0 -0.58835095498E+02 -0.41967026037E+03 -0.93489549520E+02  0.43396613309E+03  0.12699999809E+01 0. -1.
       -4    1    3    3    0  502  0.58835095498E+02  0.41967026037E+03 -0.39844516492E+03  0.58167418565E+03  0.12699999809E+01 0.  1.
</event>
<event>
 5   0  0.9981885E-04  0.8996821E+03  0.7818609E-02  0.9425979E-01
        1   -1    0    0  501    0  0.00000000000E+00  0.00000000000E+00  0.12669476676E+04  0.12669476676E+04  0.50400001928E-02 0.  1.
       -1   -1    0    0    0  501  0.00000000000E+00  0.00000000000E+00 -0.15972008328E+03  0.15972008336E+03  0.50400001928E-02 0. -1.
    10030    2    1    2    0    0  0.00000000000E+00  0.00000000000E+00  0.11072275843E+04  0.14266677509E+04  0.89968213729E+03 0.  0.
        4    1    3    3  502    0 -0.29435220232E+03  0.27121169157E+03  0.22802805753E+03  0.46064889946E+03  0.12699999809E+01 0. -1.
       -4    1    3    3    0  502  0.29435220232E+03 -0.27121169157E+03  0.87919952676E+03  0.96601885148E+03  0.12699999809E+01 0.  1.
</event>
<event>
 5   0  0.1536020E-03  0.9001440E+03  0.7818609E-02  0.9425401E-01
       -2   -1    0    0    0  501  0.00000000000E+00  0.00000000000E+00  0.13697226844E+03  0.13697226846E+03  0.25500000920E-02 0. -1.
        2   -1    0    0  501    0  0.00000000000E+00  0.00000000000E+00 -0.14788747201E+04  0.14788747201E+04  0.25500000920E-02 0.  1.
    10030    2    1    2    0    0  0.00000000000E+00  0.00000000000E+00 -0.13419024516E+04  0.16158469885E+04  0.90014404439E+03 0.  0.
        2    1    3    3  502    0 -0.41105760310E+02 -0.38155977163E+03 -0.24886532838E+03  0.45739643039E+03  0.25500000920E-02 0. -1.
       -2    1    3    3    0  502  0.41105760310E+02  0.38155977163E+03 -0.10930371232E+04  0.11584505581E+04  0.25500000920E-02 0.  1.
</event>
<event>
 5   0  0.6375625E-04  0.8963050E+03  0.7818609E-02  0.9430212E-01
       -3   -1    0    0    0  501  0.00000000000E+00  0.00000000000E+00  0.42474613829E+03  0.42474615030E+03  0.10100000352E+00 0.  1.
        3   -1    0    0  501    0  0.00000000000E+00  0.00000000000E+00 -0.47284872991E+03  0.47284874069E+03  0.10100000352E+00 0. -1.
    10030    2    1    2    0    0  0.00000000000E+00  0.00000000000E+00 -0.48102591619E+02  0.89759489099E+03  0.89630504239E+03 0.  0.
        3    1    3    3  502    0  0.35926971059E+03 -0.12237990338E+03 -0.26269888395E+03  0.46158669774E+03  0.10100000352E+00 0. -1.
       -3    1    3    3    0  502 -0.35926971059E+03  0.12237990338E+03  0.21459629233E+03  0.43600819325E+03  0.10100000352E+00 0.  1.
</event>
<event>
 5   0  0.1630202E-03  0.8994996E+03  0.7818609E-02  0.9426207E-01
       -2   -1    0    0    0  501  0.00000000000E+00  0.00000000000E+00  0.16628741311E+03  0.16628741313E+03  0.25500000920E-02 0. -1.
        2   -1    0    0  501    0  0.00000000000E+00  0.00000000000E+00 -0.12164171982E+04  0.12164171982E+04  0.25500000920E-02 0.  1.
    10030    2    1    2    0    0  0.00000000000E+00  0.00000000000E+00 -0.10501297851E+04  0.13827046114E+04  0.89949957014E+03 0.  0.
        4    1    3    3  502    0 -0.16378331666E+03  0.41685582679E+03 -0.58806170870E+03  0.73919682175E+03  0.12699999809E+01 0.  1.
       -4    1    3    3    0  502  0.16378331666E+03 -0.41685582679E+03 -0.46206807642E+03  0.64350778961E+03  0.12699999809E+01 0. -1.
</event>
<event>
 5   0  0.1635686E-03  0.8999236E+03  0.7818609E-02  0.9425677E-01
        2   -1    0    0  501    0  0.00000000000E+00  0.00000000000E+00  0.45972635644E+03  0.45972635644E+03  0.25500000920E-02 0.  1.
       -2   -1    0    0    0  501  0.00000000000E+00  0.00000000000E+00 -0.44040460823E+03  0.44040460823E+03  0.25500000920E-02 0. -1.
    10030    2    1    2    0    0  0.00000000000E+00  0.00000000000E+00  0.19321748211E+02  0.90013096468E+03  0.89992356543E+03 0.  0.
        5    1    3    3  502    0 -0.20181334810E+03  0.32204845717E+03  0.25054760336E+03  0.45523623294E+03  0.46999998093E+01 0.  1.
       -5    1    3    3    0  502  0.20181334810E+03 -0.32204845717E+03 -0.23122585515E+03  0.44489473173E+03  0.46999998093E+01 0. -1.
</event>
<event>
 5   0  0.6375625E-04  0.9007536E+03  0.7818609E-02  0.9424640E-01
        4   -1    0    0  501    0  0.00000000000E+00  0.00000000000E+00  0.92210515739E+03  0.92210603196E+03  0.12699999809E+01 0.  1.
       -4   -1    0    0    0  501  0.00000000000E+00  0.00000000000E+00 -0.21997130349E+03  0.21997496962E+03  0.12699999809E+01 0. -1.
    10030    2    1    2    0    0  0.00000000000E+00  0.00000000000E+00  0.70213385390E+03  0.11420810016E+04  0.90075360969E+03 0.  0.
        4    1    3    3  502    0 -0.36451626568E+03  0.19655593585E+03  0.12663730916E+03  0.43306461970E+03  0.12699999809E+01 0.  1.
       -4    1    3    3    0  502  0.36451626568E+03 -0.19655593585E+03  0.57549654474E+03  0.70901638188E+03  0.12699999809E+01 0. -1.
</event>
<event>
 5   0  0.1635686E-03  0.8998775E+03  0.7818609E-02  0.9425735E-01
       -2   -1    0    0    0  501  0.00000000000E+00  0.00000000000E+00  0.16850717682E+03  0.16850717684E+03  0.25500000920E-02 0. -1.
        2   -1    0    0  501    0  0.00000000000E+00  0.00000000000E+00 -0.12014021481E+04  0.12014021482E+04  0.25500000920E-02 0.  1.
    10030    2    1    2    0    0  0.00000000000E+00  0.00000000000E+00 -0.10328949713E+04  0.13699093250E+04  0.89987751217E+03 0.  0.
        5    1    3    3  502    0 -0.43827245033E+03 -0.93012863131E+02 -0.45388994970E+03  0.63778704116E+03  0.46999998093E+01 0. -1.
       -5    1    3    3    0  502  0.43827245033E+03  0.93012863131E+02 -0.57900502162E+03  0.73212228384E+03  0.46999998093E+01 0.  1.
</event>
<event>
 5   0  0.9697941E-04  0.8984631E+03  0.7818609E-02  0.9427505E-01
       -1   -1    0    0    0  501  0.00000000000E+00  0.00000000000E+00  0.25667497398E+03  0.25667497403E+03  0.50400001928E-02 0. -1.
        1   -1    0    0  501    0  0.00000000000E+00  0.00000000000E+00 -0.78624325404E+03  0.78624325406E+03  0.50400001928E-02 0.  1.
    10030    2    1    2    0    0  0.00000000000E+00  0.00000000000E+00 -0.52956828006E+03  0.10429182281E+04  0.89846305836E+03 0.  0.
        5    1    3    3  502    0 -0.39896605444E+02 -0.23547579563E+03 -0.70640924081E+03  0.74570550149E+03  0.46999998093E+01 0.  1.
       -5    1    3    3    0  502  0.39896605444E+02  0.23547579563E+03  0.17684096075E+03  0.29721272660E+03  0.46999998093E+01 0. -1.
</event>
<event>
 5   0  0.1007561E-03  0.9004933E+03  0.7818609E-02  0.9424965E-01
       -1   -1    0    0    0  501  0.00000000000E+00  0.00000000000E+00  0.39583769080E+03  0.39583769083E+03  0.50400001928E-02 0. -1.
        1   -1    0    0  501    0  0.00000000000E+00  0.00000000000E+00 -0.51213431983E+03  0.51213431986E+03  0.50400001928E-02 0.  1.
    10030    2    1    2    0    0  0.00000000000E+00  0.00000000000E+00 -0.11629662903E+03  0.90797201068E+03  0.90049334604E+03 0.  0.
        2    1    3    3  502    0 -0.16810315189E+03 -0.25822109781E+03  0.27288495461E+03  0.41158596124E+03  0.25500000920E-02 0. -1.
       -2    1    3    3    0  502  0.16810315189E+03  0.25822109781E+03 -0.38918158364E+03  0.49638604945E+03  0.25500000920E-02 0.  1.
</event>
<event>
 5   0  0.1641516E-03  0.9032952E+03  0.7818609E-02  0.9421472E-01
        2   -1    0    0  501    0  0.00000000000E+00  0.00000000000E+00  0.37949026136E+03  0.37949026136E+03  0.25500000920E-02 0. -1.
       -2   -1    0    0    0  501  0.00000000000E+00  0.00000000000E+00 -0.53752510885E+03  0.53752510885E+03  0.25500000920E-02 0.  1.
    10030    2    1    2    0    0  0.00000000000E+00  0.00000000000E+00 -0.15803484749E+03  0.91701537022E+03  0.90329517667E+03 0.  0.
        1    1    3    3  502    0 -0.45062338013E+03 -0.49050867557E+01 -0.48560848328E+02  0.45325891785E+03  0.50400001928E-02 0. -1.
       -1    1    3    3    0  502  0.45062338013E+03  0.49050867557E+01 -0.10947399916E+03  0.46375645237E+03  0.50400001928E-02 0.  1.
</event>
<event>
 5   0  0.9981885E-04  0.8981978E+03  0.7818609E-02  0.9427837E-01
        1   -1    0    0  501    0  0.00000000000E+00  0.00000000000E+00  0.19705965684E+03  0.19705965691E+03  0.50400001928E-02 0.  1.
       -1   -1    0    0    0  501  0.00000000000E+00  0.00000000000E+00 -0.10234963548E+04  0.10234963549E+04  0.50400001928E-02 0. -1.
    10030    2    1    2    0    0  0.00000000000E+00  0.00000000000E+00 -0.82643669800E+03  0.12205560118E+04  0.89819784126E+03 0.  0.
        4    1    3    3  502    0 -0.13621087477E+02  0.19544378000E+03 -0.96236037316E+03  0.98210127070E+03  0.12699999809E+01 0. -1.
       -4    1    3    3    0  502  0.13621087477E+02 -0.19544378000E+03  0.13592367517E+03  0.23845474107E+03  0.12699999809E+01 0.  1.
</event>
<event>
 5   0  0.1704416E-03  0.9034937E+03  0.7818609E-02  0.9421225E-01
        2   -1    0    0  501    0  0.00000000000E+00  0.00000000000E+00  0.31883990272E+03  0.31883990273E+03  0.25500000920E-02 0.  1.
       -2   -1    0    0    0  501  0.00000000000E+00  0.00000000000E+00 -0.64005544514E+03  0.64005544515E+03  0.25500000920E-02 0. -1.
    10030    2    1    2    0    0  0.00000000000E+00  0.00000000000E+00 -0.32121554242E+03  0.95889534788E+03  0.90349369864E+03 0.  0.
        3    1    3    3  502    0  0.43785862810E+03 -0.26715561149E+02 -0.46096841407E+02  0.44108823199E+03  0.10100000352E+00 0.  1.
       -3    1    3    3    0  502 -0.43785862810E+03  0.26715561149E+02 -0.27511870101E+03  0.51780711588E+03  0.10100000352E+00 0. -1.
</event>
<event>
 5   0  0.9697941E-04  0.9007748E+03  0.7818609E-02  0.9424613E-01
       -1   -1    0    0    0  501  0.00000000000E+00  0.00000000000E+00  0.40085793620E+03  0.40085793623E+03  0.50400001928E-02 0. -1.
        1   -1    0    0  501    0  0.00000000000E+00  0.00000000000E+00 -0.50603661686E+03  0.50603661688E+03  0.50400001928E-02 0.  1.
    10030    2    1    2    0    0  0.00000000000E+00  0.00000000000E+00 -0.10517868066E+03  0.90689455311E+03  0.90077476408E+03 0.  0.
        5    1    3    3  502    0  0.28001439587E+03 -0.34649591364E+03 -0.11906232324E+03  0.46115659691E+03  0.46999998093E+01 0. -1.
       -5    1    3    3    0  502 -0.28001439587E+03  0.34649591364E+03  0.13883642587E+02  0.44573795620E+03  0.46999998093E+01 0.  1.
</event>
<event>
 5   0  0.9321543E-04  0.9050070E+03  0.7818609E-02  0.9419344E-01
       -1   -1    0    0    0  501  0.00000000000E+00  0.00000000000E+00  0.29741341347E+03  0.29741341351E+03  0.50400001928E-02 0.  1.
        1   -1    0    0  501    0  0.00000000000E+00  0.00000000000E+00 -0.68846732491E+03  0.68846732493E+03  0.50400001928E-02 0. -1.
    10030    2    1    2    0    0  0.00000000000E+00  0.00000000000E+00 -0.39105391144E+03  0.98588073844E+03  0.90500699930E+03 0.  0.
        3    1    3    3  502    0  0.20967474455E+03 -0.12463250913E+03 -0.61071937866E+03  0.65762826164E+03  0.10100000352E+00 0. -1.
       -3    1    3    3    0  502 -0.20967474455E+03  0.12463250913E+03  0.21966546723E+03  0.32825247680E+03  0.10100000352E+00 0.  1.
</event>
<event>
 5   0  0.9697941E-04  0.8966167E+03  0.7818609E-02  0.9429821E-01
       -1   -1    0    0    0  501  0.00000000000E+00  0.00000000000E+00  0.31134898819E+03  0.31134898823E+03  0.50400001928E-02 0. -1.
        1   -1    0    0  501    0  0.00000000000E+00  0.00000000000E+00 -0.64551477985E+03  0.64551477987E+03  0.50400001928E-02 0.  1.
    10030    2    1    2    0    0  0.00000000000E+00  0.00000000000E+00 -0.33416579166E+03  0.95686376810E+03  0.89661669313E+03 0.  0.
        5    1    3    3  502    0  0.19819814504E+03 -0.26148890958E+03 -0.49305658703E+03  0.59227176410E+03  0.46999998093E+01 0.  1.
       -5    1    3    3    0  502 -0.19819814504E+03  0.26148890958E+03  0.15889079537E+03  0.36459200401E+03  0.46999998093E+01 0. -1.
</event>
<event>
 5   0  0.1536020E-03  0.8988144E+03  0.7818609E-02  0.9427065E-01
       -2   -1    0    0    0  501  0.00000000000E+00  0.00000000000E+00  0.24608965991E+03  0.24608965992E+03  0.25500000920E-02 0.  1.
        2   -1    0    0  501    0  0.00000000000E+00  0.00000000000E+00 -0.82070427416E+03  0.82070427417E+03  0.25500000920E-02 0. -1.
    10030    2    1    2    0    0  0.00000000000E+00  0.00000000000E+00 -0.57461461425E+03  0.10667939341E+04  0.89881440960E+03 0.  0.
        2    1    3    3  502    0 -0.10438601864E+03 -0.17641652892E+03 -0.76198560841E+03  0.78907623206E+03  0.25500000920E-02 0. -1.
       -2    1    3    3    0  502  0.10438601864E+03  0.17641652892E+03  0.18737099416E+03  0.27771770203E+03  0.25500000920E-02 0.  1.
</event>
<event>
 5   0  0.1635686E-03  0.9032977E+03  0.7818609E-02  0.9421468E-01
       -2   -1    0    0    0  501  0.00000000000E+00  0.00000000000E+00  0.29709012867E+03  0.29709012868E+03  0.25500000920E-02 0.  1.
        2   -1    0    0  501    0  0.00000000000E+00  0.00000000000E+00 -0.68661550986E+03  0.68661550986E+03  0.25500000920E-02 0. -1.
    10030    2    1    2    0    0  0.00000000000E+00  0.00000000000E+00 -0.38952538119E+03  0.98370563854E+03  0.90329771433E+03 0.  0.
        5    1    3    3  502    0 -0.40380997684E+03 -0.11467358176E+03 -0.13344028626E+02  0.42001509598E+03  0.46999998093E+01 0.  1.
       -5    1    3    3    0  502  0.40380997684E+03  0.11467358176E+03 -0.37618135257E+03  0.56369054256E+03  0.46999998093E+01 0. -1.
</event>
<event>
 5   0  0.9981885E-04  0.8996974E+03  0.7818609E-02  0.9425960E-01
       -1   -1    0    0    0  501  0.00000000000E+00  0.00000000000E+00  0.35876605649E+03  0.35876605653E+03  0.50400001928E-02 0. -1.
        1   -1    0    0  501    0  0.00000000000E+00  0.00000000000E+00 -0.56405513528E+03  0.56405513530E+03  0.50400001928E-02 0.  1.
    10030    2    1    2    0    0  0.00000000000E+00  0.00000000000E+00 -0.20528907879E+03  0.92282119183E+03  0.89969736368E+03 0.  0.
        4    1    3    3  502    0 -0.35687509633E+03 -0.27038777548E+03 -0.14726952411E+03  0.47133778667E+03  0.12699999809E+01 0. -1.
       -4    1    3    3    0  502  0.35687509633E+03  0.27038777548E+03 -0.58019554681E+02  0.45148340516E+03  0.12699999809E+01 0.  1.
</event>
<event>
 5   0  0.1630202E-03  0.9117278E+03  0.7818609E-02  0.9411039E-01
        2   -1    0    0  501    0  0.00000000000E+00  0.00000000000E+00  0.49762886778E+03  0.49762886778E+03  0.25500000920E-02 0. -1.
       -2   -1    0    0    0  501  0.00000000000E+00  0.00000000000E+00 -0.41760416340E+03  0.41760416341E+03  0.25500000920E-02 0.  1.
    10030    2    1    2    0    0  0.00000000000E+00  0.00000000000E+00  0.80024704373E+02  0.91523303119E+03  0.91172778179E+03 0.  0.
        4    1    3    3  502    0 -0.33706612934E+03  0.14311238475E+03  0.31256225665E+03  0.48144730490E+03  0.12699999809E+01 0. -1.
       -4    1    3    3    0  502  0.33706612934E+03 -0.14311238475E+03 -0.23253755228E+03  0.43378572629E+03  0.12699999809E+01 0.  1.
</event>
<event>
 5   0  0.9697941E-04  0.9001400E+03  0.7818609E-02  0.9425406E-01
        1   -1    0    0  501    0  0.00000000000E+00  0.00000000000E+00  0.17473597330E+04  0.17473597330E+04  0.50400001928E-02 0.  1.
       -1   -1    0    0    0  501  0.00000000000E+00  0.00000000000E+00 -0.11592518693E+03  0.11592518704E+03  0.50400001928E-02 0. -1.
    10030    2    1    2    0    0  0.00000000000E+00  0.00000000000E+00  0.16314345460E+04  0.18632849200E+04  0.90013999753E+03 0.  0.
        5    1    3    3  502    0 -0.70029967436E+02  0.32661086434E+03  0.14400259264E+04  0.14782677740E+04  0.46999998093E+01 0.  1.
       -5    1    3    3    0  502  0.70029967436E+02 -0.32661086434E+03  0.19140861967E+03  0.38501714602E+03  0.46999998093E+01 0. -1.
</event>
<event>
 5   0  0.1536020E-03  0.9015162E+03  0.7818609E-02  0.9423688E-01
        2   -1    0    0  501    0  0.00000000000E+00  0.00000000000E+00  0.11931365553E+04  0.11931365553E+04  0.25500000920E-02 0. -1.
       -2   -1    0    0    0  501  0.00000000000E+00  0.00000000000E+00 -0.17029305219E+03  0.17029305221E+03  0.25500000920E-02 0.  1.
    10030    2    1    2    0    0  0.00000000000E+00  0.00000000000E+00  0.10228435031E+04  0.13634296075E+04  0.90151620217E+03 0.  0.
        2    1    3    3  502    0 -0.16974422180E+03  0.33192157956E+03  0.12822717116E+03  0.39424261977E+03  0.25500000920E-02 0.  1.
       -2    1    3    3    0  502  0.16974422180E+03 -0.33192157956E+03  0.89461633195E+03  0.96918698774E+03  0.25500000920E-02 0. -1.
</event>
<event>
 5   0  0.1704416E-03  0.8999972E+03  0.7818609E-02  0.9425585E-01
       -2   -1    0    0    0  501  0.00000000000E+00  0.00000000000E+00  0.10267938746E+03  0.10267938749E+03  0.25500000920E-02 0. -1.
        2   -1    0    0  501    0  0.00000000000E+00  0.00000000000E+00 -0.19721459329E+04  0.19721459329E+04  0.25500000920E-02 0.  1.
    10030    2    1    2    0    0  0.00000000000E+00  0.00000000000E+00 -0.18694665454E+04  0.20748253204E+04  0.89999719202E+03 0.  0.
        3    1    3    3  502    0  0.16995406550E+03 -0.28354692677E+03 -0.16385902337E+04  0.16716043814E+04  0.10100000352E+00 0.  1.
       -3    1    3    3    0  502 -0.16995406550E+03  0.28354692677E+03 -0.23087631179E+03  0.40322093895E+03  0.10100000352E+00 0. -1.
</event>
<event>
 5   0  0.1007561E-03  0.9016265E+03  0.7818609E-02  0.9423550E-01
        1   -1    0    0  501    0  0.00000000000E+00  0.00000000000E+00  0.67085372741E+03  0.67085372743E+03  0.50400001928E-02 0.  1.
       -1   -1    0    0    0  501  0.00000000000E+00  0.00000000000E+00 -0.30294621219E+03  0.30294621223E+03  0.50400001928E-02 0. -1.
    10030    2    1    2    0    0  0.00000000000E+00  0.00000000000E+00  0.36790751522E+03  0.97379993967E+03  0.90162652065E+03 0.  0.
        2    1    3    3  502    0 -0.27482918858E+03  0.35068997623E+03  0.25814019055E+03  0.51492805352E+03  0.25500000920E-02 0.  1.
       -2    1    3    3    0  502  0.27482918858E+03 -0.35068997623E+03  0.10976732467E+03  0.45887188614E+03  0.25500000920E-02 0. -1.
</event>
<event>
 5   0  0.9697941E-04  0.9000331E+03  0.7818609E-02  0.9425540E-01
       -1   -1    0    0    0  501  0.00000000000E+00  0.00000000000E+00  0.11934142986E+03  0.11934142997E+03  0.50400001928E-02 0. -1.
        1   -1    0    0  501    0  0.00000000000E+00  0.00000000000E+00 -0.16969371755E+04  0.16969371755E+04  0.50400001928E-02 0.  1.
    10030    2    1    2    0    0  0.00000000000E+00  0.00000000000E+00 -0.15775957456E+04  0.18162786055E+04  0.90003313053E+03 0.  0.
        5    1    3    3  502    0  0.23735851653E+03 -0.38212018568E+03 -0.81249705748E+03  0.92872410332E+03  0.46999998093E+01 0.  1.
       -5    1    3    3    0  502 -0.23735851653E+03  0.38212018568E+03 -0.76509868813E+03  0.88755450213E+03  0.46999998093E+01 0. -1.
</event>
<event>
 5   0  0.1704416E-03  0.9006308E+03  0.7818609E-02  0.9424793E-01
       -2   -1    0    0    0  501  0.00000000000E+00  0.00000000000E+00  0.45596294609E+03  0.45596294609E+03  0.25500000920E-02 0. -1.
        2   -1    0    0  501    0  0.00000000000E+00  0.00000000000E+00 -0.44473785110E+03  0.44473785111E+03  0.25500000920E-02 0.  1.
    10030    2    1    2    0    0  0.00000000000E+00  0.00000000000E+00  0.11225094986E+02  0.90070079720E+03  0.90063084742E+03 0.  0.
        3    1    3    3  502    0 -0.32877492575E+03 -0.27572251217E+03 -0.13102937520E+03  0.44864748175E+03  0.10100000352E+00 0.  1.
       -3    1    3    3    0  502  0.32877492575E+03  0.27572251217E+03  0.14225447019E+03  0.45205331545E+03  0.10100000352E+00 0. -1.
</event>
<event>
 5   0  0.1704416E-03  0.8989863E+03  0.7818609E-02  0.9426849E-01
        2   -1    0    0  501    0  0.00000000000E+00  0.00000000000E+00  0.21464627763E+04  0.21464627763E+04  0.25500000920E-02 0.  1.
       -2   -1    0    0    0  501  0.00000000000E+00  0.00000000000E+00 -0.94128858017E+02  0.94128858051E+02  0.25500000920E-02 0. -1.
    10030    2    1    2    0    0  0.00000000000E+00  0.00000000000E+00  0.20523339183E+04  0.22405916344E+04  0.89898629567E+03 0.  0.
        3    1    3    3  502    0 -0.29077513567E+03  0.94912953980E+02  0.20525733178E+03  0.36836019167E+03  0.10100000352E+00 0. -1.
       -3    1    3    3    0  502  0.29077513567E+03 -0.94912953980E+02  0.18470765865E+04  0.18722314427E+04  0.10100000352E+00 0.  1.
</event>
<event>
 5   0  0.1536020E-03  0.9014098E+03  0.7818609E-02  0.9423821E-01
       -2   -1    0    0    0  501  0.00000000000E+00  0.00000000000E+00  0.93712367156E+02  0.93712367190E+02  0.25500000920E-02 0.  1.
        2   -1    0    0  501    0  0.00000000000E+00  0.00000000000E+00 -0.21676425011E+04  0.21676425011E+04  0.25500000920E-02 0. -1.
    10030    2    1    2    0    0  0.00000000000E+00  0.00000000000E+00 -0.20739301339E+04  0.22613548683E+04  0.90140980683E+03 0.  0.
        2    1    3    3  502    0 -0.26373028056E+02  0.30276843659E+03 -0.18719118355E+04  0.18964224694E+04  0.25500000920E-02 0. -1.
       -2    1    3    3    0  502  0.26373028056E+02 -0.30276843659E+03 -0.20201829845E+03  0.36493239883E+03  0.25500000920E-02 0.  1.
</event>
<event>
 5   0  0.9223454E-04  0.9003265E+03  0.7818609E-02  0.9425173E-01
        1   -1    0    0  501    0  0.00000000000E+00  0.00000000000E+00  0.14032049729E+04  0.14032049729E+04  0.50400001928E-02 0.  1.
       -1   -1    0    0    0  501  0.00000000000E+00  0.00000000000E+00 -0.14441721589E+03  0.14441721597E+03  0.50400001928E-02 0. -1.
    10030    2    1    2    0    0  0.00000000000E+00  0.00000000000E+00  0.12587877570E+04  0.15476221888E+04  0.90032650872E+03 0.  0.
        1    1    3    3  502    0 -0.44005782796E+03 -0.25806314547E+02  0.78628196228E+03  0.90141898252E+03  0.50400001928E-02 0.  1.
       -1    1    3    3    0  502  0.44005782796E+03  0.25806314547E+02  0.47250579469E+03  0.64620320632E+03  0.50400001928E-02 0. -1.
</event>
<event>
 5   0  0.1630202E-03  0.8985169E+03  0.7818609E-02  0.9427437E-01
       -2   -1    0    0    0  501  0.00000000000E+00  0.00000000000E+00  0.14059189662E+03  0.14059189665E+03  0.25500000920E-02 0.  1.
        2   -1    0    0  501    0  0.00000000000E+00  0.00000000000E+00 -0.14355959534E+04  0.14355959534E+04  0.25500000920E-02 0. -1.
    10030    2    1    2    0    0  0.00000000000E+00  0.00000000000E+00 -0.12950040568E+04  0.15761878500E+04  0.89851690667E+03 0.  0.
        4    1    3    3  502    0 -0.30136203031E+03  0.24257065246E+02 -0.64575808339E+02  0.30915873989E+03  0.12699999809E+01 0.  1.
       -4    1    3    3    0  502  0.30136203031E+03 -0.24257065246E+02 -0.12304282484E+04  0.12670291102E+04  0.12699999809E+01 0. -1.
</event>
<event>
 5   0  0.1704416E-03  0.8978810E+03  0.7818609E-02  0.9428234E-01
        2   -1    0    0  501    0  0.00000000000E+00  0.00000000000E+00  0.17462190872E+04  0.17462190872E+04  0.25500000920E-02 0. -1.
       -2   -1    0    0    0  501  0.00000000000E+00  0.00000000000E+00 -0.11541940761E+03  0.11541940763E+03  0.25500000920E-02 0.  1.
    10030    2    1    2    0    0  0.00000000000E+00  0.00000000000E+00  0.16307996796E+04  0.18616384949E+04  0.89788100019E+03 0.  0.
        3    1    3    3  502    0 -0.60693160060E+02  0.81027919656E+02  0.17222430674E+04  0.17252160377E+04  0.10100000352E+00 0. -1.
       -3    1    3    3    0  502  0.60693160060E+02 -0.81027919656E+02 -0.91443387775E+02  0.13642245713E+03  0.10100000352E+00 0.  1.
</event>
<event>
 5   0  0.1007561E-03  0.8989655E+03  0.7818609E-02  0.9426876E-01
        1   -1    0    0  501    0  0.00000000000E+00  0.00000000000E+00  0.33084298238E+03  0.33084298242E+03  0.50400001928E-02 0.  1.
       -1   -1    0    0    0  501  0.00000000000E+00  0.00000000000E+00 -0.61066650442E+03  0.61066650444E+03  0.50400001928E-02 0. -1.
    10030    2    1    2    0    0  0.00000000000E+00  0.00000000000E+00 -0.27982352204E+03  0.94150948686E+03  0.89896546672E+03 0.  0.
        2    1    3    3  502    0  0.13357170548E+03 -0.30998247491E+03  0.17095907325E+03  0.37836165238E+03  0.25500000920E-02 0.  1.
       -2    1    3    3    0  502 -0.13357170548E+03  0.30998247491E+03 -0.45078259529E+03  0.56314783448E+03  0.25500000920E-02 0. -1.
</event>
<event>
 5   0  0.9223454E-04  0.9003506E+03  0.7818609E-02  0.9425143E-01
        1   -1    0    0  501    0  0.00000000000E+00  0.00000000000E+00  0.93984237862E+03  0.93984237863E+03  0.50400001928E-02 0. -1.
       -1   -1    0    0    0  501  0.00000000000E+00  0.00000000000E+00 -0.21562958462E+03  0.21562958468E+03  0.50400001928E-02 0.  1.
    10030    2    1    2    0    0  0.00000000000E+00  0.00000000000E+00  0.72421279400E+03  0.11554719633E+04  0.90035064670E+03 0.  0.
        1    1    3    3  502    0 -0.45666702339E+02  0.27787764812E+03  0.81284894057E+03  0.86024696178E+03  0.50400001928E-02 0. -1.
       -1    1    3    3    0  502  0.45666702339E+02 -0.27787764812E+03 -0.88636146574E+02  0.29522500154E+03  0.50400001928E-02 0.  1.
</event>
<event>
 5   0  0.1641516E-03  0.9010821E+03  0.7818609E-02  0.9424230E-01
       -2   -1    0    0    0  501  0.00000000000E+00  0.00000000000E+00  0.19626881495E+03  0.19626881496E+03  0.25500000920E-02 0.  1.
        2   -1    0    0  501    0  0.00000000000E+00  0.00000000000E+00 -0.10342307021E+04  0.10342307021E+04  0.25500000920E-02 0. -1.
    10030    2    1    2    0    0  0.00000000000E+00  0.00000000000E+00 -0.83796188718E+03  0.12304995171E+04  0.90108209238E+03 0.  0.
        1    1    3    3  502    0  0.15488661377E+03 -0.42188581147E+03 -0.37558786999E+03  0.58569936755E+03  0.50400001928E-02 0.  1.
       -1    1    3    3    0  502 -0.15488661377E+03  0.42188581147E+03 -0.46237401720E+03  0.64480014954E+03  0.50400001928E-02 0. -1.
</event>
<event>
 5   0  0.9697941E-04  0.9000265E+03  0.7818609E-02  0.9425548E-01
       -1   -1    0    0    0  501  0.00000000000E+00  0.00000000000E+00  0.11412287411E+03  0.11412287422E+03  0.50400001928E-02 0.  1.
        1   -1    0    0  501    0  0.00000000000E+00  0.00000000000E+00 -0.17745076888E+04  0.17745076888E+04  0.50400001928E-02 0. -1.
    10030    2    1    2    0    0  0.00000000000E+00  0.00000000000E+00 -0.16603848147E+04  0.18886305630E+04  0.90002648335E+03 0.  0.
        5    1    3    3  502    0 -0.36203773035E+03 -0.22083932611E+03 -0.51439289036E+03  0.66668092953E+03  0.46999998093E+01 0. -1.
       -5    1    3    3    0  502  0.36203773035E+03  0.22083932611E+03 -0.11459919243E+04  0.12219496335E+04  0.46999998093E+01 0.  1.
</event>
<event>
 5   0  0.9981885E-04  0.9001301E+03  0.7818609E-02  0.9425419E-01
        1   -1    0    0  501    0  0.00000000000E+00  0.00000000000E+00  0.97816428244E+03  0.97816428245E+03  0.50400001928E-02 0.  1.
       -1   -1    0    0    0  501  0.00000000000E+00  0.00000000000E+00 -0.20708028763E+03  0.20708028770E+03  0.50400001928E-02 0. -1.
    10030    2    1    2    0    0  0.00000000000E+00  0.00000000000E+00  0.77108399481E+03  0.11852445701E+04  0.90013008172E+03 0.  0.
        4    1    3    3  502    0  0.12517226515E+02 -0.39885084087E+03  0.65959727494E+03  0.77091429630E+03  0.12699999809E+01 0.  1.
       -4    1    3    3    0  502 -0.12517226515E+02  0.39885084087E+03  0.11148671986E+03  0.41433027385E+03  0.12699999809E+01 0. -1.
</event>
<event>
 5   0  0.1704416E-03  0.8979394E+03  0.7818609E-02  0.9428161E-01
       -2   -1    0    0    0  501  0.00000000000E+00  0.00000000000E+00  0.19310167598E+03  0.19310167599E+03  0.25500000920E-02 0.  1.
        2   -1    0    0  501    0  0.00000000000E+00  0.00000000000E+00 -0.10438738081E+04  0.10438738081E+04  0.25500000920E-02 0. -1.
    10030    2    1    2    0    0  0.00000000000E+00  0.00000000000E+00 -0.85077213210E+03  0.12369754841E+04  0.89793937849E+03 0.  0.
        3    1    3    3  502    0  0.20865401369E+03 -0.17771899877E+03 -0.91525403273E+03  0.95541116520E+03  0.10100000352E+00 0. -1.
       -3    1    3    3    0  502 -0.20865401369E+03  0.17771899877E+03  0.64481900632E+02  0.28156431887E+03  0.10100000352E+00 0.  1.
</event>
<event>
 5   0  0.9981885E-04  0.8999090E+03  0.7818609E-02  0.9425695E-01
       -1   -1    0    0    0  501  0.00000000000E+00  0.00000000000E+00  0.35196750875E+03  0.35196750878E+03  0.50400001928E-02 0. -1.
        1   -1    0    0  501    0  0.00000000000E+00  0.00000000000E+00 -0.57522079447E+03  0.57522079449E+03  0.50400001928E-02 0.  1.
    10030    2    1    2    0    0  0.00000000000E+00  0.00000000000E+00 -0.22325328572E+03  0.92718830328E+03  0.89990895103E+03 0.  0.
        4    1    3    3  502    0 -0.16494469640E+03 -0.29395784955E+03 -0.41872132489E+03  0.53753802749E+03  0.12699999809E+01 0.  1.
       -4    1    3    3    0  502  0.16494469640E+03  0.29395784955E+03  0.19546803917E+03  0.38965027578E+03  0.12699999809E+01 0. -1.
</event>
<event>
 5   0  0.9223454E-04  0.9023359E+03  0.7818609E-02  0.9422666E-01
       -1   -1    0    0    0  501  0.00000000000E+00  0.00000000000E+00  0.21947288501E+03  0.21947288507E+03  0.50400001928E-02 0. -1.
        1   -1    0    0  501    0  0.00000000000E+00  0.00000000000E+00 -0.92746085144E+03  0.92746085145E+03  0.50400001928E-02 0.  1.
    10030    2    1    2    0    0  0.00000000000E+00  0.00000000000E+00 -0.70798796643E+03  0.11469337365E+04  0.90233587724E+03 0.  0.
        1    1    3    3  502    0 -0.18548763057E+03  0.37478273441E+03 -0.13871797373E+03  0.44057965837E+03  0.50400001928E-02 0. -1.
       -1    1    3    3    0  502  0.18548763057E+03 -0.37478273441E+03 -0.56926999270E+03  0.70635407815E+03  0.50400001928E-02 0.  1.
</event>
<event>
 5   0  0.1007561E-03  0.8996844E+03  0.7818609E-02  0.9425976E-01
        1   -1    0    0  501    0  0.00000000000E+00  0.00000000000E+00  0.11201833052E+04  0.11201833052E+04  0.50400001928E-02 0.  1.
       -1   -1    0    0    0  501  0.00000000000E+00  0.00000000000E+00 -0.18064723482E+03  0.18064723489E+03  0.50400001928E-02 0. -1.
    10030    2    1    2    0    0  0.00000000000E+00  0.00000000000E+00  0.93953607034E+03  0.13008305401E+04  0.89968442606E+03 0.  0.
        2    1    3    3  502    0  0.28621972718E+03  0.22681528880E+03  0.89992411785E+02  0.37611905249E+03  0.25500000920E-02 0. -1.
       -2    1    3    3    0  502 -0.28621972718E+03 -0.22681528880E+03  0.84954365855E+03  0.92471148757E+03  0.25500000920E-02 0.  1.
</event>
<event>
 5   0  0.1641516E-03  0.9003580E+03  0.7818609E-02  0.9425134E-01
        2   -1    0    0  501    0  0.00000000000E+00  0.00000000000E+00  0.20293491890E+04  0.20293491890E+04  0.25500000920E-02 0.  1.
       -2   -1    0    0    0  501  0.00000000000E+00  0.00000000000E+00 -0.99865087832E+02  0.99865087865E+02  0.25500000920E-02 0. -1.
    10030    2    1    2    0    0  0.00000000000E+00  0.00000000000E+00  0.19294841011E+04  0.21292142768E+04  0.90035800665E+03 0.  0.
        1    1    3    3  502    0 -0.26797259710E+03  0.22178805268E+03  0.16405352709E+04  0.16770078200E+04  0.50400001928E-02 0.  1.
       -1    1    3    3    0  502  0.26797259710E+03 -0.22178805268E+03  0.28894883021E+03  0.45220645685E+03  0.50400001928E-02 0. -1.
</event>
<event>
 5   0  0.9697941E-04  0.9189328E+03  0.7818609E-02  0.9402219E-01
       -1   -1    0    0    0  501  0.00000000000E+00  0.00000000000E+00  0.72560644959E+03  0.72560644961E+03  0.50400001928E-02 0.  1.
        1   -1    0    0  501    0  0.00000000000E+00  0.00000000000E+00 -0.29094197675E+03  0.29094197680E+03  0.50400001928E-02 0. -1.
    10030    2    1    2    0    0  0.00000000000E+00  0.00000000000E+00  0.43466447284E+03  0.10165484264E+04  0.91893280455E+03 0.  0.
        5    1    3    3  502    0 -0.11504767519E+03 -0.16366611779E+03  0.67486746760E+03  0.70391104161E+03  0.46999998093E+01 0.  1.
       -5    1    3    3    0  502  0.11504767519E+03  0.16366611779E+03 -0.24020299476E+03  0.31263738479E+03  0.46999998093E+01 0. -1.
</event>
<event>
 5   0  0.1704416E-03  0.9004534E+03  0.7818609E-02  0.9425015E-01
       -2   -1    0    0    0  501  0.00000000000E+00  0.00000000000E+00  0.14237131665E+03  0.14237131667E+03  0.25500000920E-02 0. -1.
        2   -1    0    0  501    0  0.00000000000E+00  0.00000000000E+00 -0.14237704687E+04  0.14237704687E+04  0.25500000920E-02 0.  1.
    10030    2    1    2    0    0  0.00000000000E+00  0.00000000000E+00 -0.12813991520E+04  0.15661417853E+04  0.90045338859E+03 0.  0.
        3    1    3    3  502    0 -0.43563235154E+03  0.10360500759E+03 -0.72217748661E+03  0.84973517973E+03  0.10100000352E+00 0. -1.
       -3    1    3    3    0  502  0.43563235154E+03 -0.10360500759E+03 -0.55922166540E+03  0.71640660561E+03  0.10100000352E+00 0.  1.
</event>
<event>
 5   0  0.1536020E-03  0.9022880E+03  0.7818609E-02  0.9422726E-01
        2   -1    0    0  501    0  0.00000000000E+00  0.00000000000E+00  0.19788077396E+04  0.19788077396E+04  0.25500000920E-02 0. -1.
       -2   -1    0    0    0  501  0.00000000000E+00  0.00000000000E+00 -0.10285531249E+03  0.10285531252E+03  0.25500000920E-02 0.  1.
    10030    2    1    2    0    0  0.00000000000E+00  0.00000000000E+00  0.18759524271E+04  0.20816630521E+04  0.90228795502E+03 0.  0.
        2    1    3    3  502    0 -0.16519691565E+03 -0.41979447012E+03  0.94644370575E+03  0.10484622579E+04  0.25500000920E-02 0.  1.
       -2    1    3    3    0  502  0.16519691565E+03  0.41979447012E+03  0.92950872132E+03  0.10332007942E+04  0.25500000920E-02 0. -1.
</event>
<event>
 5   0  0.1630202E-03  0.9032536E+03  0.7818609E-02  0.9421523E-01
        2   -1    0    0  501    0  0.00000000000E+00  0.00000000000E+00  0.14233554981E+04  0.14233554981E+04  0.25500000920E-02 0. -1.
       -2   -1    0    0    0  501  0.00000000000E+00  0.00000000000E+00 -0.14329995438E+03  0.14329995441E+03  0.25500000920E-02 0.  1.
    10030    2    1    2    0    0  0.00000000000E+00  0.00000000000E+00  0.12800555438E+04  0.15666554526E+04  0.90325362546E+03 0.  0.
        4    1    3    3  502    0  0.42283115063E+03 -0.11458510100E+03  0.83041752394E+03  0.93888806802E+03  0.12699999809E+01 0. -1.
       -4    1    3    3    0  502 -0.42283115063E+03  0.11458510100E+03  0.44963801982E+03  0.62776738453E+03  0.12699999809E+01 0.  1.
</event>
<event>
 5   0  0.1704416E-03  0.8998236E+03  0.7818609E-02  0.9425802E-01
        2   -1    0    0  501    0  0.00000000000E+00  0.00000000000E+00  0.30523404971E+03  0.30523404972E+03  0.25500000920E-02 0. -1.
       -2   -1    0    0    0  501  0.00000000000E+00  0.00000000000E+00 -0.66316533695E+03  0.66316533696E+03  0.25500000920E-02 0.  1.
    10030    2    1    2    0    0  0.00000000000E+00  0.00000000000E+00 -0.35793128724E+03  0.96839938668E+03  0.89982363035E+03 0.  0.
        3    1    3    3  502    0 -0.29466505577E+03  0.24673271784E+03  0.72775781995E+02  0.39115323569E+03  0.10100000352E+00 0. -1.
       -3    1    3    3    0  502  0.29466505577E+03 -0.24673271784E+03 -0.43070706924E+03  0.57724615099E+03  0.10100000352E+00 0.  1.
</event>
<event>
 5   0  0.9223454E-04  0.9001166E+03  0.7818609E-02  0.9425436E-01
       -1   -1    0    0    0  501  0.00000000000E+00  0.00000000000E+00  0.17795466348E+03  0.17795466355E+03  0.50400001928E-02 0.  1.
        1   -1    0    0  501    0  0.00000000000E+00  0.00000000000E+00 -0.11382251894E+04  0.11382251894E+04  0.50400001928E-02 0. -1.
    10030    2    1    2    0    0  0.00000000000E+00  0.00000000000E+00 -0.96027052588E+03  0.13161798529E+04  0.90011661597E+03 0.  0.
        1    1    3    3  502    0 -0.20163738573E+03 -0.23847173372E+03 -0.62589150852E+01  0.31235488975E+03  0.50400001928E-02 0.  1.
       -1    1    3    3    0  502  0.20163738573E+03  0.23847173372E+03 -0.95401161080E+03  0.10038249632E+04  0.50400001928E-02 0. -1.
</event>
<event>
 5   0  0.9697941E-04  0.8990161E+03  0.7818609E-02  0.9426812E-01
       -1   -1    0    0    0  501  0.00000000000E+00  0.00000000000E+00  0.10804173832E+04  0.10804173832E+04  0.50400001928E-02 0.  1.
        1   -1    0    0  501    0  0.00000000000E+00  0.00000000000E+00 -0.18701800241E+03  0.18701800248E+03  0.50400001928E-02 0. -1.
    10030    2    1    2    0    0  0.00000000000E+00  0.00000000000E+00  0.89339938075E+03  0.12674353857E+04  0.89901613072E+03 0.  0.
        5    1    3    3  502    0  0.23939342651E+03  0.40874116182E+01 -0.89599142968E+02  0.25568734033E+03  0.46999998093E+01 0. -1.
       -5    1    3    3    0  502 -0.23939342651E+03 -0.40874116182E+01  0.98299852372E+03  0.10117480453E+04  0.46999998093E+01 0.  1.
</event>
<event>
 5   0  0.6375625E-04  0.9014035E+03  0.7818609E-02  0.9423829E-01
        3   -1    0    0  501    0  0.00000000000E+00  0.00000000000E+00  0.20465170989E+03  0.20465173482E+03  0.10100000352E+00 0.  1.
       -3   -1    0    0    0  501  0.00000000000E+00  0.00000000000E+00 -0.99257447528E+03  0.99257448042E+03  0.10100000352E+00 0. -1.
    10030    2    1    2    0    0  0.00000000000E+00  0.00000000000E+00 -0.78792276539E+03  0.11972262152E+04  0.90140353130E+03 0.  0.
        2    1    3    3  502    0 -0.23680131769E+03 -0.11889903366E+03 -0.87819230197E+03  0.91729687861E+03  0.25500000920E-02 0. -1.
       -2    1    3    3    0  502  0.23680131769E+03  0.11889903366E+03  0.90269536577E+02  0.27992933663E+03  0.25500000920E-02 0.  1.
</event>
<event>
 5   0  0.1630202E-03  0.9003059E+03  0.7818609E-02  0.9425199E-01
       -2   -1    0    0    0  501  0.00000000000E+00  0.00000000000E+00  0.13617662483E+03  0.13617662485E+03  0.25500000920E-02 0. -1.
        2   -1    0    0  501    0  0.00000000000E+00  0.00000000000E+00 -0.14880503738E+04  0.14880503738E+04  0.25500000920E-02 0.  1.
    10030    2    1    2    0    0  0.00000000000E+00  0.00000000000E+00 -0.13518737489E+04  0.16242269986E+04  0.90030589801E+03 0.  0.
        4    1    3    3  502    0  0.23486512709E+03  0.10471402932E+03 -0.93789088345E+01  0.25732514975E+03  0.12699999809E+01 0. -1.
       -4    1    3    3    0  502 -0.23486512709E+03 -0.10471402932E+03 -0.13424948401E+04  0.13669018489E+04  0.12699999809E+01 0.  1.
</event>
<event>
 5   0  0.1536020E-03  0.9006872E+03  0.7818609E-02  0.9424723E-01
       -2   -1    0    0    0  501  0.00000000000E+00  0.00000000000E+00  0.37415879186E+03  0.37415879186E+03  0.25500000920E-02 0. -1.
        2   -1    0    0  501    0  0.00000000000E+00  0.00000000000E+00 -0.54204083598E+03  0.54204083599E+03  0.25500000920E-02 0.  1.
    10030    2    1    2    0    0  0.00000000000E+00  0.00000000000E+00 -0.16788204413E+03  0.91619962785E+03  0.90068716952E+03 0.  0.
        2    1    3    3  502    0 -0.29818181130E+03 -0.33735539697E+03 -0.93499013940E+02  0.45985119557E+03  0.25500000920E-02 0. -1.
       -2    1    3    3    0  502  0.29818181130E+03  0.33735539697E+03 -0.74383030186E+02  0.45634843228E+03  0.25500000920E-02 0.  1.
</event>
<event>
 5   0  0.1007561E-03  0.9023908E+03  0.7818609E-02  0.9422598E-01
        1   -1    0    0  501    0  0.00000000000E+00  0.00000000000E+00  0.80891564852E+03  0.80891564854E+03  0.50400001928E-02 0. -1.
       -1   -1    0    0    0  501  0.00000000000E+00  0.00000000000E+00 -0.25166688868E+03  0.25166688873E+03  0.50400001928E-02 0.  1.
    10030    2    1    2    0    0  0.00000000000E+00  0.00000000000E+00  0.55724875985E+03  0.10605825373E+04  0.90239079007E+03 0.  0.
        2    1    3    3  502    0  0.19984983778E+03 -0.63339176711E+02 -0.19094624405E+03  0.28357058573E+03  0.25500000920E-02 0.  1.
       -2    1    3    3    0  502 -0.19984983778E+03  0.63339176711E+02  0.74819500390E+03  0.77701195154E+03  0.25500000920E-02 0. -1.
</event>
<event>
 5   0  0.6375625E-04  0.8978108E+03  0.7818609E-02  0.9428322E-01
        4   -1    0    0  501    0  0.00000000000E+00  0.00000000000E+00  0.45939686189E+03  0.45939861734E+03  0.12699999809E+01 0. -1.
       -4   -1    0    0    0  501  0.00000000000E+00  0.00000000000E+00 -0.43865000236E+03  0.43865184084E+03  0.12699999809E+01 0.  1.
    10030    2    1    2    0    0  0.00000000000E+00  0.00000000000E+00  0.20746859529E+02  0.89805045818E+03  0.89781077809E+03 0.  0.
        1    1    3    3  502    0  0.28676072404E+03  0.10551679730E+03 -0.31857685903E+03  0.44142578368E+03  0.50400001928E-02 0.  1.
       -1    1    3    3    0  502 -0.28676072404E+03 -0.10551679730E+03  0.33932371856E+03  0.45662467450E+03  0.50400001928E-02 0. -1.
</event>
<event>
 5   0  0.1641516E-03  0.9010110E+03  0.7818609E-02  0.9424319E-01
        2   -1    0    0  501    0  0.00000000000E+00  0.00000000000E+00  0.17173110516E+03  0.17173110518E+03  0.25500000920E-02 0.  1.
       -2   -1    0    0    0  501  0.00000000000E+00  0.00000000000E+00 -0.11818197013E+04  0.11818197013E+04  0.25500000920E-02 0. -1.
    10030    2    1    2    0    0  0.00000000000E+00  0.00000000000E+00 -0.10100885961E+04  0.13535508065E+04  0.90101099530E+03 0.  0.
        1    1    3    3  502    0 -0.27179062763E+02 -0.12961940290E+03  0.14182608828E+03  0.19404775289E+03  0.50400001928E-02 0.  1.
       -1    1    3    3    0  502  0.27179062763E+02  0.12961940290E+03 -0.11519146844E+04  0.11595030536E+04  0.50400001928E-02 0. -1.
</event>
<event>
 5   0  0.9981885E-04  0.9001717E+03  0.7818609E-02  0.9425367E-01
        1   -1    0    0  501    0  0.00000000000E+00  0.00000000000E+00  0.83656233962E+03  0.83656233963E+03  0.50400001928E-02 0.  1.
       -1   -1    0    0    0  501  0.00000000000E+00  0.00000000000E+00 -0.24215444346E+03  0.24215444351E+03  0.50400001928E-02 0. -1.
    10030    2    1    2    0    0  0.00000000000E+00  0.00000000000E+00  0.59440789616E+03  0.10787167831E+04  0.90017173429E+03 0.  0.
        4    1    3    3  502    0  0.26036003453E+03  0.29628390825E+03  0.55701060348E+03  0.68252027601E+03  0.12699999809E+01 0.  1.
       -4    1    3    3    0  502 -0.26036003453E+03 -0.29628390825E+03  0.37397292682E+02  0.39619650714E+03  0.12699999809E+01 0. -1.
</event>
<event>
 5   0  0.9697941E-04  0.8990801E+03  0.7818609E-02  0.9426732E-01
       -1   -1    0    0    0  501  0.00000000000E+00  0.00000000000E+00  0.21080566727E+03  0.21080566733E+03  0.50400001928E-02 0.  1.
        1   -1    0    0  501    0  0.00000000000E+00  0.00000000000E+00 -0.95863773967E+03  0.95863773969E+03  0.50400001928E-02 0. -1.
    10030    2    1    2    0    0  0.00000000000E+00  0.00000000000E+00 -0.74783207241E+03  0.11694434070E+04  0.89908012640E+03 0.  0.
        5    1    3    3  502    0  0.25498229773E+03  0.26962774092E+03 -0.43963091561E+02  0.37372440949E+03  0.46999998093E+01 0.  1.
       -5    1    3    3    0  502 -0.25498229773E+03 -0.26962774092E+03 -0.70386898085E+03  0.79571899753E+03  0.46999998093E+01 0. -1.
</event>
<event>
 5   0  0.9223454E-04  0.8998552E+03  0.7818609E-02  0.9425762E-01
       -1   -1    0    0    0  501  0.00000000000E+00  0.00000000000E+00  0.85893567580E+03  0.85893567581E+03  0.50400001928E-02 0.  1.
        1   -1    0    0  501    0  0.00000000000E+00  0.00000000000E+00 -0.23568102647E+03  0.23568102653E+03  0.50400001928E-02 0. -1.
    10030    2    1    2    0    0  0.00000000000E+00  0.00000000000E+00  0.62325464932E+03  0.10946167023E+04  0.89985519232E+03 0.  0.
        1    1    3    3  502    0 -0.40816972725E+03 -0.72205613692E+02  0.52448169340E+03  0.66850371998E+03  0.50400001928E-02 0.  1.
       -1    1    3    3    0  502  0.40816972725E+03  0.72205613692E+02  0.98772955923E+02  0.42611298236E+03  0.50400001928E-02 0. -1.
</event>
<event>
 5   0  0.9321543E-04  0.8997889E+03  0.7818609E-02  0.9425845E-01
        1   -1    0    0  501    0  0.00000000000E+00  0.00000000000E+00  0.21208519478E+04  0.21208519478E+04  0.50400001928E-02 0.  1.
       -1   -1    0    0    0  501  0.00000000000E+00  0.00000000000E+00 -0.95435711391E+02  0.95435711524E+02  0.50400001928E-02 0. -1.
    10030    2    1    2    0    0  0.00000000000E+00  0.00000000000E+00  0.20254162364E+04  0.22162876593E+04  0.89978889645E+03 0.  0.
        3    1    3    3  502    0  0.43125325265E+03 -0.64935684240E+02  0.12848688267E+04  0.13568654772E+04  0.10100000352E+00 0.  1.
       -3    1    3    3    0  502 -0.43125325265E+03  0.64935684240E+02  0.74054740965E+03  0.85942218214E+03  0.10100000352E+00 0. -1.
</event>
<event>
 5   0  0.1641516E-03  0.9002534E+03  0.7818609E-02  0.9425265E-01
        2   -1    0    0  501    0  0.00000000000E+00  0.00000000000E+00  0.11328844623E+04  0.11328844623E+04  0.25500000920E-02 0. -1.
       -2   -1    0    0    0  501  0.00000000000E+00  0.00000000000E+00 -0.17884792156E+03  0.17884792158E+03  0.25500000920E-02 0.  1.
    10030    2    1    2    0    0  0.00000000000E+00  0.00000000000E+00  0.95403654078E+03  0.13117323839E+04  0.90025336760E+03 0.  0.
        1    1    3    3  502    0 -0.33682229139E+03 -0.57284019401E+02  0.50011373608E+02  0.34529965591E+03  0.50400001928E-02 0.  1.
       -1    1    3    3    0  502  0.33682229139E+03  0.57284019401E+02  0.90402516717E+03  0.96643272801E+03  0.50400001928E-02 0. -1.
</event>
<event>
 5   0  0.1641516E-03  0.9024699E+03  0.7818609E-02  0.9422499E-01
        2   -1    0    0  501    0  0.00000000000E+00  0.00000000000E+00  0.11160301512E+04  0.11160301512E+04  0.25500000920E-02 0. -1.
       -2   -1    0    0    0  501  0.00000000000E+00  0.00000000000E+00 -0.18244399523E+03  0.18244399524E+03  0.25500000920E-02 0.  1.
    10030    2    1    2    0    0  0.00000000000E+00  0.00000000000E+00  0.93358615600E+03  0.12984741465E+04  0.90246994321E+03 0.  0.
        1    1    3    3  502    0 -0.28617101581E+02  0.10488231152E+03 -0.16331899239E+03  0.19619462550E+03  0.50400001928E-02 0.  1.
       -1    1    3    3    0  502  0.28617101581E+02 -0.10488231152E+03  0.10969051484E+04  0.11022795210E+04  0.50400001928E-02 0. -1.
</event>
<event>
 5   0  0.9697941E-04  0.8985530E+03  0.7818609E-02  0.9427392E-01
        1   -1    0    0  501    0  0.00000000000E+00  0.00000000000E+00  0.19120456277E+04  0.19120456277E+04  0.50400001928E-02 0. -1.
       -1   -1    0    0    0  501  0.00000000000E+00  0.00000000000E+00 -0.10556722649E+03  0.10556722661E+03  0.50400001928E-02 0.  1.
    10030    2    1    2    0    0  0.00000000000E+00  0.00000000000E+00  0.18064784012E+04  0.20176128543E+04  0.89855295662E+03 0.  0.
        5    1    3    3  502    0  0.10126164980E+03  0.42968698883E+03  0.71614943347E+03  0.84129479444E+03  0.46999998093E+01 0.  1.
       -5    1    3    3    0  502 -0.10126164980E+03 -0.42968698883E+03  0.10903289677E+04  0.11763180599E+04  0.46999998093E+01 0. -1.
</event>
<event>
 5   0  0.1630202E-03  0.9030141E+03  0.7818609E-02  0.9421822E-01
        2   -1    0    0  501    0  0.00000000000E+00  0.00000000000E+00  0.73488981812E+03  0.73488981812E+03  0.25500000920E-02 0. -1.
       -2   -1    0    0    0  501  0.00000000000E+00  0.00000000000E+00 -0.27740022755E+03  0.27740022756E+03  0.25500000920E-02 0.  1.
    10030    2    1    2    0    0  0.00000000000E+00  0.00000000000E+00  0.45748959057E+03  0.10122900457E+04  0.90301407028E+03 0.  0.
        4    1    3    3  502    0  0.44603221984E+03 -0.48014886673E+02  0.28598035329E+03  0.53201179108E+03  0.12699999809E+01 0.  1.
       -4    1    3    3    0  502 -0.44603221984E+03  0.48014886673E+02  0.17150923728E+03  0.48027825461E+03  0.12699999809E+01 0. -1.
</event>
<event>
 5   0  0.1007561E-03  0.9024963E+03  0.7818609E-02  0.9422466E-01
        1   -1    0    0  501    0  0.00000000000E+00  0.00000000000E+00  0.47326015189E+03  0.47326015191E+03  0.50400001928E-02 0. -1.
       -1   -1    0    0    0  501  0.00000000000E+00  0.00000000000E+00 -0.43025992951E+03  0.43025992954E+03  0.50400001928E-02 0.  1.
    10030    2    1    2    0    0  0.00000000000E+00  0.00000000000E+00  0.43000222373E+02  0.90352008146E+03  0.90249627062E+03 0.  0.
        2    1    3    3  502    0  0.44830665559E+02  0.20335853987E+03 -0.37927938817E+03  0.43268618952E+03  0.25500000920E-02 0.  1.
       -2    1    3    3    0  502 -0.44830665559E+02 -0.20335853987E+03  0.42227961054E+03  0.47083389193E+03  0.25500000920E-02 0. -1.
</event>
<event>
 5   0  0.1635686E-03  0.8994030E+03  0.7818609E-02  0.9426328E-01
        2   -1    0    0  501    0  0.00000000000E+00  0.00000000000E+00  0.10670711598E+04  0.10670711598E+04  0.25500000920E-02 0. -1.
       -2   -1    0    0    0  501  0.00000000000E+00  0.00000000000E+00 -0.18952012408E+03  0.18952012410E+03  0.25500000920E-02 0.  1.
    10030    2    1    2    0    0  0.00000000000E+00  0.00000000000E+00  0.87755103569E+03  0.12565912839E+04  0.89940304339E+03 0.  0.
        5    1    3    3  502    0 -0.27059681790E+03  0.70228147579E+02 -0.53316554089E+02  0.28463902667E+03  0.46999998093E+01 0.  1.
       -5    1    3    3    0  502  0.27059681790E+03 -0.70228147579E+02  0.93086758978E+03  0.97195225719E+03  0.46999998093E+01 0. -1.
</event>
<event>
 5   0  0.1635686E-03  0.9011072E+03  0.7818609E-02  0.9424198E-01
       -2   -1    0    0    0  501  0.00000000000E+00  0.00000000000E+00  0.19611373879E+03  0.19611373881E+03  0.25500000920E-02 0. -1.
        2   -1    0    0  501    0  0.00000000000E+00  0.00000000000E+00 -0.10351061223E+04  0.10351061223E+04  0.25500000920E-02 0.  1.
    10030    2    1    2    0    0  0.00000000000E+00  0.00000000000E+00 -0.83899238353E+03  0.12312198611E+04  0.90110716722E+03 0.  0.
        5    1    3    3  502    0 -0.36296408045E+03 -0.23627611742E+03 -0.24989854519E+03  0.50004069859E+03  0.46999998093E+01 0. -1.
       -5    1    3    3    0  502  0.36296408045E+03  0.23627611742E+03 -0.58909383835E+03  0.73117916254E+03  0.46999998093E+01 0.  1.
</event>
<event>
 5   0  0.1704416E-03  0.9000142E+03  0.7818609E-02  0.9425564E-01
       -2   -1    0    0    0  501  0.00000000000E+00  0.00000000000E+00  0.39688565833E+03  0.39688565834E+03  0.25500000920E-02 0.  1.
        2   -1    0    0  501    0  0.00000000000E+00  0.00000000000E+00 -0.51023858080E+03  0.51023858081E+03  0.25500000920E-02 0. -1.
    10030    2    1    2    0    0  0.00000000000E+00  0.00000000000E+00 -0.11335292247E+03  0.90712423914E+03  0.90001416667E+03 0.  0.
        3    1    3    3  502    0 -0.31637910904E+03 -0.19176060720E+03  0.20154761324E+03  0.42129481568E+03  0.10100000352E+00 0.  1.
       -3    1    3    3    0  502  0.31637910904E+03  0.19176060720E+03 -0.31490053571E+03  0.48582942347E+03  0.10100000352E+00 0. -1.
</event>
<event>
 5   0  0.1635686E-03  0.9000086E+03  0.7818609E-02  0.9425571E-01
       -2   -1    0    0    0  501  0.00000000000E+00  0.00000000000E+00  0.93895876574E+03  0.93895876574E+03  0.25500000920E-02 0.  1.
        2   -1    0    0  501    0  0.00000000000E+00  0.00000000000E+00 -0.21566853628E+03  0.21566853629E+03  0.25500000920E-02 0. -1.
    10030    2    1    2    0    0  0.00000000000E+00  0.00000000000E+00  0.72329022946E+03  0.11546273020E+04  0.90000858360E+03 0.  0.
        5    1    3    3  502    0 -0.26473326131E+03 -0.11147050679E+03  0.80600602002E+03  0.85567351708E+03  0.46999998093E+01 0.  1.
       -5    1    3    3    0  502  0.26473326131E+03  0.11147050679E+03 -0.82715790563E+02  0.29895378495E+03  0.46999998093E+01 0. -1.
</event>
<event>
 5   0  0.1536020E-03  0.9010575E+03  0.7818609E-02  0.9424260E-01
       -2   -1    0    0    0  501  0.00000000000E+00  0.00000000000E+00  0.11299607281E+03  0.11299607284E+03  0.25500000920E-02 0. -1.
        2   -1    0    0  501    0  0.00000000000E+00  0.00000000000E+00 -0.17963115824E+04  0.17963115824E+04  0.25500000920E-02 0.  1.
    10030    2    1    2    0    0  0.00000000000E+00  0.00000000000E+00 -0.16833155096E+04  0.19093076552E+04  0.90105749955E+03 0.  0.
        2    1    3    3  502    0 -0.14071060983E+03 -0.42776180290E+03 -0.87136246142E+03  0.98084258417E+03  0.25500000920E-02 0. -1.
       -2    1    3    3    0  502  0.14071060983E+03  0.42776180290E+03 -0.81195304813E+03  0.92846507103E+03  0.25500000920E-02 0.  1.
</event>
<event>
 5   0  0.1635686E-03  0.9013723E+03  0.7818609E-02  0.9423868E-01
        2   -1    0    0  501    0  0.00000000000E+00  0.00000000000E+00  0.10407041512E+04  0.10407041512E+04  0.25500000920E-02 0. -1.
       -2   -1    0    0    0  501  0.00000000000E+00  0.00000000000E+00 -0.19517364239E+03  0.19517364240E+03  0.25500000920E-02 0.  1.
    10030    2    1    2    0    0  0.00000000000E+00  0.00000000000E+00  0.84553050877E+03  0.12358777936E+04  0.90137233115E+03 0.  0.
        5    1    3    3  502    0 -0.20303498117E+03 -0.16083618555E+03  0.92841275130E+03  0.96387956143E+03  0.46999998093E+01 0. -1.
       -5    1    3    3    0  502  0.20303498117E+03  0.16083618555E+03 -0.82882242530E+02  0.27199823214E+03  0.46999998093E+01 0.  1.
</event>
<event>
 5   0  0.1536020E-03  0.8997486E+03  0.7818609E-02  0.9425896E-01
       -2   -1    0    0    0  501  0.00000000000E+00  0.00000000000E+00  0.17177624865E+03  0.17177624867E+03  0.25500000920E-02 0. -1.
        2   -1    0    0  501    0  0.00000000000E+00  0.00000000000E+00 -0.11782006296E+04  0.11782006296E+04  0.25500000920E-02 0.  1.
    10030    2    1    2    0    0  0.00000000000E+00  0.00000000000E+00 -0.10064243809E+04  0.13499768782E+04  0.89974859670E+03 0.  0.
        2    1    3    3  502    0 -0.35536355446E+03  0.26649591926E+03 -0.61018880526E+03  0.75474082233E+03  0.25500000920E-02 0. -1.
       -2    1    3    3    0  502  0.35536355446E+03 -0.26649591926E+03 -0.39623557565E+03  0.59523605589E+03  0.25500000920E-02 0.  1.
</event>
<event>
 5   0  0.1630202E-03  0.9006248E+03  0.7818609E-02  0.9424801E-01
        2   -1    0    0  501    0  0.00000000000E+00  0.00000000000E+00  0.37681371908E+03  0.37681371909E+03  0.25500000920E-02 0. -1.
       -2   -1    0    0    0  501  0.00000000000E+00  0.00000000000E+00 -0.53814727221E+03  0.53814727222E+03  0.25500000920E-02 0.  1.
    10030    2    1    2    0    0  0.00000000000E+00  0.00000000000E+00 -0.16133355313E+03  0.91496099131E+03  0.90062483879E+03 0.  0.
        4    1    3    3  502    0  0.12177975244E+03  0.37889340332E+03  0.13337425644E+03  0.41973899552E+03  0.12699999809E+01 0.  1.
       -4    1    3    3    0  502 -0.12177975244E+03 -0.37889340332E+03 -0.29470780958E+03  0.49522199578E+03  0.12699999809E+01 0. -1.
</event>
<event>
 5   0  0.1641516E-03  0.9107069E+03  0.7818609E-02  0.9412295E-01
        2   -1    0    0  501    0  0.00000000000E+00  0.00000000000E+00  0.12949818075E+04  0.12949818075E+04  0.25500000920E-02 0. -1.
       -2   -1    0    0    0  501  0.00000000000E+00  0.00000000000E+00 -0.16011558197E+03  0.16011558199E+03  0.25500000920E-02 0.  1.
    10030    2    1    2    0    0  0.00000000000E+00  0.00000000000E+00  0.11348662255E+04  0.14550973895E+04  0.91070690293E+03 0.  0.
        1    1    3    3  502    0 -0.27499688541E+02  0.50132104279E+02  0.12892229923E+04  0.12904903659E+04  0.50400001928E-02 0. -1.
       -1    1    3    3    0  502  0.27499688541E+02 -0.50132104279E+02 -0.15435676672E+03  0.16460702357E+03  0.50400001928E-02 0.  1.
</event>
<event>
 5   0  0.9223454E-04  0.8987983E+03  0.7818609E-02  0.9427085E-01
        1   -1    0    0  501    0  0.00000000000E+00  0.00000000000E+00  0.30493122193E+03  0.30493122197E+03  0.50400001928E-02 0. -1.
       -1   -1    0    0    0  501  0.00000000000E+00  0.00000000000E+00 -0.66231191290E+03  0.66231191292E+03  0.50400001928E-02 0.  1.
    10030    2    1    2    0    0  0.00000000000E+00  0.00000000000E+00 -0.35738069097E+03  0.96724313489E+03  0.89879826642E+03 0.  0.
        1    1    3    3  502    0  0.13408005587E+03 -0.47873417817E+02  0.28002075254E+03  0.31413523743E+03  0.50400001928E-02 0. -1.
       -1    1    3    3    0  502 -0.13408005587E+03  0.47873417817E+02 -0.63740144351E+03  0.65310789746E+03  0.50400001928E-02 0.  1.
</event>
<event>
 5   0  0.9697941E-04  0.9011641E+03  0.7818609E-02  0.9424127E-01
        1   -1    0    0  501    0  0.00000000000E+00  0.00000000000E+00  0.64918296122E+03  0.64918296124E+03  0.50400001928E-02 0.  1.
       -1   -1    0    0    0  501  0.00000000000E+00  0.00000000000E+00 -0.31273799352E+03  0.31273799356E+03  0.50400001928E-02 0. -1.
    10030    2    1    2    0    0  0.00000000000E+00  0.00000000000E+00  0.33644496770E+03  0.96192095480E+03  0.90116408439E+03 0.  0.
        5    1    3    3  502    0 -0.87010353640E+02  0.52002787282E+02  0.63682734137E+03  0.64486141476E+03  0.46999998093E+01 0.  1.
       -5    1    3    3    0  502  0.87010353640E+02 -0.52002787282E+02 -0.30038237367E+03  0.31705954005E+03  0.46999998093E+01 0. -1.
</event>
<event>
 5   0  0.1007561E-03  0.9003240E+03  0.7818609E-02  0.9425176E-01
        1   -1    0    0  501    0  0.00000000000E+00  0.00000000000E+00  0.48262249093E+03  0.48262249095E+03  0.50400001928E-02 0. -1.
       -1   -1    0    0    0  501  0.00000000000E+00  0.00000000000E+00 -0.41988479096E+03  0.41988479099E+03  0.50400001928E-02 0.  1.
    10030    2    1    2    0    0  0.00000000000E+00  0.00000000000E+00  0.62737699966E+02  0.90250728194E+03  0.90032403887E+03 0.  0.
        2    1    3    3  502    0  0.26407346377E+03  0.14007621913E+02  0.39655273623E+03  0.47663936089E+03  0.25500000920E-02 0. -1.
       -2    1    3    3    0  502 -0.26407346377E+03 -0.14007621913E+02 -0.33381503626E+03  0.42586792105E+03  0.25500000920E-02 0.  1.
</event>
<event>
 5   0  0.9697941E-04  0.9004747E+03  0.7818609E-02  0.9424988E-01
        1   -1    0    0  501    0  0.00000000000E+00  0.00000000000E+00  0.14833320881E+04  0.14833320881E+04  0.50400001928E-02 0. -1.
       -1   -1    0    0    0  501  0.00000000000E+00  0.00000000000E+00 -0.13666102332E+03  0.13666102341E+03  0.50400001928E-02 0.  1.
    10030    2    1    2    0    0  0.00000000000E+00  0.00000000000E+00  0.13466710647E+04  0.16199931115E+04  0.90047472183E+03 0.  0.
        5    1    3    3  502    0 -0.34481375418E+03 -0.49793402618E+02  0.11863490392E+04  0.12364554342E+04  0.46999998093E+01 0. -1.
       -5    1    3    3    0  502  0.34481375418E+03  0.49793402618E+02  0.16032202556E+03  0.38353767728E+03  0.46999998093E+01 0.  1.
</event>
<event>
 5   0  0.1641516E-03  0.9015303E+03  0.7818609E-02  0.9423671E-01
        2   -1    0    0  501    0  0.00000000000E+00  0.00000000000E+00  0.34958372592E+03  0.34958372593E+03  0.25500000920E-02 0.  1.
       -2   -1    0    0    0  501  0.00000000000E+00  0.00000000000E+00 -0.58123189724E+03  0.58123189724E+03  0.25500000920E-02 0. -1.
    10030    2    1    2    0    0  0.00000000000E+00  0.00000000000E+00 -0.23164817131E+03  0.93081562318E+03  0.90153028184E+03 0.  0.
        1    1    3    3  502    0 -0.19524339109E+03  0.16475412779E+03 -0.49927106955E+03  0.56083465059E+03  0.50400001928E-02 0. -1.
       -1    1    3    3    0  502  0.19524339109E+03 -0.16475412779E+03  0.26762289824E+03  0.36998097259E+03  0.50400001928E-02 0.  1.
</event>
<event>
 5   0  0.1630202E-03  0.8996094E+03  0.7818609E-02  0.9426070E-01
        2   -1    0    0  501    0  0.00000000000E+00  0.00000000000E+00  0.64813183714E+03  0.64813183714E+03  0.25500000920E-02 0.  1.
       -2   -1    0    0    0  501  0.00000000000E+00  0.00000000000E+00 -0.31216530266E+03  0.31216530267E+03  0.25500000920E-02 0. -1.
    10030    2    1    2    0    0  0.00000000000E+00  0.00000000000E+00  0.33596653447E+03  0.96029713981E+03  0.89960940660E+03 0.  0.
        4    1    3    3  502    0  0.25841473276E+03 -0.25976405076E+03 -0.11051361761E+03  0.38271452644E+03  0.12699999809E+01 0. -1.
       -4    1    3    3    0  502 -0.25841473276E+03  0.25976405076E+03  0.44648015208E+03  0.57758261337E+03  0.12699999809E+01 0.  1.
</event>
<event>
 5   0  0.9981885E-04  0.9001101E+03  0.7818609E-02  0.9425444E-01
        1   -1    0    0  501    0  0.00000000000E+00  0.00000000000E+00  0.14012578447E+03  0.14012578456E+03  0.50400001928E-02 0.  1.
       -1   -1    0    0    0  501  0.00000000000E+00  0.00000000000E+00 -0.14454836182E+04  0.14454836182E+04  0.50400001928E-02 0. -1.
    10030    2    1    2    0    0  0.00000000000E+00  0.00000000000E+00 -0.13053578338E+04  0.15856094028E+04  0.90011005111E+03 0.  0.
        4    1    3    3  502    0 -0.41485791209E+03  0.14271063365E+03 -0.82949117562E+03  0.93836593902E+03  0.12699999809E+01 0. -1.
       -4    1    3    3    0  502  0.41485791209E+03 -0.14271063365E+03 -0.47586665814E+03  0.64724346378E+03  0.12699999809E+01 0.  1.
</event>
<event>
 5   0  0.1007561E-03  0.9012255E+03  0.7818609E-02  0.9424051E-01
       -1   -1    0    0    0  501  0.00000000000E+00  0.00000000000E+00  0.60307207287E+03  0.60307207289E+03  0.50400001928E-02 0. -1.
        1   -1    0    0  501    0  0.00000000000E+00  0.00000000000E+00 -0.33669584587E+03  0.33669584591E+03  0.50400001928E-02 0.  1.
    10030    2    1    2    0    0  0.00000000000E+00  0.00000000000E+00  0.26637622700E+03  0.93976791880E+03  0.90122552499E+03 0.  0.
        2    1    3    3  502    0  0.21822220031E+03 -0.56166500691E+02  0.54010267236E+03  0.58522346262E+03  0.25500000920E-02 0. -1.
       -2    1    3    3    0  502 -0.21822220031E+03  0.56166500691E+02 -0.27372644536E+03  0.35454445617E+03  0.25500000920E-02 0.  1.
</event>
<event>
 5   0  0.1007561E-03  0.9003297E+03  0.7818609E-02  0.9425169E-01
        1   -1    0    0  501    0  0.00000000000E+00  0.00000000000E+00  0.12292430962E+04  0.12292430963E+04  0.50400001928E-02 0.  1.
       -1   -1    0    0    0  501  0.00000000000E+00  0.00000000000E+00 -0.16485624242E+03  0.16485624250E+03  0.50400001928E-02 0. -1.
    10030    2    1    2    0    0  0.00000000000E+00  0.00000000000E+00  0.10643868538E+04  0.13940993388E+04  0.90032971278E+03 0.  0.
        2    1    3    3  502    0  0.20668789362E+03 -0.37047381493E+03  0.29901342259E+03  0.51901807272E+03  0.25500000920E-02 0.  1.
       -2    1    3    3    0  502 -0.20668789362E+03  0.37047381493E+03  0.76537343124E+03  0.87508126603E+03  0.25500000920E-02 0. -1.
</event>
<event>
 5   0  0.1536020E-03  0.9004268E+03  0.7818609E-02  0.9425048E-01
       -2   -1    0    0    0  501  0.00000000000E+00  0.00000000000E+00  0.21168136963E+03  0.21168136965E+03  0.25500000920E-02 0. -1.
        2   -1    0    0  501    0  0.00000000000E+00  0.00000000000E+00 -0.95753394522E+03  0.95753394522E+03  0.25500000920E-02 0.  1.
    10030    2    1    2    0    0  0.00000000000E+00  0.00000000000E+00 -0.74585257558E+03  0.11692153149E+04  0.90042678105E+03 0.  0.
        2    1    3    3  502    0 -0.36272244250E+03 -0.12144799776E+03 -0.68123729114E+03  0.78128191666E+03  0.25500000920E-02 0. -1.
       -2    1    3    3    0  502  0.36272244250E+03  0.12144799776E+03 -0.64615284441E+02  0.38793339821E+03  0.25500000920E-02 0.  1.
</event>
<event>
 5   0  0.9223454E-04  0.8999251E+03  0.7818609E-02  0.9425675E-01
       -1   -1    0    0    0  501  0.00000000000E+00  0.00000000000E+00  0.61488116612E+03  0.61488116615E+03  0.50400001928E-02 0. -1.
        1   -1    0    0  501    0  0.00000000000E+00  0.00000000000E+00 -0.32927708606E+03  0.32927708610E+03  0.50400001928E-02 0.  1.
    10030    2    1    2    0    0  0.00000000000E+00  0.00000000000E+00  0.28560408007E+03  0.94415825224E+03  0.89992506062E+03 0.  0.
        1    1    3    3  502    0  0.61499403139E+02 -0.17719556483E+03 -0.28630736187E+03  0.34227525512E+03  0.50400001928E-02 0.  1.
       -1    1    3    3    0  502 -0.61499403139E+02  0.17719556483E+03  0.57191144194E+03  0.60188299712E+03  0.50400001928E-02 0. -1.
</event>
<event>
 5   0  0.1007561E-03  0.8994607E+03  0.7818609E-02  0.9426256E-01
       -1   -1    0    0    0  501  0.00000000000E+00  0.00000000000E+00  0.11094111620E+03  0.11094111631E+03  0.50400001928E-02 0.  1.
        1   -1    0    0  501    0  0.00000000000E+00  0.00000000000E+00 -0.18231055636E+04  0.18231055636E+04  0.50400001928E-02 0. -1.
    10030    2    1    2    0    0  0.00000000000E+00  0.00000000000E+00 -0.17121644474E+04  0.19340466799E+04  0.89946065236E+03 0.  0.
        2    1    3    3  502    0  0.15910501752E+03 -0.10702142401E+03  0.18639353523E+02  0.19265362001E+03  0.25500000920E-02 0.  1.
       -2    1    3    3    0  502 -0.15910501752E+03  0.10702142401E+03 -0.17308038009E+04  0.17413930599E+04  0.25500000920E-02 0. -1.
</event>
<event>
 5   0  0.9321543E-04  0.9063510E+03  0.7818609E-02  0.9417677E-01
        1   -1    0    0  501    0  0.00000000000E+00  0.00000000000E+00  0.13436985271E+04  0.13436985271E+04  0.50400001928E-02 0.  1.
       -1   -1    0    0    0  501  0.00000000000E+00  0.00000000000E+00 -0.15283788122E+03  0.15283788130E+03  0.50400001928E-02 0. -1.
    10030    2    1    2    0    0  0.00000000000E+00  0.00000000000E+00  0.11908606458E+04  0.14965364084E+04  0.90635100473E+03 0.  0.
        3    1    3    3  502    0 -0.68901949046E+02 -0.28829147300E+03  0.29418316027E+02  0.29786725149E+03  0.10100000352E+00 0. -1.
       -3    1    3    3    0  502  0.68901949046E+02  0.28829147300E+03  0.11614423298E+04  0.11986691569E+04  0.10100000352E+00 0.  1.
</event>
<event>
 5   0  0.9981885E-04  0.8948787E+03  0.7818609E-02  0.9432006E-01
       -1   -1    0    0    0  501  0.00000000000E+00  0.00000000000E+00  0.57665587903E+03  0.57665587905E+03  0.50400001928E-02 0. -1.
        1   -1    0    0  501    0  0.00000000000E+00  0.00000000000E+00 -0.34717754668E+03  0.34717754671E+03  0.50400001928E-02 0.  1.
    10030    2    1    2    0    0  0.00000000000E+00  0.00000000000E+00  0.22947833235E+03  0.92383342576E+03  0.89487870325E+03 0.  0.
        4    1    3    3  502    0 -0.31933796090E+03 -0.16739769603E+03  0.38826800608E+03  0.52986071694E+03  0.12699999809E+01 0. -1.
       -4    1    3    3    0  502  0.31933796090E+03  0.16739769603E+03 -0.15878967373E+03  0.39397270882E+03  0.12699999809E+01 0.  1.
</event>
<event>
 5   0  0.1630202E-03  0.9002117E+03  0.7818609E-02  0.9425317E-01
       -2   -1    0    0    0  501  0.00000000000E+00  0.00000000000E+00  0.89195653591E+03  0.89195653592E+03  0.25500000920E-02 0.  1.
        2   -1    0    0  501    0  0.00000000000E+00  0.00000000000E+00 -0.22713583910E+03  0.22713583912E+03  0.25500000920E-02 0. -1.
    10030    2    1    2    0    0  0.00000000000E+00  0.00000000000E+00  0.66482069681E+03  0.11190923750E+04  0.90021174451E+03 0.  0.
        4    1    3    3  502    0  0.27559144815E+03 -0.86618461576E+02 -0.96681800913E+02  0.30463484323E+03  0.12699999809E+01 0. -1.
       -4    1    3    3    0  502 -0.27559144815E+03  0.86618461576E+02  0.76150249772E+03  0.81445753181E+03  0.12699999809E+01 0.  1.
</event>
<event>
 5   0  0.1536020E-03  0.8999369E+03  0.7818609E-02  0.9425660E-01
       -2   -1    0    0    0  501  0.00000000000E+00  0.00000000000E+00  0.47628527761E+03  0.47628527762E+03  0.25500000920E-02 0.  1.
        2   -1    0    0  501    0  0.00000000000E+00  0.00000000000E+00 -0.42510574786E+03  0.42510574787E+03  0.25500000920E-02 0. -1.
    10030    2    1    2    0    0  0.00000000000E+00  0.00000000000E+00  0.51179529751E+02  0.90139102549E+03  0.89993690699E+03 0.  0.
        2    1    3    3  502    0 -0.18563452988E+03  0.14122078417E+03  0.41100772532E+03  0.47257892340E+03  0.25500000920E-02 0.  1.
       -2    1    3    3    0  502  0.18563452988E+03 -0.14122078417E+03 -0.35982819557E+03  0.42881210209E+03  0.25500000920E-02 0. -1.
</event>
<event>
 5   0  0.1635686E-03  0.8995255E+03  0.7818609E-02  0.9426175E-01
        2   -1    0    0  501    0  0.00000000000E+00  0.00000000000E+00  0.74966680939E+03  0.74966680940E+03  0.25500000920E-02 0. -1.
       -2   -1    0    0    0  501  0.00000000000E+00  0.00000000000E+00 -0.26983525303E+03  0.26983525304E+03  0.25500000920E-02 0.  1.
    10030    2    1    2    0    0  0.00000000000E+00  0.00000000000E+00  0.47983155637E+03  0.10195020624E+04  0.89952550427E+03 0.  0.
        5    1    3    3  502    0 -0.15599136334E+03  0.30843148137E+03 -0.86215787464E+02  0.35625627874E+03  0.46999998093E+01 0.  1.
       -5    1    3    3    0  502  0.15599136334E+03 -0.30843148137E+03  0.56604734383E+03  0.66324578370E+03  0.46999998093E+01 0. -1.
</event>
<event>
 5   0  0.1704416E-03  0.8994072E+03  0.7818609E-02  0.9426323E-01
        2   -1    0    0  501    0  0.00000000000E+00  0.00000000000E+00  0.17131268702E+03  0.17131268704E+03  0.25500000920E-02 0. -1.
       -2   -1    0    0    0  501  0.00000000000E+00  0.00000000000E+00 -0.11804924990E+04  0.11804924990E+04  0.25500000920E-02 0.  1.
    10030    2    1    2    0    0  0.00000000000E+00  0.00000000000E+00 -0.10091798120E+04  0.13518051860E+04  0.89940723150E+03 0.  0.
        3    1    3    3  502    0 -0.99661509001E+02 -0.85440797719E+02  0.14187435340E+03  0.19328964961E+03  0.10100000352E+00 0. -1.
       -3    1    3    3    0  502  0.99661509001E+02  0.85440797719E+02 -0.11510541654E+04  0.11585155364E+04  0.10100000352E+00 0.  1.
</event>
<event>
 5   0  0.1641516E-03  0.8996431E+03  0.7818609E-02  0.9426028E-01
       -2   -1    0    0    0  501  0.00000000000E+00  0.00000000000E+00  0.13740127530E+03  0.13740127533E+03  0.25500000920E-02 0.  1.
        2   -1    0    0  501    0  0.00000000000E+00  0.00000000000E+00 -0.14726168903E+04  0.14726168903E+04  0.25500000920E-02 0. -1.
    10030    2    1    2    0    0  0.00000000000E+00  0.00000000000E+00 -0.13352156150E+04  0.16100181656E+04  0.89964312654E+03 0.  0.
        1    1    3    3  502    0  0.41643516739E+02  0.28390684985E+03 -0.47660132024E+02  0.29087586715E+03  0.50400001928E-02 0.  1.
       -1    1    3    3    0  502 -0.41643516739E+02 -0.28390684985E+03 -0.12875554830E+04  0.13191422985E+04  0.50400001928E-02 0. -1.
</event>
<event>
 5   0  0.9321543E-04  0.9001568E+03  0.7818609E-02  0.9425385E-01
        1   -1    0    0  501    0  0.00000000000E+00  0.00000000000E+00  0.42287731177E+03  0.42287731180E+03  0.50400001928E-02 0. -1.
       -1   -1    0    0    0  501  0.00000000000E+00  0.00000000000E+00 -0.47902916116E+03  0.47902916119E+03  0.50400001928E-02 0.  1.
    10030    2    1    2    0    0  0.00000000000E+00  0.00000000000E+00 -0.56151849398E+02  0.90190647299E+03  0.90015679513E+03 0.  0.
        3    1    3    3  502    0  0.66351421511E+02 -0.96975155101E+02 -0.46339005702E+03  0.47805548526E+03  0.10100000352E+00 0.  1.
       -3    1    3    3    0  502 -0.66351421511E+02  0.96975155101E+02  0.40723820762E+03  0.42385098772E+03  0.10100000352E+00 0. -1.
</event>
<event>
 5   0  0.9321543E-04  0.8999422E+03  0.7818609E-02  0.9425654E-01
       -1   -1    0    0    0  501  0.00000000000E+00  0.00000000000E+00  0.22615771274E+03  0.22615771280E+03  0.50400001928E-02 0. -1.
        1   -1    0    0  501    0  0.00000000000E+00  0.00000000000E+00 -0.89527779400E+03  0.89527779401E+03  0.50400001928E-02 0.  1.
    10030    2    1    2    0    0  0.00000000000E+00  0.00000000000E+00 -0.66912008125E+03  0.11214355068E+04  0.89994217192E+03 0.  0.
        3    1    3    3  502    0  0.57895081067E+02  0.43600596433E+03 -0.45291467681E+03  0.63133569202E+03  0.10100000352E+00 0. -1.
       -3    1    3    3    0  502 -0.57895081067E+02 -0.43600596433E+03 -0.21620540444E+03  0.49009981479E+03  0.10100000352E+00 0.  1.
</event>
<event>
 5   0  0.1635686E-03  0.8997808E+03  0.7818609E-02  0.9425856E-01
       -2   -1    0    0    0  501  0.00000000000E+00  0.00000000000E+00  0.52321749887E+03  0.52321749887E+03  0.25500000920E-02 0. -1.
        2   -1    0    0  501    0  0.00000000000E+00  0.00000000000E+00 -0.38683981603E+03  0.38683981604E+03  0.25500000920E-02 0.  1.
    10030    2    1    2    0    0  0.00000000000E+00  0.00000000000E+00  0.13637768284E+03  0.91005731491E+03  0.89978077555E+03 0.  0.
        5    1    3    3  502    0  0.54959518772E+02  0.44355270034E+03  0.11995665605E+03  0.46278638270E+03  0.46999998093E+01 0. -1.
       -5    1    3    3    0  502 -0.54959518772E+02 -0.44355270034E+03  0.16421026789E+02  0.44727093221E+03  0.46999998093E+01 0.  1.
</event>
<event>
 5   0  0.9981885E-04  0.9168045E+03  0.7818609E-02  0.9404815E-01
        1   -1    0    0  501    0  0.00000000000E+00  0.00000000000E+00  0.11742064646E+04  0.11742064646E+04  0.50400001928E-02 0.  1.
       -1   -1    0    0    0  501  0.00000000000E+00  0.00000000000E+00 -0.17895712331E+03  0.17895712338E+03  0.50400001928E-02 0. -1.
    10030    2    1    2    0    0  0.00000000000E+00  0.00000000000E+00  0.99524934130E+03  0.13531635880E+04  0.91680447453E+03 0.  0.
        4    1    3    3  502    0  0.16491480666E+03 -0.90855307471E+01 -0.13351126847E+03  0.21238246640E+03  0.12699999809E+01 0. -1.
       -4    1    3    3    0  502 -0.16491480666E+03  0.90855307471E+01  0.11287606098E+04  0.11407811216E+04  0.12699999809E+01 0.  1.
</event>
<event>
 5   0  0.1641516E-03  0.8967729E+03  0.7818609E-02  0.9429624E-01
        2   -1    0    0  501    0  0.00000000000E+00  0.00000000000E+00  0.39217131499E+03  0.39217131500E+03  0.25500000920E-02 0.  1.
       -2   -1    0    0    0  501  0.00000000000E+00  0.00000000000E+00 -0.51265964772E+03  0.51265964772E+03  0.25500000920E-02 0. -1.
    10030    2    1    2    0    0  0.00000000000E+00  0.00000000000E+00 -0.12048833273E+03  0.90483096272E+03  0.89677289922E+03 0.  0.
        1    1    3    3  502    0  0.25117077039E+03 -0.15342184829E+03  0.28106360456E+03  0.40696654564E+03  0.50400001928E-02 0.  1.
       -1    1    3    3    0  502 -0.25117077039E+03  0.15342184829E+03 -0.40155193729E+03  0.49786441709E+03  0.50400001928E-02 0. -1.
</event>
<event>
 5   0  0.1704416E-03  0.8997620E+03  0.7818609E-02  0.9425879E-01
       -2   -1    0    0    0  501  0.00000000000E+00  0.00000000000E+00  0.62751423463E+03  0.62751423464E+03  0.25500000920E-02 0. -1.
        2   -1    0    0  501    0  0.00000000000E+00  0.00000000000E+00 -0.32253115774E+03  0.32253115775E+03  0.25500000920E-02 0.  1.
    10030    2    1    2    0    0  0.00000000000E+00  0.00000000000E+00  0.30498307689E+03  0.95004539239E+03  0.89976195208E+03 0.  0.
        3    1    3    3  502    0  0.19527046594E+03 -0.37684316001E+03 -0.50144122016E+01  0.42446021798E+03  0.10100000352E+00 0.  1.
       -3    1    3    3    0  502 -0.19527046594E+03  0.37684316001E+03  0.30999748909E+03  0.52558517441E+03  0.10100000352E+00 0. -1.
</event>
<event>
 5   0  0.6375625E-04  0.9009631E+03  0.7818609E-02  0.9424378E-01
       -3   -1    0    0    0  501  0.00000000000E+00  0.00000000000E+00  0.23492721953E+03  0.23492724124E+03  0.10100000352E+00 0.  1.
        3   -1    0    0  501    0  0.00000000000E+00  0.00000000000E+00 -0.86381476481E+03  0.86381477072E+03  0.10100000352E+00 0. -1.
    10030    2    1    2    0    0  0.00000000000E+00  0.00000000000E+00 -0.62888754528E+03  0.10987420120E+04  0.90096307596E+03 0.  0.
        5    1    3    3  502    0  0.27577686397E+03 -0.35435613079E+03 -0.27063636661E+03  0.52429693787E+03  0.46999998093E+01 0. -1.
       -5    1    3    3    0  502 -0.27577686397E+03  0.35435613079E+03 -0.35825117867E+03  0.57444507409E+03  0.46999998093E+01 0.  1.
</event>
<event>
 5   0  0.9223454E-04  0.9030297E+03  0.7818609E-02  0.9421802E-01
        1   -1    0    0  501    0  0.00000000000E+00  0.00000000000E+00  0.46741263496E+03  0.46741263499E+03  0.50400001928E-02 0.  1.
       -1   -1    0    0    0  501  0.00000000000E+00  0.00000000000E+00 -0.43615781423E+03  0.43615781426E+03  0.50400001928E-02 0. -1.
    10030    2    1    2    0    0  0.00000000000E+00  0.00000000000E+00  0.31254820725E+02  0.90357044925E+03  0.90302972982E+03 0.  0.
        1    1    3    3  502    0 -0.30113399797E+03 -0.84051698531E+02  0.34158204448E+03  0.46306011045E+03  0.50400001928E-02 0.  1.
       -1    1    3    3    0  502  0.30113399797E+03  0.84051698531E+02 -0.31032722375E+03  0.44051033880E+03  0.50400001928E-02 0. -1.
</event>
<event>
 5   0  0.1704416E-03  0.8996518E+03  0.7818609E-02  0.9426017E-01
        2   -1    0    0  501    0  0.00000000000E+00  0.00000000000E+00  0.10635624966E+04  0.10635624966E+04  0.25500000920E-02 0. -1.
       -2   -1    0    0    0  501  0.00000000000E+00  0.00000000000E+00 -0.19025052098E+03  0.19025052100E+03  0.25500000920E-02 0.  1.
    10030    2    1    2    0    0  0.00000000000E+00  0.00000000000E+00  0.87331197559E+03  0.12538130176E+04  0.89965175280E+03 0.  0.
        3    1    3    3  502    0 -0.51408613865E+02 -0.70629737584E+02  0.10516269296E+04  0.10552490771E+04  0.10100000352E+00 0. -1.
       -3    1    3    3    0  502  0.51408613865E+02  0.70629737584E+02 -0.17831495405E+03  0.19856394045E+03  0.10100000352E+00 0.  1.
</event>
<event>
 5   0  0.1641516E-03  0.8959186E+03  0.7818609E-02  0.9430698E-01
       -2   -1    0    0    0  501  0.00000000000E+00  0.00000000000E+00  0.14666529940E+03  0.14666529942E+03  0.25500000920E-02 0. -1.
        2   -1    0    0  501    0  0.00000000000E+00  0.00000000000E+00 -0.13682004485E+04  0.13682004485E+04  0.25500000920E-02 0.  1.
    10030    2    1    2    0    0  0.00000000000E+00  0.00000000000E+00 -0.12215351491E+04  0.15148657479E+04  0.89591858657E+03 0.  0.
        1    1    3    3  502    0  0.24254396981E+03 -0.37567217099E+03 -0.65583349364E+03  0.79377246661E+03  0.50400001928E-02 0. -1.
       -1    1    3    3    0  502 -0.24254396981E+03  0.37567217099E+03 -0.56570165547E+03  0.72109328133E+03  0.50400001928E-02 0.  1.
</event>
<event>
 5   0  0.1007561E-03  0.9009711E+03  0.7818609E-02  0.9424368E-01
       -1   -1    0    0    0  501  0.00000000000E+00  0.00000000000E+00  0.67547582301E+03  0.67547582303E+03  0.50400001928E-02 0.  1.
        1   -1    0    0  501    0  0.00000000000E+00  0.00000000000E+00 -0.30043599322E+03  0.30043599326E+03  0.50400001928E-02 0. -1.
    10030    2    1    2    0    0  0.00000000000E+00  0.00000000000E+00  0.37503982979E+03  0.97591181629E+03  0.90097114229E+03 0.  0.
        2    1    3    3  502    0 -0.19793029490E+02  0.14562147516E+03  0.64878050220E+03  0.66521689553E+03  0.25500000920E-02 0.  1.
       -2    1    3    3    0  502  0.19793029490E+02 -0.14562147516E+03 -0.27374067242E+03  0.31069492076E+03  0.25500000920E-02 0. -1.
</event>
<event>
 5   0  0.1630202E-03  0.9007962E+03  0.7818609E-02  0.9424587E-01
       -2   -1    0    0    0  501  0.00000000000E+00  0.00000000000E+00  0.12105138759E+04  0.12105138759E+04  0.25500000920E-02 0. -1.
        2   -1    0    0  501    0  0.00000000000E+00  0.00000000000E+00 -0.16758044543E+03  0.16758044545E+03  0.25500000920E-02 0.  1.
    10030    2    1    2    0    0  0.00000000000E+00  0.00000000000E+00  0.10429334304E+04  0.13780943213E+04  0.90079621344E+03 0.  0.
        4    1    3    3  502    0  0.30848683663E+03  0.29624592703E+03  0.30548467821E+03  0.52559326402E+03  0.12699999809E+01 0.  1.
       -4    1    3    3    0  502 -0.30848683663E+03 -0.29624592703E+03  0.73744875222E+03  0.85250105730E+03  0.12699999809E+01 0. -1.
</event>
<event>
 5   0  0.1536020E-03  0.8996650E+03  0.7818609E-02  0.9426000E-01
       -2   -1    0    0    0  501  0.00000000000E+00  0.00000000000E+00  0.43084599590E+03  0.43084599591E+03  0.25500000920E-02 0. -1.
        2   -1    0    0  501    0  0.00000000000E+00  0.00000000000E+00 -0.46965565138E+03  0.46965565139E+03  0.25500000920E-02 0.  1.
    10030    2    1    2    0    0  0.00000000000E+00  0.00000000000E+00 -0.38809655477E+02  0.90050164730E+03  0.89966495287E+03 0.  0.
        2    1    3    3  502    0  0.34107166737E+03 -0.97917400666E+02 -0.29612451812E+03  0.46217683831E+03  0.25500000920E-02 0.  1.
       -2    1    3    3    0  502 -0.34107166737E+03  0.97917400666E+02  0.25731486264E+03  0.43832480899E+03  0.25500000920E-02 0. -1.
</event>
<event>
 5   0  0.9321543E-04  0.8992699E+03  0.7818609E-02  0.9426495E-01
       -1   -1    0    0    0  501  0.00000000000E+00  0.00000000000E+00  0.20052840324E+03  0.20052840330E+03  0.50400001928E-02 0. -1.
        1   -1    0    0  501    0  0.00000000000E+00  0.00000000000E+00 -0.10081941770E+04  0.10081941770E+04  0.50400001928E-02 0.  1.
    10030    2    1    2    0    0  0.00000000000E+00  0.00000000000E+00 -0.80766577377E+03  0.12087225803E+04  0.89926985608E+03 0.  0.
        3    1    3    3  502    0  0.23790452373E+02  0.96660813295E+02 -0.99319690906E+03  0.99817303551E+03  0.10100000352E+00 0.  1.
       -3    1    3    3    0  502 -0.23790452373E+02 -0.96660813295E+02  0.18553113530E+03  0.21054954480E+03  0.10100000352E+00 0. -1.
</event>
<event>
 5   0  0.9981885E-04  0.9017846E+03  0.7818609E-02  0.9423353E-01
        1   -1    0    0  501    0  0.00000000000E+00  0.00000000000E+00  0.44383626561E+03  0.44383626564E+03  0.50400001928E-02 0.  1.
       -1   -1    0    0    0  501  0.00000000000E+00  0.00000000000E+00 -0.45806051077E+03  0.45806051080E+03  0.50400001928E-02 0. -1.
    10030    2    1    2    0    0  0.00000000000E+00  0.00000000000E+00 -0.14224245162E+02  0.90189677644E+03  0.90178460077E+03 0.  0.
        4    1    3    3  502    0  0.43936041229E+03  0.97206417903E+02  0.21450037770E+02  0.45049792073E+03  0.12699999809E+01 0. -1.
       -4    1    3    3    0  502 -0.43936041229E+03 -0.97206417903E+02 -0.35674282932E+02  0.45139885570E+03  0.12699999809E+01 0.  1.
</event>
<event>
 5   0  0.9697941E-04  0.9000726E+03  0.7818609E-02  0.9425491E-01
        1   -1    0    0  501    0  0.00000000000E+00  0.00000000000E+00  0.14331072134E+04  0.14331072134E+04  0.50400001928E-02 0. -1.
       -1   -1    0    0    0  501  0.00000000000E+00  0.00000000000E+00 -0.14132416170E+03  0.14132416179E+03  0.50400001928E-02 0.  1.
    10030    2    1    2    0    0  0.00000000000E+00  0.00000000000E+00  0.12917830517E+04  0.15744313752E+04  0.90007260961E+03 0.  0.
        5    1    3    3  502    0  0.42904760273E+03 -0.10955745903E+03  0.50567045271E+03  0.67216767177E+03  0.46999998093E+01 0.  1.
       -5    1    3    3    0  502 -0.42904760273E+03  0.10955745903E+03  0.78611259899E+03  0.90226370343E+03  0.46999998093E+01 0. -1.
</event>
<event>
 5   0  0.9981885E-04  0.8996091E+03  0.7818609E-02  0.9426070E-01
        1   -1    0    0  501    0  0.00000000000E+00  0.00000000000E+00  0.13041548878E+04  0.13041548878E+04  0.50400001928E-02 0. -1.
       -1   -1    0    0    0  501  0.00000000000E+00  0.00000000000E+00 -0.15513812349E+03  0.15513812357E+03  0.50400001928E-02 0.  1.
    10030    2    1    2    0    0  0.00000000000E+00  0.00000000000E+00  0.11490167643E+04  0.14592930114E+04  0.89960911978E+03 0.  0.
        4    1    3    3  502    0  0.17060445500E+03  0.11636126735E+03  0.12227089896E+04  0.12400260928E+04  0.12699999809E+01 0. -1.
       -4    1    3    3    0  502 -0.17060445500E+03 -0.11636126735E+03 -0.73692225330E+02  0.21926691856E+03  0.12699999809E+01 0.  1.
</event>
<event>
 5   0  0.9223454E-04  0.9088545E+03  0.7818609E-02  0.9414580E-01
        1   -1    0    0  501    0  0.00000000000E+00  0.00000000000E+00  0.49611644300E+03  0.49611644302E+03  0.50400001928E-02 0.  1.
       -1   -1    0    0    0  501  0.00000000000E+00  0.00000000000E+00 -0.41624127462E+03  0.41624127465E+03  0.50400001928E-02 0. -1.
    10030    2    1    2    0    0  0.00000000000E+00  0.00000000000E+00  0.79875168379E+02  0.91235771767E+03  0.90885453317E+03 0.  0.
        1    1    3    3  502    0  0.35072567598E+02  0.29076755005E+03  0.38873663341E+03  0.48671554664E+03  0.50400001928E-02 0.  1.
       -1    1    3    3    0  502 -0.35072567598E+02 -0.29076755005E+03 -0.30886146503E+03  0.42564217104E+03  0.50400001928E-02 0. -1.
</event>
<event>
 5   0  0.1635686E-03  0.8941032E+03  0.7818609E-02  0.9432983E-01
        2   -1    0    0  501    0  0.00000000000E+00  0.00000000000E+00  0.12848271028E+03  0.12848271030E+03  0.25500000920E-02 0. -1.
       -2   -1    0    0    0  501  0.00000000000E+00  0.00000000000E+00 -0.15555022881E+04  0.15555022881E+04  0.25500000920E-02 0.  1.
    10030    2    1    2    0    0  0.00000000000E+00  0.00000000000E+00 -0.14270195779E+04  0.16839849984E+04  0.89410323754E+03 0.  0.
        5    1    3    3  502    0 -0.15521306102E+03  0.39418155859E+03 -0.98227310165E+03  0.10697442366E+04  0.46999998093E+01 0.  1.
       -5    1    3    3    0  502  0.15521306102E+03 -0.39418155859E+03 -0.44474647621E+03  0.61424076187E+03  0.46999998093E+01 0. -1.
</event>
<event>
 5   0  0.9981885E-04  0.8941782E+03  0.7818609E-02  0.9432888E-01
       -1   -1    0    0    0  501  0.00000000000E+00  0.00000000000E+00  0.15236253345E+03  0.15236253354E+03  0.50400001928E-02 0.  1.
        1   -1    0    0  501    0  0.00000000000E+00  0.00000000000E+00 -0.13119278659E+04  0.13119278659E+04  0.50400001928E-02 0. -1.
    10030    2    1    2    0    0  0.00000000000E+00  0.00000000000E+00 -0.11595653325E+04  0.14642903995E+04  0.89417817783E+03 0.  0.
        4    1    3    3  502    0 -0.39426823336E+03  0.10294298014E+03 -0.27852829108E+03  0.49358314277E+03  0.12699999809E+01 0.  1.
       -4    1    3    3    0  502  0.39426823336E+03 -0.10294298014E+03 -0.88103704138E+03  0.97070725669E+03  0.12699999809E+01 0. -1.
</event>
<event>
 5   0  0.6375625E-04  0.9004202E+03  0.7818609E-02  0.9425056E-01
       -4   -1    0    0    0  501  0.00000000000E+00  0.00000000000E+00  0.85188356492E+03  0.85188451159E+03  0.12699999809E+01 0.  1.
        4   -1    0    0  501    0  0.00000000000E+00  0.00000000000E+00 -0.23792780252E+03  0.23793119197E+03  0.12699999809E+01 0. -1.
    10030    2    1    2    0    0  0.00000000000E+00  0.00000000000E+00  0.61395576240E+03  0.10898157036E+04  0.90042022942E+03 0.  0.
        4    1    3    3  502    0 -0.31539556296E+03 -0.20370086616E+03  0.60766700351E+03  0.71430329977E+03  0.12699999809E+01 0.  1.
       -4    1    3    3    0  502  0.31539556296E+03  0.20370086616E+03  0.62887588862E+01  0.37551240379E+03  0.12699999809E+01 0. -1.
</event>
<event>
 5   0  0.1704416E-03  0.9009968E+03  0.7818609E-02  0.9424336E-01
        2   -1    0    0  501    0  0.00000000000E+00  0.00000000000E+00  0.56511723107E+03  0.56511723108E+03  0.25500000920E-02 0.  1.
       -2   -1    0    0    0  501  0.00000000000E+00  0.00000000000E+00 -0.35912689348E+03  0.35912689349E+03  0.25500000920E-02 0. -1.
    10030    2    1    2    0    0  0.00000000000E+00  0.00000000000E+00  0.20599033759E+03  0.92424412457E+03  0.90099677170E+03 0.  0.
        3    1    3    3  502    0 -0.22104200420E+03 -0.39134539146E+03  0.13441222168E+03  0.46912411851E+03  0.10100000352E+00 0.  1.
       -3    1    3    3    0  502  0.22104200420E+03  0.39134539146E+03  0.71578115915E+02  0.45512000606E+03  0.10100000352E+00 0. -1.
</event>
<event>
 5   0  0.1704416E-03  0.8975048E+03  0.7818609E-02  0.9428706E-01
        2   -1    0    0  501    0  0.00000000000E+00  0.00000000000E+00  0.18140157097E+04  0.18140157097E+04  0.25500000920E-02 0.  1.
       -2   -1    0    0    0  501  0.00000000000E+00  0.00000000000E+00 -0.11101266735E+03  0.11101266738E+03  0.25500000920E-02 0. -1.
    10030    2    1    2    0    0  0.00000000000E+00  0.00000000000E+00  0.17030030423E+04  0.19250283771E+04  0.89750481352E+03 0.  0.
        3    1    3    3  502    0 -0.24917254485E+03  0.37298055426E+03  0.82294485873E+03  0.93725114119E+03  0.10100000352E+00 0. -1.
       -3    1    3    3    0  502  0.24917254485E+03 -0.37298055426E+03  0.88005818360E+03  0.98777723586E+03  0.10100000352E+00 0.  1.
</event>
<event>
 5   0  0.9697941E-04  0.9014877E+03  0.7818609E-02  0.9423724E-01
       -1   -1    0    0    0  501  0.00000000000E+00  0.00000000000E+00  0.40372651088E+03  0.40372651091E+03  0.50400001928E-02 0. -1.
        1   -1    0    0  501    0  0.00000000000E+00  0.00000000000E+00 -0.50323676529E+03  0.50323676532E+03  0.50400001928E-02 0.  1.
    10030    2    1    2    0    0  0.00000000000E+00  0.00000000000E+00 -0.99510254411E+02  0.90696327623E+03  0.90148771134E+03 0.  0.
        5    1    3    3  502    0 -0.41604115054E+03 -0.14908185613E+03 -0.13879292303E+03  0.46325069266E+03  0.46999998093E+01 0. -1.
       -5    1    3    3    0  502  0.41604115054E+03  0.14908185613E+03  0.39282668616E+02  0.44371258357E+03  0.46999998093E+01 0.  1.
</event>
<event>
 5   0  0.1635686E-03  0.9002636E+03  0.7818609E-02  0.9425252E-01
       -2   -1    0    0    0  501  0.00000000000E+00  0.00000000000E+00  0.62622798111E+03  0.62622798112E+03  0.25500000920E-02 0.  1.
        2   -1    0    0  501    0  0.00000000000E+00  0.00000000000E+00 -0.32355413528E+03  0.32355413529E+03  0.25500000920E-02 0. -1.
    10030    2    1    2    0    0  0.00000000000E+00  0.00000000000E+00  0.30267384583E+03  0.94978211640E+03  0.90026363455E+03 0.  0.
        5    1    3    3  502    0  0.40501076940E+03 -0.68643659269E+02 -0.42769233950E+02  0.41303386381E+03  0.46999998093E+01 0. -1.
       -5    1    3    3    0  502 -0.40501076940E+03  0.68643659269E+02  0.34544307979E+03  0.53674825259E+03  0.46999998093E+01 0.  1.
</event>
<event>
 5   0  0.1704416E-03  0.9013845E+03  0.7818609E-02  0.9423852E-01
        2   -1    0    0  501    0  0.00000000000E+00  0.00000000000E+00  0.62192592379E+03  0.62192592380E+03  0.25500000920E-02 0.  1.
       -2   -1    0    0    0  501  0.00000000000E+00  0.00000000000E+00 -0.32660401497E+03  0.32660401498E+03  0.25500000920E-02 0. -1.
    10030    2    1    2    0    0  0.00000000000E+00  0.00000000000E+00  0.29532190883E+03  0.94852993878E+03  0.90138449893E+03 0.  0.
        3    1    3    3  502    0 -0.11017011748E+03 -0.15207747098E+03 -0.28347337281E+03  0.34003260911E+03  0.10100000352E+00 0. -1.
       -3    1    3    3    0  502  0.11017011748E+03  0.15207747098E+03  0.57879528164E+03  0.60849732967E+03  0.10100000352E+00 0.  1.
</event>
<event>
 5   0  0.9321543E-04  0.8990333E+03  0.7818609E-02  0.9426791E-01
        1   -1    0    0  501    0  0.00000000000E+00  0.00000000000E+00  0.74546351293E+03  0.74546351295E+03  0.50400001928E-02 0. -1.
       -1   -1    0    0    0  501  0.00000000000E+00  0.00000000000E+00 -0.27105982490E+03  0.27105982495E+03  0.50400001928E-02 0.  1.
    10030    2    1    2    0    0  0.00000000000E+00  0.00000000000E+00  0.47440368803E+03  0.10165233379E+04  0.89903327929E+03 0.  0.
        3    1    3    3  502    0  0.40192869320E+03 -0.36850698273E+02  0.46095335723E+03  0.61268479345E+03  0.10100000352E+00 0. -1.
       -3    1    3    3    0  502 -0.40192869320E+03  0.36850698273E+02  0.13450330799E+02  0.40383854444E+03  0.10100000352E+00 0.  1.
</event>
<event>
 5   0  0.9321543E-04  0.8987047E+03  0.7818609E-02  0.9427202E-01
       -1   -1    0    0    0  501  0.00000000000E+00  0.00000000000E+00  0.37915849088E+03  0.37915849091E+03  0.50400001928E-02 0.  1.
        1   -1    0    0  501    0  0.00000000000E+00  0.00000000000E+00 -0.53254130276E+03  0.53254130279E+03  0.50400001928E-02 0. -1.
    10030    2    1    2    0    0  0.00000000000E+00  0.00000000000E+00 -0.15338281189E+03  0.91169979370E+03  0.89870474954E+03 0.  0.
        3    1    3    3  502    0  0.41721546397E+03  0.15794981949E+03 -0.22054882484E+02  0.44665794172E+03  0.10100000352E+00 0.  1.
       -3    1    3    3    0  502 -0.41721546397E+03 -0.15794981949E+03 -0.13132792940E+03  0.46504185198E+03  0.10100000352E+00 0. -1.
</event>
<event>
 5   0  0.9981885E-04  0.9002363E+03  0.7818609E-02  0.9425286E-01
        1   -1    0    0  501    0  0.00000000000E+00  0.00000000000E+00  0.11743730177E+04  0.11743730177E+04  0.50400001928E-02 0.  1.
       -1   -1    0    0    0  501  0.00000000000E+00  0.00000000000E+00 -0.17252298443E+03  0.17252298450E+03  0.50400001928E-02 0. -1.
    10030    2    1    2    0    0  0.00000000000E+00  0.00000000000E+00  0.10018500332E+04  0.13468960022E+04  0.90023627542E+03 0.  0.
        4    1    3    3  502    0 -0.35317880236E+03  0.22758146062E+03  0.74252627096E+03  0.85315617774E+03  0.12699999809E+01 0.  1.
       -4    1    3    3    0  502  0.35317880236E+03 -0.22758146062E+03  0.25932376227E+03  0.49373982443E+03  0.12699999809E+01 0. -1.
</event>
<event>
 5   0  0.6375625E-04  0.9122753E+03  0.7818609E-02  0.9410365E-01
        3   -1    0    0  501    0  0.00000000000E+00  0.00000000000E+00  0.48146364592E+03  0.48146365652E+03  0.10100000352E+00 0.  1.
       -3   -1    0    0    0  501  0.00000000000E+00  0.00000000000E+00 -0.43214386578E+03  0.43214387759E+03  0.10100000352E+00 0. -1.
    10030    2    1    2    0    0  0.00000000000E+00  0.00000000000E+00  0.49319780141E+02  0.91360753411E+03  0.91227533435E+03 0.  0.
        3    1    3    3  502    0  0.14405276483E+03  0.25052969954E+03  0.37808491086E+03  0.47588290516E+03  0.10100000352E+00 0.  1.
       -3    1    3    3    0  502 -0.14405276483E+03 -0.25052969954E+03 -0.32876513072E+03  0.43772462894E+03  0.10100000352E+00 0. -1.
</event>
<event>
 5   0  0.1641516E-03  0.8983015E+03  0.7818609E-02  0.9427707E-01
       -2   -1    0    0    0  501  0.00000000000E+00  0.00000000000E+00  0.33696494661E+03  0.33696494662E+03  0.25500000920E-02 0. -1.
        2   -1    0    0  501    0  0.00000000000E+00  0.00000000000E+00 -0.59868661424E+03  0.59868661424E+03  0.25500000920E-02 0.  1.
    10030    2    1    2    0    0  0.00000000000E+00  0.00000000000E+00 -0.26172166763E+03  0.93565156086E+03  0.89830151510E+03 0.  0.
        1    1    3    3  502    0  0.19138299019E+03 -0.22880089732E+03  0.21889729859E+03  0.36999098219E+03  0.50400001928E-02 0. -1.
       -1    1    3    3    0  502 -0.19138299019E+03  0.22880089732E+03 -0.48061896622E+03  0.56566057867E+03  0.50400001928E-02 0.  1.
</event>
<event>
 5   0  0.6375625E-04  0.8964720E+03  0.7818609E-02  0.9430002E-01
       -4   -1    0    0    0  501  0.00000000000E+00  0.00000000000E+00  0.40739418590E+03  0.40739616543E+03  0.12699999809E+01 0.  1.
        4   -1    0    0  501    0  0.00000000000E+00  0.00000000000E+00 -0.49316822604E+03  0.49316986128E+03  0.12699999809E+01 0. -1.
    10030    2    1    2    0    0  0.00000000000E+00  0.00000000000E+00 -0.85774040140E+02  0.90056602670E+03  0.89647196414E+03 0.  0.
        2    1    3    3  502    0  0.33671812934E+03 -0.86085828971E+02 -0.32724444183E+03  0.47736651882E+03  0.25500000920E-02 0. -1.
       -2    1    3    3    0  502 -0.33671812934E+03  0.86085828971E+02  0.24147040169E+03  0.42319950788E+03  0.25500000920E-02 0.  1.
</event>
<event>
 5   0  0.1536020E-03  0.9183875E+03  0.7818609E-02  0.9402884E-01
       -2   -1    0    0    0  501  0.00000000000E+00  0.00000000000E+00  0.60575172325E+03  0.60575172326E+03  0.25500000920E-02 0. -1.
        2   -1    0    0  501    0  0.00000000000E+00  0.00000000000E+00 -0.34809460282E+03  0.34809460283E+03  0.25500000920E-02 0.  1.
    10030    2    1    2    0    0  0.00000000000E+00  0.00000000000E+00  0.25765712044E+03  0.95384632609E+03  0.91838751194E+03 0.  0.
        2    1    3    3  502    0  0.36280557119E+03 -0.28001162652E+03  0.15865153377E+03  0.48497907444E+03  0.25500000920E-02 0. -1.
       -2    1    3    3    0  502 -0.36280557119E+03  0.28001162652E+03  0.99005586667E+02  0.46886725165E+03  0.25500000920E-02 0.  1.
</event>
<event>
 5   0  0.1704416E-03  0.8999005E+03  0.7818609E-02  0.9425706E-01
       -2   -1    0    0    0  501  0.00000000000E+00  0.00000000000E+00  0.15357722701E+03  0.15357722704E+03  0.25500000920E-02 0. -1.
        2   -1    0    0  501    0  0.00000000000E+00  0.00000000000E+00 -0.13182634762E+04  0.13182634762E+04  0.25500000920E-02 0.  1.
    10030    2    1    2    0    0  0.00000000000E+00  0.00000000000E+00 -0.11646862491E+04  0.14718407032E+04  0.89990054819E+03 0.  0.
        3    1    3    3  502    0  0.42212242540E+03 -0.12936560750E+03 -0.44039357034E+03  0.62359386577E+03  0.10100000352E+00 0. -1.
       -3    1    3    3    0  502 -0.42212242540E+03  0.12936560750E+03 -0.72429267881E+03  0.84824683743E+03  0.10100000352E+00 0.  1.
</event>
<event>
 5   0  0.1007561E-03  0.9003788E+03  0.7818609E-02  0.9425108E-01
        1   -1    0    0  501    0  0.00000000000E+00  0.00000000000E+00  0.56007059928E+03  0.56007059931E+03  0.50400001928E-02 0.  1.
       -1   -1    0    0    0  501  0.00000000000E+00  0.00000000000E+00 -0.36186598902E+03  0.36186598905E+03  0.50400001928E-02 0. -1.
    10030    2    1    2    0    0  0.00000000000E+00  0.00000000000E+00  0.19820461027E+03  0.92193658836E+03  0.90037881218E+03 0.  0.
        2    1    3    3  502    0 -0.32543744586E+03 -0.16835129597E+03  0.36693497260E+03  0.51854890237E+03  0.25500000920E-02 0.  1.
       -2    1    3    3    0  502  0.32543744586E+03  0.16835129597E+03 -0.16873036234E+03  0.40338768599E+03  0.25500000920E-02 0. -1.
</event>
<event>
 5   0  0.9223454E-04  0.8995193E+03  0.7818609E-02  0.9426183E-01
        1   -1    0    0  501    0  0.00000000000E+00  0.00000000000E+00  0.56489659734E+03  0.56489659736E+03  0.50400001928E-02 0. -1.
       -1   -1    0    0    0  501  0.00000000000E+00  0.00000000000E+00 -0.35808986672E+03  0.35808986676E+03  0.50400001928E-02 0.  1.
    10030    2    1    2    0    0  0.00000000000E+00  0.00000000000E+00  0.20680673061E+03  0.92298646412E+03  0.89951931003E+03 0.  0.
        1    1    3    3  502    0 -0.21015956588E+03 -0.36858166470E+03  0.25650822622E+03  0.49579830257E+03  0.50400001928E-02 0. -1.
       -1    1    3    3    0  502  0.21015956588E+03  0.36858166470E+03 -0.49701495610E+02  0.42718816156E+03  0.50400001928E-02 0.  1.
</event>
<event>
 5   0  0.1704416E-03  0.9047004E+03  0.7818609E-02  0.9419725E-01
       -2   -1    0    0    0  501  0.00000000000E+00  0.00000000000E+00  0.26057841144E+03  0.26057841145E+03  0.25500000920E-02 0.  1.
        2   -1    0    0  501    0  0.00000000000E+00  0.00000000000E+00 -0.78525570853E+03  0.78525570854E+03  0.25500000920E-02 0. -1.
    10030    2    1    2    0    0  0.00000000000E+00  0.00000000000E+00 -0.52467729709E+03  0.10458341200E+04  0.90470035949E+03 0.  0.
        3    1    3    3  502    0 -0.31378476158E+03 -0.16300035266E+03  0.63790157327E+02  0.35930375163E+03  0.10100000352E+00 0.  1.
       -3    1    3    3    0  502  0.31378476158E+03  0.16300035266E+03 -0.58846745442E+03  0.68653036836E+03  0.10100000352E+00 0. -1.
</event>
<event>
 5   0  0.1635686E-03  0.8992663E+03  0.7818609E-02  0.9426499E-01
        2   -1    0    0  501    0  0.00000000000E+00  0.00000000000E+00  0.65690589084E+03  0.65690589085E+03  0.25500000920E-02 0.  1.
       -2   -1    0    0    0  501  0.00000000000E+00  0.00000000000E+00 -0.30776090058E+03  0.30776090059E+03  0.25500000920E-02 0. -1.
    10030    2    1    2    0    0  0.00000000000E+00  0.00000000000E+00  0.34914499027E+03  0.96466679144E+03  0.89926625327E+03 0.  0.
        5    1    3    3  502    0 -0.10158839553E+03 -0.12555687581E+03 -0.27554224812E+03  0.31942190229E+03  0.46999998093E+01 0. -1.
       -5    1    3    3    0  502  0.10158839553E+03  0.12555687581E+03  0.62468723839E+03  0.64524488914E+03  0.46999998093E+01 0.  1.
</event>
<event>
 5   0  0.9321543E-04  0.8981224E+03  0.7818609E-02  0.9427932E-01
        1   -1    0    0  501    0  0.00000000000E+00  0.00000000000E+00  0.10412061083E+04  0.10412061083E+04  0.50400001928E-02 0.  1.
       -1   -1    0    0    0  501  0.00000000000E+00  0.00000000000E+00 -0.19367533942E+03  0.19367533949E+03  0.50400001928E-02 0. -1.
    10030    2    1    2    0    0  0.00000000000E+00  0.00000000000E+00  0.84753076886E+03  0.12348814478E+04  0.89812236689E+03 0.  0.
        3    1    3    3  502    0 -0.43189459951E+03 -0.18256093931E+01  0.25469764626E+03  0.50140520455E+03  0.10100000352E+00 0. -1.
       -3    1    3    3    0  502  0.43189459951E+03  0.18256093931E+01  0.59283312260E+03  0.73347624323E+03  0.10100000352E+00 0.  1.
</event>
<event>
 5   0  0.1007561E-03  0.9000072E+03  0.7818609E-02  0.9425572E-01
       -1   -1    0    0    0  501  0.00000000000E+00  0.00000000000E+00  0.27314874886E+03  0.27314874890E+03  0.50400001928E-02 0.  1.
        1   -1    0    0  501    0  0.00000000000E+00  0.00000000000E+00 -0.74136624329E+03  0.74136624330E+03  0.50400001928E-02 0. -1.
    10030    2    1    2    0    0  0.00000000000E+00  0.00000000000E+00 -0.46821749443E+03  0.10145149922E+04  0.90000724848E+03 0.  0.
        2    1    3    3  502    0 -0.33205184029E+03  0.21583716911E+03  0.67577463920E+01  0.39609313974E+03  0.25500000920E-02 0.  1.
       -2    1    3    3    0  502  0.33205184029E+03 -0.21583716911E+03 -0.47497524082E+03  0.61842185246E+03  0.25500000920E-02 0. -1.
</event>
<event>
 5   0  0.1007561E-03  0.9000870E+03  0.7818609E-02  0.9425473E-01
       -1   -1    0    0    0  501  0.00000000000E+00  0.00000000000E+00  0.19996303681E+03  0.19996303688E+03  0.50400001928E-02 0. -1.
        1   -1    0    0  501    0  0.00000000000E+00  0.00000000000E+00 -0.10128829150E+04  0.10128829150E+04  0.50400001928E-02 0.  1.
    10030    2    1    2    0    0  0.00000000000E+00  0.00000000000E+00 -0.81291987817E+03  0.12128459519E+04  0.90008698172E+03 0.  0.
        2    1    3    3  502    0  0.27330567770E+03 -0.14984175391E+03 -0.84390357134E+03  0.89962313354E+03  0.25500000920E-02 0.  1.
       -2    1    3    3    0  502 -0.27330567770E+03  0.14984175391E+03  0.30983693171E+02  0.31322281833E+03  0.25500000920E-02 0. -1.
</event>
<event>
 5   0  0.1630202E-03  0.9010772E+03  0.7818609E-02  0.9424236E-01
        2   -1    0    0  501    0  0.00000000000E+00  0.00000000000E+00  0.82666287634E+03  0.82666287635E+03  0.25500000920E-02 0. -1.
       -2   -1    0    0    0  501  0.00000000000E+00  0.00000000000E+00 -0.24554754331E+03  0.24554754332E+03  0.25500000920E-02 0.  1.
    10030    2    1    2    0    0  0.00000000000E+00  0.00000000000E+00  0.58111533303E+03  0.10722104197E+04  0.90107721853E+03 0.  0.
        4    1    3    3  502    0 -0.34397924996E+03 -0.18592032763E+03  0.24229777287E+02  0.39176113594E+03  0.12699999809E+01 0.  1.
       -4    1    3    3    0  502  0.34397924996E+03  0.18592032763E+03  0.55688555575E+03  0.68044928373E+03  0.12699999809E+01 0. -1.
</event>
<event>
 5   0  0.9697941E-04  0.8993423E+03  0.7818609E-02  0.9426404E-01
        1   -1    0    0  501    0  0.00000000000E+00  0.00000000000E+00  0.89747815371E+03  0.89747815372E+03  0.50400001928E-02 0.  1.
       -1   -1    0    0    0  501  0.00000000000E+00  0.00000000000E+00 -0.22530260414E+03  0.22530260420E+03  0.50400001928E-02 0. -1.
    10030    2    1    2    0    0  0.00000000000E+00  0.00000000000E+00  0.67217554957E+03  0.11227807579E+04  0.89934234911E+03 0.  0.
        5    1    3    3  502    0  0.61707515866E+02 -0.28520895064E+03 -0.91001561010E+02  0.30570465672E+03  0.46999998093E+01 0.  1.
       -5    1    3    3    0  502 -0.61707515866E+02  0.28520895064E+03  0.76317711058E+03  0.81707610119E+03  0.46999998093E+01 0. -1.
</event>
<event>
 5   0  0.1635686E-03  0.9008212E+03  0.7818609E-02  0.9424556E-01
       -2   -1    0    0    0  501  0.00000000000E+00  0.00000000000E+00  0.22317664999E+03  0.22317665001E+03  0.25500000920E-02 0.  1.
        2   -1    0    0  501    0  0.00000000000E+00  0.00000000000E+00 -0.90900947202E+03  0.90900947202E+03  0.25500000920E-02 0. -1.
    10030    2    1    2    0    0  0.00000000000E+00  0.00000000000E+00 -0.68583282202E+03  0.11321861220E+04  0.90082115603E+03 0.  0.
        5    1    3    3  502    0 -0.21485631715E+03  0.35372691209E+03 -0.11963170047E+03  0.43083616273E+03  0.46999998093E+01 0.  1.
       -5    1    3    3    0  502  0.21485631715E+03 -0.35372691209E+03 -0.56620112156E+03  0.70134995930E+03  0.46999998093E+01 0. -1.
</event>
<event>
 5   0  0.1007561E-03  0.9005296E+03  0.7818609E-02  0.9424920E-01
        1   -1    0    0  501    0  0.00000000000E+00  0.00000000000E+00  0.14707882229E+04  0.14707882229E+04  0.50400001928E-02 0. -1.
       -1   -1    0    0    0  501  0.00000000000E+00  0.00000000000E+00 -0.13784335223E+03  0.13784335232E+03  0.50400001928E-02 0.  1.
    10030    2    1    2    0    0  0.00000000000E+00  0.00000000000E+00  0.13329448706E+04  0.16086315752E+04  0.90052957561E+03 0.  0.
        2    1    3    3  502    0 -0.11618591765E+02 -0.26876036310E+03  0.13114573110E+04  0.13387633857E+04  0.25500000920E-02 0. -1.
       -2    1    3    3    0  502  0.11618591765E+02  0.26876036310E+03  0.21487559640E+02  0.26986818944E+03  0.25500000920E-02 0.  1.
</event>
<event>
 5   0  0.1641516E-03  0.8944948E+03  0.7818609E-02  0.9432489E-01
       -2   -1    0    0    0  501  0.00000000000E+00  0.00000000000E+00  0.13042513582E+03  0.13042513585E+03  0.25500000920E-02 0.  1.
        2   -1    0    0  501    0  0.00000000000E+00  0.00000000000E+00 -0.15336786743E+04  0.15336786743E+04  0.25500000920E-02 0. -1.
    10030    2    1    2    0    0  0.00000000000E+00  0.00000000000E+00 -0.14032535385E+04  0.16641038101E+04  0.89449482820E+03 0.  0.
        1    1    3    3  502    0  0.64305587130E+02  0.43219896230E+03 -0.87908728874E+03  0.98169527492E+03  0.50400001928E-02 0.  1.
       -1    1    3    3    0  502 -0.64305587130E+02 -0.43219896230E+03 -0.52416624971E+03  0.68240853520E+03  0.50400001928E-02 0. -1.
</event>
<event>
 5   0  0.9697941E-04  0.9022504E+03  0.7818609E-02  0.9422773E-01
       -1   -1    0    0    0  501  0.00000000000E+00  0.00000000000E+00  0.41907177058E+03  0.41907177061E+03  0.50400001928E-02 0. -1.
        1   -1    0    0  501    0  0.00000000000E+00  0.00000000000E+00 -0.48563024464E+03  0.48563024467E+03  0.50400001928E-02 0.  1.
    10030    2    1    2    0    0  0.00000000000E+00  0.00000000000E+00 -0.66558474056E+02  0.90470201528E+03  0.90225035660E+03 0.  0.
        5    1    3    3  502    0 -0.99028156130E+01 -0.44679925665E+03  0.28240511524E+02  0.44782503056E+03  0.46999998093E+01 0.  1.
       -5    1    3    3    0  502  0.99028156130E+01  0.44679925665E+03 -0.94798985580E+02  0.45687698472E+03  0.46999998093E+01 0. -1.
</event>
<event>
 5   0  0.6375625E-04  0.8995884E+03  0.7818609E-02  0.9426096E-01
        4   -1    0    0  501    0  0.00000000000E+00  0.00000000000E+00  0.20708368542E+03  0.20708757970E+03  0.12699999809E+01 0.  1.
       -4   -1    0    0    0  501  0.00000000000E+00  0.00000000000E+00 -0.97695775505E+03  0.97695858052E+03  0.12699999809E+01 0. -1.
    10030    2    1    2    0    0  0.00000000000E+00  0.00000000000E+00 -0.76987406964E+03  0.11840461602E+04  0.89958836500E+03 0.  0.
        3    1    3    3  502    0  0.87648374375E+01  0.19281899576E+02  0.20642928838E+03  0.20751307266E+03  0.10100000352E+00 0.  1.
       -3    1    3    3    0  502 -0.87648374375E+01 -0.19281899576E+02 -0.97630335801E+03  0.97653308756E+03  0.10100000352E+00 0. -1.
</event>
<event>
 5   0  0.1536020E-03  0.8978658E+03  0.7818609E-02  0.9428253E-01
        2   -1    0    0  501    0  0.00000000000E+00  0.00000000000E+00  0.61300618528E+03  0.61300618529E+03  0.25500000920E-02 0.  1.
       -2   -1    0    0    0  501  0.00000000000E+00  0.00000000000E+00 -0.32877438016E+03  0.32877438017E+03  0.25500000920E-02 0. -1.
    10030    2    1    2    0    0  0.00000000000E+00  0.00000000000E+00  0.28423180512E+03  0.94178056546E+03  0.89786575524E+03 0.  0.
        2    1    3    3  502    0  0.22211611712E+03 -0.55983145582E+02 -0.26286539404E+03  0.34866588228E+03  0.25500000920E-02 0. -1.
       -2    1    3    3    0  502 -0.22211611712E+03  0.55983145582E+02  0.54709719916E+03  0.59311468318E+03  0.25500000920E-02 0.  1.
</event>
<event>
 5   0  0.1536020E-03  0.8998860E+03  0.7818609E-02  0.9425724E-01
        2   -1    0    0  501    0  0.00000000000E+00  0.00000000000E+00  0.12218633885E+03  0.12218633888E+03  0.25500000920E-02 0. -1.
       -2   -1    0    0    0  501  0.00000000000E+00  0.00000000000E+00 -0.16568849266E+04  0.16568849266E+04  0.25500000920E-02 0.  1.
    10030    2    1    2    0    0  0.00000000000E+00  0.00000000000E+00 -0.15346985877E+04  0.17790712654E+04  0.89988599967E+03 0.  0.
        2    1    3    3  502    0  0.18052414090E+02 -0.26388238471E+03 -0.47741931403E+02  0.26877331459E+03  0.25500000920E-02 0. -1.
       -2    1    3    3    0  502 -0.18052414090E+02  0.26388238471E+03 -0.14869566563E+04  0.15102979508E+04  0.25500000920E-02 0.  1.
</event>
<event>
 5   0  0.1630202E-03  0.8989048E+03  0.7818609E-02  0.9426951E-01
        2   -1    0    0  501    0  0.00000000000E+00  0.00000000000E+00  0.99788687392E+03  0.99788687392E+03  0.25500000920E-02 0. -1.
       -2   -1    0    0    0  501  0.00000000000E+00  0.00000000000E+00 -0.20243524481E+03  0.20243524483E+03  0.25500000920E-02 0.  1.
    10030    2    1    2    0    0  0.00000000000E+00  0.00000000000E+00  0.79545162911E+03  0.12003221188E+04  0.89890483062E+03 0.  0.
        4    1    3    3  502    0 -0.37337759303E+03  0.21815853771E+03  0.56127825461E+03  0.70854701083E+03  0.12699999809E+01 0. -1.
       -4    1    3    3    0  502  0.37337759303E+03 -0.21815853771E+03  0.23417337450E+03  0.49177510792E+03  0.12699999809E+01 0.  1.
</event>
<event>
 5   0  0.1536020E-03  0.8997521E+03  0.7818609E-02  0.9425891E-01
        2   -1    0    0  501    0  0.00000000000E+00  0.00000000000E+00  0.27414589595E+04  0.27414589595E+04  0.25500000920E-02 0.  1.
       -2   -1    0    0    0  501  0.00000000000E+00  0.00000000000E+00 -0.73825096949E+02  0.73825096993E+02  0.25500000920E-02 0. -1.
    10030    2    1    2    0    0  0.00000000000E+00  0.00000000000E+00  0.26676338626E+04  0.28152840565E+04  0.89975212927E+03 0.  0.
        2    1    3    3  502    0 -0.35234801454E+03  0.26034682592E+03  0.10138228568E+04  0.11044303410E+04  0.25500000920E-02 0. -1.
       -2    1    3    3    0  502  0.35234801454E+03 -0.26034682592E+03  0.16538110058E+04  0.17108537155E+04  0.25500000920E-02 0.  1.
</event>
<event>
 5   0  0.1536020E-03  0.9010042E+03  0.7818609E-02  0.9424327E-01
       -2   -1    0    0    0  501  0.00000000000E+00  0.00000000000E+00  0.42250315610E+03  0.42250315611E+03  0.25500000920E-02 0. -1.
        2   -1    0    0  501    0  0.00000000000E+00  0.00000000000E+00 -0.48035648254E+03  0.48035648255E+03  0.25500000920E-02 0.  1.
    10030    2    1    2    0    0  0.00000000000E+00  0.00000000000E+00 -0.57853326444E+02  0.90285963866E+03  0.90100417298E+03 0.  0.
        2    1    3    3  502    0  0.27130421005E+03 -0.32428668057E+03  0.12690662550E+03  0.44144435344E+03  0.25500000920E-02 0. -1.
       -2    1    3    3    0  502 -0.27130421005E+03  0.32428668057E+03 -0.18475995195E+03  0.46141528522E+03  0.25500000920E-02 0.  1.
</event>
<event>
 5   0  0.1704416E-03  0.9007024E+03  0.7818609E-02  0.9424704E-01
       -2   -1    0    0    0  501  0.00000000000E+00  0.00000000000E+00  0.33101009914E+03  0.33101009915E+03  0.25500000920E-02 0. -1.
        2   -1    0    0  501    0  0.00000000000E+00  0.00000000000E+00 -0.61271911271E+03  0.61271911272E+03  0.25500000920E-02 0.  1.
    10030    2    1    2    0    0  0.00000000000E+00  0.00000000000E+00 -0.28170901357E+03  0.94372921187E+03  0.90070242423E+03 0.  0.
        3    1    3    3  502    0 -0.31917201920E+03 -0.28958507267E+03 -0.38972186675E+01  0.43098200736E+03  0.10100000352E+00 0. -1.
       -3    1    3    3    0  502  0.31917201920E+03  0.28958507267E+03 -0.27781179490E+03  0.51274720451E+03  0.10100000352E+00 0.  1.
</event>
<event>
 5   0  0.9981885E-04  0.9008510E+03  0.7818609E-02  0.9424518E-01
       -1   -1    0    0    0  501  0.00000000000E+00  0.00000000000E+00  0.32385906368E+03  0.32385906372E+03  0.50400001928E-02 0.  1.
        1   -1    0    0  501    0  0.00000000000E+00  0.00000000000E+00 -0.62645500553E+03  0.62645500555E+03  0.50400001928E-02 0. -1.
    10030    2    1    2    0    0  0.00000000000E+00  0.00000000000E+00 -0.30259594186E+03  0.95031406927E+03  0.90085100112E+03 0.  0.
        4    1    3    3  502    0 -0.15631195097E+03 -0.36582081548E+02 -0.59524948725E+03  0.61651864504E+03  0.12699999809E+01 0. -1.
       -4    1    3    3    0  502  0.15631195097E+03  0.36582081548E+02  0.29265354540E+03  0.33379542423E+03  0.12699999809E+01 0.  1.
</event>
<event>
 5   0  0.9223454E-04  0.8995379E+03  0.7818609E-02  0.9426159E-01
       -1   -1    0    0    0  501  0.00000000000E+00  0.00000000000E+00  0.12941990229E+03  0.12941990239E+03  0.50400001928E-02 0.  1.
        1   -1    0    0  501    0  0.00000000000E+00  0.00000000000E+00 -0.15630681698E+04  0.15630681698E+04  0.50400001928E-02 0. -1.
    10030    2    1    2    0    0  0.00000000000E+00  0.00000000000E+00 -0.14336482675E+04  0.16924880722E+04  0.89953794784E+03 0.  0.
        1    1    3    3  502    0 -0.13976912534E+02 -0.88422983847E+02 -0.15461364383E+04  0.15487258841E+04  0.50400001928E-02 0. -1.
       -1    1    3    3    0  502  0.13976912534E+02  0.88422983847E+02  0.11248817076E+03  0.14376218815E+03  0.50400001928E-02 0.  1.
</event>
<event>
 5   0  0.9321543E-04  0.8999451E+03  0.7818609E-02  0.9425650E-01
        1   -1    0    0  501    0  0.00000000000E+00  0.00000000000E+00  0.84772162184E+03  0.84772162186E+03  0.50400001928E-02 0. -1.
       -1   -1    0    0    0  501  0.00000000000E+00  0.00000000000E+00 -0.23884645172E+03  0.23884645178E+03  0.50400001928E-02 0.  1.
    10030    2    1    2    0    0  0.00000000000E+00  0.00000000000E+00  0.60887517012E+03  0.10865680736E+04  0.89994511269E+03 0.  0.
        3    1    3    3  502    0 -0.12043366169E+03 -0.34639729543E+03  0.61923510323E+03  0.71968567891E+03  0.10100000352E+00 0. -1.
       -3    1    3    3    0  502  0.12043366169E+03  0.34639729543E+03 -0.10359933111E+02  0.36688239473E+03  0.10100000352E+00 0.  1.
</event>
<event>
 5   0  0.6375625E-04  0.8995708E+03  0.7818609E-02  0.9426118E-01
        3   -1    0    0  501    0  0.00000000000E+00  0.00000000000E+00  0.50959143743E+03  0.50959144744E+03  0.10100000352E+00 0.  1.
       -3   -1    0    0    0  501  0.00000000000E+00  0.00000000000E+00 -0.39699820232E+03  0.39699821517E+03  0.10100000352E+00 0. -1.
    10030    2    1    2    0    0  0.00000000000E+00  0.00000000000E+00  0.11259323511E+03  0.90658966261E+03  0.89957077529E+03 0.  0.
        3    1    3    3  502    0  0.29141640518E+03  0.13521353034E+03  0.37355544050E+03  0.49269655704E+03  0.10100000352E+00 0.  1.
       -3    1    3    3    0  502 -0.29141640518E+03 -0.13521353034E+03 -0.26096220539E+03  0.41389310557E+03  0.10100000352E+00 0. -1.
</event>
<event>
 5   0  0.1007561E-03  0.8980142E+03  0.7818609E-02  0.9428067E-01
        1   -1    0    0  501    0  0.00000000000E+00  0.00000000000E+00  0.47909098799E+03  0.47909098802E+03  0.50400001928E-02 0.  1.
       -1   -1    0    0    0  501  0.00000000000E+00  0.00000000000E+00 -0.42081224490E+03  0.42081224493E+03  0.50400001928E-02 0. -1.
    10030    2    1    2    0    0  0.00000000000E+00  0.00000000000E+00  0.58278743085E+02  0.89990323295E+03  0.89801415177E+03 0.  0.
        2    1    3    3  502    0 -0.48325923224E+02 -0.21260224220E+03  0.42248546201E+03  0.47542515064E+03  0.25500000920E-02 0.  1.
       -2    1    3    3    0  502  0.48325923224E+02  0.21260224220E+03 -0.36420671893E+03  0.42447808231E+03  0.25500000920E-02 0. -1.
</event>
<event>
 5   0  0.9223454E-04  0.8995751E+03  0.7818609E-02  0.9426113E-01
       -1   -1    0    0    0  501  0.00000000000E+00  0.00000000000E+00  0.40833493224E+03  0.40833493227E+03  0.50400001928E-02 0. -1.
        1   -1    0    0  501    0  0.00000000000E+00  0.00000000000E+00 -0.49544826303E+03  0.49544826305E+03  0.50400001928E-02 0.  1.
    10030    2    1    2    0    0  0.00000000000E+00  0.00000000000E+00 -0.87113330788E+02  0.90378319532E+03  0.89957508399E+03 0.  0.
        1    1    3    3  502    0  0.82018832470E+02 -0.84416330243E+02  0.39258883749E+03  0.40985265772E+03  0.50400001928E-02 0. -1.
       -1    1    3    3    0  502 -0.82018832470E+02  0.84416330243E+02 -0.47970216828E+03  0.49393053760E+03  0.50400001928E-02 0.  1.
</event>
<event>
 5   0  0.1630202E-03  0.8948948E+03  0.7818609E-02  0.9431986E-01
        2   -1    0    0  501    0  0.00000000000E+00  0.00000000000E+00  0.13204470213E+04  0.13204470213E+04  0.25500000920E-02 0.  1.
       -2   -1    0    0    0  501  0.00000000000E+00  0.00000000000E+00 -0.15162226936E+03  0.15162226938E+03  0.25500000920E-02 0. -1.
    10030    2    1    2    0    0  0.00000000000E+00  0.00000000000E+00  0.11688247520E+04  0.14720692907E+04  0.89489479596E+03 0.  0.
        4    1    3    3  502    0  0.22618791493E+03 -0.26114950309E+03  0.11668839705E+03  0.36466125477E+03  0.12699999809E+01 0.  1.
       -4    1    3    3    0  502 -0.22618791493E+03  0.26114950309E+03  0.10521363549E+04  0.11074080359E+04  0.12699999809E+01 0. -1.
</event>
<event>
 5   0  0.1630202E-03  0.8947501E+03  0.7818609E-02  0.9432168E-01
        2   -1    0    0  501    0  0.00000000000E+00  0.00000000000E+00  0.74286127863E+03  0.74286127864E+03  0.25500000920E-02 0. -1.
       -2   -1    0    0    0  501  0.00000000000E+00  0.00000000000E+00 -0.26942371039E+03  0.26942371040E+03  0.25500000920E-02 0.  1.
    10030    2    1    2    0    0  0.00000000000E+00  0.00000000000E+00  0.47343756824E+03  0.10122849890E+04  0.89475011484E+03 0.  0.
        4    1    3    3  502    0 -0.96177678454E+02 -0.22043356299E+03 -0.19006324145E+03  0.30653996505E+03  0.12699999809E+01 0.  1.
       -4    1    3    3    0  502  0.96177678454E+02  0.22043356299E+03  0.66350080969E+03  0.70574502399E+03  0.12699999809E+01 0. -1.
</event>
<event>
 5   0  0.1536020E-03  0.8847795E+03  0.7818609E-02  0.9444810E-01
       -2   -1    0    0    0  501  0.00000000000E+00  0.00000000000E+00  0.30477851802E+03  0.30477851803E+03  0.25500000920E-02 0. -1.
        2   -1    0    0  501    0  0.00000000000E+00  0.00000000000E+00 -0.64213420969E+03  0.64213420970E+03  0.25500000920E-02 0.  1.
    10030    2    1    2    0    0  0.00000000000E+00  0.00000000000E+00 -0.33735569167E+03  0.94691272773E+03  0.88477954951E+03 0.  0.
        2    1    3    3  502    0 -0.27254725490E+03  0.15040772972E+03 -0.50508299014E+03  0.59330710281E+03  0.25500000920E-02 0.  1.
       -2    1    3    3    0  502  0.27254725490E+03 -0.15040772972E+03  0.16772729847E+03  0.35360562492E+03  0.25500000920E-02 0. -1.
</event>
<event>
 5   0  0.9697941E-04  0.9027876E+03  0.7818609E-02  0.9422103E-01
       -1   -1    0    0    0  501  0.00000000000E+00  0.00000000000E+00  0.90024162251E+03  0.90024162252E+03  0.50400001928E-02 0.  1.
        1   -1    0    0  501    0  0.00000000000E+00  0.00000000000E+00 -0.22633521441E+03  0.22633521447E+03  0.50400001928E-02 0. -1.
    10030    2    1    2    0    0  0.00000000000E+00  0.00000000000E+00  0.67390640809E+03  0.11265768370E+04  0.90278763991E+03 0.  0.
        5    1    3    3  502    0  0.44778544697E+03  0.33336325679E+02  0.39429049678E+03  0.59758698361E+03  0.46999998093E+01 0. -1.
       -5    1    3    3    0  502 -0.44778544697E+03 -0.33336325679E+02  0.27961591131E+03  0.52898985338E+03  0.46999998093E+01 0.  1.
</event>
<event>
 5   0  0.9981885E-04  0.9016905E+03  0.7818609E-02  0.9423471E-01
       -1   -1    0    0    0  501  0.00000000000E+00  0.00000000000E+00  0.23700137703E+03  0.23700137708E+03  0.50400001928E-02 0. -1.
        1   -1    0    0  501    0  0.00000000000E+00  0.00000000000E+00 -0.85763821292E+03  0.85763821293E+03  0.50400001928E-02 0.  1.
    10030    2    1    2    0    0  0.00000000000E+00  0.00000000000E+00 -0.62063683589E+03  0.10946395900E+04  0.90169049566E+03 0.  0.
        4    1    3    3  502    0  0.77075952368E+02 -0.89105727223E+02 -0.83861755716E+03  0.84685391487E+03  0.12699999809E+01 0.  1.
       -4    1    3    3    0  502 -0.77075952368E+02  0.89105727223E+02  0.21798072127E+03  0.24778567514E+03  0.12699999809E+01 0. -1.
</event>
<event>
 5   0  0.9321543E-04  0.9110693E+03  0.7818609E-02  0.9411849E-01
       -1   -1    0    0    0  501  0.00000000000E+00  0.00000000000E+00  0.82555635284E+02  0.82555635438E+02  0.50400001928E-02 0.  1.
        1   -1    0    0  501    0  0.00000000000E+00  0.00000000000E+00 -0.25135993973E+04  0.25135993973E+04  0.50400001928E-02 0. -1.
    10030    2    1    2    0    0  0.00000000000E+00  0.00000000000E+00 -0.24310437620E+04  0.25961550328E+04  0.91106925160E+03 0.  0.
        3    1    3    3  502    0 -0.21667529634E+03 -0.87466917182E+02 -0.10122314915E+03  0.25464638574E+03  0.10100000352E+00 0.  1.
       -3    1    3    3    0  502  0.21667529634E+03  0.87466917182E+02 -0.23298206129E+04  0.23415086470E+04  0.10100000352E+00 0. -1.
</event>
<event>
 5   0  0.6375625E-04  0.8988564E+03  0.7818609E-02  0.9427012E-01
       -3   -1    0    0    0  501  0.00000000000E+00  0.00000000000E+00  0.11489751842E+04  0.11489751886E+04  0.10100000352E+00 0.  1.
        3   -1    0    0  501    0  0.00000000000E+00  0.00000000000E+00 -0.17579638213E+03  0.17579641115E+03  0.10100000352E+00 0. -1.
    10030    2    1    2    0    0  0.00000000000E+00  0.00000000000E+00  0.97317880203E+03  0.13247715997E+04  0.89885639052E+03 0.  0.
        1    1    3    3  502    0 -0.27357526911E+03  0.33231925322E+03  0.67708694925E+03  0.80232552670E+03  0.50400001928E-02 0.  1.
       -1    1    3    3    0  502  0.27357526911E+03 -0.33231925322E+03  0.29609185278E+03  0.52244607304E+03  0.50400001928E-02 0. -1.
</event>
<event>
 5   0  0.9981885E-04  0.8995165E+03  0.7818609E-02  0.9426186E-01
       -1   -1    0    0    0  501  0.00000000000E+00  0.00000000000E+00  0.14380911482E+03  0.14380911491E+03  0.50400001928E-02 0.  1.
        1   -1    0    0  501    0  0.00000000000E+00  0.00000000000E+00 -0.14066039860E+04  0.14066039860E+04  0.50400001928E-02 0. -1.
    10030    2    1    2    0    0  0.00000000000E+00  0.00000000000E+00 -0.12627948712E+04  0.15504131009E+04  0.89951647945E+03 0.  0.
        4    1    3    3  502    0  0.28485588274E+03  0.37698581771E+02 -0.12277675380E+04  0.12609436138E+04  0.12699999809E+01 0. -1.
       -4    1    3    3    0  502 -0.28485588274E+03 -0.37698581771E+02 -0.35027333212E+02  0.28946948711E+03  0.12699999809E+01 0.  1.
</event>
<event>
 5   0  0.1007561E-03  0.8991394E+03  0.7818609E-02  0.9426658E-01
        1   -1    0    0  501    0  0.00000000000E+00  0.00000000000E+00  0.67391436664E+03  0.67391436666E+03  0.50400001928E-02 0.  1.
       -1   -1    0    0    0  501  0.00000000000E+00  0.00000000000E+00 -0.29990889733E+03  0.29990889737E+03  0.50400001928E-02 0. -1.
    10030    2    1    2    0    0  0.00000000000E+00  0.00000000000E+00  0.37400546932E+03  0.97382326403E+03  0.89913939881E+03 0.  0.
        2    1    3    3  502    0  0.31037977255E+03  0.81389413070E+02 -0.15403796497E+03  0.35593192386E+03  0.25500000920E-02 0. -1.
       -2    1    3    3    0  502 -0.31037977255E+03 -0.81389413070E+02  0.52804343428E+03  0.61789134017E+03  0.25500000920E-02 0.  1.
</event>
<event>
 5   0  0.1641516E-03  0.9014258E+03  0.7818609E-02  0.9423801E-01
        2   -1    0    0  501    0  0.00000000000E+00  0.00000000000E+00  0.33564331149E+03  0.33564331150E+03  0.25500000920E-02 0.  1.
       -2   -1    0    0    0  501  0.00000000000E+00  0.00000000000E+00 -0.60523211505E+03  0.60523211506E+03  0.25500000920E-02 0. -1.
    10030    2    1    2    0    0  0.00000000000E+00  0.00000000000E+00 -0.26958880356E+03  0.94087542656E+03  0.90142578469E+03 0.  0.
        1    1    3    3  502    0  0.26396253820E+03  0.29803372949E+03 -0.35532706848E+03  0.53362688379E+03  0.50400001928E-02 0. -1.
       -1    1    3    3    0  502 -0.26396253820E+03 -0.29803372949E+03  0.85738264920E+02  0.40724854277E+03  0.50400001928E-02 0.  1.
</event>
<event>
 5   0  0.1536020E-03  0.9020461E+03  0.7818609E-02  0.9423027E-01
        2   -1    0    0  501    0  0.00000000000E+00  0.00000000000E+00  0.48524371276E+03  0.48524371276E+03  0.25500000920E-02 0.  1.
       -2   -1    0    0    0  501  0.00000000000E+00  0.00000000000E+00 -0.41921569573E+03  0.41921569574E+03  0.25500000920E-02 0. -1.
    10030    2    1    2    0    0  0.00000000000E+00  0.00000000000E+00  0.66028017026E+02  0.90445940851E+03  0.90204607565E+03 0.  0.
        2    1    3    3  502    0 -0.28230799387E+03  0.15826237075E+03 -0.28195536488E+03  0.42923607629E+03  0.25500000920E-02 0. -1.
       -2    1    3    3    0  502  0.28230799387E+03 -0.15826237075E+03  0.34798338190E+03  0.47522333222E+03  0.25500000920E-02 0.  1.
</event>
<event>
 5   0  0.1704416E-03  0.9015380E+03  0.7818609E-02  0.9423661E-01
       -2   -1    0    0    0  501  0.00000000000E+00  0.00000000000E+00  0.25202003522E+03  0.25202003524E+03  0.25500000920E-02 0.  1.
        2   -1    0    0  501    0  0.00000000000E+00  0.00000000000E+00 -0.80625602251E+03  0.80625602252E+03  0.25500000920E-02 0. -1.
    10030    2    1    2    0    0  0.00000000000E+00  0.00000000000E+00 -0.55423598729E+03  0.10582760578E+04  0.90153795528E+03 0.  0.
        3    1    3    3  502    0  0.89438967247E+02  0.34003804604E+03  0.53999938272E+02  0.35572630652E+03  0.10100000352E+00 0.  1.
       -3    1    3    3    0  502 -0.89438967247E+02 -0.34003804604E+03 -0.60823592556E+03  0.70254975123E+03  0.10100000352E+00 0. -1.
</event>
<event>
 5   0  0.1635686E-03  0.9007044E+03  0.7818609E-02  0.9424701E-01
        2   -1    0    0  501    0  0.00000000000E+00  0.00000000000E+00  0.25727976270E+03  0.25727976271E+03  0.25500000920E-02 0.  1.
       -2   -1    0    0    0  501  0.00000000000E+00  0.00000000000E+00 -0.78831350539E+03  0.78831350539E+03  0.25500000920E-02 0. -1.
    10030    2    1    2    0    0  0.00000000000E+00  0.00000000000E+00 -0.53103374269E+03  0.10455932681E+04  0.90070441679E+03 0.  0.
        5    1    3    3  502    0 -0.29242340131E+03  0.71014906108E+02  0.12339858494E+03  0.32527505789E+03  0.46999998093E+01 0. -1.
       -5    1    3    3    0  502  0.29242340131E+03 -0.71014906108E+02 -0.65443232762E+03  0.72031821021E+03  0.46999998093E+01 0.  1.
</event>
<event>
 5   0  0.9697941E-04  0.8986659E+03  0.7818609E-02  0.9427251E-01
        1   -1    0    0  501    0  0.00000000000E+00  0.00000000000E+00  0.85388180125E+03  0.85388180127E+03  0.50400001928E-02 0.  1.
       -1   -1    0    0    0  501  0.00000000000E+00  0.00000000000E+00 -0.23644970085E+03  0.23644970090E+03  0.50400001928E-02 0. -1.
    10030    2    1    2    0    0  0.00000000000E+00  0.00000000000E+00  0.61743210040E+03  0.10903315022E+04  0.89866589232E+03 0.  0.
        5    1    3    3  502    0  0.44127240028E+03 -0.83915350899E+02  0.32172073391E+03  0.55253003356E+03  0.46999998093E+01 0.  1.
       -5    1    3    3    0  502 -0.44127240028E+03  0.83915350899E+02  0.29571136649E+03  0.53780146861E+03  0.46999998093E+01 0. -1.
</event>
<event>
 5   0  0.1007561E-03  0.9011648E+03  0.7818609E-02  0.9424126E-01
        1   -1    0    0  501    0  0.00000000000E+00  0.00000000000E+00  0.70118404443E+03  0.70118404444E+03  0.50400001928E-02 0.  1.
       -1   -1    0    0    0  501  0.00000000000E+00  0.00000000000E+00 -0.28954526007E+03  0.28954526011E+03  0.50400001928E-02 0. -1.
    10030    2    1    2    0    0  0.00000000000E+00  0.00000000000E+00  0.41163878436E+03  0.99072930455E+03  0.90116483848E+03 0.  0.
        2    1    3    3  502    0 -0.44431626017E+03  0.25075132810E+02  0.28339296130E+03  0.52759574663E+03  0.25500000920E-02 0.  1.
       -2    1    3    3    0  502  0.44431626017E+03 -0.25075132810E+02  0.12824582305E+03  0.46313355792E+03  0.25500000920E-02 0. -1.
</event>
<event>
 5   0  0.9697941E-04  0.9142613E+03  0.7818609E-02  0.9407928E-01
       -1   -1    0    0    0  501  0.00000000000E+00  0.00000000000E+00  0.37544215541E+03  0.37544215544E+03  0.50400001928E-02 0. -1.
        1   -1    0    0  501    0  0.00000000000E+00  0.00000000000E+00 -0.55659283295E+03  0.55659283297E+03  0.50400001928E-02 0.  1.
    10030    2    1    2    0    0  0.00000000000E+00  0.00000000000E+00 -0.18115067754E+03  0.93203498841E+03  0.91426126006E+03 0.  0.
        5    1    3    3  502    0  0.40435384865E+03  0.20810564305E+03 -0.43456345859E+02  0.45685942869E+03  0.46999998093E+01 0. -1.
       -5    1    3    3    0  502 -0.40435384865E+03 -0.20810564305E+03 -0.13769433168E+03  0.47517555973E+03  0.46999998093E+01 0.  1.
</event>
<event>
 5   0  0.1536020E-03  0.9015712E+03  0.7818609E-02  0.9423619E-01
       -2   -1    0    0    0  501  0.00000000000E+00  0.00000000000E+00  0.32149625116E+03  0.32149625117E+03  0.25500000920E-02 0. -1.
        2   -1    0    0  501    0  0.00000000000E+00  0.00000000000E+00 -0.63206851513E+03  0.63206851514E+03  0.25500000920E-02 0.  1.
    10030    2    1    2    0    0  0.00000000000E+00  0.00000000000E+00 -0.31057226397E+03  0.95356476631E+03  0.90157120207E+03 0.  0.
        2    1    3    3  502    0 -0.73397330725E+02  0.87778917851E+02 -0.61645370059E+03  0.62698283195E+03  0.25500000920E-02 0.  1.
       -2    1    3    3    0  502  0.73397330725E+02 -0.87778917851E+02  0.30588143662E+03  0.32658193436E+03  0.25500000920E-02 0. -1.
</event>
<event>
 5   0  0.1641516E-03  0.8992649E+03  0.7818609E-02  0.9426501E-01
       -2   -1    0    0    0  501  0.00000000000E+00  0.00000000000E+00  0.21603497404E+03  0.21603497406E+03  0.25500000920E-02 0. -1.
        2   -1    0    0  501    0  0.00000000000E+00  0.00000000000E+00 -0.93581765453E+03  0.93581765453E+03  0.25500000920E-02 0.  1.
    10030    2    1    2    0    0  0.00000000000E+00  0.00000000000E+00 -0.71978268048E+03  0.11518526286E+04  0.89926490584E+03 0.  0.
        1    1    3    3  502    0  0.26649284812E+03 -0.15190819707E+02 -0.82335160883E+03  0.86553860162E+03  0.50400001928E-02 0.  1.
       -1    1    3    3    0  502 -0.26649284812E+03  0.15190819707E+02  0.10356892834E+03  0.28631402698E+03  0.50400001928E-02 0. -1.
</event>
<event>
 5   0  0.1641516E-03  0.8994739E+03  0.7818609E-02  0.9426239E-01
       -2   -1    0    0    0  501  0.00000000000E+00  0.00000000000E+00  0.26352203402E+03  0.26352203403E+03  0.25500000920E-02 0.  1.
        2   -1    0    0  501    0  0.00000000000E+00  0.00000000000E+00 -0.76753856761E+03  0.76753856762E+03  0.25500000920E-02 0. -1.
    10030    2    1    2    0    0  0.00000000000E+00  0.00000000000E+00 -0.50401653359E+03  0.10310606016E+04  0.89947390075E+03 0.  0.
        1    1    3    3  502    0 -0.44491800885E+03  0.36782216821E+02 -0.18966048284E+03  0.48505264132E+03  0.50400001928E-02 0.  1.
       -1    1    3    3    0  502  0.44491800885E+03 -0.36782216821E+02 -0.31435605075E+03  0.54600796033E+03  0.50400001928E-02 0. -1.
</event>
<event>
 5   0  0.1704416E-03  0.9174451E+03  0.7818609E-02  0.9404033E-01
        2   -1    0    0  501    0  0.00000000000E+00  0.00000000000E+00  0.10015922532E+04  0.10015922532E+04  0.25500000920E-02 0. -1.
       -2   -1    0    0    0  501  0.00000000000E+00  0.00000000000E+00 -0.21009187286E+03  0.21009187287E+03  0.25500000920E-02 0.  1.
    10030    2    1    2    0    0  0.00000000000E+00  0.00000000000E+00  0.79150038037E+03  0.12116841261E+04  0.91744513150E+03 0.  0.
        3    1    3    3  502    0 -0.32142877748E+03  0.25034598368E+03  0.11734279756E+03  0.42397984961E+03  0.10100000352E+00 0. -1.
       -3    1    3    3    0  502  0.32142877748E+03 -0.25034598368E+03  0.67415758281E+03  0.78770427649E+03  0.10100000352E+00 0.  1.
</event>
<event>
 5   0  0.9981885E-04  0.9001237E+03  0.7818609E-02  0.9425427E-01
        1   -1    0    0  501    0  0.00000000000E+00  0.00000000000E+00  0.17374208167E+04  0.17374208167E+04  0.50400001928E-02 0.  1.
       -1   -1    0    0    0  501  0.00000000000E+00  0.00000000000E+00 -0.11658412070E+03  0.11658412081E+03  0.50400001928E-02 0. -1.
    10030    2    1    2    0    0  0.00000000000E+00  0.00000000000E+00  0.16208366960E+04  0.18540049375E+04  0.90012372106E+03 0.  0.
        4    1    3    3  502    0  0.19857946194E+03  0.40029921990E+03  0.69986674950E+03  0.83035435093E+03  0.12699999809E+01 0.  1.
       -4    1    3    3    0  502 -0.19857946194E+03 -0.40029921990E+03  0.92096994646E+03  0.10236505865E+04  0.12699999809E+01 0. -1.
</event>
<event>
 5   0  0.1704416E-03  0.8993644E+03  0.7818609E-02  0.9426376E-01
        2   -1    0    0  501    0  0.00000000000E+00  0.00000000000E+00  0.33623965143E+03  0.33623965144E+03  0.25500000920E-02 0. -1.
       -2   -1    0    0    0  501  0.00000000000E+00  0.00000000000E+00 -0.60139865883E+03  0.60139865884E+03  0.25500000920E-02 0.  1.
    10030    2    1    2    0    0  0.00000000000E+00  0.00000000000E+00 -0.26515900740E+03  0.93763831028E+03  0.89936438761E+03 0.  0.
        3    1    3    3  502    0  0.20874078591E+03 -0.38424332406E+03 -0.24191590022E+03  0.49973889259E+03  0.10100000352E+00 0.  1.
       -3    1    3    3    0  502 -0.20874078591E+03  0.38424332406E+03 -0.23243107184E+02  0.43789941770E+03  0.10100000352E+00 0. -1.
</event>
<event>
 5   0  0.1007561E-03  0.9008279E+03  0.7818609E-02  0.9424547E-01
        1   -1    0    0  501    0  0.00000000000E+00  0.00000000000E+00  0.52871350082E+03  0.52871350085E+03  0.50400001928E-02 0. -1.
       -1   -1    0    0    0  501  0.00000000000E+00  0.00000000000E+00 -0.38371014610E+03  0.38371014613E+03  0.50400001928E-02 0.  1.
    10030    2    1    2    0    0  0.00000000000E+00  0.00000000000E+00  0.14500335473E+03  0.91242364698E+03  0.90082791846E+03 0.  0.
        2    1    3    3  502    0  0.20466515699E+03  0.55604728171E+02 -0.32997077860E+03  0.39225046465E+03  0.25500000920E-02 0.  1.
       -2    1    3    3    0  502 -0.20466515699E+03 -0.55604728171E+02  0.47497413333E+03  0.52017318233E+03  0.25500000920E-02 0. -1.
</event>
<event>
 5   0  0.1635686E-03  0.9001286E+03  0.7818609E-02  0.9425421E-01
       -2   -1    0    0    0  501  0.00000000000E+00  0.00000000000E+00  0.19022692939E+03  0.19022692941E+03  0.25500000920E-02 0. -1.
        2   -1    0    0  501    0  0.00000000000E+00  0.00000000000E+00 -0.10648223152E+04  0.10648223152E+04  0.25500000920E-02 0.  1.
    10030    2    1    2    0    0  0.00000000000E+00  0.00000000000E+00 -0.87459538583E+03  0.12550492446E+04  0.90012861167E+03 0.  0.
        5    1    3    3  502    0 -0.20727371325E+03 -0.71182519428E+02  0.11076406800E+03  0.24560153102E+03  0.46999998093E+01 0. -1.
       -5    1    3    3    0  502  0.20727371325E+03  0.71182519428E+02 -0.98535945383E+03  0.10094477136E+04  0.46999998093E+01 0.  1.
</event>
<event>
 5   0  0.1704416E-03  0.8999331E+03  0.7818609E-02  0.9425665E-01
       -2   -1    0    0    0  501  0.00000000000E+00  0.00000000000E+00  0.29939621486E+03  0.29939621487E+03  0.25500000920E-02 0. -1.
        2   -1    0    0  501    0  0.00000000000E+00  0.00000000000E+00 -0.67626066744E+03  0.67626066744E+03  0.25500000920E-02 0.  1.
    10030    2    1    2    0    0  0.00000000000E+00  0.00000000000E+00 -0.37686445258E+03  0.97565688231E+03  0.89993307328E+03 0.  0.
        3    1    3    3  502    0 -0.81139452719E+02  0.15303994967E+03 -0.63866533915E+03  0.66173881753E+03  0.10100000352E+00 0. -1.
       -3    1    3    3    0  502  0.81139452719E+02 -0.15303994967E+03  0.26180088658E+03  0.31391806478E+03  0.10100000352E+00 0.  1.
</event>
<event>
 5   0  0.1007561E-03  0.9016019E+03  0.7818609E-02  0.9423581E-01
        1   -1    0    0  501    0  0.00000000000E+00  0.00000000000E+00  0.33655104247E+03  0.33655104251E+03  0.50400001928E-02 0. -1.
       -1   -1    0    0    0  501  0.00000000000E+00  0.00000000000E+00 -0.60383559348E+03  0.60383559350E+03  0.50400001928E-02 0.  1.
    10030    2    1    2    0    0  0.00000000000E+00  0.00000000000E+00 -0.26728455101E+03  0.94038663601E+03  0.90160190438E+03 0.  0.
        2    1    3    3  502    0  0.10908999453E+03  0.58962238762E+02  0.31841209142E+03  0.34170664681E+03  0.25500000920E-02 0. -1.
       -2    1    3    3    0  502 -0.10908999453E+03 -0.58962238762E+02 -0.58569664243E+03  0.59867998920E+03  0.25500000920E-02 0.  1.
</event>
<event>
 5   0  0.1007561E-03  0.8996709E+03  0.7818609E-02  0.9425993E-01
       -1   -1    0    0    0  501  0.00000000000E+00  0.00000000000E+00  0.23917695282E+03  0.23917695287E+03  0.50400001928E-02 0. -1.
        1   -1    0    0  501    0  0.00000000000E+00  0.00000000000E+00 -0.84603435618E+03  0.84603435619E+03  0.50400001928E-02 0.  1.
    10030    2    1    2    0    0  0.00000000000E+00  0.00000000000E+00 -0.60685740335E+03  0.10852113091E+04  0.89967087166E+03 0.  0.
        2    1    3    3  502    0 -0.42614117514E+03  0.28589434186E+02 -0.13310530670E+03  0.44735967585E+03  0.25500000920E-02 0. -1.
       -2    1    3    3    0  502  0.42614117514E+03 -0.28589434186E+02 -0.47375209665E+03  0.63785163321E+03  0.25500000920E-02 0.  1.
</event>
<event>
 5   0  0.6375625E-04  0.9001317E+03  0.7818609E-02  0.9425417E-01
       -3   -1    0    0    0  501  0.00000000000E+00  0.00000000000E+00  0.11271905444E+04  0.11271905489E+04  0.10100000352E+00 0.  1.
        3   -1    0    0  501    0  0.00000000000E+00  0.00000000000E+00 -0.17970276270E+03  0.17970279108E+03  0.10100000352E+00 0. -1.
    10030    2    1    2    0    0  0.00000000000E+00  0.00000000000E+00  0.94748778166E+03  0.13068933400E+04  0.90013171572E+03 0.  0.
        5    1    3    3  502    0  0.18969447918E+03 -0.28478089329E+03  0.89816582831E+03  0.96114936287E+03  0.46999998093E+01 0.  1.
       -5    1    3    3    0  502 -0.18969447918E+03  0.28478089329E+03  0.49321953349E+02  0.34574397709E+03  0.46999998093E+01 0. -1.
</event>
<event>
 5   0  0.9697941E-04  0.9005622E+03  0.7818609E-02  0.9424879E-01
        1   -1    0    0  501    0  0.00000000000E+00  0.00000000000E+00  0.38961771620E+03  0.38961771624E+03  0.50400001928E-02 0.  1.
       -1   -1    0    0    0  501  0.00000000000E+00  0.00000000000E+00 -0.52038976206E+03  0.52038976208E+03  0.50400001928E-02 0. -1.
    10030    2    1    2    0    0  0.00000000000E+00  0.00000000000E+00 -0.13077204585E+03  0.91000747832E+03  0.90056220363E+03 0.  0.
        5    1    3    3  502    0  0.83087364452E+02  0.37861942659E+03 -0.29686238213E+03  0.48826790212E+03  0.46999998093E+01 0. -1.
       -5    1    3    3    0  502 -0.83087364452E+02 -0.37861942659E+03  0.16609033627E+03  0.42173957619E+03  0.46999998093E+01 0.  1.
</event>
<event>
 5   0  0.1536020E-03  0.8999644E+03  0.7818609E-02  0.9425626E-01
       -2   -1    0    0    0  501  0.00000000000E+00  0.00000000000E+00  0.26410942651E+03  0.26410942652E+03  0.25500000920E-02 0. -1.
        2   -1    0    0  501    0  0.00000000000E+00  0.00000000000E+00 -0.76666705562E+03  0.76666705563E+03  0.25500000920E-02 0.  1.
    10030    2    1    2    0    0  0.00000000000E+00  0.00000000000E+00 -0.50255762912E+03  0.10307764821E+04  0.89996443572E+03 0.  0.
        2    1    3    3  502    0 -0.23808084220E+03  0.33520232604E+03 -0.46072776791E+03  0.61750559750E+03  0.25500000920E-02 0.  1.
       -2    1    3    3    0  502  0.23808084220E+03 -0.33520232604E+03 -0.41829861206E+02  0.41327088465E+03  0.25500000920E-02 0. -1.
</event>
<event>
 5   0  0.1536020E-03  0.9003113E+03  0.7818609E-02  0.9425192E-01
       -2   -1    0    0    0  501  0.00000000000E+00  0.00000000000E+00  0.22119597632E+03  0.22119597634E+03  0.25500000920E-02 0. -1.
        2   -1    0    0  501    0  0.00000000000E+00  0.00000000000E+00 -0.91611116596E+03  0.91611116597E+03  0.25500000920E-02 0.  1.
    10030    2    1    2    0    0  0.00000000000E+00  0.00000000000E+00 -0.69491518964E+03  0.11373071423E+04  0.90031128791E+03 0.  0.
        2    1    3    3  502    0 -0.20684690960E+03  0.99120477809E+02  0.14184050975E+03  0.26968359858E+03  0.25500000920E-02 0. -1.
       -2    1    3    3    0  502  0.20684690960E+03 -0.99120477809E+02 -0.83675569940E+03  0.86762354372E+03  0.25500000920E-02 0.  1.
</event>
<event>
 5   0  0.9321543E-04  0.8931986E+03  0.7818609E-02  0.9434124E-01
        1   -1    0    0  501    0  0.00000000000E+00  0.00000000000E+00  0.22920430120E+03  0.22920430125E+03  0.50400001928E-02 0.  1.
       -1   -1    0    0    0  501  0.00000000000E+00  0.00000000000E+00 -0.87018841887E+03  0.87018841889E+03  0.50400001928E-02 0. -1.
    10030    2    1    2    0    0  0.00000000000E+00  0.00000000000E+00 -0.64098411768E+03  0.10993927201E+04  0.89319858597E+03 0.  0.
        3    1    3    3  502    0 -0.42357891766E+03  0.13058371641E+03 -0.25330402044E+03  0.51052340147E+03  0.10100000352E+00 0. -1.
       -3    1    3    3    0  502  0.42357891766E+03 -0.13058371641E+03 -0.38768009724E+03  0.58886931867E+03  0.10100000352E+00 0.  1.
</event>
<event>
 5   0  0.1630202E-03  0.8997533E+03  0.7818609E-02  0.9425890E-01
       -2   -1    0    0    0  501  0.00000000000E+00  0.00000000000E+00  0.34928337809E+03  0.34928337810E+03  0.25500000920E-02 0. -1.
        2   -1    0    0  501    0  0.00000000000E+00  0.00000000000E+00 -0.57944072044E+03  0.57944072045E+03  0.25500000920E-02 0.  1.
    10030    2    1    2    0    0  0.00000000000E+00  0.00000000000E+00 -0.23015734235E+03  0.92872409855E+03  0.89975332675E+03 0.  0.
        4    1    3    3  502    0 -0.16595400843E+03  0.14595888382E+03 -0.51954073990E+03  0.56459624689E+03  0.12699999809E+01 0.  1.
       -4    1    3    3    0  502  0.16595400843E+03 -0.14595888382E+03  0.28938339755E+03  0.36412785166E+03  0.12699999809E+01 0. -1.
</event>
<event>
 5   0  0.9223454E-04  0.9001056E+03  0.7818609E-02  0.9425449E-01
       -1   -1    0    0    0  501  0.00000000000E+00  0.00000000000E+00  0.35022827616E+03  0.35022827620E+03  0.50400001928E-02 0. -1.
        1   -1    0    0  501    0  0.00000000000E+00  0.00000000000E+00 -0.57832995316E+03  0.57832995318E+03  0.50400001928E-02 0.  1.
    10030    2    1    2    0    0  0.00000000000E+00  0.00000000000E+00 -0.22810167700E+03  0.92855822938E+03  0.90010555509E+03 0.  0.
        1    1    3    3  502    0  0.35399943181E+03  0.13752362904E+03  0.13507645934E+03  0.40308063233E+03  0.50400001928E-02 0. -1.
       -1    1    3    3    0  502 -0.35399943181E+03 -0.13752362904E+03 -0.36317813634E+03  0.52547759705E+03  0.50400001928E-02 0.  1.
</event>
<event>
 5   0  0.1536020E-03  0.8998127E+03  0.7818609E-02  0.9425816E-01
        2   -1    0    0  501    0  0.00000000000E+00  0.00000000000E+00  0.16783643753E+04  0.16783643753E+04  0.25500000920E-02 0.  1.
       -2   -1    0    0    0  501  0.00000000000E+00  0.00000000000E+00 -0.12060297606E+03  0.12060297608E+03  0.25500000920E-02 0. -1.
    10030    2    1    2    0    0  0.00000000000E+00  0.00000000000E+00  0.15577613992E+04  0.17989673514E+04  0.89981273294E+03 0.  0.
        2    1    3    3  502    0 -0.42439230769E+02  0.40760360721E+03  0.40767326244E+03  0.57804781622E+03  0.25500000920E-02 0. -1.
       -2    1    3    3    0  502  0.42439230769E+02 -0.40760360721E+03  0.11500881368E+04  0.12209195351E+04  0.25500000920E-02 0.  1.
</event>
<event>
 5   0  0.9321543E-04  0.8979948E+03  0.7818609E-02  0.9428091E-01
       -1   -1    0    0    0  501  0.00000000000E+00  0.00000000000E+00  0.16850583364E+03  0.16850583371E+03  0.50400001928E-02 0.  1.
        1   -1    0    0  501    0  0.00000000000E+00  0.00000000000E+00 -0.11963898892E+04  0.11963898892E+04  0.50400001928E-02 0. -1.
    10030    2    1    2    0    0  0.00000000000E+00  0.00000000000E+00 -0.10278840555E+04  0.13648957229E+04  0.89799482334E+03 0.  0.
        3    1    3    3  502    0 -0.26468442573E+03 -0.28611758493E+03 -0.85271262901E+03  0.93757130689E+03  0.10100000352E+00 0. -1.
       -3    1    3    3    0  502  0.26468442573E+03  0.28611758493E+03 -0.17517142650E+03  0.42732441598E+03  0.10100000352E+00 0.  1.
</event>
<event>
 5   0  0.6375625E-04  0.8999341E+03  0.7818609E-02  0.9425664E-01
        3   -1    0    0  501    0  0.00000000000E+00  0.00000000000E+00  0.96856299620E+03  0.96856300147E+03  0.10100000352E+00 0. -1.
       -3   -1    0    0    0  501  0.00000000000E+00  0.00000000000E+00 -0.20904199941E+03  0.20904202381E+03  0.10100000352E+00 0.  1.
    10030    2    1    2    0    0  0.00000000000E+00  0.00000000000E+00  0.75952099679E+03  0.11776050253E+04  0.89993413703E+03 0.  0.
        5    1    3    3  502    0  0.30601952946E+02  0.24007691879E+02  0.96632689306E+03  0.96712077996E+03  0.46999998093E+01 0. -1.
       -5    1    3    3    0  502 -0.30601952946E+02 -0.24007691879E+02 -0.20680589627E+03  0.21048424531E+03  0.46999998093E+01 0.  1.
</event>
<event>
 5   0  0.1641516E-03  0.8986771E+03  0.7818609E-02  0.9427237E-01
        2   -1    0    0  501    0  0.00000000000E+00  0.00000000000E+00  0.96039655853E+03  0.96039655853E+03  0.25500000920E-02 0.  1.
       -2   -1    0    0    0  501  0.00000000000E+00  0.00000000000E+00 -0.21023102537E+03  0.21023102538E+03  0.25500000920E-02 0. -1.
    10030    2    1    2    0    0  0.00000000000E+00  0.00000000000E+00  0.75016553316E+03  0.11706275839E+04  0.89867714619E+03 0.  0.
        1    1    3    3  502    0  0.93162345096E+02 -0.24998352285E+03 -0.95904982918E+02  0.28349382712E+03  0.50400001928E-02 0. -1.
       -1    1    3    3    0  502 -0.93162345096E+02  0.24998352285E+03  0.84607051608E+03  0.88713375679E+03  0.50400001928E-02 0.  1.
</event>
<event>
 5   0  0.6375625E-04  0.9014779E+03  0.7818609E-02  0.9423736E-01
       -4   -1    0    0    0  501  0.00000000000E+00  0.00000000000E+00  0.19787828558E+03  0.19788236103E+03  0.12699999809E+01 0.  1.
        4   -1    0    0  501    0  0.00000000000E+00  0.00000000000E+00 -0.10267049215E+04  0.10267057069E+04  0.12699999809E+01 0. -1.
    10030    2    1    2    0    0  0.00000000000E+00  0.00000000000E+00 -0.82882663588E+03  0.12245880680E+04  0.90147786653E+03 0.  0.
        2    1    3    3  502    0  0.21397713655E+03 -0.22008638519E+03  0.33951306355E+02  0.30883154490E+03  0.25500000920E-02 0.  1.
       -2    1    3    3    0  502 -0.21397713655E+03  0.22008638519E+03 -0.86277794224E+03  0.91575652306E+03  0.25500000920E-02 0. -1.
</event>
<event>
 5   0  0.9223454E-04  0.8999568E+03  0.7818609E-02  0.9425635E-01
        1   -1    0    0  501    0  0.00000000000E+00  0.00000000000E+00  0.76145262061E+03  0.76145262062E+03  0.50400001928E-02 0.  1.
       -1   -1    0    0    0  501  0.00000000000E+00  0.00000000000E+00 -0.26591352887E+03  0.26591352892E+03  0.50400001928E-02 0. -1.
    10030    2    1    2    0    0  0.00000000000E+00  0.00000000000E+00  0.49553909174E+03  0.10273661495E+04  0.89995678440E+03 0.  0.
        1    1    3    3  502    0  0.42959023544E+03 -0.93264960189E+02  0.13806903524E+03  0.46077020488E+03  0.50400001928E-02 0. -1.
       -1    1    3    3    0  502 -0.42959023544E+03  0.93264960189E+02  0.35747005650E+03  0.56659594466E+03  0.50400001928E-02 0.  1.
</event>
<event>
 5   0  0.9981885E-04  0.9008484E+03  0.7818609E-02  0.9424521E-01
        1   -1    0    0  501    0  0.00000000000E+00  0.00000000000E+00  0.85409005254E+03  0.85409005255E+03  0.50400001928E-02 0. -1.
       -1   -1    0    0    0  501  0.00000000000E+00  0.00000000000E+00 -0.23754165204E+03  0.23754165209E+03  0.50400001928E-02 0.  1.
    10030    2    1    2    0    0  0.00000000000E+00  0.00000000000E+00  0.61654840050E+03  0.10916317046E+04  0.90084840480E+03 0.  0.
        4    1    3    3  502    0  0.42223997546E+02 -0.44187805869E+03  0.40088846055E+03  0.59812394653E+03  0.12699999809E+01 0.  1.
       -4    1    3    3    0  502 -0.42223997546E+02  0.44187805869E+03  0.21565993995E+03  0.49350775811E+03  0.12699999809E+01 0. -1.
</event>
<event>
 5   0  0.9981885E-04  0.9013886E+03  0.7818609E-02  0.9423847E-01
       -1   -1    0    0    0  501  0.00000000000E+00  0.00000000000E+00  0.22143846135E+03  0.22143846141E+03  0.50400001928E-02 0.  1.
        1   -1    0    0  501    0  0.00000000000E+00  0.00000000000E+00 -0.91729928947E+03  0.91729928949E+03  0.50400001928E-02 0. -1.
    10030    2    1    2    0    0  0.00000000000E+00  0.00000000000E+00 -0.69586082812E+03  0.11387377509E+04  0.90138858058E+03 0.  0.
        4    1    3    3  502    0 -0.39285858156E+03 -0.14517897415E+03 -0.13763899564E+03  0.44086381759E+03  0.12699999809E+01 0.  1.
       -4    1    3    3    0  502  0.39285858156E+03  0.14517897415E+03 -0.55822183248E+03  0.69787393331E+03  0.12699999809E+01 0. -1.
</event>
<event>
 5   0  0.1536020E-03  0.9039400E+03  0.7818609E-02  0.9420670E-01
        2   -1    0    0  501    0  0.00000000000E+00  0.00000000000E+00  0.39042981770E+03  0.39042981771E+03  0.25500000920E-02 0. -1.
       -2   -1    0    0    0  501  0.00000000000E+00  0.00000000000E+00 -0.52321027747E+03  0.52321027747E+03  0.25500000920E-02 0.  1.
    10030    2    1    2    0    0  0.00000000000E+00  0.00000000000E+00 -0.13278045977E+03  0.91364009518E+03  0.90394002734E+03 0.  0.
        2    1    3    3  502    0  0.62616606634E+00 -0.20202599332E+03  0.34225264944E+03  0.39743146594E+03  0.25500000920E-02 0. -1.
       -2    1    3    3    0  502 -0.62616606634E+00  0.20202599332E+03 -0.47503310921E+03  0.51620862925E+03  0.25500000920E-02 0.  1.
</event>
<event>
 5   0  0.1536020E-03  0.8996125E+03  0.7818609E-02  0.9426066E-01
       -2   -1    0    0    0  501  0.00000000000E+00  0.00000000000E+00  0.22187962503E+03  0.22187962505E+03  0.25500000920E-02 0. -1.
        2   -1    0    0  501    0  0.00000000000E+00  0.00000000000E+00 -0.91187129663E+03  0.91187129664E+03  0.25500000920E-02 0.  1.
    10030    2    1    2    0    0  0.00000000000E+00  0.00000000000E+00 -0.68999167160E+03  0.11337509217E+04  0.89961249743E+03 0.  0.
        2    1    3    3  502    0  0.42579036904E+03  0.11580799723E+03 -0.45498413234E+03  0.63381345149E+03  0.25500000920E-02 0.  1.
       -2    1    3    3    0  502 -0.42579036904E+03 -0.11580799723E+03 -0.23500753926E+03  0.49993747020E+03  0.25500000920E-02 0. -1.
</event>
<event>
 5   0  0.1630202E-03  0.9028135E+03  0.7818609E-02  0.9422071E-01
       -2   -1    0    0    0  501  0.00000000000E+00  0.00000000000E+00  0.19350653382E+03  0.19350653384E+03  0.25500000920E-02 0. -1.
        2   -1    0    0  501    0  0.00000000000E+00  0.00000000000E+00 -0.10530293283E+04  0.10530293283E+04  0.25500000920E-02 0.  1.
    10030    2    1    2    0    0  0.00000000000E+00  0.00000000000E+00 -0.85952279444E+03  0.12465358621E+04  0.90281350308E+03 0.  0.
        4    1    3    3  502    0 -0.17099676603E+03 -0.36809810831E+03 -0.70253846028E+03  0.81135566333E+03  0.12699999809E+01 0.  1.
       -4    1    3    3    0  502  0.17099676603E+03  0.36809810831E+03 -0.15698433416E+03  0.43518019878E+03  0.12699999809E+01 0. -1.
</event>
<event>
 5   0  0.1635686E-03  0.9000299E+03  0.7818609E-02  0.9425544E-01
        2   -1    0    0  501    0  0.00000000000E+00  0.00000000000E+00  0.14384909933E+04  0.14384909933E+04  0.25500000920E-02 0. -1.
       -2   -1    0    0    0  501  0.00000000000E+00  0.00000000000E+00 -0.14078187383E+03  0.14078187386E+03  0.25500000920E-02 0.  1.
    10030    2    1    2    0    0  0.00000000000E+00  0.00000000000E+00  0.12977091195E+04  0.15792728672E+04  0.90002990517E+03 0.  0.
        5    1    3    3  502    0 -0.15821473195E+03  0.24704181707E+03  0.50122763467E+02  0.29765070503E+03  0.46999998093E+01 0.  1.
       -5    1    3    3    0  502  0.15821473195E+03 -0.24704181707E+03  0.12475863560E+04  0.12816221621E+04  0.46999998093E+01 0. -1.
</event>
<event>
 5   0  0.1536020E-03  0.9008381E+03  0.7818609E-02  0.9424534E-01
       -2   -1    0    0    0  501  0.00000000000E+00  0.00000000000E+00  0.28633997849E+03  0.28633997850E+03  0.25500000920E-02 0.  1.
        2   -1    0    0  501    0  0.00000000000E+00  0.00000000000E+00 -0.70851899959E+03  0.70851899960E+03  0.25500000920E-02 0. -1.
    10030    2    1    2    0    0  0.00000000000E+00  0.00000000000E+00 -0.42217902110E+03  0.99485897810E+03  0.90083808781E+03 0.  0.
        2    1    3    3  502    0  0.33334432870E+03 -0.60051021570E+02 -0.53898293859E+03  0.63657456340E+03  0.25500000920E-02 0. -1.
       -2    1    3    3    0  502 -0.33334432870E+03  0.60051021570E+02  0.11680391749E+03  0.35828441470E+03  0.25500000920E-02 0.  1.
</event>
<event>
 5   0  0.1641516E-03  0.8990360E+03  0.7818609E-02  0.9426787E-01
        2   -1    0    0  501    0  0.00000000000E+00  0.00000000000E+00  0.16094670882E+04  0.16094670882E+04  0.25500000920E-02 0.  1.
       -2   -1    0    0    0  501  0.00000000000E+00  0.00000000000E+00 -0.12554866215E+03  0.12554866218E+03  0.25500000920E-02 0. -1.
    10030    2    1    2    0    0  0.00000000000E+00  0.00000000000E+00  0.14839184261E+04  0.17350157504E+04  0.89903601648E+03 0.  0.
        1    1    3    3  502    0  0.44679125789E+02 -0.70633436757E+02 -0.11042219002E+03  0.13848598031E+03  0.50400001928E-02 0. -1.
       -1    1    3    3    0  502 -0.44679125789E+02  0.70633436757E+02  0.15943406161E+04  0.15965297701E+04  0.50400001928E-02 0.  1.
</event>
<event>
 5   0  0.1630202E-03  0.8993330E+03  0.7818609E-02  0.9426416E-01
        2   -1    0    0  501    0  0.00000000000E+00  0.00000000000E+00  0.94686365257E+03  0.94686365257E+03  0.25500000920E-02 0.  1.
       -2   -1    0    0    0  501  0.00000000000E+00  0.00000000000E+00 -0.21354705919E+03  0.21354705921E+03  0.25500000920E-02 0. -1.
    10030    2    1    2    0    0  0.00000000000E+00  0.00000000000E+00  0.73331659338E+03  0.11604107118E+04  0.89933297164E+03 0.  0.
        4    1    3    3  502    0 -0.91312901134E+02 -0.33706814760E+03  0.73216989342E+03  0.81118884840E+03  0.12699999809E+01 0.  1.
       -4    1    3    3    0  502  0.91312901134E+02  0.33706814760E+03  0.11466999624E+01  0.34922186338E+03  0.12699999809E+01 0. -1.
</event>
<event>
 5   0  0.1630202E-03  0.9040330E+03  0.7818609E-02  0.9420554E-01
       -2   -1    0    0    0  501  0.00000000000E+00  0.00000000000E+00  0.42058740629E+03  0.42058740630E+03  0.25500000920E-02 0.  1.
        2   -1    0    0  501    0  0.00000000000E+00  0.00000000000E+00 -0.48579420648E+03  0.48579420649E+03  0.25500000920E-02 0. -1.
    10030    2    1    2    0    0  0.00000000000E+00  0.00000000000E+00 -0.65206800190E+02  0.90638161278E+03  0.90403301997E+03 0.  0.
        4    1    3    3  502    0 -0.40377747862E+03  0.17141827103E+03  0.76752580710E+02  0.44532353119E+03  0.12699999809E+01 0.  1.
       -4    1    3    3    0  502  0.40377747862E+03 -0.17141827103E+03 -0.14195938090E+03  0.46105808160E+03  0.12699999809E+01 0. -1.
</event>
<event>
 5   0  0.1635686E-03  0.8993427E+03  0.7818609E-02  0.9426403E-01
        2   -1    0    0  501    0  0.00000000000E+00  0.00000000000E+00  0.90114923210E+03  0.90114923210E+03  0.25500000920E-02 0. -1.
       -2   -1    0    0    0  501  0.00000000000E+00  0.00000000000E+00 -0.22438496681E+03  0.22438496683E+03  0.25500000920E-02 0.  1.
    10030    2    1    2    0    0  0.00000000000E+00  0.00000000000E+00  0.67676426529E+03  0.11255341989E+04  0.89934273900E+03 0.  0.
        5    1    3    3  502    0  0.22707761341E+03 -0.75521518222E+02 -0.13803722211E+03  0.27630437368E+03  0.46999998093E+01 0.  1.
       -5    1    3    3    0  502 -0.22707761341E+03  0.75521518222E+02  0.81480148740E+03  0.84922982525E+03  0.46999998093E+01 0. -1.
</event>
<event>
 5   0  0.1007561E-03  0.9104036E+03  0.7818609E-02  0.9412669E-01
       -1   -1    0    0    0  501  0.00000000000E+00  0.00000000000E+00  0.58162098533E+03  0.58162098535E+03  0.50400001928E-02 0.  1.
        1   -1    0    0  501    0  0.00000000000E+00  0.00000000000E+00 -0.35626067511E+03  0.35626067514E+03  0.50400001928E-02 0. -1.
    10030    2    1    2    0    0  0.00000000000E+00  0.00000000000E+00  0.22536031022E+03  0.93788166049E+03  0.91040361361E+03 0.  0.
        2    1    3    3  502    0  0.39601338653E+03  0.14199606326E+03 -0.66403337930E+02  0.42590948285E+03  0.25500000920E-02 0. -1.
       -2    1    3    3    0  502 -0.39601338653E+03 -0.14199606326E+03  0.29176364815E+03  0.51197217764E+03  0.25500000920E-02 0.  1.
</event>
<event>
 5   0  0.1635686E-03  0.8987871E+03  0.7818609E-02  0.9427099E-01
        2   -1    0    0  501    0  0.00000000000E+00  0.00000000000E+00  0.10047387632E+04  0.10047387632E+04  0.25500000920E-02 0. -1.
       -2   -1    0    0    0  501  0.00000000000E+00  0.00000000000E+00 -0.20100207578E+03  0.20100207580E+03  0.25500000920E-02 0.  1.
    10030    2    1    2    0    0  0.00000000000E+00  0.00000000000E+00  0.80373668745E+03  0.12057408390E+04  0.89878713173E+03 0.  0.
        5    1    3    3  502    0  0.35576131031E+03  0.25981801694E+03  0.28292631598E+03  0.52358466566E+03  0.46999998093E+01 0.  1.
       -5    1    3    3    0  502 -0.35576131031E+03 -0.25981801694E+03  0.52081037147E+03  0.68215617338E+03  0.46999998093E+01 0. -1.
</event>
<event>
 5   0  0.1704416E-03  0.9012782E+03  0.7818609E-02  0.9423985E-01
       -2   -1    0    0    0  501  0.00000000000E+00  0.00000000000E+00  0.89979304102E+03  0.89979304102E+03  0.25500000920E-02 0.  1.
        2   -1    0    0  501    0  0.00000000000E+00  0.00000000000E+00 -0.22569144170E+03  0.22569144171E+03  0.25500000920E-02 0. -1.
    10030    2    1    2    0    0  0.00000000000E+00  0.00000000000E+00  0.67410159932E+03  0.11254844827E+04  0.90127817829E+03 0.  0.
        3    1    3    3  502    0 -0.41764064782E+03 -0.32280059210E+02  0.12955333176E+03  0.43846298464E+03  0.10100000352E+00 0. -1.
       -3    1    3    3    0  502  0.41764064782E+03  0.32280059210E+02  0.54454826756E+03  0.68702149809E+03  0.10100000352E+00 0.  1.
</event>
<event>
 5   0  0.6375625E-04  0.8929736E+03  0.7818609E-02  0.9434408E-01
       -4   -1    0    0    0  501  0.00000000000E+00  0.00000000000E+00  0.18164229911E+03  0.18164673882E+03  0.12699999809E+01 0. -1.
        4   -1    0    0  501    0  0.00000000000E+00  0.00000000000E+00 -0.10974709233E+04  0.10974716581E+04  0.12699999809E+01 0.  1.
    10030    2    1    2    0    0  0.00000000000E+00  0.00000000000E+00 -0.91582862421E+03  0.12791183970E+04  0.89297357437E+03 0.  0.
        4    1    3    3  502    0  0.17506784837E+03 -0.34735101115E+03 -0.14393075079E+03  0.41475191429E+03  0.12699999809E+01 0. -1.
       -4    1    3    3    0  502 -0.17506784837E+03  0.34735101115E+03 -0.77189787342E+03  0.86436648267E+03  0.12699999809E+01 0.  1.
</event>
<event>
 5   0  0.9223454E-04  0.9012720E+03  0.7818609E-02  0.9423993E-01
        1   -1    0    0  501    0  0.00000000000E+00  0.00000000000E+00  0.83465265851E+03  0.83465265852E+03  0.50400001928E-02 0. -1.
       -1   -1    0    0    0  501  0.00000000000E+00  0.00000000000E+00 -0.24330217143E+03  0.24330217148E+03  0.50400001928E-02 0.  1.
    10030    2    1    2    0    0  0.00000000000E+00  0.00000000000E+00  0.59135048708E+03  0.10779548300E+04  0.90127199943E+03 0.  0.
        1    1    3    3  502    0 -0.40355653736E+02  0.20062017634E+01  0.83248173218E+03  0.83346171962E+03  0.50400001928E-02 0. -1.
       -1    1    3    3    0  502  0.40355653736E+02 -0.20062017634E+01 -0.24113124510E+03  0.24449311038E+03  0.50400001928E-02 0.  1.
</event>
<event>
 5   0  0.9697941E-04  0.8996754E+03  0.7818609E-02  0.9425987E-01
        1   -1    0    0  501    0  0.00000000000E+00  0.00000000000E+00  0.72092529083E+03  0.72092529085E+03  0.50400001928E-02 0. -1.
       -1   -1    0    0    0  501  0.00000000000E+00  0.00000000000E+00 -0.28068644851E+03  0.28068644856E+03  0.50400001928E-02 0.  1.
    10030    2    1    2    0    0  0.00000000000E+00  0.00000000000E+00  0.44023884232E+03  0.10016117394E+04  0.89967540715E+03 0.  0.
        5    1    3    3  502    0 -0.32352588167E+03  0.11062019725E+03  0.54551279736E+03  0.64382616150E+03  0.46999998093E+01 0. -1.
       -5    1    3    3    0  502  0.32352588167E+03 -0.11062019725E+03 -0.10527395504E+03  0.35778557791E+03  0.46999998093E+01 0.  1.
</event>
<event>
 5   0  0.9697941E-04  0.8986371E+03  0.7818609E-02  0.9427287E-01
        1   -1    0    0  501    0  0.00000000000E+00  0.00000000000E+00  0.12418712517E+04  0.12418712517E+04  0.50400001928E-02 0. -1.
       -1   -1    0    0    0  501  0.00000000000E+00  0.00000000000E+00 -0.16256688577E+03  0.16256688585E+03  0.50400001928E-02 0.  1.
    10030    2    1    2    0    0  0.00000000000E+00  0.00000000000E+00  0.10793043659E+04  0.14044381375E+04  0.89863706128E+03 0.  0.
        5    1    3    3  502    0 -0.19288155849E+03 -0.22877295607E+03  0.15863748489E+02  0.29969002244E+03  0.46999998093E+01 0.  1.
       -5    1    3    3    0  502  0.19288155849E+03  0.22877295607E+03  0.10634406174E+04  0.11047481151E+04  0.46999998093E+01 0. -1.
</event>
<event>
 5   0  0.6375625E-04  0.8997827E+03  0.7818609E-02  0.9425853E-01
       -3   -1    0    0    0  501  0.00000000000E+00  0.00000000000E+00  0.49478501249E+03  0.49478502280E+03  0.10100000352E+00 0.  1.
        3   -1    0    0  501    0  0.00000000000E+00  0.00000000000E+00 -0.40907107744E+03  0.40907108991E+03  0.10100000352E+00 0. -1.
    10030    2    1    2    0    0  0.00000000000E+00  0.00000000000E+00  0.85713935045E+02  0.90385611271E+03  0.89978274812E+03 0.  0.
        3    1    3    3  502    0 -0.15051556005E+03  0.16609639766E+03 -0.34898493426E+03  0.41476914262E+03  0.10100000352E+00 0. -1.
       -3    1    3    3    0  502  0.15051556005E+03 -0.16609639766E+03  0.43469886930E+03  0.48908697008E+03  0.10100000352E+00 0.  1.
</event>
<event>
 5   0  0.1641516E-03  0.8993663E+03  0.7818609E-02  0.9426374E-01
       -2   -1    0    0    0  501  0.00000000000E+00  0.00000000000E+00  0.27914125164E+03  0.27914125165E+03  0.25500000920E-02 0.  1.
        2   -1    0    0  501    0  0.00000000000E+00  0.00000000000E+00 -0.72441789472E+03  0.72441789472E+03  0.25500000920E-02 0. -1.
    10030    2    1    2    0    0  0.00000000000E+00  0.00000000000E+00 -0.44527664308E+03  0.10035591464E+04  0.89936626098E+03 0.  0.
        1    1    3    3  502    0  0.11238869612E+03 -0.43424435025E+03 -0.25819781439E+03  0.51755722980E+03  0.50400001928E-02 0. -1.
       -1    1    3    3    0  502 -0.11238869612E+03  0.43424435025E+03 -0.18707882869E+03  0.48600191657E+03  0.50400001928E-02 0.  1.
</event>
<event>
 5   0  0.1641516E-03  0.9034294E+03  0.7818609E-02  0.9421305E-01
        2   -1    0    0  501    0  0.00000000000E+00  0.00000000000E+00  0.14845975563E+04  0.14845975563E+04  0.25500000920E-02 0.  1.
       -2   -1    0    0    0  501  0.00000000000E+00  0.00000000000E+00 -0.13744206383E+03  0.13744206385E+03  0.25500000920E-02 0. -1.
    10030    2    1    2    0    0  0.00000000000E+00  0.00000000000E+00  0.13471554925E+04  0.16220396202E+04  0.90342935999E+03 0.  0.
        1    1    3    3  502    0 -0.32308390377E+03 -0.26085748249E+03  0.35433363367E+03  0.54587742124E+03  0.50400001928E-02 0. -1.
       -1    1    3    3    0  502  0.32308390377E+03  0.26085748249E+03  0.99282185884E+03  0.10761621990E+04  0.50400001928E-02 0.  1.
</event>
<event>
 5   0  0.9981885E-04  0.9018084E+03  0.7818609E-02  0.9423324E-01
        1   -1    0    0  501    0  0.00000000000E+00  0.00000000000E+00  0.12561889161E+04  0.12561889162E+04  0.50400001928E-02 0. -1.
       -1   -1    0    0    0  501  0.00000000000E+00  0.00000000000E+00 -0.16185034296E+03  0.16185034303E+03  0.50400001928E-02 0.  1.
    10030    2    1    2    0    0  0.00000000000E+00  0.00000000000E+00  0.10943385732E+04  0.14180392592E+04  0.90180842080E+03 0.  0.
        4    1    3    3  502    0 -0.29330422691E+03  0.14219786510E+03  0.10370678592E+04  0.10870873746E+04  0.12699999809E+01 0. -1.
       -4    1    3    3    0  502  0.29330422691E+03 -0.14219786510E+03  0.57270713945E+02  0.33095188462E+03  0.12699999809E+01 0.  1.
</event>
<event>
 5   0  0.1536020E-03  0.8990013E+03  0.7818609E-02  0.9426831E-01
        2   -1    0    0  501    0  0.00000000000E+00  0.00000000000E+00  0.24047392789E+03  0.24047392790E+03  0.25500000920E-02 0.  1.
       -2   -1    0    0    0  501  0.00000000000E+00  0.00000000000E+00 -0.84021935447E+03  0.84021935447E+03  0.25500000920E-02 0. -1.
    10030    2    1    2    0    0  0.00000000000E+00  0.00000000000E+00 -0.59974542658E+03  0.10806932824E+04  0.89900133141E+03 0.  0.
        2    1    3    3  502    0 -0.43858809913E+03  0.97251307582E+02 -0.28150328113E+03  0.53015227512E+03  0.25500000920E-02 0. -1.
       -2    1    3    3    0  502  0.43858809913E+03 -0.97251307582E+02 -0.31824214545E+03  0.55054100726E+03  0.25500000920E-02 0.  1.
</event>
<event>
 5   0  0.6375625E-04  0.9031458E+03  0.7818609E-02  0.9421658E-01
        3   -1    0    0  501    0  0.00000000000E+00  0.00000000000E+00  0.57549047382E+03  0.57549048268E+03  0.10100000352E+00 0.  1.
       -3   -1    0    0    0  501  0.00000000000E+00  0.00000000000E+00 -0.35433789052E+03  0.35433790492E+03  0.10100000352E+00 0. -1.
    10030    2    1    2    0    0  0.00000000000E+00  0.00000000000E+00  0.22115258330E+03  0.92982838760E+03  0.90314581619E+03 0.  0.
        2    1    3    3  502    0  0.30706150793E+03 -0.28642750192E+03  0.28158788782E+03  0.50558799638E+03  0.25500000920E-02 0.  1.
       -2    1    3    3    0  502 -0.30706150793E+03  0.28642750192E+03 -0.60435304520E+02  0.42424039123E+03  0.25500000920E-02 0. -1.
</event>
<event>
 5   0  0.1635686E-03  0.8957395E+03  0.7818609E-02  0.9430923E-01
        2   -1    0    0  501    0  0.00000000000E+00  0.00000000000E+00  0.91794299689E+03  0.91794299690E+03  0.25500000920E-02 0.  1.
       -2   -1    0    0    0  501  0.00000000000E+00  0.00000000000E+00 -0.21851825909E+03  0.21851825910E+03  0.25500000920E-02 0. -1.
    10030    2    1    2    0    0  0.00000000000E+00  0.00000000000E+00  0.69942473781E+03  0.11364612560E+04  0.89573948363E+03 0.  0.
        5    1    3    3  502    0  0.40739409300E+03 -0.13025895178E+03  0.51816309466E+03  0.67190209421E+03  0.46999998093E+01 0.  1.
       -5    1    3    3    0  502 -0.40739409300E+03  0.13025895178E+03  0.18126164315E+03  0.46455916180E+03  0.46999998093E+01 0. -1.
</event>
<event>
 5   0  0.1635686E-03  0.8990137E+03  0.7818609E-02  0.9426815E-01
       -2   -1    0    0    0  501  0.00000000000E+00  0.00000000000E+00  0.20664583122E+03  0.20664583123E+03  0.25500000920E-02 0.  1.
        2   -1    0    0  501    0  0.00000000000E+00  0.00000000000E+00 -0.97779085361E+03  0.97779085361E+03  0.25500000920E-02 0. -1.
    10030    2    1    2    0    0  0.00000000000E+00  0.00000000000E+00 -0.77114502239E+03  0.11844366848E+04  0.89901369002E+03 0.  0.
        5    1    3    3  502    0  0.41839074811E+03  0.38470523335E+02 -0.17517259590E+03  0.45523436559E+03  0.46999998093E+01 0.  1.
       -5    1    3    3    0  502 -0.41839074811E+03 -0.38470523335E+02 -0.59597242649E+03  0.72920231925E+03  0.46999998093E+01 0. -1.
</event>
<event>
 5   0  0.9223454E-04  0.9130859E+03  0.7818609E-02  0.9409370E-01
       -1   -1    0    0    0  501  0.00000000000E+00  0.00000000000E+00  0.32930250454E+03  0.32930250458E+03  0.50400001928E-02 0. -1.
        1   -1    0    0  501    0  0.00000000000E+00  0.00000000000E+00 -0.63294837337E+03  0.63294837339E+03  0.50400001928E-02 0.  1.
    10030    2    1    2    0    0  0.00000000000E+00  0.00000000000E+00 -0.30364586883E+03  0.96225087797E+03  0.91308594256E+03 0.  0.
        1    1    3    3  502    0 -0.18140172124E+03 -0.39906506546E+03 -0.17392755785E+02  0.43870493377E+03  0.50400001928E-02 0. -1.
       -1    1    3    3    0  502  0.18140172124E+03  0.39906506546E+03 -0.28625311305E+03  0.52354594420E+03  0.50400001928E-02 0.  1.
</event>
<event>
 5   0  0.9981885E-04  0.8987116E+03  0.7818609E-02  0.9427193E-01
       -1   -1    0    0    0  501  0.00000000000E+00  0.00000000000E+00  0.52627750963E+03  0.52627750965E+03  0.50400001928E-02 0.  1.
        1   -1    0    0  501    0  0.00000000000E+00  0.00000000000E+00 -0.38367713036E+03  0.38367713039E+03  0.50400001928E-02 0. -1.
    10030    2    1    2    0    0  0.00000000000E+00  0.00000000000E+00  0.14260037927E+03  0.90995464004E+03  0.89871162158E+03 0.  0.
        4    1    3    3  502    0  0.14020409822E+02 -0.81722439803E+02 -0.37586251607E+03  0.38490177051E+03  0.12699999809E+01 0. -1.
       -4    1    3    3    0  502 -0.14020409822E+02  0.81722439803E+02  0.51846289534E+03  0.52505286953E+03  0.12699999809E+01 0.  1.
</event>
<event>
 5   0  0.1704416E-03  0.9059355E+03  0.7818609E-02  0.9418192E-01
       -2   -1    0    0    0  501  0.00000000000E+00  0.00000000000E+00  0.10188971370E+03  0.10188971373E+03  0.25500000920E-02 0.  1.
        2   -1    0    0  501    0  0.00000000000E+00  0.00000000000E+00 -0.20137438229E+04  0.20137438229E+04  0.25500000920E-02 0. -1.
    10030    2    1    2    0    0  0.00000000000E+00  0.00000000000E+00 -0.19118541092E+04  0.21156335367E+04  0.90593549797E+03 0.  0.
        3    1    3    3  502    0  0.12536797965E+03 -0.43384657741E+03 -0.10381545277E+04  0.11321240288E+04  0.10100000352E+00 0.  1.
       -3    1    3    3    0  502 -0.12536797965E+03  0.43384657741E+03 -0.87369958153E+03  0.98350950784E+03  0.10100000352E+00 0. -1.
</event>
<event>
 5   0  0.1641516E-03  0.8985280E+03  0.7818609E-02  0.9427423E-01
       -2   -1    0    0    0  501  0.00000000000E+00  0.00000000000E+00  0.32322264265E+03  0.32322264266E+03  0.25500000920E-02 0.  1.
        2   -1    0    0  501    0  0.00000000000E+00  0.00000000000E+00 -0.62445550619E+03  0.62445550620E+03  0.25500000920E-02 0. -1.
    10030    2    1    2    0    0  0.00000000000E+00  0.00000000000E+00 -0.30123286354E+03  0.94767814885E+03  0.89852803837E+03 0.  0.
        1    1    3    3  502    0 -0.18781993450E+03 -0.38271827022E+03 -0.30010349206E+03  0.52135564457E+03  0.50400001928E-02 0. -1.
       -1    1    3    3    0  502  0.18781993450E+03  0.38271827022E+03 -0.11293714796E+01  0.42632250428E+03  0.50400001928E-02 0.  1.
</event>
<event>
 5   0  0.1635686E-03  0.9009346E+03  0.7818609E-02  0.9424414E-01
       -2   -1    0    0    0  501  0.00000000000E+00  0.00000000000E+00  0.87567134662E+02  0.87567134699E+02  0.25500000920E-02 0.  1.
        2   -1    0    0  501    0  0.00000000000E+00  0.00000000000E+00 -0.23173166518E+04  0.23173166518E+04  0.25500000920E-02 0. -1.
    10030    2    1    2    0    0  0.00000000000E+00  0.00000000000E+00 -0.22297495171E+04  0.24048837865E+04  0.90093457997E+03 0.  0.
        5    1    3    3  502    0  0.22015881109E+02  0.14613961260E+02  0.85430938001E+02  0.89547764074E+02  0.46999998093E+01 0.  1.
       -5    1    3    3    0  502 -0.22015881109E+02 -0.14613961260E+02 -0.23151804551E+04  0.23153360224E+04  0.46999998093E+01 0. -1.
</event>
<event>
 5   0  0.6375625E-04  0.8938086E+03  0.7818609E-02  0.9433354E-01
        4   -1    0    0  501    0  0.00000000000E+00  0.00000000000E+00  0.16925111938E+03  0.16925588413E+03  0.12699999809E+01 0.  1.
       -4   -1    0    0    0  501  0.00000000000E+00  0.00000000000E+00 -0.11800204281E+04  0.11800211115E+04  0.12699999809E+01 0. -1.
    10030    2    1    2    0    0  0.00000000000E+00  0.00000000000E+00 -0.10107693087E+04  0.13492769956E+04  0.89380860117E+03 0.  0.
        4    1    3    3  502    0  0.24583357214E+03  0.27240955196E+03 -0.89049288466E+03  0.96313046869E+03  0.12699999809E+01 0.  1.
       -4    1    3    3    0  502 -0.24583357214E+03 -0.27240955196E+03 -0.12027642405E+03  0.38614652695E+03  0.12699999809E+01 0. -1.
</event>
<event>
 5   0  0.1704416E-03  0.8980698E+03  0.7818609E-02  0.9427997E-01
       -2   -1    0    0    0  501  0.00000000000E+00  0.00000000000E+00  0.30296474800E+03  0.30296474801E+03  0.25500000920E-02 0. -1.
        2   -1    0    0  501    0  0.00000000000E+00  0.00000000000E+00 -0.66553074360E+03  0.66553074360E+03  0.25500000920E-02 0.  1.
    10030    2    1    2    0    0  0.00000000000E+00  0.00000000000E+00 -0.36256599560E+03  0.96849549161E+03  0.89806982808E+03 0.  0.
        3    1    3    3  502    0 -0.30572518082E+02  0.44773556745E+03 -0.16490925267E+03  0.47811807018E+03  0.10100000352E+00 0.  1.
       -3    1    3    3    0  502  0.30572518082E+02 -0.44773556745E+03 -0.19765674293E+03  0.49037742143E+03  0.10100000352E+00 0. -1.
</event>
<event>
 5   0  0.1630202E-03  0.8982420E+03  0.7818609E-02  0.9427782E-01
       -2   -1    0    0    0  501  0.00000000000E+00  0.00000000000E+00  0.27434352625E+03  0.27434352626E+03  0.25500000920E-02 0. -1.
        2   -1    0    0  501    0  0.00000000000E+00  0.00000000000E+00 -0.73524488672E+03  0.73524488673E+03  0.25500000920E-02 0.  1.
    10030    2    1    2    0    0  0.00000000000E+00  0.00000000000E+00 -0.46090136047E+03  0.10095884130E+04  0.89824200500E+03 0.  0.
        4    1    3    3  502    0  0.43249964524E+03  0.11111335608E+03 -0.28442349757E+03  0.52943409401E+03  0.12699999809E+01 0. -1.
       -4    1    3    3    0  502 -0.43249964524E+03 -0.11111335608E+03 -0.17647786290E+03  0.48015431897E+03  0.12699999809E+01 0.  1.
</event>
<event>
 5   0  0.9697941E-04  0.9033910E+03  0.7818609E-02  0.9421352E-01
       -1   -1    0    0    0  501  0.00000000000E+00  0.00000000000E+00  0.47389672697E+03  0.47389672699E+03  0.50400001928E-02 0. -1.
        1   -1    0    0  501    0  0.00000000000E+00  0.00000000000E+00 -0.43053438870E+03  0.43053438873E+03  0.50400001928E-02 0.  1.
    10030    2    1    2    0    0  0.00000000000E+00  0.00000000000E+00  0.43362338271E+02  0.90443111572E+03  0.90339102868E+03 0.  0.
        5    1    3    3  502    0  0.16719603325E+03  0.28532735777E+03 -0.28631003286E+03  0.43744912794E+03  0.46999998093E+01 0.  1.
       -5    1    3    3    0  502 -0.16719603325E+03 -0.28532735777E+03  0.32967237113E+03  0.46698198778E+03  0.46999998093E+01 0. -1.
</event>
<event>
 5   0  0.1704416E-03  0.8998483E+03  0.7818609E-02  0.9425771E-01
       -2   -1    0    0    0  501  0.00000000000E+00  0.00000000000E+00  0.25499121821E+03  0.25499121822E+03  0.25500000920E-02 0. -1.
        2   -1    0    0  501    0  0.00000000000E+00  0.00000000000E+00 -0.79387730521E+03  0.79387730522E+03  0.25500000920E-02 0.  1.
    10030    2    1    2    0    0  0.00000000000E+00  0.00000000000E+00 -0.53888608700E+03  0.10488685234E+04  0.89984830093E+03 0.  0.
        3    1    3    3  502    0  0.41370796262E+03 -0.80866126018E+01 -0.63516199618E+02  0.41863347866E+03  0.10100000352E+00 0.  1.
       -3    1    3    3    0  502 -0.41370796262E+03  0.80866126018E+01 -0.47536988739E+03  0.63023504478E+03  0.10100000352E+00 0. -1.
</event>
<event>
 5   0  0.1630202E-03  0.8995514E+03  0.7818609E-02  0.9426142E-01
       -2   -1    0    0    0  501  0.00000000000E+00  0.00000000000E+00  0.13188282336E+03  0.13188282338E+03  0.25500000920E-02 0.  1.
        2   -1    0    0  501    0  0.00000000000E+00  0.00000000000E+00 -0.15339236996E+04  0.15339236996E+04  0.25500000920E-02 0. -1.
    10030    2    1    2    0    0  0.00000000000E+00  0.00000000000E+00 -0.14020408763E+04  0.16658065230E+04  0.89955141787E+03 0.  0.
        4    1    3    3  502    0  0.19419695659E+03 -0.25859010965E+03 -0.12215210783E+03  0.34569358268E+03  0.12699999809E+01 0.  1.
       -4    1    3    3    0  502 -0.19419695659E+03  0.25859010965E+03 -0.12798887685E+04  0.13201129403E+04  0.12699999809E+01 0. -1.
</event>
<event>
 5   0  0.1641516E-03  0.8986135E+03  0.7818609E-02  0.9427316E-01
       -2   -1    0    0    0  501  0.00000000000E+00  0.00000000000E+00  0.16112474073E+03  0.16112474075E+03  0.25500000920E-02 0.  1.
        2   -1    0    0  501    0  0.00000000000E+00  0.00000000000E+00 -0.12529210159E+04  0.12529210159E+04  0.25500000920E-02 0. -1.
    10030    2    1    2    0    0  0.00000000000E+00  0.00000000000E+00 -0.10917962751E+04  0.14140457566E+04  0.89861354063E+03 0.  0.
        1    1    3    3  502    0  0.12302175794E+03  0.24526593091E+02  0.13301019265E+03  0.18283221289E+03  0.50400001928E-02 0.  1.
       -1    1    3    3    0  502 -0.12302175794E+03 -0.24526593091E+02 -0.12248064678E+04  0.12312135437E+04  0.50400001928E-02 0. -1.
</event>
<event>
 5   0  0.9981885E-04  0.8978371E+03  0.7818609E-02  0.9428289E-01
        1   -1    0    0  501    0  0.00000000000E+00  0.00000000000E+00  0.22815732503E+03  0.22815732509E+03  0.50400001928E-02 0. -1.
       -1   -1    0    0    0  501  0.00000000000E+00  0.00000000000E+00 -0.88328462914E+03  0.88328462915E+03  0.50400001928E-02 0.  1.
    10030    2    1    2    0    0  0.00000000000E+00  0.00000000000E+00 -0.65512730410E+03  0.11114419542E+04  0.89783708604E+03 0.  0.
        4    1    3    3  502    0  0.35246911067E+01 -0.28444410667E+03 -0.75746872747E+03  0.80912382196E+03  0.12699999809E+01 0.  1.
       -4    1    3    3    0  502 -0.35246911067E+01  0.28444410667E+03  0.10234142337E+03  0.30231813228E+03  0.12699999809E+01 0. -1.
</event>
<event>
 5   0  0.1704416E-03  0.9005565E+03  0.7818609E-02  0.9424886E-01
        2   -1    0    0  501    0  0.00000000000E+00  0.00000000000E+00  0.62930568738E+03  0.62930568739E+03  0.25500000920E-02 0.  1.
       -2   -1    0    0    0  501  0.00000000000E+00  0.00000000000E+00 -0.32218124734E+03  0.32218124735E+03  0.25500000920E-02 0. -1.
    10030    2    1    2    0    0  0.00000000000E+00  0.00000000000E+00  0.30712444004E+03  0.95148693474E+03  0.90055647536E+03 0.  0.
        3    1    3    3  502    0 -0.11034058031E+03 -0.31484133127E+03 -0.16594789963E+03  0.37261081993E+03  0.10100000352E+00 0. -1.
       -3    1    3    3    0  502  0.11034058031E+03  0.31484133127E+03  0.47307233966E+03  0.57887611481E+03  0.10100000352E+00 0.  1.
</event>
<event>
 5   0  0.1635686E-03  0.8995766E+03  0.7818609E-02  0.9426111E-01
        2   -1    0    0  501    0  0.00000000000E+00  0.00000000000E+00  0.60481431032E+03  0.60481431033E+03  0.25500000920E-02 0.  1.
       -2   -1    0    0    0  501  0.00000000000E+00  0.00000000000E+00 -0.33449855395E+03  0.33449855396E+03  0.25500000920E-02 0. -1.
    10030    2    1    2    0    0  0.00000000000E+00  0.00000000000E+00  0.27031575637E+03  0.93931286428E+03  0.89957659422E+03 0.  0.
        5    1    3    3  502    0 -0.10285529052E+03  0.60690692714E+01 -0.32198373389E+03  0.33810007287E+03  0.46999998093E+01 0. -1.
       -5    1    3    3    0  502  0.10285529052E+03 -0.60690692714E+01  0.59229949026E+03  0.60121279141E+03  0.46999998093E+01 0.  1.
</event>
<event>
 5   0  0.9321543E-04  0.9007075E+03  0.7818609E-02  0.9424697E-01
        1   -1    0    0  501    0  0.00000000000E+00  0.00000000000E+00  0.94647415014E+03  0.94647415015E+03  0.50400001928E-02 0.  1.
       -1   -1    0    0    0  501  0.00000000000E+00  0.00000000000E+00 -0.21428848691E+03  0.21428848697E+03  0.50400001928E-02 0. -1.
    10030    2    1    2    0    0  0.00000000000E+00  0.00000000000E+00  0.73218566323E+03  0.11607626371E+04  0.90070752983E+03 0.  0.
        3    1    3    3  502    0 -0.12120836177E+03 -0.24135931553E+03 -0.98335377384E+02  0.28742937011E+03  0.10100000352E+00 0. -1.
       -3    1    3    3    0  502  0.12120836177E+03  0.24135931553E+03  0.83052104061E+03  0.87333326701E+03  0.10100000352E+00 0.  1.
</event>
<event>
 5   0  0.6375625E-04  0.8985026E+03  0.7818609E-02  0.9427455E-01
       -3   -1    0    0    0  501  0.00000000000E+00  0.00000000000E+00  0.39067207763E+03  0.39067209069E+03  0.10100000352E+00 0. -1.
        3   -1    0    0  501    0  0.00000000000E+00  0.00000000000E+00 -0.51661411048E+03  0.51661412035E+03  0.10100000352E+00 0.  1.
    10030    2    1    2    0    0  0.00000000000E+00  0.00000000000E+00 -0.12594203284E+03  0.90728621104E+03  0.89850257268E+03 0.  0.
        1    1    3    3  502    0 -0.41754841791E+03 -0.14492737094E+03 -0.14423190388E+03  0.46492307565E+03  0.50400001928E-02 0.  1.
       -1    1    3    3    0  502  0.41754841791E+03  0.14492737094E+03  0.18289871033E+02  0.44236313539E+03  0.50400001928E-02 0. -1.
</event>
<event>
 5   0  0.9981885E-04  0.8969895E+03  0.7818609E-02  0.9429352E-01
       -1   -1    0    0    0  501  0.00000000000E+00  0.00000000000E+00  0.13728175294E+03  0.13728175304E+03  0.50400001928E-02 0. -1.
        1   -1    0    0  501    0  0.00000000000E+00  0.00000000000E+00 -0.14652170138E+04  0.14652170138E+04  0.50400001928E-02 0.  1.
    10030    2    1    2    0    0  0.00000000000E+00  0.00000000000E+00 -0.13279352608E+04  0.16024987668E+04  0.89698954326E+03 0.  0.
        4    1    3    3  502    0 -0.35797062692E+03  0.56717440836E+02 -0.11359163556E+04  0.11923369565E+04  0.12699999809E+01 0.  1.
       -4    1    3    3    0  502  0.35797062692E+03 -0.56717440836E+02 -0.19201890520E+03  0.41016181037E+03  0.12699999809E+01 0. -1.
</event>
<event>
 5   0  0.1630202E-03  0.8996813E+03  0.7818609E-02  0.9425980E-01
        2   -1    0    0  501    0  0.00000000000E+00  0.00000000000E+00  0.40940757034E+03  0.40940757035E+03  0.25500000920E-02 0.  1.
       -2   -1    0    0    0  501  0.00000000000E+00  0.00000000000E+00 -0.49426688847E+03  0.49426688848E+03  0.25500000920E-02 0. -1.
    10030    2    1    2    0    0  0.00000000000E+00  0.00000000000E+00 -0.84859318131E+02  0.90367445883E+03  0.89968129005E+03 0.  0.
        4    1    3    3  502    0  0.15835877816E+03  0.41487119390E+03  0.29717992174E+02  0.44506222274E+03  0.12699999809E+01 0.  1.
       -4    1    3    3    0  502 -0.15835877816E+03 -0.41487119390E+03 -0.11457731030E+03  0.45861223609E+03  0.12699999809E+01 0. -1.
</event>
<event>
 5   0  0.9321543E-04  0.8993500E+03  0.7818609E-02  0.9426394E-01
        1   -1    0    0  501    0  0.00000000000E+00  0.00000000000E+00  0.18606662750E+04  0.18606662750E+04  0.50400001928E-02 0. -1.
       -1   -1    0    0    0  501  0.00000000000E+00  0.00000000000E+00 -0.10867484390E+03  0.10867484401E+03  0.50400001928E-02 0.  1.
    10030    2    1    2    0    0  0.00000000000E+00  0.00000000000E+00  0.17519914311E+04  0.19693411191E+04  0.89935002553E+03 0.  0.
        3    1    3    3  502    0  0.43394293003E+03  0.11731736476E+03  0.90169845819E+03  0.10075365752E+04  0.10100000352E+00 0. -1.
       -3    1    3    3    0  502 -0.43394293003E+03 -0.11731736476E+03  0.85029297295E+03  0.96180454389E+03  0.10100000352E+00 0.  1.
</event>
<event>
 5   0  0.1635686E-03  0.8996375E+03  0.7818609E-02  0.9426035E-01
        2   -1    0    0  501    0  0.00000000000E+00  0.00000000000E+00  0.36443866454E+03  0.36443866455E+03  0.25500000920E-02 0. -1.
       -2   -1    0    0    0  501  0.00000000000E+00  0.00000000000E+00 -0.55520154303E+03  0.55520154304E+03  0.25500000920E-02 0.  1.
    10030    2    1    2    0    0  0.00000000000E+00  0.00000000000E+00 -0.19076287850E+03  0.91964020759E+03  0.89963750233E+03 0.  0.
        5    1    3    3  502    0  0.44468924187E+03 -0.24070433334E+02 -0.15992734310E+03  0.47320899470E+03  0.46999998093E+01 0.  1.
       -5    1    3    3    0  502 -0.44468924187E+03  0.24070433334E+02 -0.30835535393E+02  0.44643121288E+03  0.46999998093E+01 0. -1.
</event>
<event>
 5   0  0.1536020E-03  0.8990212E+03  0.7818609E-02  0.9426806E-01
        2   -1    0    0  501    0  0.00000000000E+00  0.00000000000E+00  0.91556548705E+03  0.91556548706E+03  0.25500000920E-02 0. -1.
       -2   -1    0    0    0  501  0.00000000000E+00  0.00000000000E+00 -0.22069395231E+03  0.22069395233E+03  0.25500000920E-02 0.  1.
    10030    2    1    2    0    0  0.00000000000E+00  0.00000000000E+00  0.69487153474E+03  0.11362594394E+04  0.89902116983E+03 0.  0.
        2    1    3    3  502    0  0.16914182393E+03  0.24743488622E+03 -0.75969102911E+02  0.30919942452E+03  0.25500000920E-02 0.  1.
       -2    1    3    3    0  502 -0.16914182393E+03 -0.24743488622E+03  0.77084063765E+03  0.82706001486E+03  0.25500000920E-02 0. -1.
</event>
<event>
 5   0  0.1635686E-03  0.9000058E+03  0.7818609E-02  0.9425574E-01
       -2   -1    0    0    0  501  0.00000000000E+00  0.00000000000E+00  0.16251898517E+03  0.16251898519E+03  0.25500000920E-02 0. -1.
        2   -1    0    0  501    0  0.00000000000E+00  0.00000000000E+00 -0.12460242347E+04  0.12460242347E+04  0.25500000920E-02 0.  1.
    10030    2    1    2    0    0  0.00000000000E+00  0.00000000000E+00 -0.10835052495E+04  0.14085432199E+04  0.90000576471E+03 0.  0.
        5    1    3    3  502    0 -0.44762144920E+03 -0.45990443485E+02 -0.54073661481E+03  0.70349005627E+03  0.46999998093E+01 0. -1.
       -5    1    3    3    0  502  0.44762144920E+03  0.45990443485E+02 -0.54276863469E+03  0.70505316358E+03  0.46999998093E+01 0.  1.
</event>
<event>
 5   0  0.9321543E-04  0.8997749E+03  0.7818609E-02  0.9425863E-01
        1   -1    0    0  501    0  0.00000000000E+00  0.00000000000E+00  0.56267846279E+03  0.56267846281E+03  0.50400001928E-02 0.  1.
       -1   -1    0    0    0  501  0.00000000000E+00  0.00000000000E+00 -0.35970585266E+03  0.35970585270E+03  0.50400001928E-02 0. -1.
    10030    2    1    2    0    0  0.00000000000E+00  0.00000000000E+00  0.20297261012E+03  0.92238431551E+03  0.89977494133E+03 0.  0.
        3    1    3    3  502    0  0.33309003637E+03 -0.18860817526E+03  0.34380863100E+03  0.51451569563E+03  0.10100000352E+00 0.  1.
       -3    1    3    3    0  502 -0.33309003637E+03  0.18860817526E+03 -0.14083602087E+03  0.40786861988E+03  0.10100000352E+00 0. -1.
</event>
<event>
 5   0  0.9981885E-04  0.8963351E+03  0.7818609E-02  0.9430174E-01
       -1   -1    0    0    0  501  0.00000000000E+00  0.00000000000E+00  0.44919486191E+03  0.44919486193E+03  0.50400001928E-02 0.  1.
        1   -1    0    0  501    0  0.00000000000E+00  0.00000000000E+00 -0.44714262194E+03  0.44714262197E+03  0.50400001928E-02 0. -1.
    10030    2    1    2    0    0  0.00000000000E+00  0.00000000000E+00  0.20522399634E+01  0.89633748391E+03  0.89633513451E+03 0.  0.
        4    1    3    3  502    0  0.26347244210E+02 -0.35408182695E+02  0.44701455197E+03  0.44918986993E+03  0.12699999809E+01 0.  1.
       -4    1    3    3    0  502 -0.26347244210E+02  0.35408182695E+02 -0.44496231200E+03  0.44714761397E+03  0.12699999809E+01 0. -1.
</event>
<event>
 5   0  0.1704416E-03  0.8928777E+03  0.7818609E-02  0.9434529E-01
        2   -1    0    0  501    0  0.00000000000E+00  0.00000000000E+00  0.93015729738E+03  0.93015729739E+03  0.25500000920E-02 0. -1.
       -2   -1    0    0    0  501  0.00000000000E+00  0.00000000000E+00 -0.21427307401E+03  0.21427307403E+03  0.25500000920E-02 0.  1.
    10030    2    1    2    0    0  0.00000000000E+00  0.00000000000E+00  0.71588422337E+03  0.11444303714E+04  0.89287773728E+03 0.  0.
        3    1    3    3  502    0 -0.16906859501E+03  0.24403443531E+03 -0.69416507982E+02  0.30488630211E+03  0.10100000352E+00 0.  1.
       -3    1    3    3    0  502  0.16906859501E+03 -0.24403443531E+03  0.78530073135E+03  0.83954406930E+03  0.10100000352E+00 0. -1.
</event>
<event>
 5   0  0.1007561E-03  0.9039241E+03  0.7818609E-02  0.9420689E-01
        1   -1    0    0  501    0  0.00000000000E+00  0.00000000000E+00  0.35241252032E+03  0.35241252036E+03  0.50400001928E-02 0. -1.
       -1   -1    0    0    0  501  0.00000000000E+00  0.00000000000E+00 -0.57963232446E+03  0.57963232448E+03  0.50400001928E-02 0.  1.
    10030    2    1    2    0    0  0.00000000000E+00  0.00000000000E+00 -0.22721980414E+03  0.93204484484E+03  0.90392408608E+03 0.  0.
        2    1    3    3  502    0 -0.24721230861E+03  0.33254520103E+03  0.72474544925E+02  0.42065757562E+03  0.25500000920E-02 0. -1.
       -2    1    3    3    0  502  0.24721230861E+03 -0.33254520103E+03 -0.29969434906E+03  0.51138726922E+03  0.25500000920E-02 0.  1.
</event>
<event>
 5   0  0.1630202E-03  0.8983439E+03  0.7818609E-02  0.9427654E-01
        2   -1    0    0  501    0  0.00000000000E+00  0.00000000000E+00  0.67036064219E+03  0.67036064219E+03  0.25500000920E-02 0.  1.
       -2   -1    0    0    0  501  0.00000000000E+00  0.00000000000E+00 -0.30096552205E+03  0.30096552206E+03  0.25500000920E-02 0. -1.
    10030    2    1    2    0    0  0.00000000000E+00  0.00000000000E+00  0.36939512014E+03  0.97132616425E+03  0.89834389995E+03 0.  0.
        4    1    3    3  502    0  0.95684603747E+02 -0.39565972429E+03  0.38999575892E+03  0.56373794063E+03  0.12699999809E+01 0.  1.
       -4    1    3    3    0  502 -0.95684603747E+02  0.39565972429E+03 -0.20600638781E+02  0.40758822363E+03  0.12699999809E+01 0. -1.
</event>
<event>
 5   0  0.9981885E-04  0.9000210E+03  0.7818609E-02  0.9425555E-01
       -1   -1    0    0    0  501  0.00000000000E+00  0.00000000000E+00  0.51560552052E+03  0.51560552055E+03  0.50400001928E-02 0. -1.
        1   -1    0    0  501    0  0.00000000000E+00  0.00000000000E+00 -0.39276044949E+03  0.39276044952E+03  0.50400001928E-02 0.  1.
    10030    2    1    2    0    0  0.00000000000E+00  0.00000000000E+00  0.12284507103E+03  0.90836597007E+03  0.90002101315E+03 0.  0.
        4    1    3    3  502    0 -0.24288774282E+03 -0.75223589670E+02  0.43615312957E+03  0.50486058411E+03  0.12699999809E+01 0. -1.
       -4    1    3    3    0  502  0.24288774282E+03  0.75223589670E+02 -0.31330805854E+03  0.40350538596E+03  0.12699999809E+01 0.  1.
</event>
<event>
 5   0  0.9223454E-04  0.8978509E+03  0.7818609E-02  0.9428272E-01
        1   -1    0    0  501    0  0.00000000000E+00  0.00000000000E+00  0.15078063606E+04  0.15078063606E+04  0.50400001928E-02 0. -1.
       -1   -1    0    0    0  501  0.00000000000E+00  0.00000000000E+00 -0.13366042423E+03  0.13366042433E+03  0.50400001928E-02 0.  1.
    10030    2    1    2    0    0  0.00000000000E+00  0.00000000000E+00  0.13741459363E+04  0.16414667849E+04  0.89785085154E+03 0.  0.
        1    1    3    3  502    0  0.44641744438E+03  0.44205920596E+02  0.65586770704E+03  0.79461005985E+03  0.50400001928E-02 0.  1.
       -1    1    3    3    0  502 -0.44641744438E+03 -0.44205920596E+02  0.71827822931E+03  0.84685672506E+03  0.50400001928E-02 0. -1.
</event>
<event>
 5   0  0.9697941E-04  0.8995592E+03  0.7818609E-02  0.9426133E-01
       -1   -1    0    0    0  501  0.00000000000E+00  0.00000000000E+00  0.62019074079E+03  0.62019074081E+03  0.50400001928E-02 0. -1.
        1   -1    0    0  501    0  0.00000000000E+00  0.00000000000E+00 -0.32619266277E+03  0.32619266281E+03  0.50400001928E-02 0.  1.
    10030    2    1    2    0    0  0.00000000000E+00  0.00000000000E+00  0.29399807802E+03  0.94638340362E+03  0.89955915690E+03 0.  0.
        5    1    3    3  502    0  0.15933582461E+03 -0.28718713814E+03 -0.17626574510E+03  0.37276810514E+03  0.46999998093E+01 0.  1.
       -5    1    3    3    0  502 -0.15933582461E+03  0.28718713814E+03  0.47026382312E+03  0.57361529848E+03  0.46999998093E+01 0. -1.
</event>
<event>
 5   0  0.9321543E-04  0.8999589E+03  0.7818609E-02  0.9425633E-01
        1   -1    0    0  501    0  0.00000000000E+00  0.00000000000E+00  0.41178965504E+03  0.41178965507E+03  0.50400001928E-02 0.  1.
       -1   -1    0    0    0  501  0.00000000000E+00  0.00000000000E+00 -0.49171105361E+03  0.49171105364E+03  0.50400001928E-02 0. -1.
    10030    2    1    2    0    0  0.00000000000E+00  0.00000000000E+00 -0.79921398568E+02  0.90350070871E+03  0.89995894389E+03 0.  0.
        3    1    3    3  502    0 -0.82492379671E+02  0.31026856046E+03 -0.35649495139E+03  0.47975017757E+03  0.10100000352E+00 0. -1.
       -3    1    3    3    0  502  0.82492379671E+02 -0.31026856046E+03  0.27657355282E+03  0.42375053113E+03  0.10100000352E+00 0.  1.
</event>
<event>
 5   0  0.1536020E-03  0.8969913E+03  0.7818609E-02  0.9429350E-01
       -2   -1    0    0    0  501  0.00000000000E+00  0.00000000000E+00  0.34950577221E+03  0.34950577222E+03  0.25500000920E-02 0.  1.
        2   -1    0    0  501    0  0.00000000000E+00  0.00000000000E+00 -0.57552228062E+03  0.57552228063E+03  0.25500000920E-02 0. -1.
    10030    2    1    2    0    0  0.00000000000E+00  0.00000000000E+00 -0.22601650841E+03  0.92502805285E+03  0.89699132464E+03 0.  0.
        2    1    3    3  502    0  0.32589281662E+02 -0.11730954001E+03  0.33213721495E+03  0.35374951451E+03  0.25500000920E-02 0.  1.
       -2    1    3    3    0  502 -0.32589281662E+02  0.11730954001E+03 -0.55815372336E+03  0.57127853833E+03  0.25500000920E-02 0. -1.
</event>
<event>
 5   0  0.9981885E-04  0.9000841E+03  0.7818609E-02  0.9425476E-01
        1   -1    0    0  501    0  0.00000000000E+00  0.00000000000E+00  0.85752883187E+03  0.85752883188E+03  0.50400001928E-02 0.  1.
       -1   -1    0    0    0  501  0.00000000000E+00  0.00000000000E+00 -0.23618777273E+03  0.23618777278E+03  0.50400001928E-02 0. -1.
    10030    2    1    2    0    0  0.00000000000E+00  0.00000000000E+00  0.62134105914E+03  0.10937166047E+04  0.90008405138E+03 0.  0.
        4    1    3    3  502    0  0.61791113900E+02  0.20148475454E+03  0.79386041978E+03  0.82135876879E+03  0.12699999809E+01 0.  1.
       -4    1    3    3    0  502 -0.61791113900E+02 -0.20148475454E+03 -0.17251936064E+03  0.27235783588E+03  0.12699999809E+01 0. -1.
</event>
<event>
 5   0  0.1635686E-03  0.8995943E+03  0.7818609E-02  0.9426089E-01
        2   -1    0    0  501    0  0.00000000000E+00  0.00000000000E+00  0.85279480271E+03  0.85279480272E+03  0.25500000920E-02 0.  1.
       -2   -1    0    0    0  501  0.00000000000E+00  0.00000000000E+00 -0.23724052795E+03  0.23724052796E+03  0.25500000920E-02 0. -1.
    10030    2    1    2    0    0  0.00000000000E+00  0.00000000000E+00  0.61555427477E+03  0.10900353307E+04  0.89959432909E+03 0.  0.
        5    1    3    3  502    0 -0.16222398295E+03  0.41794621246E+03  0.26409313160E+03  0.52034885348E+03  0.46999998093E+01 0. -1.
       -5    1    3    3    0  502  0.16222398295E+03 -0.41794621246E+03  0.35146114316E+03  0.56968647720E+03  0.46999998093E+01 0.  1.
</event>
<event>
 5   0  0.6375625E-04  0.8989588E+03  0.7818609E-02  0.9426884E-01
       -3   -1    0    0    0  501  0.00000000000E+00  0.00000000000E+00  0.86420345444E+03  0.86420346034E+03  0.10100000352E+00 0. -1.
        3   -1    0    0  501    0  0.00000000000E+00  0.00000000000E+00 -0.23377793480E+03  0.23377795662E+03  0.10100000352E+00 0.  1.
    10030    2    1    2    0    0  0.00000000000E+00  0.00000000000E+00  0.63042551964E+03  0.10979814170E+04  0.89895876222E+03 0.  0.
        1    1    3    3  502    0  0.63954027656E+02 -0.20349322442E+03  0.79844614563E+03  0.82644773430E+03  0.50400001928E-02 0. -1.
       -1    1    3    3    0  502 -0.63954027656E+02  0.20349322442E+03 -0.16802062599E+03  0.27153368266E+03  0.50400001928E-02 0.  1.
</event>
<event>
 5   0  0.1536020E-03  0.9007033E+03  0.7818609E-02  0.9424703E-01
        2   -1    0    0  501    0  0.00000000000E+00  0.00000000000E+00  0.71475815371E+03  0.71475815371E+03  0.25500000920E-02 0.  1.
       -2   -1    0    0    0  501  0.00000000000E+00  0.00000000000E+00 -0.28375559093E+03  0.28375559094E+03  0.25500000920E-02 0. -1.
    10030    2    1    2    0    0  0.00000000000E+00  0.00000000000E+00  0.43100256278E+03  0.99851374465E+03  0.90070333026E+03 0.  0.
        2    1    3    3  502    0  0.15087270926E+02  0.28006871746E+03 -0.17511157464E+03  0.33065113915E+03  0.25500000920E-02 0. -1.
       -2    1    3    3    0  502 -0.15087270926E+02 -0.28006871746E+03  0.60611413741E+03  0.66786260550E+03  0.25500000920E-02 0.  1.
</event>
<event>
 5   0  0.9223454E-04  0.9003578E+03  0.7818609E-02  0.9425134E-01
        1   -1    0    0  501    0  0.00000000000E+00  0.00000000000E+00  0.15713185487E+04  0.15713185487E+04  0.50400001928E-02 0. -1.
       -1   -1    0    0    0  501  0.00000000000E+00  0.00000000000E+00 -0.12897513498E+03  0.12897513507E+03  0.50400001928E-02 0.  1.
    10030    2    1    2    0    0  0.00000000000E+00  0.00000000000E+00  0.14423434138E+04  0.17002936838E+04  0.90035775557E+03 0.  0.
        1    1    3    3  502    0 -0.12789776874E+03  0.17513877222E+03 -0.23825977314E+02  0.21817219348E+03  0.50400001928E-02 0.  1.
       -1    1    3    3    0  502  0.12789776874E+03 -0.17513877222E+03  0.14661693911E+04  0.14821214903E+04  0.50400001928E-02 0. -1.
</event>
<event>
 5   0  0.1635686E-03  0.9003669E+03  0.7818609E-02  0.9425123E-01
        2   -1    0    0  501    0  0.00000000000E+00  0.00000000000E+00  0.12194780718E+04  0.12194780718E+04  0.25500000920E-02 0.  1.
       -2   -1    0    0    0  501  0.00000000000E+00  0.00000000000E+00 -0.16619008098E+03  0.16619008100E+03  0.25500000920E-02 0. -1.
    10030    2    1    2    0    0  0.00000000000E+00  0.00000000000E+00  0.10532879908E+04  0.13856681528E+04  0.90036694633E+03 0.  0.
        5    1    3    3  502    0  0.16883706187E+03 -0.37311394352E+01  0.11688406010E+04  0.11809870090E+04  0.46999998093E+01 0.  1.
       -5    1    3    3    0  502 -0.16883706187E+03  0.37311394352E+01 -0.11555261026E+03  0.20468114373E+03  0.46999998093E+01 0. -1.
</event>
<event>
 5   0  0.6375625E-04  0.9007791E+03  0.7818609E-02  0.9424608E-01
       -3   -1    0    0    0  501  0.00000000000E+00  0.00000000000E+00  0.66409409825E+03  0.66409410593E+03  0.10100000352E+00 0.  1.
        3   -1    0    0  501    0  0.00000000000E+00  0.00000000000E+00 -0.30545483734E+03  0.30545485404E+03  0.10100000352E+00 0. -1.
    10030    2    1    2    0    0  0.00000000000E+00  0.00000000000E+00  0.35863926090E+03  0.96954895997E+03  0.90077914403E+03 0.  0.
        4    1    3    3  502    0 -0.21666542222E+03  0.39155643459E+03  0.23408439965E+03  0.50503214325E+03  0.12699999809E+01 0.  1.
       -4    1    3    3    0  502  0.21666542222E+03 -0.39155643459E+03  0.12455486126E+03  0.46451681672E+03  0.12699999809E+01 0. -1.
</event>
<event>
 5   0  0.1641516E-03  0.8996814E+03  0.7818609E-02  0.9425980E-01
        2   -1    0    0  501    0  0.00000000000E+00  0.00000000000E+00  0.54454269690E+03  0.54454269691E+03  0.25500000920E-02 0. -1.
       -2   -1    0    0    0  501  0.00000000000E+00  0.00000000000E+00 -0.37160838924E+03  0.37160838925E+03  0.25500000920E-02 0.  1.
    10030    2    1    2    0    0  0.00000000000E+00  0.00000000000E+00  0.17293430766E+03  0.91615108615E+03  0.89968135353E+03 0.  0.
        1    1    3    3  502    0  0.26539645793E+03  0.32222180892E+03 -0.84215241498E+02  0.42585723071E+03  0.50400001928E-02 0.  1.
       -1    1    3    3    0  502 -0.26539645793E+03 -0.32222180892E+03  0.25714954916E+03  0.49029385544E+03  0.50400001928E-02 0. -1.
</event>
<event>
 5   0  0.1704416E-03  0.8976861E+03  0.7818609E-02  0.9428479E-01
       -2   -1    0    0    0  501  0.00000000000E+00  0.00000000000E+00  0.83772623365E+02  0.83772623404E+02  0.25500000920E-02 0. -1.
        2   -1    0    0  501    0  0.00000000000E+00  0.00000000000E+00 -0.24048437811E+04  0.24048437811E+04  0.25500000920E-02 0.  1.
    10030    2    1    2    0    0  0.00000000000E+00  0.00000000000E+00 -0.23210711577E+04  0.24886164045E+04  0.89768607514E+03 0.  0.
        3    1    3    3  502    0  0.18665173490E+02  0.44729532052E+03 -0.12498766792E+04  0.13276344436E+04  0.10100000352E+00 0. -1.
       -3    1    3    3    0  502 -0.18665173490E+02 -0.44729532052E+03 -0.10711944785E+04  0.11609819609E+04  0.10100000352E+00 0.  1.
</event>
<event>
 5   0  0.9223454E-04  0.9007601E+03  0.7818609E-02  0.9424632E-01
       -1   -1    0    0    0  501  0.00000000000E+00  0.00000000000E+00  0.58097094592E+03  0.58097094594E+03  0.50400001928E-02 0. -1.
        1   -1    0    0  501    0  0.00000000000E+00  0.00000000000E+00 -0.34914346754E+03  0.34914346758E+03  0.50400001928E-02 0.  1.
    10030    2    1    2    0    0  0.00000000000E+00  0.00000000000E+00  0.23182747838E+03  0.93011441352E+03  0.90076014705E+03 0.  0.
        1    1    3    3  502    0  0.43249535230E+03  0.57960736845E+02  0.23103939075E+03  0.49375183735E+03  0.50400001928E-02 0. -1.
       -1    1    3    3    0  502 -0.43249535230E+03 -0.57960736845E+02  0.78808762944E+00  0.43636257618E+03  0.50400001928E-02 0.  1.
</event>
<event>
 5   0  0.6375625E-04  0.8918973E+03  0.7818609E-02  0.9435767E-01
        4   -1    0    0  501    0  0.00000000000E+00  0.00000000000E+00  0.10971722596E+04  0.10971729946E+04  0.12699999809E+01 0. -1.
       -4   -1    0    0    0  501  0.00000000000E+00  0.00000000000E+00 -0.18125403828E+03  0.18125848751E+03  0.12699999809E+01 0.  1.
    10030    2    1    2    0    0  0.00000000000E+00  0.00000000000E+00  0.91591822127E+03  0.12784314821E+04  0.89189734070E+03 0.  0.
        5    1    3    3  502    0  0.46348865017E+02  0.13195204953E+03  0.10648895016E+04  0.10740443665E+04  0.46999998093E+01 0. -1.
       -5    1    3    3    0  502 -0.46348865017E+02 -0.13195204953E+03 -0.14897128030E+03  0.20438711558E+03  0.46999998093E+01 0.  1.
</event>
<event>
 5   0  0.1641516E-03  0.8961245E+03  0.7818609E-02  0.9430439E-01
       -2   -1    0    0    0  501  0.00000000000E+00  0.00000000000E+00  0.43984705119E+03  0.43984705119E+03  0.25500000920E-02 0.  1.
        2   -1    0    0  501    0  0.00000000000E+00  0.00000000000E+00 -0.45643091929E+03  0.45643091930E+03  0.25500000920E-02 0. -1.
    10030    2    1    2    0    0  0.00000000000E+00  0.00000000000E+00 -0.16583868107E+02  0.89627797050E+03  0.89612453136E+03 0.  0.
        1    1    3    3  502    0  0.24062578382E+03  0.14953227071E+02  0.36944378945E+03  0.44114972564E+03  0.50400001928E-02 0.  1.
       -1    1    3    3    0  502 -0.24062578382E+03 -0.14953227071E+02 -0.38602765756E+03  0.45512824486E+03  0.50400001928E-02 0. -1.
</event>
<event>
 5   0  0.1704416E-03  0.9007641E+03  0.7818609E-02  0.9424627E-01
       -2   -1    0    0    0  501  0.00000000000E+00  0.00000000000E+00  0.21114372156E+03  0.21114372158E+03  0.25500000920E-02 0.  1.
        2   -1    0    0  501    0  0.00000000000E+00  0.00000000000E+00 -0.96069150166E+03  0.96069150166E+03  0.25500000920E-02 0. -1.
    10030    2    1    2    0    0  0.00000000000E+00  0.00000000000E+00 -0.74954778010E+03  0.11718352232E+04  0.90076407331E+03 0.  0.
        3    1    3    3  502    0  0.34617500629E+03  0.11196302972E+03 -0.29422618458E+02  0.36501856895E+03  0.10100000352E+00 0. -1.
       -3    1    3    3    0  502 -0.34617500629E+03 -0.11196302972E+03 -0.72012516164E+03  0.80681665428E+03  0.10100000352E+00 0.  1.
</event>
<event>
 5   0  0.9697941E-04  0.9003071E+03  0.7818609E-02  0.9425198E-01
        1   -1    0    0  501    0  0.00000000000E+00  0.00000000000E+00  0.10438705175E+04  0.10438705175E+04  0.50400001928E-02 0. -1.
       -1   -1    0    0    0  501  0.00000000000E+00  0.00000000000E+00 -0.19412199930E+03  0.19412199936E+03  0.50400001928E-02 0.  1.
    10030    2    1    2    0    0  0.00000000000E+00  0.00000000000E+00  0.84974851817E+03  0.12379925168E+04  0.90030712961E+03 0.  0.
        5    1    3    3  502    0 -0.11986865048E+03  0.23018115243E+03  0.93060447444E+03  0.96612557887E+03  0.46999998093E+01 0. -1.
       -5    1    3    3    0  502  0.11986865048E+03 -0.23018115243E+03 -0.80855956271E+02  0.27186693797E+03  0.46999998093E+01 0.  1.
</event>
<event>
 5   0  0.1704416E-03  0.9172507E+03  0.7818609E-02  0.9404270E-01
       -2   -1    0    0    0  501  0.00000000000E+00  0.00000000000E+00  0.63684423432E+03  0.63684423433E+03  0.25500000920E-02 0.  1.
        2   -1    0    0  501    0  0.00000000000E+00  0.00000000000E+00 -0.33028047062E+03  0.33028047063E+03  0.25500000920E-02 0. -1.
    10030    2    1    2    0    0  0.00000000000E+00  0.00000000000E+00  0.30656376370E+03  0.96712470496E+03  0.91725070386E+03 0.  0.
        3    1    3    3  502    0  0.29768647737E+03  0.32396036476E+03  0.28982077485E+03  0.52684309664E+03  0.10100000352E+00 0.  1.
       -3    1    3    3    0  502 -0.29768647737E+03 -0.32396036476E+03  0.16742988842E+02  0.44028160831E+03  0.10100000352E+00 0. -1.
</event>
<event>
 5   0  0.1007561E-03  0.9029846E+03  0.7818609E-02  0.9421858E-01
        1   -1    0    0  501    0  0.00000000000E+00  0.00000000000E+00  0.10335659315E+04  0.10335659315E+04  0.50400001928E-02 0.  1.
       -1   -1    0    0    0  501  0.00000000000E+00  0.00000000000E+00 -0.19722525438E+03  0.19722525444E+03  0.50400001928E-02 0. -1.
    10030    2    1    2    0    0  0.00000000000E+00  0.00000000000E+00  0.83634067709E+03  0.12307911859E+04  0.90298461514E+03 0.  0.
        2    1    3    3  502    0 -0.18672086999E+03  0.23191843118E+03  0.88078546221E+03  0.92974936002E+03  0.25500000920E-02 0.  1.
       -2    1    3    3    0  502  0.18672086999E+03 -0.23191843118E+03 -0.44444785117E+02  0.30104182590E+03  0.25500000920E-02 0. -1.
</event>
<event>
 5   0  0.9981885E-04  0.8993127E+03  0.7818609E-02  0.9426441E-01
       -1   -1    0    0    0  501  0.00000000000E+00  0.00000000000E+00  0.81954242808E+02  0.81954242963E+02  0.50400001928E-02 0. -1.
        1   -1    0    0  501    0  0.00000000000E+00  0.00000000000E+00 -0.24671187600E+04  0.24671187600E+04  0.50400001928E-02 0.  1.
    10030    2    1    2    0    0  0.00000000000E+00  0.00000000000E+00 -0.23851645172E+04  0.25490730030E+04  0.89931273781E+03 0.  0.
        4    1    3    3  502    0 -0.21224759872E+02 -0.36562585678E+03 -0.19320279263E+04  0.19664349159E+04  0.12699999809E+01 0.  1.
       -4    1    3    3    0  502  0.21224759872E+02  0.36562585678E+03 -0.45313659084E+03  0.58263808701E+03  0.12699999809E+01 0. -1.
</event>
<event>
 5   0  0.1704416E-03  0.9009585E+03  0.7818609E-02  0.9424384E-01
        2   -1    0    0  501    0  0.00000000000E+00  0.00000000000E+00  0.26375549632E+03  0.26375549634E+03  0.25500000920E-02 0.  1.
       -2   -1    0    0    0  501  0.00000000000E+00  0.00000000000E+00 -0.76939267351E+03  0.76939267352E+03  0.25500000920E-02 0. -1.
    10030    2    1    2    0    0  0.00000000000E+00  0.00000000000E+00 -0.50563717719E+03  0.10331481699E+04  0.90095848179E+03 0.  0.
        3    1    3    3  502    0 -0.39506043687E+03 -0.60490474834E+02 -0.14477923187E+02  0.39992682679E+03  0.10100000352E+00 0.  1.
       -3    1    3    3    0  502  0.39506043687E+03  0.60490474834E+02 -0.49115925400E+03  0.63322134307E+03  0.10100000352E+00 0. -1.
</event>
<event>
 5   0  0.9321543E-04  0.8998427E+03  0.7818609E-02  0.9425778E-01
        1   -1    0    0  501    0  0.00000000000E+00  0.00000000000E+00  0.76873437668E+03  0.76873437669E+03  0.50400001928E-02 0.  1.
       -1   -1    0    0    0  501  0.00000000000E+00  0.00000000000E+00 -0.26332792138E+03  0.26332792143E+03  0.50400001928E-02 0. -1.
    10030    2    1    2    0    0  0.00000000000E+00  0.00000000000E+00  0.50540645530E+03  0.10320622981E+04  0.89984270967E+03 0.  0.
        3    1    3    3  502    0  0.14337481423E+03  0.45605770989E+02 -0.23362075871E+03  0.27787567868E+03  0.10100000352E+00 0. -1.
       -3    1    3    3    0  502 -0.14337481423E+03 -0.45605770989E+02  0.73902721400E+03  0.75418661944E+03  0.10100000352E+00 0.  1.
</event>
<event>
 5   0  0.9223454E-04  0.9018590E+03  0.7818609E-02  0.9423261E-01
       -1   -1    0    0    0  501  0.00000000000E+00  0.00000000000E+00  0.22743414592E+03  0.22743414597E+03  0.50400001928E-02 0.  1.
        1   -1    0    0  501    0  0.00000000000E+00  0.00000000000E+00 -0.89404968609E+03  0.89404968610E+03  0.50400001928E-02 0. -1.
    10030    2    1    2    0    0  0.00000000000E+00  0.00000000000E+00 -0.66661554017E+03  0.11214838321E+04  0.90185902846E+03 0.  0.
        1    1    3    3  502    0  0.33179625247E+03  0.19402025913E+02 -0.71227120502E+03  0.78599965731E+03  0.50400001928E-02 0. -1.
       -1    1    3    3    0  502 -0.33179625247E+03 -0.19402025913E+02  0.45655664850E+02  0.33548417477E+03  0.50400001928E-02 0.  1.
</event>
<event>
 5   0  0.9981885E-04  0.8983854E+03  0.7818609E-02  0.9427602E-01
        1   -1    0    0  501    0  0.00000000000E+00  0.00000000000E+00  0.59328882866E+03  0.59328882869E+03  0.50400001928E-02 0.  1.
       -1   -1    0    0    0  501  0.00000000000E+00  0.00000000000E+00 -0.34009417280E+03  0.34009417284E+03  0.50400001928E-02 0. -1.
    10030    2    1    2    0    0  0.00000000000E+00  0.00000000000E+00  0.25319465586E+03  0.93338300152E+03  0.89838538155E+03 0.  0.
        4    1    3    3  502    0  0.32603107530E+03 -0.16992574486E+03 -0.14152872781E+03  0.39395813804E+03  0.12699999809E+01 0. -1.
       -4    1    3    3    0  502 -0.32603107530E+03  0.16992574486E+03  0.39472338368E+03  0.53942486349E+03  0.12699999809E+01 0.  1.
</event>
<event>
 5   0  0.1536020E-03  0.8862826E+03  0.7818609E-02  0.9442893E-01
        2   -1    0    0  501    0  0.00000000000E+00  0.00000000000E+00  0.13818755043E+04  0.13818755043E+04  0.25500000920E-02 0.  1.
       -2   -1    0    0    0  501  0.00000000000E+00  0.00000000000E+00 -0.14210701781E+03  0.14210701783E+03  0.25500000920E-02 0. -1.
    10030    2    1    2    0    0  0.00000000000E+00  0.00000000000E+00  0.12397684865E+04  0.15239825221E+04  0.88628258905E+03 0.  0.
        2    1    3    3  502    0 -0.34288000195E+03  0.22520526700E+03  0.90807789005E+03  0.99643843885E+03  0.25500000920E-02 0.  1.
       -2    1    3    3    0  502  0.34288000195E+03 -0.22520526700E+03  0.33169059643E+03  0.52754408326E+03  0.25500000920E-02 0. -1.
</event>
<event>
 5   0  0.1536020E-03  0.8982960E+03  0.7818609E-02  0.9427714E-01
        2   -1    0    0  501    0  0.00000000000E+00  0.00000000000E+00  0.37249840443E+03  0.37249840444E+03  0.25500000920E-02 0. -1.
       -2   -1    0    0    0  501  0.00000000000E+00  0.00000000000E+00 -0.54156987693E+03  0.54156987694E+03  0.25500000920E-02 0.  1.
    10030    2    1    2    0    0  0.00000000000E+00  0.00000000000E+00 -0.16907147250E+03  0.91406828138E+03  0.89829597584E+03 0.  0.
        2    1    3    3  502    0  0.18908855637E+03 -0.39621971290E+03  0.11941279518E+02  0.43918918156E+03  0.25500000920E-02 0. -1.
       -2    1    3    3    0  502 -0.18908855637E+03  0.39621971290E+03 -0.18101275202E+03  0.47487909981E+03  0.25500000920E-02 0.  1.
</event>
<event>
 5   0  0.1536020E-03  0.9003604E+03  0.7818609E-02  0.9425131E-01
       -2   -1    0    0    0  501  0.00000000000E+00  0.00000000000E+00  0.26789133126E+03  0.26789133127E+03  0.25500000920E-02 0.  1.
        2   -1    0    0  501    0  0.00000000000E+00  0.00000000000E+00 -0.75650897876E+03  0.75650897876E+03  0.25500000920E-02 0. -1.
    10030    2    1    2    0    0  0.00000000000E+00  0.00000000000E+00 -0.48861764750E+03  0.10244003100E+04  0.90036036660E+03 0.  0.
        2    1    3    3  502    0  0.23580919964E+03  0.94906623309E+02  0.17842781348E+03  0.31056356903E+03  0.25500000920E-02 0.  1.
       -2    1    3    3    0  502 -0.23580919964E+03 -0.94906623309E+02 -0.66704546098E+03  0.71383674100E+03  0.25500000920E-02 0. -1.
</event>
<event>
 5   0  0.1007561E-03  0.8979142E+03  0.7818609E-02  0.9428193E-01
       -1   -1    0    0    0  501  0.00000000000E+00  0.00000000000E+00  0.39978732654E+03  0.39978732657E+03  0.50400001928E-02 0.  1.
        1   -1    0    0  501    0  0.00000000000E+00  0.00000000000E+00 -0.50417425954E+03  0.50417425957E+03  0.50400001928E-02 0. -1.
    10030    2    1    2    0    0  0.00000000000E+00  0.00000000000E+00 -0.10438693301E+03  0.90396158614E+03  0.89791420382E+03 0.  0.
        2    1    3    3  502    0 -0.24078239420E+03  0.37070973850E+03 -0.13121162670E+03  0.46110558722E+03  0.25500000920E-02 0. -1.
       -2    1    3    3    0  502  0.24078239420E+03 -0.37070973850E+03  0.26824693695E+02  0.44285599892E+03  0.25500000920E-02 0.  1.
</event>
<event>
 5   0  0.9981885E-04  0.9013556E+03  0.7818609E-02  0.9423888E-01
       -1   -1    0    0    0  501  0.00000000000E+00  0.00000000000E+00  0.85994179556E+02  0.85994179703E+02  0.50400001928E-02 0.  1.
        1   -1    0    0  501    0  0.00000000000E+00  0.00000000000E+00 -0.23619097893E+04  0.23619097893E+04  0.50400001928E-02 0. -1.
    10030    2    1    2    0    0  0.00000000000E+00  0.00000000000E+00 -0.22759156097E+04  0.24479039690E+04  0.90135563392E+03 0.  0.
        4    1    3    3  502    0 -0.79339841213E+02 -0.34195853801E+03 -0.37039670215E+03  0.51031929415E+03  0.12699999809E+01 0. -1.
       -4    1    3    3    0  502  0.79339841213E+02  0.34195853801E+03 -0.19055189076E+04  0.19375846748E+04  0.12699999809E+01 0.  1.
</event>
<event>
 5   0  0.9321543E-04  0.8993196E+03  0.7818609E-02  0.9426432E-01
        1   -1    0    0  501    0  0.00000000000E+00  0.00000000000E+00  0.32519926788E+03  0.32519926792E+03  0.50400001928E-02 0.  1.
       -1   -1    0    0    0  501  0.00000000000E+00  0.00000000000E+00 -0.62175392317E+03  0.62175392319E+03  0.50400001928E-02 0. -1.
    10030    2    1    2    0    0  0.00000000000E+00  0.00000000000E+00 -0.29655465529E+03  0.94695319112E+03  0.89931956644E+03 0.  0.
        3    1    3    3  502    0  0.40311859825E+02 -0.44493092700E+03 -0.20202333703E+03  0.49030808146E+03  0.10100000352E+00 0.  1.
       -3    1    3    3    0  502 -0.40311859825E+02  0.44493092700E+03 -0.94531318260E+02  0.45664510966E+03  0.10100000352E+00 0. -1.
</event>
<event>
 5   0  0.1635686E-03  0.9003741E+03  0.7818609E-02  0.9425114E-01
       -2   -1    0    0    0  501  0.00000000000E+00  0.00000000000E+00  0.27758842800E+03  0.27758842802E+03  0.25500000920E-02 0.  1.
        2   -1    0    0  501    0  0.00000000000E+00  0.00000000000E+00 -0.73010381614E+03  0.73010381614E+03  0.25500000920E-02 0. -1.
    10030    2    1    2    0    0  0.00000000000E+00  0.00000000000E+00 -0.45251538814E+03  0.10076922442E+04  0.90037407917E+03 0.  0.
        5    1    3    3  502    0  0.83630101562E+01  0.34447035111E+03 -0.55046937628E+03  0.64943697689E+03  0.46999998093E+01 0. -1.
       -5    1    3    3    0  502 -0.83630101562E+01 -0.34447035111E+03  0.97953988148E+02  0.35825526727E+03  0.46999998093E+01 0.  1.
</event>
<event>
 5   0  0.9981885E-04  0.8987948E+03  0.7818609E-02  0.9427089E-01
        1   -1    0    0  501    0  0.00000000000E+00  0.00000000000E+00  0.42290010469E+03  0.42290010472E+03  0.50400001928E-02 0.  1.
       -1   -1    0    0    0  501  0.00000000000E+00  0.00000000000E+00 -0.47755496248E+03  0.47755496251E+03  0.50400001928E-02 0. -1.
    10030    2    1    2    0    0  0.00000000000E+00  0.00000000000E+00 -0.54654857788E+02  0.90045506723E+03  0.89879484568E+03 0.  0.
        4    1    3    3  502    0  0.31595242955E+03 -0.30598545697E+03  0.65056749819E+02  0.44462009763E+03  0.12699999809E+01 0.  1.
       -4    1    3    3    0  502 -0.31595242955E+03  0.30598545697E+03 -0.11971160761E+03  0.45583496960E+03  0.12699999809E+01 0. -1.
</event>
<event>
 5   0  0.1635686E-03  0.9052368E+03  0.7818609E-02  0.9419059E-01
       -2   -1    0    0    0  501  0.00000000000E+00  0.00000000000E+00  0.24623667305E+03  0.24623667306E+03  0.25500000920E-02 0. -1.
        2   -1    0    0  501    0  0.00000000000E+00  0.00000000000E+00 -0.83197772663E+03  0.83197772664E+03  0.25500000920E-02 0.  1.
    10030    2    1    2    0    0  0.00000000000E+00  0.00000000000E+00 -0.58574105358E+03  0.10782143997E+04  0.90523682530E+03 0.  0.
        5    1    3    3  502    0 -0.21636447532E+03  0.28214326502E+03 -0.62642321480E+03  0.72031003201E+03  0.46999998093E+01 0.  1.
       -5    1    3    3    0  502  0.21636447532E+03 -0.28214326502E+03  0.40682161215E+02  0.35790436769E+03  0.46999998093E+01 0. -1.
</event>
<event>
 5   0  0.9981885E-04  0.8919828E+03  0.7818609E-02  0.9435659E-01
        1   -1    0    0  501    0  0.00000000000E+00  0.00000000000E+00  0.20285804884E+04  0.20285804884E+04  0.50400001928E-02 0.  1.
       -1   -1    0    0    0  501  0.00000000000E+00  0.00000000000E+00 -0.98052964746E+02  0.98052964875E+02  0.50400001928E-02 0. -1.
    10030    2    1    2    0    0  0.00000000000E+00  0.00000000000E+00  0.19305275236E+04  0.21266334533E+04  0.89198280534E+03 0.  0.
        4    1    3    3  502    0 -0.20246365247E+03 -0.34108927630E+03  0.47914389110E+03  0.62202403994E+03  0.12699999809E+01 0. -1.
       -4    1    3    3    0  502  0.20246365247E+03  0.34108927630E+03  0.14513836325E+04  0.15046094133E+04  0.12699999809E+01 0.  1.
</event>
<event>
 5   0  0.9697941E-04  0.9003395E+03  0.7818609E-02  0.9425157E-01
       -1   -1    0    0    0  501  0.00000000000E+00  0.00000000000E+00  0.64817289736E+03  0.64817289738E+03  0.50400001928E-02 0. -1.
        1   -1    0    0  501    0  0.00000000000E+00  0.00000000000E+00 -0.31265239102E+03  0.31265239106E+03  0.50400001928E-02 0.  1.
    10030    2    1    2    0    0  0.00000000000E+00  0.00000000000E+00  0.33552050634E+03  0.96082528844E+03  0.90033950526E+03 0.  0.
        5    1    3    3  502    0 -0.11058669257E+03  0.31772356041E+03 -0.15141974473E+03  0.36895488411E+03  0.46999998093E+01 0.  1.
       -5    1    3    3    0  502  0.11058669257E+03 -0.31772356041E+03  0.48694025107E+03  0.59187040433E+03  0.46999998093E+01 0. -1.
</event>
<event>
 5   0  0.9321543E-04  0.8997998E+03  0.7818609E-02  0.9425832E-01
        1   -1    0    0  501    0  0.00000000000E+00  0.00000000000E+00  0.56394461430E+03  0.56394461433E+03  0.50400001928E-02 0. -1.
       -1   -1    0    0    0  501  0.00000000000E+00  0.00000000000E+00 -0.35891804899E+03  0.35891804903E+03  0.50400001928E-02 0.  1.
    10030    2    1    2    0    0  0.00000000000E+00  0.00000000000E+00  0.20502656531E+03  0.92286266336E+03  0.89979975713E+03 0.  0.
        3    1    3    3  502    0 -0.73006787944E+02  0.24633914091E+03  0.48129891491E+03  0.54558374162E+03  0.10100000352E+00 0. -1.
       -3    1    3    3    0  502  0.73006787944E+02 -0.24633914091E+03 -0.27627234959E+03  0.37727892173E+03  0.10100000352E+00 0.  1.
</event>
<event>
 5   0  0.9223454E-04  0.8995759E+03  0.7818609E-02  0.9426112E-01
       -1   -1    0    0    0  501  0.00000000000E+00  0.00000000000E+00  0.21346546296E+03  0.21346546302E+03  0.50400001928E-02 0.  1.
        1   -1    0    0  501    0  0.00000000000E+00  0.00000000000E+00 -0.94773743296E+03  0.94773743298E+03  0.50400001928E-02 0. -1.
    10030    2    1    2    0    0  0.00000000000E+00  0.00000000000E+00 -0.73427197000E+03  0.11612028960E+04  0.89957592217E+03 0.  0.
        1    1    3    3  502    0 -0.27521004338E+03 -0.56709923951E+02  0.86225360038E+02  0.29392413339E+03  0.50400001928E-02 0.  1.
       -1    1    3    3    0  502  0.27521004338E+03  0.56709923951E+02 -0.82049733004E+03  0.86727876261E+03  0.50400001928E-02 0. -1.
</event>
<event>
 5   0  0.1630202E-03  0.8990042E+03  0.7818609E-02  0.9426827E-01
       -2   -1    0    0    0  501  0.00000000000E+00  0.00000000000E+00  0.40384399125E+03  0.40384399126E+03  0.25500000920E-02 0.  1.
        2   -1    0    0  501    0  0.00000000000E+00  0.00000000000E+00 -0.50032226599E+03  0.50032226600E+03  0.25500000920E-02 0. -1.
    10030    2    1    2    0    0  0.00000000000E+00  0.00000000000E+00 -0.96478274744E+02  0.90416625726E+03  0.89900420648E+03 0.  0.
        4    1    3    3  502    0 -0.31497782925E+03 -0.13426614103E+03  0.24465823519E+03  0.42082976902E+03  0.12699999809E+01 0.  1.
       -4    1    3    3    0  502  0.31497782925E+03  0.13426614103E+03 -0.34113650994E+03  0.48333648824E+03  0.12699999809E+01 0. -1.
</event>
<event>
 5   0  0.1536020E-03  0.8977367E+03  0.7818609E-02  0.9428415E-01
       -2   -1    0    0    0  501  0.00000000000E+00  0.00000000000E+00  0.29148935130E+03  0.29148935131E+03  0.25500000920E-02 0.  1.
        2   -1    0    0  501    0  0.00000000000E+00  0.00000000000E+00 -0.69121842793E+03  0.69121842794E+03  0.25500000920E-02 0. -1.
    10030    2    1    2    0    0  0.00000000000E+00  0.00000000000E+00 -0.39972907663E+03  0.98270777924E+03  0.89773673461E+03 0.  0.
        2    1    3    3  502    0 -0.22302961129E+03 -0.37920711698E+03 -0.10230812706E+03  0.45167155982E+03  0.25500000920E-02 0.  1.
       -2    1    3    3    0  502  0.22302961129E+03  0.37920711698E+03 -0.29742094958E+03  0.53103621942E+03  0.25500000920E-02 0. -1.
</event>
<event>
 5   0  0.9321543E-04  0.8986652E+03  0.7818609E-02  0.9427252E-01
       -1   -1    0    0    0  501  0.00000000000E+00  0.00000000000E+00  0.29017113809E+03  0.29017113813E+03  0.50400001928E-02 0. -1.
        1   -1    0    0  501    0  0.00000000000E+00  0.00000000000E+00 -0.69579554549E+03  0.69579554551E+03  0.50400001928E-02 0.  1.
    10030    2    1    2    0    0  0.00000000000E+00  0.00000000000E+00 -0.40562440741E+03  0.98596668364E+03  0.89866519982E+03 0.  0.
        3    1    3    3  502    0  0.30541254310E+02  0.43508109323E+03 -0.32134177365E+03  0.54174613205E+03  0.10100000352E+00 0. -1.
       -3    1    3    3    0  502 -0.30541254310E+02 -0.43508109323E+03 -0.84282633757E+02  0.44422055159E+03  0.10100000352E+00 0.  1.
</event>
<event>
 5   0  0.1704416E-03  0.8995618E+03  0.7818609E-02  0.9426129E-01
       -2   -1    0    0    0  501  0.00000000000E+00  0.00000000000E+00  0.25281982435E+03  0.25281982436E+03  0.25500000920E-02 0. -1.
        2   -1    0    0  501    0  0.00000000000E+00  0.00000000000E+00 -0.80018587590E+03  0.80018587591E+03  0.25500000920E-02 0.  1.
    10030    2    1    2    0    0  0.00000000000E+00  0.00000000000E+00 -0.54736605155E+03  0.10530057003E+04  0.89956178799E+03 0.  0.
        3    1    3    3  502    0 -0.35584565205E+03 -0.19006876335E+03 -0.40886685351E+02  0.40549228615E+03  0.10100000352E+00 0. -1.
       -3    1    3    3    0  502  0.35584565205E+03  0.19006876335E+03 -0.50647936620E+03  0.64751341412E+03  0.10100000352E+00 0.  1.
</event>
<event>
 5   0  0.9223454E-04  0.9002473E+03  0.7818609E-02  0.9425272E-01
        1   -1    0    0  501    0  0.00000000000E+00  0.00000000000E+00  0.29441337417E+03  0.29441337422E+03  0.50400001928E-02 0.  1.
       -1   -1    0    0    0  501  0.00000000000E+00  0.00000000000E+00 -0.68818640673E+03  0.68818640675E+03  0.50400001928E-02 0. -1.
    10030    2    1    2    0    0  0.00000000000E+00  0.00000000000E+00 -0.39377303256E+03  0.98259978097E+03  0.90024725958E+03 0.  0.
        1    1    3    3  502    0  0.29244882528E+03 -0.25964226751E+03  0.46370677755E+02  0.39381551806E+03  0.50400001928E-02 0.  1.
       -1    1    3    3    0  502 -0.29244882528E+03  0.25964226751E+03 -0.44014371031E+03  0.58878426290E+03  0.50400001928E-02 0. -1.
</event>
<event>
 5   0  0.9981885E-04  0.8990251E+03  0.7818609E-02  0.9426801E-01
       -1   -1    0    0    0  501  0.00000000000E+00  0.00000000000E+00  0.54680683580E+03  0.54680683583E+03  0.50400001928E-02 0.  1.
        1   -1    0    0  501    0  0.00000000000E+00  0.00000000000E+00 -0.36952998837E+03  0.36952998840E+03  0.50400001928E-02 0. -1.
    10030    2    1    2    0    0  0.00000000000E+00  0.00000000000E+00  0.17727684744E+03  0.91633682423E+03  0.89902508018E+03 0.  0.
        4    1    3    3  502    0  0.41608480273E+03 -0.16837645456E+03  0.11324279568E+03  0.46292843635E+03  0.12699999809E+01 0.  1.
       -4    1    3    3    0  502 -0.41608480273E+03  0.16837645456E+03  0.64034051752E+02  0.45340838787E+03  0.12699999809E+01 0. -1.
</event>
<event>
 5   0  0.9697941E-04  0.8991505E+03  0.7818609E-02  0.9426644E-01
       -1   -1    0    0    0  501  0.00000000000E+00  0.00000000000E+00  0.13114178959E+03  0.13114178969E+03  0.50400001928E-02 0. -1.
        1   -1    0    0  501    0  0.00000000000E+00  0.00000000000E+00 -0.15412166962E+04  0.15412166962E+04  0.50400001928E-02 0.  1.
    10030    2    1    2    0    0  0.00000000000E+00  0.00000000000E+00 -0.14100749066E+04  0.16723584859E+04  0.89915052304E+03 0.  0.
        5    1    3    3  502    0 -0.38772695848E+03 -0.16502050250E+03 -0.99635206049E+03  0.10818056568E+04  0.46999998093E+01 0.  1.
       -5    1    3    3    0  502  0.38772695848E+03  0.16502050250E+03 -0.41372284608E+03  0.59055282908E+03  0.46999998093E+01 0. -1.
</event>
<event>
 5   0  0.1704416E-03  0.8983855E+03  0.7818609E-02  0.9427602E-01
       -2   -1    0    0    0  501  0.00000000000E+00  0.00000000000E+00  0.18385435630E+03  0.18385435632E+03  0.25500000920E-02 0. -1.
        2   -1    0    0  501    0  0.00000000000E+00  0.00000000000E+00 -0.10974671055E+04  0.10974671055E+04  0.25500000920E-02 0.  1.
    10030    2    1    2    0    0  0.00000000000E+00  0.00000000000E+00 -0.91361274925E+03  0.12813214619E+04  0.89838545906E+03 0.  0.
        3    1    3    3  502    0  0.31874296658E+03  0.19332393452E+03 -0.99381188880E+02  0.38580805242E+03  0.10100000352E+00 0. -1.
       -3    1    3    3    0  502 -0.31874296658E+03 -0.19332393452E+03 -0.81423156037E+03  0.89551340945E+03  0.10100000352E+00 0.  1.
</event>
<event>
 5   0  0.9223454E-04  0.9020889E+03  0.7818609E-02  0.9422974E-01
        1   -1    0    0  501    0  0.00000000000E+00  0.00000000000E+00  0.11499943804E+04  0.11499943804E+04  0.50400001928E-02 0. -1.
       -1   -1    0    0    0  501  0.00000000000E+00  0.00000000000E+00 -0.17690615532E+03  0.17690615539E+03  0.50400001928E-02 0.  1.
    10030    2    1    2    0    0  0.00000000000E+00  0.00000000000E+00  0.97308822508E+03  0.13269005358E+04  0.90208887486E+03 0.  0.
        1    1    3    3  502    0 -0.35814176063E+03 -0.63976147212E+02  0.94377384272E+02  0.37585310802E+03  0.50400001928E-02 0.  1.
       -1    1    3    3    0  502  0.35814176063E+03  0.63976147212E+02  0.87871084080E+03  0.95104742778E+03  0.50400001928E-02 0. -1.
</event>
<event>
 5   0  0.1641516E-03  0.8997151E+03  0.7818609E-02  0.9425938E-01
        2   -1    0    0  501    0  0.00000000000E+00  0.00000000000E+00  0.19281189228E+04  0.19281189228E+04  0.25500000920E-02 0.  1.
       -2   -1    0    0    0  501  0.00000000000E+00  0.00000000000E+00 -0.10495816130E+03  0.10495816134E+03  0.25500000920E-02 0. -1.
    10030    2    1    2    0    0  0.00000000000E+00  0.00000000000E+00  0.18231607615E+04  0.20330770842E+04  0.89971510368E+03 0.  0.
        1    1    3    3  502    0  0.19359220698E+03 -0.16310135833E+03  0.71255771635E+02  0.26297790917E+03  0.50400001928E-02 0. -1.
       -1    1    3    3    0  502 -0.19359220698E+03  0.16310135833E+03  0.17519049899E+04  0.17700991750E+04  0.50400001928E-02 0.  1.
</event>
<event>
 5   0  0.9981885E-04  0.8990409E+03  0.7818609E-02  0.9426781E-01
        1   -1    0    0  501    0  0.00000000000E+00  0.00000000000E+00  0.13162394428E+04  0.13162394428E+04  0.50400001928E-02 0.  1.
       -1   -1    0    0    0  501  0.00000000000E+00  0.00000000000E+00 -0.15351967701E+03  0.15351967709E+03  0.50400001928E-02 0. -1.
    10030    2    1    2    0    0  0.00000000000E+00  0.00000000000E+00  0.11627197658E+04  0.14697591199E+04  0.89904094278E+03 0.  0.
        4    1    3    3  502    0 -0.39669307100E+03 -0.55469851987E+02  0.91489570353E+03  0.99873823312E+03  0.12699999809E+01 0.  1.
       -4    1    3    3    0  502  0.39669307100E+03  0.55469851987E+02  0.24782406228E+03  0.47102088680E+03  0.12699999809E+01 0. -1.
</event>
<event>
 5   0  0.9697941E-04  0.8996710E+03  0.7818609E-02  0.9425993E-01
        1   -1    0    0  501    0  0.00000000000E+00  0.00000000000E+00  0.14387130444E+04  0.14387130444E+04  0.50400001928E-02 0. -1.
       -1   -1    0    0    0  501  0.00000000000E+00  0.00000000000E+00 -0.14064790069E+03  0.14064790078E+03  0.50400001928E-02 0.  1.
    10030    2    1    2    0    0  0.00000000000E+00  0.00000000000E+00  0.12980651437E+04  0.15793609452E+04  0.89967098311E+03 0.  0.
        5    1    3    3  502    0  0.76012575443E+02  0.19499848541E+03  0.13479889408E+04  0.13641475710E+04  0.46999998093E+01 0. -1.
       -5    1    3    3    0  502 -0.76012575443E+02 -0.19499848541E+03 -0.49923797045E+02  0.21521337423E+03  0.46999998093E+01 0.  1.
</event>
<event>
 5   0  0.6375625E-04  0.8988005E+03  0.7818609E-02  0.9427082E-01
        3   -1    0    0  501    0  0.00000000000E+00  0.00000000000E+00  0.57851835153E+03  0.57851836034E+03  0.10100000352E+00 0.  1.
       -3   -1    0    0    0  501  0.00000000000E+00  0.00000000000E+00 -0.34909965638E+03  0.34909967099E+03  0.10100000352E+00 0. -1.
    10030    2    1    2    0    0  0.00000000000E+00  0.00000000000E+00  0.22941869514E+03  0.92761803134E+03  0.89880046416E+03 0.  0.
        5    1    3    3  502    0 -0.23497045435E+03  0.29344186268E+03  0.36881312915E+03  0.52665401871E+03  0.46999998093E+01 0.  1.
       -5    1    3    3    0  502  0.23497045435E+03 -0.29344186268E+03 -0.13939443401E+03  0.40096401263E+03  0.46999998093E+01 0. -1.
</event>
<event>
 5   0  0.1007561E-03  0.9008983E+03  0.7818609E-02  0.9424459E-01
        1   -1    0    0  501    0  0.00000000000E+00  0.00000000000E+00  0.10048236909E+04  0.10048236909E+04  0.50400001928E-02 0.  1.
       -1   -1    0    0    0  501  0.00000000000E+00  0.00000000000E+00 -0.20193036977E+03  0.20193036984E+03  0.50400001928E-02 0. -1.
    10030    2    1    2    0    0  0.00000000000E+00  0.00000000000E+00  0.80289332115E+03  0.12067540608E+04  0.90089826176E+03 0.  0.
        2    1    3    3  502    0  0.92813591892E+02 -0.24482718263E+03  0.89242392550E+03  0.93004041579E+03  0.25500000920E-02 0.  1.
       -2    1    3    3    0  502 -0.92813591892E+02  0.24482718263E+03 -0.89530604351E+02  0.27671364498E+03  0.25500000920E-02 0. -1.
</event>
<event>
 5   0  0.1007561E-03  0.8919757E+03  0.7818609E-02  0.9435668E-01
       -1   -1    0    0    0  501  0.00000000000E+00  0.00000000000E+00  0.16192052485E+03  0.16192052493E+03  0.50400001928E-02 0. -1.
        1   -1    0    0  501    0  0.00000000000E+00  0.00000000000E+00 -0.12284122262E+04  0.12284122262E+04  0.50400001928E-02 0.  1.
    10030    2    1    2    0    0  0.00000000000E+00  0.00000000000E+00 -0.10664917014E+04  0.13903327511E+04  0.89197567783E+03 0.  0.
        2    1    3    3  502    0 -0.11238642327E+03  0.33171060860E+03 -0.10285369027E+03  0.36502262615E+03  0.25500000920E-02 0. -1.
       -2    1    3    3    0  502  0.11238642327E+03 -0.33171060860E+03 -0.96363801109E+03  0.10253101250E+04  0.25500000920E-02 0.  1.
</event>
<event>
 5   0  0.6375625E-04  0.8994563E+03  0.7818609E-02  0.9426261E-01
       -3   -1    0    0    0  501  0.00000000000E+00  0.00000000000E+00  0.18852410835E+03  0.18852413540E+03  0.10100000352E+00 0.  1.
        3   -1    0    0  501    0  0.00000000000E+00  0.00000000000E+00 -0.10728357212E+04  0.10728357260E+04  0.10100000352E+00 0. -1.
    10030    2    1    2    0    0  0.00000000000E+00  0.00000000000E+00 -0.88431161290E+03  0.12613598614E+04  0.89945631982E+03 0.  0.
        5    1    3    3  502    0  0.36726964617E+03  0.24499359776E+03 -0.56217400040E+03  0.71482204266E+03  0.46999998093E+01 0.  1.
       -5    1    3    3    0  502 -0.36726964617E+03 -0.24499359776E+03 -0.32213761250E+03  0.54653781875E+03  0.46999998093E+01 0. -1.
</event>
<event>
 5   0  0.9697941E-04  0.8998361E+03  0.7818609E-02  0.9425786E-01
       -1   -1    0    0    0  501  0.00000000000E+00  0.00000000000E+00  0.25563503297E+03  0.25563503302E+03  0.50400001928E-02 0.  1.
        1   -1    0    0  501    0  0.00000000000E+00  0.00000000000E+00 -0.79185637676E+03  0.79185637678E+03  0.50400001928E-02 0. -1.
    10030    2    1    2    0    0  0.00000000000E+00  0.00000000000E+00 -0.53622134380E+03  0.10474914098E+04  0.89983605398E+03 0.  0.
        5    1    3    3  502    0 -0.40199446893E+03  0.20146898192E+03 -0.28517314229E+03  0.53248015438E+03  0.46999998093E+01 0. -1.
       -5    1    3    3    0  502  0.40199446893E+03 -0.20146898192E+03 -0.25104820151E+03  0.51501125542E+03  0.46999998093E+01 0.  1.
</event>
<event>
 5   0  0.1536020E-03  0.9007295E+03  0.7818609E-02  0.9424670E-01
        2   -1    0    0  501    0  0.00000000000E+00  0.00000000000E+00  0.11719727825E+04  0.11719727825E+04  0.25500000920E-02 0.  1.
       -2   -1    0    0    0  501  0.00000000000E+00  0.00000000000E+00 -0.17306578681E+03  0.17306578683E+03  0.25500000920E-02 0. -1.
    10030    2    1    2    0    0  0.00000000000E+00  0.00000000000E+00  0.99890699569E+03  0.13450385693E+04  0.90072946380E+03 0.  0.
        2    1    3    3  502    0  0.19471978748E+03 -0.22652146599E+03 -0.38508969166E+01  0.29873499896E+03  0.25500000920E-02 0. -1.
       -2    1    3    3    0  502 -0.19471978748E+03  0.22652146599E+03  0.10027578926E+04  0.10463035704E+04  0.25500000920E-02 0.  1.
</event>
<event>
 5   0  0.9223454E-04  0.8995496E+03  0.7818609E-02  0.9426145E-01
        1   -1    0    0  501    0  0.00000000000E+00  0.00000000000E+00  0.10766932120E+04  0.10766932120E+04  0.50400001928E-02 0.  1.
       -1   -1    0    0    0  501  0.00000000000E+00  0.00000000000E+00 -0.18788767998E+03  0.18788768005E+03  0.50400001928E-02 0. -1.
    10030    2    1    2    0    0  0.00000000000E+00  0.00000000000E+00  0.88880553200E+03  0.12645808920E+04  0.89954964221E+03 0.  0.
        1    1    3    3  502    0 -0.30586111083E+03  0.31394947676E+03  0.58625627607E+03  0.73199160810E+03  0.50400001928E-02 0.  1.
       -1    1    3    3    0  502  0.30586111083E+03 -0.31394947676E+03  0.30254925593E+03  0.53258928394E+03  0.50400001928E-02 0. -1.
</event>
<event>
 5   0  0.9223454E-04  0.9015330E+03  0.7818609E-02  0.9423667E-01
        1   -1    0    0  501    0  0.00000000000E+00  0.00000000000E+00  0.22243334449E+03  0.22243334455E+03  0.50400001928E-02 0. -1.
       -1   -1    0    0    0  501  0.00000000000E+00  0.00000000000E+00 -0.91348907315E+03  0.91348907317E+03  0.50400001928E-02 0.  1.
    10030    2    1    2    0    0  0.00000000000E+00  0.00000000000E+00 -0.69105572866E+03  0.11359224177E+04  0.90153298274E+03 0.  0.
        1    1    3    3  502    0  0.30982373738E+03 -0.12654622686E+03 -0.72600669609E+03  0.79943130947E+03  0.50400001928E-02 0.  1.
       -1    1    3    3    0  502 -0.30982373738E+03  0.12654622686E+03  0.34950967430E+02  0.33649110824E+03  0.50400001928E-02 0. -1.
</event>
<event>
 5   0  0.9223454E-04  0.8949332E+03  0.7818609E-02  0.9431937E-01
        1   -1    0    0  501    0  0.00000000000E+00  0.00000000000E+00  0.12775641451E+04  0.12775641451E+04  0.50400001928E-02 0.  1.
       -1   -1    0    0    0  501  0.00000000000E+00  0.00000000000E+00 -0.15672509332E+03  0.15672509340E+03  0.50400001928E-02 0. -1.
    10030    2    1    2    0    0  0.00000000000E+00  0.00000000000E+00  0.11208390518E+04  0.14342892385E+04  0.89493320405E+03 0.  0.
        1    1    3    3  502    0 -0.34340461617E+03 -0.48771236360E+01  0.10201277667E+04  0.10763880235E+04  0.50400001928E-02 0.  1.
       -1    1    3    3    0  502  0.34340461617E+03  0.48771236360E+01  0.10071128510E+03  0.35790121502E+03  0.50400001928E-02 0. -1.
</event>
<event>
 5   0  0.6375625E-04  0.8829970E+03  0.7818609E-02  0.9447089E-01
       -3   -1    0    0    0  501  0.00000000000E+00  0.00000000000E+00  0.35000224446E+03  0.35000225904E+03  0.10100000352E+00 0. -1.
        3   -1    0    0  501    0  0.00000000000E+00  0.00000000000E+00 -0.55691326491E+03  0.55691327407E+03  0.10100000352E+00 0.  1.
    10030    2    1    2    0    0  0.00000000000E+00  0.00000000000E+00 -0.20691102045E+03  0.90691553311E+03  0.88299695006E+03 0.  0.
        1    1    3    3  502    0  0.16699370289E+03  0.10481758155E+03  0.30227319966E+03  0.36089154807E+03  0.50400001928E-02 0. -1.
       -1    1    3    3    0  502 -0.16699370289E+03 -0.10481758155E+03 -0.50918422011E+03  0.54602398504E+03  0.50400001928E-02 0.  1.
</event>
<event>
 5   0  0.1630202E-03  0.8997166E+03  0.7818609E-02  0.9425936E-01
       -2   -1    0    0    0  501  0.00000000000E+00  0.00000000000E+00  0.37335693176E+03  0.37335693176E+03  0.25500000920E-02 0.  1.
        2   -1    0    0  501    0  0.00000000000E+00  0.00000000000E+00 -0.54203494065E+03  0.54203494065E+03  0.25500000920E-02 0. -1.
    10030    2    1    2    0    0  0.00000000000E+00  0.00000000000E+00 -0.16867800889E+03  0.91539187242E+03  0.89971662728E+03 0.  0.
        4    1    3    3  502    0  0.38455848352E+03  0.14973251672E+03 -0.26652818674E+03  0.49126768776E+03  0.12699999809E+01 0. -1.
       -4    1    3    3    0  502 -0.38455848352E+03 -0.14973251672E+03  0.97850177847E+02  0.42412418466E+03  0.12699999809E+01 0.  1.
</event>
<event>
 5   0  0.9321543E-04  0.9003668E+03  0.7818609E-02  0.9425123E-01
       -1   -1    0    0    0  501  0.00000000000E+00  0.00000000000E+00  0.29310728735E+03  0.29310728739E+03  0.50400001928E-02 0. -1.
        1   -1    0    0  501    0  0.00000000000E+00  0.00000000000E+00 -0.69143655744E+03  0.69143655746E+03  0.50400001928E-02 0.  1.
    10030    2    1    2    0    0  0.00000000000E+00  0.00000000000E+00 -0.39832927009E+03  0.98454384485E+03  0.90036680026E+03 0.  0.
        3    1    3    3  502    0  0.37591590643E+02 -0.25748314249E+01  0.29137995463E+03  0.29380613609E+03  0.10100000352E+00 0. -1.
       -3    1    3    3    0  502 -0.37591590643E+02  0.25748314249E+01 -0.68970922472E+03  0.69073770876E+03  0.10100000352E+00 0.  1.
</event>
<event>
 5   0  0.1630202E-03  0.9006632E+03  0.7818609E-02  0.9424753E-01
        2   -1    0    0  501    0  0.00000000000E+00  0.00000000000E+00  0.87902315814E+03  0.87902315814E+03  0.25500000920E-02 0.  1.
       -2   -1    0    0    0  501  0.00000000000E+00  0.00000000000E+00 -0.23070899013E+03  0.23070899014E+03  0.25500000920E-02 0. -1.
    10030    2    1    2    0    0  0.00000000000E+00  0.00000000000E+00  0.64831416801E+03  0.11097321483E+04  0.90066318926E+03 0.  0.
        4    1    3    3  502    0 -0.73924644620E+02  0.47574220242E+02 -0.22003175458E+03  0.23694671434E+03  0.12699999809E+01 0. -1.
       -4    1    3    3    0  502  0.73924644620E+02 -0.47574220242E+02  0.86834592259E+03  0.87278543394E+03  0.12699999809E+01 0.  1.
</event>
<event>
 5   0  0.1704416E-03  0.8998270E+03  0.7818609E-02  0.9425798E-01
       -2   -1    0    0    0  501  0.00000000000E+00  0.00000000000E+00  0.28448501563E+03  0.28448501564E+03  0.25500000920E-02 0.  1.
        2   -1    0    0  501    0  0.00000000000E+00  0.00000000000E+00 -0.71153896915E+03  0.71153896915E+03  0.25500000920E-02 0. -1.
    10030    2    1    2    0    0  0.00000000000E+00  0.00000000000E+00 -0.42705395352E+03  0.99602398479E+03  0.89982703841E+03 0.  0.
        3    1    3    3  502    0  0.43544406088E+03 -0.82817093086E+02 -0.12813031630E+03  0.46139743087E+03  0.10100000352E+00 0.  1.
       -3    1    3    3    0  502 -0.43544406088E+03  0.82817093086E+02 -0.29892363722E+03  0.53462655391E+03  0.10100000352E+00 0. -1.
</event>
<event>
 5   0  0.1641516E-03  0.9029020E+03  0.7818609E-02  0.9421961E-01
       -2   -1    0    0    0  501  0.00000000000E+00  0.00000000000E+00  0.13322218935E+03  0.13322218937E+03  0.25500000920E-02 0.  1.
        2   -1    0    0  501    0  0.00000000000E+00  0.00000000000E+00 -0.15298354041E+04  0.15298354041E+04  0.25500000920E-02 0. -1.
    10030    2    1    2    0    0  0.00000000000E+00  0.00000000000E+00 -0.13966132148E+04  0.16630575935E+04  0.90290203654E+03 0.  0.
        1    1    3    3  502    0 -0.17200252980E+03 -0.41415118730E+03 -0.60256406334E+03  0.75112550659E+03  0.50400001928E-02 0.  1.
       -1    1    3    3    0  502  0.17200252980E+03  0.41415118730E+03 -0.79404915143E+03  0.91193208690E+03  0.50400001928E-02 0. -1.
</event>
<event>
 5   0  0.1630202E-03  0.9020877E+03  0.7818609E-02  0.9422975E-01
       -2   -1    0    0    0  501  0.00000000000E+00  0.00000000000E+00  0.47390226109E+03  0.47390226110E+03  0.25500000920E-02 0.  1.
        2   -1    0    0  501    0  0.00000000000E+00  0.00000000000E+00 -0.42928801248E+03  0.42928801249E+03  0.25500000920E-02 0. -1.
    10030    2    1    2    0    0  0.00000000000E+00  0.00000000000E+00  0.44614248613E+02  0.90319027359E+03  0.90208771143E+03 0.  0.
        4    1    3    3  502    0  0.22395967564E+03 -0.35908578148E+02  0.41264460670E+03  0.47087636024E+03  0.12699999809E+01 0.  1.
       -4    1    3    3    0  502 -0.22395967564E+03  0.35908578148E+02 -0.36803035809E+03  0.43231391334E+03  0.12699999809E+01 0. -1.
</event>
<event>
 5   0  0.9321543E-04  0.9029551E+03  0.7818609E-02  0.9421895E-01
       -1   -1    0    0    0  501  0.00000000000E+00  0.00000000000E+00  0.26949761905E+03  0.26949761910E+03  0.50400001928E-02 0. -1.
        1   -1    0    0  501    0  0.00000000000E+00  0.00000000000E+00 -0.75634049832E+03  0.75634049833E+03  0.50400001928E-02 0.  1.
    10030    2    1    2    0    0  0.00000000000E+00  0.00000000000E+00 -0.48684287926E+03  0.10258381174E+04  0.90295506759E+03 0.  0.
        3    1    3    3  502    0 -0.60244517834E+02  0.11021847769E+03  0.24924671016E+03  0.27910830779E+03  0.10100000352E+00 0. -1.
       -3    1    3    3    0  502  0.60244517834E+02 -0.11021847769E+03 -0.73608958942E+03  0.74672980964E+03  0.10100000352E+00 0.  1.
</event>
<event>
 5   0  0.1704416E-03  0.8999228E+03  0.7818609E-02  0.9425678E-01
       -2   -1    0    0    0  501  0.00000000000E+00  0.00000000000E+00  0.12461504345E+03  0.12461504347E+03  0.25500000920E-02 0.  1.
        2   -1    0    0  501    0  0.00000000000E+00  0.00000000000E+00 -0.16247255877E+04  0.16247255877E+04  0.25500000920E-02 0. -1.
    10030    2    1    2    0    0  0.00000000000E+00  0.00000000000E+00 -0.15001105443E+04  0.17493406312E+04  0.89992277387E+03 0.  0.
        3    1    3    3  502    0 -0.28931045338E+03  0.20355877161E+03 -0.20950136415E+03  0.41112959479E+03  0.10100000352E+00 0.  1.
       -3    1    3    3    0  502  0.28931045338E+03 -0.20355877161E+03 -0.12906091801E+04  0.13382110364E+04  0.10100000352E+00 0. -1.
</event>
<event>
 5   0  0.9223454E-04  0.8999781E+03  0.7818609E-02  0.9425609E-01
        1   -1    0    0  501    0  0.00000000000E+00  0.00000000000E+00  0.18818251527E+04  0.18818251527E+04  0.50400001928E-02 0. -1.
       -1   -1    0    0    0  501  0.00000000000E+00  0.00000000000E+00 -0.10760307184E+03  0.10760307196E+03  0.50400001928E-02 0.  1.
    10030    2    1    2    0    0  0.00000000000E+00  0.00000000000E+00  0.17742220809E+04  0.19894282247E+04  0.89997814913E+03 0.  0.
        1    1    3    3  502    0  0.12784848487E+03  0.10287134116E+03 -0.39104553075E+02  0.16869177222E+03  0.50400001928E-02 0.  1.
       -1    1    3    3    0  502 -0.12784848487E+03 -0.10287134116E+03  0.18133266340E+04  0.18207364525E+04  0.50400001928E-02 0. -1.
</event>
<event>
 5   0  0.1630202E-03  0.9006289E+03  0.7818609E-02  0.9424796E-01
       -2   -1    0    0    0  501  0.00000000000E+00  0.00000000000E+00  0.13314180149E+03  0.13314180152E+03  0.25500000920E-02 0. -1.
        2   -1    0    0  501    0  0.00000000000E+00  0.00000000000E+00 -0.15230611870E+04  0.15230611871E+04  0.25500000920E-02 0.  1.
    10030    2    1    2    0    0  0.00000000000E+00  0.00000000000E+00 -0.13899193856E+04  0.16562029886E+04  0.90062891415E+03 0.  0.
        4    1    3    3  502    0 -0.35995072024E+03  0.25228731341E+01 -0.11925302746E+04  0.12456728924E+04  0.12699999809E+01 0.  1.
       -4    1    3    3    0  502  0.35995072024E+03 -0.25228731341E+01 -0.19738911091E+03  0.41053009621E+03  0.12699999809E+01 0. -1.
</event>
<event>
 5   0  0.1536020E-03  0.8993659E+03  0.7818609E-02  0.9426374E-01
        2   -1    0    0  501    0  0.00000000000E+00  0.00000000000E+00  0.48973012666E+03  0.48973012666E+03  0.25500000920E-02 0.  1.
       -2   -1    0    0    0  501  0.00000000000E+00  0.00000000000E+00 -0.41291059634E+03  0.41291059635E+03  0.25500000920E-02 0. -1.
    10030    2    1    2    0    0  0.00000000000E+00  0.00000000000E+00  0.76819530314E+02  0.90264072301E+03  0.89936590696E+03 0.  0.
        2    1    3    3  502    0  0.30064119996E+03 -0.45317806411E+02  0.37094069995E+03  0.47962051413E+03  0.25500000920E-02 0.  1.
       -2    1    3    3    0  502 -0.30064119996E+03  0.45317806411E+02 -0.29412116963E+03  0.42302020888E+03  0.25500000920E-02 0. -1.
</event>
<event>
 5   0  0.1641516E-03  0.9010798E+03  0.7818609E-02  0.9424233E-01
        2   -1    0    0  501    0  0.00000000000E+00  0.00000000000E+00  0.23376061808E+04  0.23376061808E+04  0.25500000920E-02 0.  1.
       -2   -1    0    0    0  501  0.00000000000E+00  0.00000000000E+00 -0.86835079709E+02  0.86835079747E+02  0.25500000920E-02 0. -1.
    10030    2    1    2    0    0  0.00000000000E+00  0.00000000000E+00  0.22507711011E+04  0.24244412606E+04  0.90107983906E+03 0.  0.
        1    1    3    3  502    0  0.24014138214E+03 -0.16195149797E+03  0.19687652694E+03  0.35022355431E+03  0.50400001928E-02 0. -1.
       -1    1    3    3    0  502 -0.24014138214E+03  0.16195149797E+03  0.20538945742E+04  0.20742177063E+04  0.50400001928E-02 0.  1.
</event>
<event>
 5   0  0.1704416E-03  0.9009548E+03  0.7818609E-02  0.9424389E-01
        2   -1    0    0  501    0  0.00000000000E+00  0.00000000000E+00  0.58830720514E+03  0.58830720515E+03  0.25500000920E-02 0.  1.
       -2   -1    0    0    0  501  0.00000000000E+00  0.00000000000E+00 -0.34493861179E+03  0.34493861180E+03  0.25500000920E-02 0. -1.
    10030    2    1    2    0    0  0.00000000000E+00  0.00000000000E+00  0.24336859336E+03  0.93324581695E+03  0.90095476169E+03 0.  0.
        3    1    3    3  502    0 -0.31960504053E+03  0.14157844184E+03  0.41601266534E+03  0.54337683521E+03  0.10100000352E+00 0.  1.
       -3    1    3    3    0  502  0.31960504053E+03 -0.14157844184E+03 -0.17264407198E+03  0.38986898173E+03  0.10100000352E+00 0. -1.
</event>
<event>
 5   0  0.6375625E-04  0.8985568E+03  0.7818609E-02  0.9427387E-01
       -3   -1    0    0    0  501  0.00000000000E+00  0.00000000000E+00  0.34129013655E+03  0.34129015149E+03  0.10100000352E+00 0. -1.
        3   -1    0    0  501    0  0.00000000000E+00  0.00000000000E+00 -0.59143544771E+03  0.59143545634E+03  0.10100000352E+00 0.  1.
    10030    2    1    2    0    0  0.00000000000E+00  0.00000000000E+00 -0.25014531116E+03  0.93272560783E+03  0.89855683337E+03 0.  0.
        1    1    3    3  502    0 -0.35112030255E+03 -0.19189037703E+03 -0.33715469058E+03  0.52324054608E+03  0.50400001928E-02 0.  1.
       -1    1    3    3    0  502  0.35112030255E+03  0.19189037703E+03  0.87009379418E+02  0.40948506174E+03  0.50400001928E-02 0. -1.
</event>
<event>
 5   0  0.1536020E-03  0.9038775E+03  0.7818609E-02  0.9420747E-01
        2   -1    0    0  501    0  0.00000000000E+00  0.00000000000E+00  0.29974141590E+03  0.29974141591E+03  0.25500000920E-02 0. -1.
       -2   -1    0    0    0  501  0.00000000000E+00  0.00000000000E+00 -0.68141616660E+03  0.68141616660E+03  0.25500000920E-02 0.  1.
    10030    2    1    2    0    0  0.00000000000E+00  0.00000000000E+00 -0.38167475070E+03  0.98115758251E+03  0.90387752842E+03 0.  0.
        2    1    3    3  502    0  0.39261603616E+02 -0.17281382185E+03  0.26045138283E+03  0.31502541701E+03  0.25500000920E-02 0. -1.
       -2    1    3    3    0  502 -0.39261603616E+02  0.17281382185E+03 -0.64212613353E+03  0.66613216549E+03  0.25500000920E-02 0.  1.
</event>
<event>
 5   0  0.1007561E-03  0.9017302E+03  0.7818609E-02  0.9423421E-01
       -1   -1    0    0    0  501  0.00000000000E+00  0.00000000000E+00  0.19057178739E+03  0.19057178746E+03  0.50400001928E-02 0.  1.
        1   -1    0    0  501    0  0.00000000000E+00  0.00000000000E+00 -0.10666811043E+04  0.10666811044E+04  0.50400001928E-02 0. -1.
    10030    2    1    2    0    0  0.00000000000E+00  0.00000000000E+00 -0.87610931695E+03  0.12572528918E+04  0.90173016958E+03 0.  0.
        2    1    3    3  502    0 -0.12579743820E+03  0.23682017389E+03 -0.94340786571E+03  0.98077886973E+03  0.25500000920E-02 0. -1.
       -2    1    3    3    0  502  0.12579743820E+03 -0.23682017389E+03  0.67298548759E+02  0.27647402209E+03  0.25500000920E-02 0.  1.
</event>
<event>
 5   0  0.1007561E-03  0.9033791E+03  0.7818609E-02  0.9421367E-01
       -1   -1    0    0    0  501  0.00000000000E+00  0.00000000000E+00  0.40100652838E+03  0.40100652842E+03  0.50400001928E-02 0.  1.
        1   -1    0    0  501    0  0.00000000000E+00  0.00000000000E+00 -0.50877833686E+03  0.50877833688E+03  0.50400001928E-02 0. -1.
    10030    2    1    2    0    0  0.00000000000E+00  0.00000000000E+00 -0.10777180847E+03  0.90978486530E+03  0.90337906685E+03 0.  0.
        2    1    3    3  502    0 -0.20625475034E+03  0.28384316921E+03 -0.34035940799E+03  0.48882767246E+03  0.25500000920E-02 0. -1.
       -2    1    3    3    0  502  0.20625475034E+03 -0.28384316921E+03  0.23258759951E+03  0.42095719284E+03  0.25500000920E-02 0.  1.
</event>
<event>
 5   0  0.9981885E-04  0.9019371E+03  0.7818609E-02  0.9423163E-01
       -1   -1    0    0    0  501  0.00000000000E+00  0.00000000000E+00  0.45047148717E+03  0.45047148720E+03  0.50400001928E-02 0.  1.
        1   -1    0    0  501    0  0.00000000000E+00  0.00000000000E+00 -0.45146611574E+03  0.45146611576E+03  0.50400001928E-02 0. -1.
    10030    2    1    2    0    0  0.00000000000E+00  0.00000000000E+00 -0.99462856118E+00  0.90193760297E+03  0.90193705454E+03 0.  0.
        4    1    3    3  502    0  0.14493055354E+03  0.38403402569E+03 -0.18727002074E+03  0.45117476858E+03  0.12699999809E+01 0. -1.
       -4    1    3    3    0  502 -0.14493055354E+03 -0.38403402569E+03  0.18627539218E+03  0.45076283439E+03  0.12699999809E+01 0.  1.
</event>
<event>
 5   0  0.9697941E-04  0.8991734E+03  0.7818609E-02  0.9426615E-01
        1   -1    0    0  501    0  0.00000000000E+00  0.00000000000E+00  0.68576600609E+03  0.68576600611E+03  0.50400001928E-02 0.  1.
       -1   -1    0    0    0  501  0.00000000000E+00  0.00000000000E+00 -0.29474804413E+03  0.29474804418E+03  0.50400001928E-02 0. -1.
    10030    2    1    2    0    0  0.00000000000E+00  0.00000000000E+00  0.39101796196E+03  0.98051405028E+03  0.89917337384E+03 0.  0.
        5    1    3    3  502    0 -0.41185861299E+03  0.16502052521E+03  0.27449641005E+03  0.52175632240E+03  0.46999998093E+01 0.  1.
       -5    1    3    3    0  502  0.41185861299E+03 -0.16502052521E+03  0.11652155191E+03  0.45875772788E+03  0.46999998093E+01 0. -1.
</event>
<event>
 5   0  0.9697941E-04  0.9000243E+03  0.7818609E-02  0.9425551E-01
        1   -1    0    0  501    0  0.00000000000E+00  0.00000000000E+00  0.66266786260E+03  0.66266786262E+03  0.50400001928E-02 0.  1.
       -1   -1    0    0    0  501  0.00000000000E+00  0.00000000000E+00 -0.30559941905E+03  0.30559941910E+03  0.50400001928E-02 0. -1.
    10030    2    1    2    0    0  0.00000000000E+00  0.00000000000E+00  0.35706844354E+03  0.96826728171E+03  0.90002425271E+03 0.  0.
        5    1    3    3  502    0 -0.13027960460E+03  0.30582091667E+03  0.50482924231E+03  0.60446163016E+03  0.46999998093E+01 0.  1.
       -5    1    3    3    0  502  0.13027960460E+03 -0.30582091667E+03 -0.14776079877E+03  0.36380565155E+03  0.46999998093E+01 0. -1.
</event>
<event>
 5   0  0.1704416E-03  0.8984706E+03  0.7818609E-02  0.9427495E-01
        2   -1    0    0  501    0  0.00000000000E+00  0.00000000000E+00  0.67804072575E+03  0.67804072575E+03  0.25500000920E-02 0. -1.
       -2   -1    0    0    0  501  0.00000000000E+00  0.00000000000E+00 -0.29764046294E+03  0.29764046295E+03  0.25500000920E-02 0.  1.
    10030    2    1    2    0    0  0.00000000000E+00  0.00000000000E+00  0.38040026281E+03  0.97568118870E+03  0.89847060165E+03 0.  0.
        3    1    3    3  502    0  0.21581241982E+03 -0.16057072043E+02 -0.23730487935E+03  0.32116420423E+03  0.10100000352E+00 0.  1.
       -3    1    3    3    0  502 -0.21581241982E+03  0.16057072043E+02  0.61770514216E+03  0.65451698447E+03  0.10100000352E+00 0. -1.
</event>
<event>
 5   0  0.1704416E-03  0.9008043E+03  0.7818609E-02  0.9424577E-01
        2   -1    0    0  501    0  0.00000000000E+00  0.00000000000E+00  0.11423990352E+04  0.11423990352E+04  0.25500000920E-02 0. -1.
       -2   -1    0    0    0  501  0.00000000000E+00  0.00000000000E+00 -0.17757552217E+03  0.17757552218E+03  0.25500000920E-02 0.  1.
    10030    2    1    2    0    0  0.00000000000E+00  0.00000000000E+00  0.96482351300E+03  0.13199745573E+04  0.90080431883E+03 0.  0.
        3    1    3    3  502    0  0.16937464383E+03 -0.46709507186E+02 -0.12528919233E+03  0.21579374400E+03  0.10100000352E+00 0.  1.
       -3    1    3    3    0  502 -0.16937464383E+03  0.46709507186E+02  0.10901127053E+04  0.11041808133E+04  0.10100000352E+00 0. -1.
</event>
<event>
 5   0  0.9697941E-04  0.8962672E+03  0.7818609E-02  0.9430260E-01
        1   -1    0    0  501    0  0.00000000000E+00  0.00000000000E+00  0.88594300549E+03  0.88594300551E+03  0.50400001928E-02 0.  1.
       -1   -1    0    0    0  501  0.00000000000E+00  0.00000000000E+00 -0.22667794487E+03  0.22667794492E+03  0.50400001928E-02 0. -1.
    10030    2    1    2    0    0  0.00000000000E+00  0.00000000000E+00  0.65926506062E+03  0.11126209504E+04  0.89626723648E+03 0.  0.
        5    1    3    3  502    0  0.44416115183E+03 -0.28361520402E+02  0.26491140863E+03  0.51796104975E+03  0.46999998093E+01 0. -1.
       -5    1    3    3    0  502 -0.44416115183E+03  0.28361520402E+02  0.39435365199E+03  0.59465990068E+03  0.46999998093E+01 0.  1.
</event>
<event>
 5   0  0.1641516E-03  0.9001356E+03  0.7818609E-02  0.9425412E-01
        2   -1    0    0  501    0  0.00000000000E+00  0.00000000000E+00  0.96643236729E+03  0.96643236729E+03  0.25500000920E-02 0. -1.
       -2   -1    0    0    0  501  0.00000000000E+00  0.00000000000E+00 -0.20959669733E+03  0.20959669735E+03  0.25500000920E-02 0.  1.
    10030    2    1    2    0    0  0.00000000000E+00  0.00000000000E+00  0.75683566996E+03  0.11760290646E+04  0.90013561731E+03 0.  0.
        1    1    3    3  502    0 -0.31916841295E+03  0.19723850330E+03  0.53654081485E+02  0.37901222077E+03  0.50400001928E-02 0.  1.
       -1    1    3    3    0  502  0.31916841295E+03 -0.19723850330E+03  0.70318158848E+03  0.79701684387E+03  0.50400001928E-02 0. -1.
</event>
<event>
 5   0  0.1007561E-03  0.8997614E+03  0.7818609E-02  0.9425880E-01
        1   -1    0    0  501    0  0.00000000000E+00  0.00000000000E+00  0.68544555383E+03  0.68544555384E+03  0.50400001928E-02 0.  1.
       -1   -1    0    0    0  501  0.00000000000E+00  0.00000000000E+00 -0.29527164863E+03  0.29527164868E+03  0.50400001928E-02 0. -1.
    10030    2    1    2    0    0  0.00000000000E+00  0.00000000000E+00  0.39017390519E+03  0.98071720252E+03  0.89976138783E+03 0.  0.
        2    1    3    3  502    0  0.68839148493E+02 -0.40178954234E+03  0.40252313601E+03  0.57288614901E+03  0.25500000920E-02 0.  1.
       -2    1    3    3    0  502 -0.68839148493E+02  0.40178954234E+03 -0.12349230815E+02  0.40783105351E+03  0.25500000920E-02 0. -1.
</event>
<event>
 5   0  0.1704416E-03  0.8999132E+03  0.7818609E-02  0.9425690E-01
       -2   -1    0    0    0  501  0.00000000000E+00  0.00000000000E+00  0.49390403317E+03  0.49390403318E+03  0.25500000920E-02 0.  1.
        2   -1    0    0  501    0  0.00000000000E+00  0.00000000000E+00 -0.40991963859E+03  0.40991963859E+03  0.25500000920E-02 0. -1.
    10030    2    1    2    0    0  0.00000000000E+00  0.00000000000E+00  0.83984394588E+02  0.90382367177E+03  0.89991324644E+03 0.  0.
        3    1    3    3  502    0  0.24833562300E+03  0.90470813728E+02 -0.32374040540E+03  0.41792751773E+03  0.10100000352E+00 0. -1.
       -3    1    3    3    0  502 -0.24833562300E+03 -0.90470813728E+02  0.40772479999E+03  0.48589615404E+03  0.10100000352E+00 0.  1.
</event>
<event>
 5   0  0.1630202E-03  0.9002154E+03  0.7818609E-02  0.9425312E-01
        2   -1    0    0  501    0  0.00000000000E+00  0.00000000000E+00  0.10030586253E+04  0.10030586253E+04  0.25500000920E-02 0. -1.
       -2   -1    0    0    0  501  0.00000000000E+00  0.00000000000E+00 -0.20197917936E+03  0.20197917937E+03  0.25500000920E-02 0.  1.
    10030    2    1    2    0    0  0.00000000000E+00  0.00000000000E+00  0.80107944591E+03  0.12050378046E+04  0.90021543642E+03 0.  0.
        4    1    3    3  502    0  0.93241130235E+01  0.31918789046E+03  0.82517155788E+03  0.88480368519E+03  0.12699999809E+01 0. -1.
       -4    1    3    3    0  502 -0.93241130235E+01 -0.31918789046E+03 -0.24092111968E+02  0.32023411945E+03  0.12699999809E+01 0.  1.
</event>
<event>
 5   0  0.1635686E-03  0.9003376E+03  0.7818609E-02  0.9425159E-01
        2   -1    0    0  501    0  0.00000000000E+00  0.00000000000E+00  0.50177911682E+03  0.50177911682E+03  0.25500000920E-02 0.  1.
       -2   -1    0    0    0  501  0.00000000000E+00  0.00000000000E+00 -0.40386686976E+03  0.40386686977E+03  0.25500000920E-02 0. -1.
    10030    2    1    2    0    0  0.00000000000E+00  0.00000000000E+00  0.97912247057E+02  0.90564598659E+03  0.90033762829E+03 0.  0.
        5    1    3    3  502    0  0.30163892722E+03  0.33252996755E+03  0.81823679791E+02  0.45637640858E+03  0.46999998093E+01 0.  1.
       -5    1    3    3    0  502 -0.30163892722E+03 -0.33252996755E+03  0.16088567266E+02  0.44926957801E+03  0.46999998093E+01 0. -1.
</event>
<event>
 5   0  0.9223454E-04  0.8958870E+03  0.7818609E-02  0.9430737E-01
        1   -1    0    0  501    0  0.00000000000E+00  0.00000000000E+00  0.65352779570E+03  0.65352779572E+03  0.50400001928E-02 0. -1.
       -1   -1    0    0    0  501  0.00000000000E+00  0.00000000000E+00 -0.30703115255E+03  0.30703115259E+03  0.50400001928E-02 0.  1.
    10030    2    1    2    0    0  0.00000000000E+00  0.00000000000E+00  0.34649664315E+03  0.96055894831E+03  0.89588702941E+03 0.  0.
        1    1    3    3  502    0  0.19191773397E+02  0.52606101400E+02 -0.30326357314E+03  0.30839020881E+03  0.50400001928E-02 0.  1.
       -1    1    3    3    0  502 -0.19191773397E+02 -0.52606101400E+02  0.64976021629E+03  0.65216873949E+03  0.50400001928E-02 0. -1.
</event>
<event>
 5   0  0.9321543E-04  0.9034896E+03  0.7818609E-02  0.9421230E-01
       -1   -1    0    0    0  501  0.00000000000E+00  0.00000000000E+00  0.25589143214E+03  0.25589143219E+03  0.50400001928E-02 0. -1.
        1   -1    0    0  501    0  0.00000000000E+00  0.00000000000E+00 -0.79749972502E+03  0.79749972503E+03  0.50400001928E-02 0.  1.
    10030    2    1    2    0    0  0.00000000000E+00  0.00000000000E+00 -0.54160829288E+03  0.10533911572E+04  0.90348956121E+03 0.  0.
        3    1    3    3  502    0  0.72019942093E+02  0.11397724036E+03 -0.77349518896E+03  0.78515762808E+03  0.10100000352E+00 0.  1.
       -3    1    3    3    0  502 -0.72019942093E+02 -0.11397724036E+03  0.23188689609E+03  0.26823352915E+03  0.10100000352E+00 0. -1.
</event>
<event>
 5   0  0.9981885E-04  0.9019704E+03  0.7818609E-02  0.9423122E-01
       -1   -1    0    0    0  501  0.00000000000E+00  0.00000000000E+00  0.30521518933E+03  0.30521518938E+03  0.50400001928E-02 0.  1.
        1   -1    0    0  501    0  0.00000000000E+00  0.00000000000E+00 -0.66637457767E+03  0.66637457769E+03  0.50400001928E-02 0. -1.
    10030    2    1    2    0    0  0.00000000000E+00  0.00000000000E+00 -0.36115938833E+03  0.97158976706E+03  0.90197038293E+03 0.  0.
        4    1    3    3  502    0 -0.39879247740E+03  0.17175712764E+03 -0.31184653648E+03  0.53458939958E+03  0.12699999809E+01 0. -1.
       -4    1    3    3    0  502  0.39879247740E+03 -0.17175712764E+03 -0.49312851851E+02  0.43700036749E+03  0.12699999809E+01 0.  1.
</event>
<event>
 5   0  0.9697941E-04  0.8999194E+03  0.7818609E-02  0.9425682E-01
       -1   -1    0    0    0  501  0.00000000000E+00  0.00000000000E+00  0.40085136714E+03  0.40085136717E+03  0.50400001928E-02 0.  1.
        1   -1    0    0  501    0  0.00000000000E+00  0.00000000000E+00 -0.50508434256E+03  0.50508434259E+03  0.50400001928E-02 0. -1.
    10030    2    1    2    0    0  0.00000000000E+00  0.00000000000E+00 -0.10423297542E+03  0.90593570976E+03  0.89991943920E+03 0.  0.
        5    1    3    3  502    0 -0.38415946764E+02 -0.35098168932E+03 -0.33286752672E+03  0.48526983375E+03  0.46999998093E+01 0. -1.
       -5    1    3    3    0  502  0.38415946764E+02  0.35098168932E+03  0.22863455129E+03  0.42066587602E+03  0.46999998093E+01 0.  1.
</event>
<event>
 5   0  0.1704416E-03  0.8960539E+03  0.7818609E-02  0.9430528E-01
        2   -1    0    0  501    0  0.00000000000E+00  0.00000000000E+00  0.78296926013E+03  0.78296926013E+03  0.25500000920E-02 0.  1.
       -2   -1    0    0    0  501  0.00000000000E+00  0.00000000000E+00 -0.25636786718E+03  0.25636786719E+03  0.25500000920E-02 0. -1.
    10030    2    1    2    0    0  0.00000000000E+00  0.00000000000E+00  0.52660139295E+03  0.10393371273E+04  0.89605392537E+03 0.  0.
        3    1    3    3  502    0  0.16518960993E+03 -0.18011694644E+03  0.69884208297E+03  0.74034450680E+03  0.10100000352E+00 0.  1.
       -3    1    3    3    0  502 -0.16518960993E+03  0.18011694644E+03 -0.17224069002E+03  0.29899262052E+03  0.10100000352E+00 0. -1.
</event>
<event>
 5   0  0.1007561E-03  0.8750828E+03  0.7818609E-02  0.9457277E-01
        1   -1    0    0  501    0  0.00000000000E+00  0.00000000000E+00  0.50990890966E+03  0.50990890969E+03  0.50400001928E-02 0.  1.
       -1   -1    0    0    0  501  0.00000000000E+00  0.00000000000E+00 -0.37544442342E+03  0.37544442346E+03  0.50400001928E-02 0. -1.
    10030    2    1    2    0    0  0.00000000000E+00  0.00000000000E+00  0.13446448624E+03  0.88535333314E+03  0.87508275406E+03 0.  0.
        2    1    3    3  502    0  0.40333984504E+03 -0.15398405634E+03 -0.46533143468E+01  0.43175892990E+03  0.25500000920E-02 0.  1.
       -2    1    3    3    0  502 -0.40333984504E+03  0.15398405634E+03  0.13911780058E+03  0.45359440324E+03  0.25500000920E-02 0. -1.
</event>
<event>
 5   0  0.9981885E-04  0.9003158E+03  0.7818609E-02  0.9425187E-01
        1   -1    0    0  501    0  0.00000000000E+00  0.00000000000E+00  0.28493219187E+03  0.28493219191E+03  0.50400001928E-02 0.  1.
       -1   -1    0    0    0  501  0.00000000000E+00  0.00000000000E+00 -0.71119429075E+03  0.71119429077E+03  0.50400001928E-02 0. -1.
    10030    2    1    2    0    0  0.00000000000E+00  0.00000000000E+00 -0.42626209889E+03  0.99612648268E+03  0.90031582934E+03 0.  0.
        4    1    3    3  502    0  0.26191634587E+03  0.19802046780E+03 -0.55384387730E+03  0.64386095644E+03  0.12699999809E+01 0. -1.
       -4    1    3    3    0  502 -0.26191634587E+03 -0.19802046780E+03  0.12758177842E+03  0.35226552625E+03  0.12699999809E+01 0.  1.
</event>
<event>
 5   0  0.9321543E-04  0.9043811E+03  0.7818609E-02  0.9420121E-01
        1   -1    0    0  501    0  0.00000000000E+00  0.00000000000E+00  0.43093351909E+03  0.43093351912E+03  0.50400001928E-02 0. -1.
       -1   -1    0    0    0  501  0.00000000000E+00  0.00000000000E+00 -0.47449614323E+03  0.47449614326E+03  0.50400001928E-02 0.  1.
    10030    2    1    2    0    0  0.00000000000E+00  0.00000000000E+00 -0.43562624147E+02  0.90542966237E+03  0.90438109848E+03 0.  0.
        3    1    3    3  502    0 -0.33138124777E+03 -0.26767955942E+03 -0.17364899599E+03  0.46002158853E+03  0.10100000352E+00 0.  1.
       -3    1    3    3    0  502  0.33138124777E+03  0.26767955942E+03  0.13008637184E+03  0.44540807384E+03  0.10100000352E+00 0. -1.
</event>
<event>
 5   0  0.9981885E-04  0.9005623E+03  0.7818609E-02  0.9424879E-01
       -1   -1    0    0    0  501  0.00000000000E+00  0.00000000000E+00  0.42602299856E+03  0.42602299859E+03  0.50400001928E-02 0.  1.
        1   -1    0    0  501    0  0.00000000000E+00  0.00000000000E+00 -0.47592054990E+03  0.47592054993E+03  0.50400001928E-02 0. -1.
    10030    2    1    2    0    0  0.00000000000E+00  0.00000000000E+00 -0.49897551341E+02  0.90194354852E+03  0.90056226830E+03 0.  0.
        4    1    3    3  502    0 -0.32266633387E+03  0.92875187684E+02 -0.32542915088E+03  0.46759502632E+03  0.12699999809E+01 0. -1.
       -4    1    3    3    0  502  0.32266633387E+03 -0.92875187684E+02  0.27553159953E+03  0.43434852220E+03  0.12699999809E+01 0.  1.
</event>
<event>
 5   0  0.1536020E-03  0.9022731E+03  0.7818609E-02  0.9422744E-01
       -2   -1    0    0    0  501  0.00000000000E+00  0.00000000000E+00  0.25021339326E+03  0.25021339327E+03  0.25500000920E-02 0.  1.
        2   -1    0    0  501    0  0.00000000000E+00  0.00000000000E+00 -0.81340246042E+03  0.81340246042E+03  0.25500000920E-02 0. -1.
    10030    2    1    2    0    0  0.00000000000E+00  0.00000000000E+00 -0.56318906716E+03  0.10636158537E+04  0.90227310658E+03 0.  0.
        2    1    3    3  502    0  0.18210743140E+03  0.24083721895E+03  0.11354435075E+03  0.32258022599E+03  0.25500000920E-02 0.  1.
       -2    1    3    3    0  502 -0.18210743140E+03 -0.24083721895E+03 -0.67673341791E+03  0.74103562770E+03  0.25500000920E-02 0. -1.
</event>
<event>
 5   0  0.1635686E-03  0.9002581E+03  0.7818609E-02  0.9425259E-01
        2   -1    0    0  501    0  0.00000000000E+00  0.00000000000E+00  0.33987260314E+03  0.33987260314E+03  0.25500000920E-02 0.  1.
       -2   -1    0    0    0  501  0.00000000000E+00  0.00000000000E+00 -0.59615330168E+03  0.59615330168E+03  0.25500000920E-02 0. -1.
    10030    2    1    2    0    0  0.00000000000E+00  0.00000000000E+00 -0.25628069854E+03  0.93602590483E+03  0.90025812857E+03 0.  0.
        5    1    3    3  502    0 -0.42638501279E+03 -0.76672650648E+02 -0.11773245160E+01  0.43325090950E+03  0.46999998093E+01 0.  1.
       -5    1    3    3    0  502  0.42638501279E+03  0.76672650648E+02 -0.25510337402E+03  0.50277499533E+03  0.46999998093E+01 0. -1.
</event>
<event>
 5   0  0.1704416E-03  0.9018145E+03  0.7818609E-02  0.9423316E-01
       -2   -1    0    0    0  501  0.00000000000E+00  0.00000000000E+00  0.19279658148E+03  0.19279658150E+03  0.25500000920E-02 0. -1.
        2   -1    0    0  501    0  0.00000000000E+00  0.00000000000E+00 -0.10545691769E+04  0.10545691769E+04  0.25500000920E-02 0.  1.
    10030    2    1    2    0    0  0.00000000000E+00  0.00000000000E+00 -0.86177259538E+03  0.12473657584E+04  0.90181446483E+03 0.  0.
        3    1    3    3  502    0  0.35356022319E+03  0.13400885840E+03 -0.91081059457E+02  0.38892026836E+03  0.10100000352E+00 0. -1.
       -3    1    3    3    0  502 -0.35356022319E+03 -0.13400885840E+03 -0.77069153592E+03  0.85844549000E+03  0.10100000352E+00 0.  1.
</event>
<event>
 5   0  0.1635686E-03  0.9001045E+03  0.7818609E-02  0.9425451E-01
        2   -1    0    0  501    0  0.00000000000E+00  0.00000000000E+00  0.32543301048E+03  0.32543301049E+03  0.25500000920E-02 0. -1.
       -2   -1    0    0    0  501  0.00000000000E+00  0.00000000000E+00 -0.62239236880E+03  0.62239236880E+03  0.25500000920E-02 0.  1.
    10030    2    1    2    0    0  0.00000000000E+00  0.00000000000E+00 -0.29695935831E+03  0.94782537930E+03  0.90010448791E+03 0.  0.
        5    1    3    3  502    0  0.33677093606E+03  0.21727596685E+03 -0.36403055560E+03  0.54144606800E+03  0.46999998093E+01 0.  1.
       -5    1    3    3    0  502 -0.33677093606E+03 -0.21727596685E+03  0.67071197283E+02  0.40637931130E+03  0.46999998093E+01 0. -1.
</event>
<event>
 5   0  0.9981885E-04  0.8999689E+03  0.7818609E-02  0.9425620E-01
        1   -1    0    0  501    0  0.00000000000E+00  0.00000000000E+00  0.48070794659E+03  0.48070794661E+03  0.50400001928E-02 0.  1.
       -1   -1    0    0    0  501  0.00000000000E+00  0.00000000000E+00 -0.42122454176E+03  0.42122454179E+03  0.50400001928E-02 0. -1.
    10030    2    1    2    0    0  0.00000000000E+00  0.00000000000E+00  0.59483404826E+02  0.90193248841E+03  0.89996885401E+03 0.  0.
        4    1    3    3  502    0 -0.41321304265E+03  0.74920309578E+02 -0.13224729144E+03  0.44028289814E+03  0.12699999809E+01 0. -1.
       -4    1    3    3    0  502  0.41321304265E+03 -0.74920309578E+02  0.19173069627E+03  0.46164959027E+03  0.12699999809E+01 0.  1.
</event>
<event>
 5   0  0.9321543E-04  0.9261229E+03  0.7818609E-02  0.9393503E-01
        1   -1    0    0  501    0  0.00000000000E+00  0.00000000000E+00  0.98277127101E+03  0.98277127102E+03  0.50400001928E-02 0. -1.
       -1   -1    0    0    0  501  0.00000000000E+00  0.00000000000E+00 -0.21818496001E+03  0.21818496007E+03  0.50400001928E-02 0.  1.
    10030    2    1    2    0    0  0.00000000000E+00  0.00000000000E+00  0.76458631100E+03  0.12009562311E+04  0.92612290870E+03 0.  0.
        3    1    3    3  502    0 -0.25339725599E+03  0.14241704067E+03 -0.85138889176E+02  0.30288846704E+03  0.10100000352E+00 0.  1.
       -3    1    3    3    0  502  0.25339725599E+03 -0.14241704067E+03  0.84972520018E+03  0.89806776405E+03  0.10100000352E+00 0. -1.
</event>
<event>
 5   0  0.9321543E-04  0.9019888E+03  0.7818609E-02  0.9423099E-01
        1   -1    0    0  501    0  0.00000000000E+00  0.00000000000E+00  0.40242506723E+03  0.40242506727E+03  0.50400001928E-02 0.  1.
       -1   -1    0    0    0  501  0.00000000000E+00  0.00000000000E+00 -0.50542567427E+03  0.50542567429E+03  0.50400001928E-02 0. -1.
    10030    2    1    2    0    0  0.00000000000E+00  0.00000000000E+00 -0.10300060703E+03  0.90785074156E+03  0.90198882693E+03 0.  0.
        3    1    3    3  502    0  0.84201507827E+02  0.13696529402E+03  0.37260082887E+03  0.40580878941E+03  0.10100000352E+00 0.  1.
       -3    1    3    3    0  502 -0.84201507827E+02 -0.13696529402E+03 -0.47560143590E+03  0.50204195215E+03  0.10100000352E+00 0. -1.
</event>
<event>
 5   0  0.9697941E-04  0.8987574E+03  0.7818609E-02  0.9427136E-01
        1   -1    0    0  501    0  0.00000000000E+00  0.00000000000E+00  0.15314208884E+04  0.15314208884E+04  0.50400001928E-02 0. -1.
       -1   -1    0    0    0  501  0.00000000000E+00  0.00000000000E+00 -0.13186524890E+03  0.13186524899E+03  0.50400001928E-02 0.  1.
    10030    2    1    2    0    0  0.00000000000E+00  0.00000000000E+00  0.13995556395E+04  0.16632861374E+04  0.89875735702E+03 0.  0.
        5    1    3    3  502    0  0.31308235438E+03  0.12263981698E+03  0.12514395138E+04  0.12958333349E+04  0.46999998093E+01 0. -1.
       -5    1    3    3    0  502 -0.31308235438E+03 -0.12263981698E+03  0.14811612573E+03  0.36745280245E+03  0.46999998093E+01 0.  1.
</event>
<event>
 5   0  0.1536020E-03  0.8993942E+03  0.7818609E-02  0.9426339E-01
        2   -1    0    0  501    0  0.00000000000E+00  0.00000000000E+00  0.17412580270E+04  0.17412580270E+04  0.25500000920E-02 0. -1.
       -2   -1    0    0    0  501  0.00000000000E+00  0.00000000000E+00 -0.11613871856E+03  0.11613871858E+03  0.25500000920E-02 0.  1.
    10030    2    1    2    0    0  0.00000000000E+00  0.00000000000E+00  0.16251193084E+04  0.18573967456E+04  0.89939418712E+03 0.  0.
        2    1    3    3  502    0 -0.90805695201E+02  0.38907931623E+03  0.38631911620E+03  0.55576150294E+03  0.25500000920E-02 0.  1.
       -2    1    3    3    0  502  0.90805695201E+02 -0.38907931623E+03  0.12388001922E+04  0.13016352426E+04  0.25500000920E-02 0. -1.
</event>
<event>
 5   0  0.1704416E-03  0.8997548E+03  0.7818609E-02  0.9425888E-01
       -2   -1    0    0    0  501  0.00000000000E+00  0.00000000000E+00  0.12044939447E+03  0.12044939450E+03  0.25500000920E-02 0.  1.
        2   -1    0    0  501    0  0.00000000000E+00  0.00000000000E+00 -0.16802879204E+04  0.16802879204E+04  0.25500000920E-02 0. -1.
    10030    2    1    2    0    0  0.00000000000E+00  0.00000000000E+00 -0.15598385259E+04  0.18007373149E+04  0.89975477233E+03 0.  0.
        3    1    3    3  502    0 -0.42693484825E+03 -0.14173100910E+03 -0.79062399863E+03  0.90964133646E+03  0.10100000352E+00 0. -1.
       -3    1    3    3    0  502  0.42693484825E+03  0.14173100910E+03 -0.76921452731E+03  0.89109597846E+03  0.10100000352E+00 0.  1.
</event>
<event>
 5   0  0.1704416E-03  0.8891984E+03  0.7818609E-02  0.9439186E-01
       -2   -1    0    0    0  501  0.00000000000E+00  0.00000000000E+00  0.16466853234E+03  0.16466853236E+03  0.25500000920E-02 0. -1.
        2   -1    0    0  501    0  0.00000000000E+00  0.00000000000E+00 -0.12004020156E+04  0.12004020156E+04  0.25500000920E-02 0.  1.
    10030    2    1    2    0    0  0.00000000000E+00  0.00000000000E+00 -0.10357334832E+04  0.13650705479E+04  0.88919837637E+03 0.  0.
        3    1    3    3  502    0 -0.20466284159E+03 -0.18251860801E+03 -0.10551071211E+04  0.10901609827E+04  0.10100000352E+00 0.  1.
       -3    1    3    3    0  502  0.20466284159E+03  0.18251860801E+03  0.19373637898E+02  0.27490956521E+03  0.10100000352E+00 0. -1.
</event>
<event>
 5   0  0.1007561E-03  0.8972199E+03  0.7818609E-02  0.9429063E-01
        1   -1    0    0  501    0  0.00000000000E+00  0.00000000000E+00  0.36493157030E+03  0.36493157033E+03  0.50400001928E-02 0. -1.
       -1   -1    0    0    0  501  0.00000000000E+00  0.00000000000E+00 -0.55147573649E+03  0.55147573651E+03  0.50400001928E-02 0.  1.
    10030    2    1    2    0    0  0.00000000000E+00  0.00000000000E+00 -0.18654416619E+03  0.91640730684E+03  0.89721994299E+03 0.  0.
        2    1    3    3  502    0 -0.46149511873E+02  0.27907518318E+03  0.26236686199E+03  0.38580967535E+03  0.25500000920E-02 0. -1.
       -2    1    3    3    0  502  0.46149511873E+02 -0.27907518318E+03 -0.44891102819E+03  0.53059763149E+03  0.25500000920E-02 0.  1.
</event>
<event>
 5   0  0.1630202E-03  0.9012961E+03  0.7818609E-02  0.9423963E-01
       -2   -1    0    0    0  501  0.00000000000E+00  0.00000000000E+00  0.14717692572E+03  0.14717692575E+03  0.25500000920E-02 0. -1.
        2   -1    0    0  501    0  0.00000000000E+00  0.00000000000E+00 -0.13798609053E+04  0.13798609053E+04  0.25500000920E-02 0.  1.
    10030    2    1    2    0    0  0.00000000000E+00  0.00000000000E+00 -0.12326839796E+04  0.15270378310E+04  0.90129614664E+03 0.  0.
        4    1    3    3  502    0  0.12207518299E+03  0.40874842531E+03 -0.37020931199E+03  0.56483110138E+03  0.12699999809E+01 0.  1.
       -4    1    3    3    0  502 -0.12207518299E+03 -0.40874842531E+03 -0.86247466757E+03  0.96220672966E+03  0.12699999809E+01 0. -1.
</event>
<event>
 5   0  0.1704416E-03  0.8984451E+03  0.7818609E-02  0.9427527E-01
       -2   -1    0    0    0  501  0.00000000000E+00  0.00000000000E+00  0.11483169802E+03  0.11483169805E+03  0.25500000920E-02 0.  1.
        2   -1    0    0  501    0  0.00000000000E+00  0.00000000000E+00 -0.17573621727E+04  0.17573621727E+04  0.25500000920E-02 0. -1.
    10030    2    1    2    0    0  0.00000000000E+00  0.00000000000E+00 -0.16425304746E+04  0.18721938707E+04  0.89844506198E+03 0.  0.
        3    1    3    3  502    0  0.26873542933E+03 -0.10033924653E+03 -0.15416574429E+04  0.15681181004E+04  0.10100000352E+00 0. -1.
       -3    1    3    3    0  502 -0.26873542933E+03  0.10033924653E+03 -0.10087303179E+03  0.30407577035E+03  0.10100000352E+00 0.  1.
</event>
<event>
 5   0  0.1704416E-03  0.8959826E+03  0.7818609E-02  0.9430617E-01
        2   -1    0    0  501    0  0.00000000000E+00  0.00000000000E+00  0.10939487286E+04  0.10939487286E+04  0.25500000920E-02 0.  1.
       -2   -1    0    0    0  501  0.00000000000E+00  0.00000000000E+00 -0.18346032548E+03  0.18346032550E+03  0.25500000920E-02 0. -1.
    10030    2    1    2    0    0  0.00000000000E+00  0.00000000000E+00  0.91048840317E+03  0.12774090541E+04  0.89598256641E+03 0.  0.
        3    1    3    3  502    0  0.41782307337E+03  0.12588743314E+03  0.31074459324E+03  0.53571072315E+03  0.10100000352E+00 0.  1.
       -3    1    3    3    0  502 -0.41782307337E+03 -0.12588743314E+03  0.59974380992E+03  0.74169833100E+03  0.10100000352E+00 0. -1.
</event>
<event>
 5   0  0.6375625E-04  0.8998869E+03  0.7818609E-02  0.9425723E-01
       -3   -1    0    0    0  501  0.00000000000E+00  0.00000000000E+00  0.87556049671E+03  0.87556050254E+03  0.10100000352E+00 0.  1.
        3   -1    0    0  501    0  0.00000000000E+00  0.00000000000E+00 -0.23122226307E+03  0.23122228513E+03  0.10100000352E+00 0. -1.
    10030    2    1    2    0    0  0.00000000000E+00  0.00000000000E+00  0.64433823365E+03  0.11067827877E+04  0.89988687052E+03 0.  0.
        3    1    3    3  502    0 -0.28580446534E+03 -0.12845295234E+02  0.74928717971E+03  0.80204768057E+03  0.10100000352E+00 0.  1.
       -3    1    3    3    0  502  0.28580446534E+03  0.12845295234E+02 -0.10494894607E+03  0.30473510710E+03  0.10100000352E+00 0. -1.
</event>
<event>
 5   0  0.1704416E-03  0.8961504E+03  0.7818609E-02  0.9430406E-01
       -2   -1    0    0    0  501  0.00000000000E+00  0.00000000000E+00  0.47285317358E+03  0.47285317358E+03  0.25500000920E-02 0.  1.
        2   -1    0    0  501    0  0.00000000000E+00  0.00000000000E+00 -0.42459565629E+03  0.42459565630E+03  0.25500000920E-02 0. -1.
    10030    2    1    2    0    0  0.00000000000E+00  0.00000000000E+00  0.48257517287E+02  0.89744882988E+03  0.89615044177E+03 0.  0.
        3    1    3    3  502    0 -0.62388365374E+02 -0.21090509560E+03  0.41507638944E+03  0.46974640686E+03  0.10100000352E+00 0.  1.
       -3    1    3    3    0  502  0.62388365374E+02  0.21090509560E+03 -0.36681887216E+03  0.42770242302E+03  0.10100000352E+00 0. -1.
</event>
<event>
 5   0  0.1635686E-03  0.8990252E+03  0.7818609E-02  0.9426801E-01
       -2   -1    0    0    0  501  0.00000000000E+00  0.00000000000E+00  0.11450207321E+03  0.11450207324E+03  0.25500000920E-02 0. -1.
        2   -1    0    0  501    0  0.00000000000E+00  0.00000000000E+00 -0.17646980956E+04  0.17646980956E+04  0.25500000920E-02 0.  1.
    10030    2    1    2    0    0  0.00000000000E+00  0.00000000000E+00 -0.16501960223E+04  0.18792001688E+04  0.89902522894E+03 0.  0.
        5    1    3    3  502    0  0.26776833866E+03  0.34116427144E+03 -0.57824713630E+03  0.72283108949E+03  0.46999998093E+01 0. -1.
       -5    1    3    3    0  502 -0.26776833866E+03 -0.34116427144E+03 -0.10719488860E+04  0.11563690793E+04  0.46999998093E+01 0.  1.
</event>
<event>
 5   0  0.9321543E-04  0.9017376E+03  0.7818609E-02  0.9423412E-01
       -1   -1    0    0    0  501  0.00000000000E+00  0.00000000000E+00  0.10638941090E+04  0.10638941090E+04  0.50400001928E-02 0. -1.
        1   -1    0    0  501    0  0.00000000000E+00  0.00000000000E+00 -0.19107416083E+03  0.19107416089E+03  0.50400001928E-02 0.  1.
    10030    2    1    2    0    0  0.00000000000E+00  0.00000000000E+00  0.87281994812E+03  0.12549682699E+04  0.90173759848E+03 0.  0.
        3    1    3    3  502    0 -0.54236390791E+02 -0.30173162487E+03  0.89651912287E+03  0.94748620433E+03  0.10100000352E+00 0. -1.
       -3    1    3    3    0  502  0.54236390791E+02  0.30173162487E+03 -0.23699174746E+02  0.30748206552E+03  0.10100000352E+00 0.  1.
</event>
<event>
 5   0  0.6375625E-04  0.8999806E+03  0.7818609E-02  0.9425606E-01
       -3   -1    0    0    0  501  0.00000000000E+00  0.00000000000E+00  0.60424370621E+03  0.60424371465E+03  0.10100000352E+00 0.  1.
        3   -1    0    0  501    0  0.00000000000E+00  0.00000000000E+00 -0.33511522159E+03  0.33511523681E+03  0.10100000352E+00 0. -1.
    10030    2    1    2    0    0  0.00000000000E+00  0.00000000000E+00  0.26912848461E+03  0.93935895146E+03  0.89998061005E+03 0.  0.
        1    1    3    3  502    0  0.42792914712E+03  0.13635419729E+03  0.10549886064E+03  0.46135217751E+03  0.50400001928E-02 0.  1.
       -1    1    3    3    0  502 -0.42792914712E+03 -0.13635419729E+03  0.16362962398E+03  0.47800677395E+03  0.50400001928E-02 0. -1.
</event>
<event>
 5   0  0.1007561E-03  0.9026141E+03  0.7818609E-02  0.9422320E-01
        1   -1    0    0  501    0  0.00000000000E+00  0.00000000000E+00  0.51791523181E+03  0.51791523184E+03  0.50400001928E-02 0.  1.
       -1   -1    0    0    0  501  0.00000000000E+00  0.00000000000E+00 -0.39326519710E+03  0.39326519713E+03  0.50400001928E-02 0. -1.
    10030    2    1    2    0    0  0.00000000000E+00  0.00000000000E+00  0.12465003472E+03  0.91118042897E+03  0.90261406092E+03 0.  0.
        2    1    3    3  502    0  0.25670106838E+03  0.44994652615E+02 -0.30962546782E+03  0.40470716277E+03  0.25500000920E-02 0. -1.
       -2    1    3    3    0  502 -0.25670106838E+03 -0.44994652615E+02  0.43427550253E+03  0.50647326620E+03  0.25500000920E-02 0.  1.
</event>
<event>
 5   0  0.9981885E-04  0.9005909E+03  0.7818609E-02  0.9424843E-01
        1   -1    0    0  501    0  0.00000000000E+00  0.00000000000E+00  0.14284370336E+04  0.14284370337E+04  0.50400001928E-02 0. -1.
       -1   -1    0    0    0  501  0.00000000000E+00  0.00000000000E+00 -0.14194955991E+03  0.14194956000E+03  0.50400001928E-02 0.  1.
    10030    2    1    2    0    0  0.00000000000E+00  0.00000000000E+00  0.12864874737E+04  0.15703865937E+04  0.90059093570E+03 0.  0.
        4    1    3    3  502    0  0.15778176341E+03 -0.32117305916E+03  0.11198823629E+04  0.11756637863E+04  0.12699999809E+01 0. -1.
       -4    1    3    3    0  502 -0.15778176341E+03  0.32117305916E+03  0.16660511085E+03  0.39472280737E+03  0.12699999809E+01 0.  1.
</event>
<event>
 5   0  0.1704416E-03  0.8860094E+03  0.7818609E-02  0.9443241E-01
        2   -1    0    0  501    0  0.00000000000E+00  0.00000000000E+00  0.29252690834E+03  0.29252690835E+03  0.25500000920E-02 0. -1.
       -2   -1    0    0    0  501  0.00000000000E+00  0.00000000000E+00 -0.67088924864E+03  0.67088924864E+03  0.25500000920E-02 0.  1.
    10030    2    1    2    0    0  0.00000000000E+00  0.00000000000E+00 -0.37836234030E+03  0.96341615699E+03  0.88600938539E+03 0.  0.
        3    1    3    3  502    0 -0.23506161161E+03 -0.26277099418E+03  0.10248951751E+03  0.36716027568E+03  0.10100000352E+00 0. -1.
       -3    1    3    3    0  502  0.23506161161E+03  0.26277099418E+03 -0.48085185780E+03  0.59625588131E+03  0.10100000352E+00 0.  1.
</event>
<event>
 5   0  0.1704416E-03  0.8970256E+03  0.7818609E-02  0.9429307E-01
        2   -1    0    0  501    0  0.00000000000E+00  0.00000000000E+00  0.72875802912E+03  0.72875802912E+03  0.25500000920E-02 0. -1.
       -2   -1    0    0    0  501  0.00000000000E+00  0.00000000000E+00 -0.27603639985E+03  0.27603639986E+03  0.25500000920E-02 0.  1.
    10030    2    1    2    0    0  0.00000000000E+00  0.00000000000E+00  0.45272162927E+03  0.10047944290E+04  0.89702562444E+03 0.  0.
        3    1    3    3  502    0  0.26096888717E+03  0.21239506382E+03  0.55854859117E+03  0.65206821891E+03  0.10100000352E+00 0. -1.
       -3    1    3    3    0  502 -0.26096888717E+03 -0.21239506382E+03 -0.10582696190E+03  0.35272621007E+03  0.10100000352E+00 0.  1.
</event>
<event>
 5   0  0.1641516E-03  0.8998223E+03  0.7818609E-02  0.9425804E-01
        2   -1    0    0  501    0  0.00000000000E+00  0.00000000000E+00  0.99856790528E+03  0.99856790528E+03  0.25500000920E-02 0.  1.
       -2   -1    0    0    0  501  0.00000000000E+00  0.00000000000E+00 -0.20271033795E+03  0.20271033796E+03  0.25500000920E-02 0. -1.
    10030    2    1    2    0    0  0.00000000000E+00  0.00000000000E+00  0.79585756733E+03  0.12012782432E+04  0.89982228813E+03 0.  0.
        1    1    3    3  502    0  0.44020080816E+03  0.91526288318E+02  0.41971144478E+03  0.61507032920E+03  0.50400001928E-02 0.  1.
       -1    1    3    3    0  502 -0.44020080816E+03 -0.91526288318E+02  0.37614612255E+03  0.58620791405E+03  0.50400001928E-02 0. -1.
</event>
<event>
 5   0  0.9223454E-04  0.8978306E+03  0.7818609E-02  0.9428297E-01
        1   -1    0    0  501    0  0.00000000000E+00  0.00000000000E+00  0.41585606654E+03  0.41585606657E+03  0.50400001928E-02 0. -1.
       -1   -1    0    0    0  501  0.00000000000E+00  0.00000000000E+00 -0.48460269103E+03  0.48460269106E+03  0.50400001928E-02 0.  1.
    10030    2    1    2    0    0  0.00000000000E+00  0.00000000000E+00 -0.68746624491E+02  0.90045875762E+03  0.89783064985E+03 0.  0.
        1    1    3    3  502    0 -0.24864861894E+02  0.40014211899E+03  0.16819064849E+03  0.43476438563E+03  0.50400001928E-02 0. -1.
       -1    1    3    3    0  502  0.24864861894E+02 -0.40014211899E+03 -0.23693727298E+03  0.46569437199E+03  0.50400001928E-02 0.  1.
</event>
<event>
 5   0  0.1536020E-03  0.9031701E+03  0.7818609E-02  0.9421627E-01
        2   -1    0    0  501    0  0.00000000000E+00  0.00000000000E+00  0.18044442419E+04  0.18044442419E+04  0.25500000920E-02 0.  1.
       -2   -1    0    0    0  501  0.00000000000E+00  0.00000000000E+00 -0.11301488136E+03  0.11301488139E+03  0.25500000920E-02 0. -1.
    10030    2    1    2    0    0  0.00000000000E+00  0.00000000000E+00  0.16914293606E+04  0.19174591233E+04  0.90317008798E+03 0.  0.
        2    1    3    3  502    0 -0.21348225903E+02 -0.34315094305E+03  0.14672982309E+04  0.15070409466E+04  0.25500000920E-02 0.  1.
       -2    1    3    3    0  502  0.21348225903E+02  0.34315094305E+03  0.22413112970E+03  0.41041817671E+03  0.25500000920E-02 0. -1.
</event>
<event>
 5   0  0.1704416E-03  0.9014350E+03  0.7818609E-02  0.9423789E-01
       -2   -1    0    0    0  501  0.00000000000E+00  0.00000000000E+00  0.10889989190E+03  0.10889989193E+03  0.25500000920E-02 0. -1.
        2   -1    0    0  501    0  0.00000000000E+00  0.00000000000E+00 -0.18654406465E+04  0.18654406465E+04  0.25500000920E-02 0.  1.
    10030    2    1    2    0    0  0.00000000000E+00  0.00000000000E+00 -0.17565407546E+04  0.19743405384E+04  0.90143504430E+03 0.  0.
        3    1    3    3  502    0  0.40831131851E+02  0.19831456581E+03  0.36851216438E+01  0.20250787309E+03  0.10100000352E+00 0. -1.
       -3    1    3    3    0  502 -0.40831131851E+02 -0.19831456581E+03 -0.17602258762E+04  0.17718326653E+04  0.10100000352E+00 0.  1.
</event>
<event>
 5   0  0.9223454E-04  0.9004199E+03  0.7818609E-02  0.9425057E-01
       -1   -1    0    0    0  501  0.00000000000E+00  0.00000000000E+00  0.65981340086E+03  0.65981340087E+03  0.50400001928E-02 0.  1.
        1   -1    0    0  501    0  0.00000000000E+00  0.00000000000E+00 -0.30719139412E+03  0.30719139416E+03  0.50400001928E-02 0. -1.
    10030    2    1    2    0    0  0.00000000000E+00  0.00000000000E+00  0.35262200673E+03  0.96700479504E+03  0.90041989871E+03 0.  0.
        1    1    3    3  502    0 -0.54310744474E+02 -0.13385602446E+03  0.63424896516E+03  0.65049123137E+03  0.50400001928E-02 0.  1.
       -1    1    3    3    0  502  0.54310744474E+02  0.13385602446E+03 -0.28162695843E+03  0.31651356367E+03  0.50400001928E-02 0. -1.
</event>
<event>
 5   0  0.1630202E-03  0.9001683E+03  0.7818609E-02  0.9425371E-01
       -2   -1    0    0    0  501  0.00000000000E+00  0.00000000000E+00  0.36018754759E+03  0.36018754760E+03  0.25500000920E-02 0.  1.
        2   -1    0    0  501    0  0.00000000000E+00  0.00000000000E+00 -0.56241734993E+03  0.56241734993E+03  0.25500000920E-02 0. -1.
    10030    2    1    2    0    0  0.00000000000E+00  0.00000000000E+00 -0.20222980234E+03  0.92260489754E+03  0.90016826427E+03 0.  0.
        4    1    3    3  502    0 -0.38953455533E+03  0.15434510558E+03 -0.26957256733E+03  0.49822742133E+03  0.12699999809E+01 0. -1.
       -4    1    3    3    0  502  0.38953455533E+03 -0.15434510558E+03  0.67342764989E+02  0.42437747620E+03  0.12699999809E+01 0.  1.
</event>
<event>
 5   0  0.9697941E-04  0.8999985E+03  0.7818609E-02  0.9425583E-01
        1   -1    0    0  501    0  0.00000000000E+00  0.00000000000E+00  0.15170178643E+04  0.15170178643E+04  0.50400001928E-02 0.  1.
       -1   -1    0    0    0  501  0.00000000000E+00  0.00000000000E+00 -0.13348512070E+03  0.13348512079E+03  0.50400001928E-02 0. -1.
    10030    2    1    2    0    0  0.00000000000E+00  0.00000000000E+00  0.13835327436E+04  0.16505029851E+04  0.89999847288E+03 0.  0.
        5    1    3    3  502    0 -0.18247757775E+02  0.95603123870E+02  0.14974379013E+04  0.15006049767E+04  0.46999998093E+01 0.  1.
       -5    1    3    3    0  502  0.18247757775E+02 -0.95603123870E+02 -0.11390515771E+03  0.14989800835E+03  0.46999998093E+01 0. -1.
</event>
<event>
 5   0  0.1635686E-03  0.8953540E+03  0.7818609E-02  0.9431408E-01
       -2   -1    0    0    0  501  0.00000000000E+00  0.00000000000E+00  0.39850541386E+03  0.39850541387E+03  0.25500000920E-02 0.  1.
        2   -1    0    0  501    0  0.00000000000E+00  0.00000000000E+00 -0.50291585912E+03  0.50291585912E+03  0.25500000920E-02 0. -1.
    10030    2    1    2    0    0  0.00000000000E+00  0.00000000000E+00 -0.10441044526E+03  0.90142127299E+03  0.89535399163E+03 0.  0.
        5    1    3    3  502    0 -0.33840012236E+03  0.11756449904E+03  0.21804729979E+03  0.41940764083E+03  0.46999998093E+01 0.  1.
       -5    1    3    3    0  502  0.33840012236E+03 -0.11756449904E+03 -0.32245774505E+03  0.48201363216E+03  0.46999998093E+01 0. -1.
</event>
<event>
 5   0  0.1536020E-03  0.8977551E+03  0.7818609E-02  0.9428392E-01
        2   -1    0    0  501    0  0.00000000000E+00  0.00000000000E+00  0.34748995903E+03  0.34748995904E+03  0.25500000920E-02 0.  1.
       -2   -1    0    0    0  501  0.00000000000E+00  0.00000000000E+00 -0.57984714525E+03  0.57984714526E+03  0.25500000920E-02 0. -1.
    10030    2    1    2    0    0  0.00000000000E+00  0.00000000000E+00 -0.23235718622E+03  0.92733710430E+03  0.89775511306E+03 0.  0.
        2    1    3    3  502    0  0.20218891704E+03 -0.32034817566E+03 -0.36491987872E+03  0.52599413467E+03  0.25500000920E-02 0. -1.
       -2    1    3    3    0  502 -0.20218891704E+03  0.32034817566E+03  0.13256269249E+03  0.40134296963E+03  0.25500000920E-02 0.  1.
</event>
<event>
 5   0  0.1704416E-03  0.8999643E+03  0.7818609E-02  0.9425626E-01
       -2   -1    0    0    0  501  0.00000000000E+00  0.00000000000E+00  0.21730880723E+03  0.21730880724E+03  0.25500000920E-02 0. -1.
        2   -1    0    0  501    0  0.00000000000E+00  0.00000000000E+00 -0.93177961007E+03  0.93177961007E+03  0.25500000920E-02 0.  1.
    10030    2    1    2    0    0  0.00000000000E+00  0.00000000000E+00 -0.71447080285E+03  0.11490884173E+04  0.89996425634E+03 0.  0.
        3    1    3    3  502    0 -0.35553556605E+03  0.26611519246E+03 -0.44984697663E+03  0.63212747683E+03  0.10100000352E+00 0. -1.
       -3    1    3    3    0  502  0.35553556605E+03 -0.26611519246E+03 -0.26462382622E+03  0.51696094048E+03  0.10100000352E+00 0.  1.
</event>
<event>
 5   0  0.1704416E-03  0.8978337E+03  0.7818609E-02  0.9428293E-01
        2   -1    0    0  501    0  0.00000000000E+00  0.00000000000E+00  0.17181873092E+04  0.17181873092E+04  0.25500000920E-02 0. -1.
       -2   -1    0    0    0  501  0.00000000000E+00  0.00000000000E+00 -0.11729008610E+03  0.11729008612E+03  0.25500000920E-02 0.  1.
    10030    2    1    2    0    0  0.00000000000E+00  0.00000000000E+00  0.16008972231E+04  0.18354773953E+04  0.89783369830E+03 0.  0.
        3    1    3    3  502    0  0.62023758233E+02  0.44403831033E+03  0.75430990683E+03  0.87749667428E+03  0.10100000352E+00 0. -1.
       -3    1    3    3    0  502 -0.62023758233E+02 -0.44403831033E+03  0.84658731626E+03  0.95798072104E+03  0.10100000352E+00 0.  1.
</event>
<event>
 5   0  0.1536020E-03  0.9055358E+03  0.7818609E-02  0.9418688E-01
       -2   -1    0    0    0  501  0.00000000000E+00  0.00000000000E+00  0.18913516347E+03  0.18913516348E+03  0.25500000920E-02 0.  1.
        2   -1    0    0  501    0  0.00000000000E+00  0.00000000000E+00 -0.10838743451E+04  0.10838743451E+04  0.25500000920E-02 0. -1.
    10030    2    1    2    0    0  0.00000000000E+00  0.00000000000E+00 -0.89473918163E+03  0.12730095086E+04  0.90553575622E+03 0.  0.
        2    1    3    3  502    0  0.20077986331E+03 -0.40404440441E+03 -0.50061089026E+03  0.67392558766E+03  0.25500000920E-02 0.  1.
       -2    1    3    3    0  502 -0.20077986331E+03  0.40404440441E+03 -0.39412829137E+03  0.59908392092E+03  0.25500000920E-02 0. -1.
</event>
<event>
 5   0  0.1704416E-03  0.9116184E+03  0.7818609E-02  0.9411173E-01
       -2   -1    0    0    0  501  0.00000000000E+00  0.00000000000E+00  0.25568387897E+03  0.25568387898E+03  0.25500000920E-02 0. -1.
        2   -1    0    0  501    0  0.00000000000E+00  0.00000000000E+00 -0.81257378981E+03  0.81257378981E+03  0.25500000920E-02 0.  1.
    10030    2    1    2    0    0  0.00000000000E+00  0.00000000000E+00 -0.55688991084E+03  0.10682576688E+04  0.91161838186E+03 0.  0.
        3    1    3    3  502    0 -0.27985151427E+03 -0.26166705598E+03 -0.56780635436E+03  0.68497487872E+03  0.10100000352E+00 0.  1.
       -3    1    3    3    0  502  0.27985151427E+03  0.26166705598E+03  0.10916443524E+02  0.38328279007E+03  0.10100000352E+00 0. -1.
</event>
<event>
 5   0  0.6375625E-04  0.8983174E+03  0.7818609E-02  0.9427687E-01
        3   -1    0    0  501    0  0.00000000000E+00  0.00000000000E+00  0.95192795307E+03  0.95192795843E+03  0.10100000352E+00 0. -1.
       -3   -1    0    0    0  501  0.00000000000E+00  0.00000000000E+00 -0.21193150980E+03  0.21193153387E+03  0.10100000352E+00 0.  1.
    10030    2    1    2    0    0  0.00000000000E+00  0.00000000000E+00  0.73999644327E+03  0.11638594923E+04  0.89831741705E+03 0.  0.
        1    1    3    3  502    0  0.65914973581E+02 -0.38262702878E+03  0.77424115217E+02  0.39590746462E+03  0.50400001928E-02 0.  1.
       -1    1    3    3    0  502 -0.65914973581E+02  0.38262702878E+03  0.66257232805E+03  0.76795202769E+03  0.50400001928E-02 0. -1.
</event>
<event>
 5   0  0.9697941E-04  0.9020031E+03  0.7818609E-02  0.9423081E-01
       -1   -1    0    0    0  501  0.00000000000E+00  0.00000000000E+00  0.59326056280E+03  0.59326056282E+03  0.50400001928E-02 0.  1.
        1   -1    0    0  501    0  0.00000000000E+00  0.00000000000E+00 -0.34285510412E+03  0.34285510416E+03  0.50400001928E-02 0. -1.
    10030    2    1    2    0    0  0.00000000000E+00  0.00000000000E+00  0.25040545868E+03  0.93611566698E+03  0.90200313094E+03 0.  0.
        5    1    3    3  502    0 -0.10444364615E+03  0.37601336636E+02  0.57883513034E+03  0.58940184412E+03  0.46999998093E+01 0.  1.
       -5    1    3    3    0  502  0.10444364615E+03 -0.37601336636E+02 -0.32842967166E+03  0.34671382286E+03  0.46999998093E+01 0. -1.
</event>
<event>
 5   0  0.1641516E-03  0.8994543E+03  0.7818609E-02  0.9426264E-01
       -2   -1    0    0    0  501  0.00000000000E+00  0.00000000000E+00  0.37478630731E+03  0.37478630732E+03  0.25500000920E-02 0. -1.
        2   -1    0    0  501    0  0.00000000000E+00  0.00000000000E+00 -0.53965291092E+03  0.53965291093E+03  0.25500000920E-02 0.  1.
    10030    2    1    2    0    0  0.00000000000E+00  0.00000000000E+00 -0.16486660361E+03  0.91443921825E+03  0.89945432729E+03 0.  0.
        1    1    3    3  502    0  0.21479827525E+03 -0.22443489109E+03  0.24816914568E+03  0.39761444174E+03  0.50400001928E-02 0. -1.
       -1    1    3    3    0  502 -0.21479827525E+03  0.22443489109E+03 -0.41303574930E+03  0.51682477651E+03  0.50400001928E-02 0.  1.
</event>
<event>
 5   0  0.9223454E-04  0.9001687E+03  0.7818609E-02  0.9425371E-01
       -1   -1    0    0    0  501  0.00000000000E+00  0.00000000000E+00  0.40940525596E+03  0.40940525599E+03  0.50400001928E-02 0.  1.
        1   -1    0    0  501    0  0.00000000000E+00  0.00000000000E+00 -0.49480540111E+03  0.49480540114E+03  0.50400001928E-02 0. -1.
    10030    2    1    2    0    0  0.00000000000E+00  0.00000000000E+00 -0.85400145146E+02  0.90421065713E+03  0.90016872178E+03 0.  0.
        1    1    3    3  502    0 -0.34388413844E+03  0.84836868665E+02 -0.32165612811E+03  0.47845194088E+03  0.50400001928E-02 0. -1.
       -1    1    3    3    0  502  0.34388413844E+03 -0.84836868665E+02  0.23625598296E+03  0.42575871625E+03  0.50400001928E-02 0.  1.
</event>
<event>
 5   0  0.1630202E-03  0.8986326E+03  0.7818609E-02  0.9427292E-01
       -2   -1    0    0    0  501  0.00000000000E+00  0.00000000000E+00  0.10120523753E+03  0.10120523757E+03  0.25500000920E-02 0. -1.
        2   -1    0    0  501    0  0.00000000000E+00  0.00000000000E+00 -0.19948092007E+04  0.19948092007E+04  0.25500000920E-02 0.  1.
    10030    2    1    2    0    0  0.00000000000E+00  0.00000000000E+00 -0.18936039632E+04  0.20960144383E+04  0.89863260353E+03 0.  0.
        4    1    3    3  502    0 -0.43584792008E+03  0.20846355173E+02 -0.69683196182E+03  0.82217660869E+03  0.12699999809E+01 0. -1.
       -4    1    3    3    0  502  0.43584792008E+03 -0.20846355173E+02 -0.11967720014E+04  0.12738378296E+04  0.12699999809E+01 0.  1.
</event>
<event>
 5   0  0.1630202E-03  0.8774109E+03  0.7818609E-02  0.9454268E-01
        2   -1    0    0  501    0  0.00000000000E+00  0.00000000000E+00  0.30864110309E+03  0.30864110310E+03  0.25500000920E-02 0. -1.
       -2   -1    0    0    0  501  0.00000000000E+00  0.00000000000E+00 -0.62358013316E+03  0.62358013316E+03  0.25500000920E-02 0.  1.
    10030    2    1    2    0    0  0.00000000000E+00  0.00000000000E+00 -0.31493903007E+03  0.93222123626E+03  0.87741087335E+03 0.  0.
        4    1    3    3  502    0  0.27100995083E+03  0.19195499773E+03  0.14708611447E+03  0.36322039119E+03  0.12699999809E+01 0. -1.
       -4    1    3    3    0  502 -0.27100995083E+03 -0.19195499773E+03 -0.46202514454E+03  0.56900084507E+03  0.12699999809E+01 0.  1.
</event>
<event>
 5   0  0.6375625E-04  0.9003408E+03  0.7818609E-02  0.9425156E-01
        3   -1    0    0  501    0  0.00000000000E+00  0.00000000000E+00  0.37740419884E+03  0.37740421236E+03  0.10100000352E+00 0.  1.
       -3   -1    0    0    0  501  0.00000000000E+00  0.00000000000E+00 -0.53696640893E+03  0.53696641843E+03  0.10100000352E+00 0. -1.
    10030    2    1    2    0    0  0.00000000000E+00  0.00000000000E+00 -0.15956221008E+03  0.91437063078E+03  0.90034079745E+03 0.  0.
        2    1    3    3  502    0 -0.20778699079E+03 -0.39286573481E+03 -0.70093086130E+01  0.44448627599E+03  0.25500000920E-02 0.  1.
       -2    1    3    3    0  502  0.20778699079E+03  0.39286573481E+03 -0.15255290147E+03  0.46988435480E+03  0.25500000920E-02 0. -1.
</event>
<event>
 5   0  0.1630202E-03  0.9040888E+03  0.7818609E-02  0.9420485E-01
       -2   -1    0    0    0  501  0.00000000000E+00  0.00000000000E+00  0.18954544181E+03  0.18954544183E+03  0.25500000920E-02 0.  1.
        2   -1    0    0  501    0  0.00000000000E+00  0.00000000000E+00 -0.10780746398E+04  0.10780746398E+04  0.25500000920E-02 0. -1.
    10030    2    1    2    0    0  0.00000000000E+00  0.00000000000E+00 -0.88852919803E+03  0.12676200817E+04  0.90408878751E+03 0.  0.
        4    1    3    3  502    0 -0.62092094195E+02 -0.13502436177E+03  0.15431011463E+03  0.21424339152E+03  0.12699999809E+01 0.  1.
       -4    1    3    3    0  502  0.62092094195E+02  0.13502436177E+03 -0.10428393127E+04  0.10533766901E+04  0.12699999809E+01 0. -1.
</event>
<event>
 5   0  0.1641516E-03  0.9009885E+03  0.7818609E-02  0.9424347E-01
        2   -1    0    0  501    0  0.00000000000E+00  0.00000000000E+00  0.22794865618E+03  0.22794865619E+03  0.25500000920E-02 0. -1.
       -2   -1    0    0    0  501  0.00000000000E+00  0.00000000000E+00 -0.89031046025E+03  0.89031046026E+03  0.25500000920E-02 0.  1.
    10030    2    1    2    0    0  0.00000000000E+00  0.00000000000E+00 -0.66236180407E+03  0.11182591164E+04  0.90098850826E+03 0.  0.
        1    1    3    3  502    0  0.53237301770E+02  0.15075597208E+03  0.19155196210E+03  0.24950696910E+03  0.50400001928E-02 0. -1.
       -1    1    3    3    0  502 -0.53237301770E+02 -0.15075597208E+03 -0.85391376618E+03  0.86875214734E+03  0.50400001928E-02 0.  1.
</event>
<event>
 5   0  0.9981885E-04  0.8984651E+03  0.7818609E-02  0.9427502E-01
        1   -1    0    0  501    0  0.00000000000E+00  0.00000000000E+00  0.31991949746E+03  0.31991949750E+03  0.50400001928E-02 0.  1.
       -1   -1    0    0    0  501  0.00000000000E+00  0.00000000000E+00 -0.63081464743E+03  0.63081464745E+03  0.50400001928E-02 0. -1.
    10030    2    1    2    0    0  0.00000000000E+00  0.00000000000E+00 -0.31089514997E+03  0.95073414495E+03  0.89846514685E+03 0.  0.
        4    1    3    3  502    0  0.24908159929E+03 -0.23513766465E+03  0.15211034300E+03  0.37479398846E+03  0.12699999809E+01 0.  1.
       -4    1    3    3    0  502 -0.24908159929E+03  0.23513766465E+03 -0.46300549297E+03  0.57594015649E+03  0.12699999809E+01 0. -1.
</event>
<event>
 5   0  0.6375625E-04  0.8999930E+03  0.7818609E-02  0.9425590E-01
       -3   -1    0    0    0  501  0.00000000000E+00  0.00000000000E+00  0.76375275097E+03  0.76375275765E+03  0.10100000352E+00 0. -1.
        3   -1    0    0  501    0  0.00000000000E+00  0.00000000000E+00 -0.26513400774E+03  0.26513402698E+03  0.10100000352E+00 0.  1.
    10030    2    1    2    0    0  0.00000000000E+00  0.00000000000E+00  0.49861874323E+03  0.10288867846E+04  0.89999298024E+03 0.  0.
        4    1    3    3  502    0  0.66465039721E+02 -0.34030669820E+01  0.75809341540E+03  0.76101013248E+03  0.12699999809E+01 0. -1.
       -4    1    3    3    0  502 -0.66465039721E+02  0.34030669820E+01 -0.25947467216E+03  0.26787665215E+03  0.12699999809E+01 0.  1.
</event>
<event>
 5   0  0.9321543E-04  0.8986671E+03  0.7818609E-02  0.9427249E-01
       -1   -1    0    0    0  501  0.00000000000E+00  0.00000000000E+00  0.31953140715E+03  0.31953140719E+03  0.50400001928E-02 0.  1.
        1   -1    0    0  501    0  0.00000000000E+00  0.00000000000E+00 -0.63186478269E+03  0.63186478271E+03  0.50400001928E-02 0. -1.
    10030    2    1    2    0    0  0.00000000000E+00  0.00000000000E+00 -0.31233337554E+03  0.95139618989E+03  0.89866710893E+03 0.  0.
        3    1    3    3  502    0  0.15198090381E+03  0.34861949997E+03 -0.40951285020E+03  0.55886897889E+03  0.10100000352E+00 0. -1.
       -3    1    3    3    0  502 -0.15198090381E+03 -0.34861949997E+03  0.97179474667E+02  0.39252721100E+03  0.10100000352E+00 0.  1.
</event>
<event>
 5   0  0.1630202E-03  0.8999552E+03  0.7818609E-02  0.9425637E-01
       -2   -1    0    0    0  501  0.00000000000E+00  0.00000000000E+00  0.16854879640E+03  0.16854879642E+03  0.25500000920E-02 0.  1.
        2   -1    0    0  501    0  0.00000000000E+00  0.00000000000E+00 -0.12013127877E+04  0.12013127877E+04  0.25500000920E-02 0. -1.
    10030    2    1    2    0    0  0.00000000000E+00  0.00000000000E+00 -0.10327639913E+04  0.13698615841E+04  0.89995516439E+03 0.  0.
        4    1    3    3  502    0 -0.14749641075E+02 -0.43221968062E+03 -0.70556197698E+03  0.82755707990E+03  0.12699999809E+01 0. -1.
       -4    1    3    3    0  502  0.14749641075E+02  0.43221968062E+03 -0.32720201430E+03  0.54230450421E+03  0.12699999809E+01 0.  1.
</event>
<event>
 5   0  0.1641516E-03  0.9002710E+03  0.7818609E-02  0.9425243E-01
       -2   -1    0    0    0  501  0.00000000000E+00  0.00000000000E+00  0.24476368371E+03  0.24476368372E+03  0.25500000920E-02 0. -1.
        2   -1    0    0  501    0  0.00000000000E+00  0.00000000000E+00 -0.82782693378E+03  0.82782693378E+03  0.25500000920E-02 0.  1.
    10030    2    1    2    0    0  0.00000000000E+00  0.00000000000E+00 -0.58306325007E+03  0.10725906175E+04  0.90027100319E+03 0.  0.
        1    1    3    3  502    0 -0.32943103189E+03 -0.23759270786E+03 -0.52269826984E+03  0.66195814136E+03  0.50400001928E-02 0. -1.
       -1    1    3    3    0  502  0.32943103189E+03  0.23759270786E+03 -0.60364980229E+02  0.41063247614E+03  0.50400001928E-02 0.  1.
</event>
<event>
 5   0  0.1536020E-03  0.8990956E+03  0.7818609E-02  0.9426713E-01
       -2   -1    0    0    0  501  0.00000000000E+00  0.00000000000E+00  0.18192198189E+03  0.18192198191E+03  0.25500000920E-02 0.  1.
        2   -1    0    0  501    0  0.00000000000E+00  0.00000000000E+00 -0.11108784211E+04  0.11108784211E+04  0.25500000920E-02 0. -1.
    10030    2    1    2    0    0  0.00000000000E+00  0.00000000000E+00 -0.92895643924E+03  0.12928004030E+04  0.89909555448E+03 0.  0.
        2    1    3    3  502    0  0.15701421630E+03 -0.77826164777E+02 -0.10597417571E+04  0.10741335893E+04  0.25500000920E-02 0. -1.
       -2    1    3    3    0  502 -0.15701421630E+03  0.77826164777E+02  0.13078531784E+03  0.21866681370E+03  0.25500000920E-02 0.  1.
</event>
<event>
 5   0  0.1635686E-03  0.8966398E+03  0.7818609E-02  0.9429792E-01
        2   -1    0    0  501    0  0.00000000000E+00  0.00000000000E+00  0.12740905850E+04  0.12740905850E+04  0.25500000920E-02 0.  1.
       -2   -1    0    0    0  501  0.00000000000E+00  0.00000000000E+00 -0.15775230679E+03  0.15775230681E+03  0.25500000920E-02 0. -1.
    10030    2    1    2    0    0  0.00000000000E+00  0.00000000000E+00  0.11163382782E+04  0.14318428918E+04  0.89663979134E+03 0.  0.
        5    1    3    3  502    0  0.13417274149E+03 -0.24162699089E+03  0.11218149054E+04  0.11553686421E+04  0.46999998093E+01 0.  1.
       -5    1    3    3    0  502 -0.13417274149E+03  0.24162699089E+03 -0.54766271832E+01  0.27647424967E+03  0.46999998093E+01 0. -1.
</event>
<event>
 5   0  0.1536020E-03  0.8956280E+03  0.7818609E-02  0.9431063E-01
        2   -1    0    0  501    0  0.00000000000E+00  0.00000000000E+00  0.80793967050E+03  0.80793967051E+03  0.25500000920E-02 0. -1.
       -2   -1    0    0    0  501  0.00000000000E+00  0.00000000000E+00 -0.24820837264E+03  0.24820837266E+03  0.25500000920E-02 0.  1.
    10030    2    1    2    0    0  0.00000000000E+00  0.00000000000E+00  0.55973129786E+03  0.10561480432E+04  0.89562802729E+03 0.  0.
        2    1    3    3  502    0  0.23996631712E+03 -0.23917471755E+03 -0.65446362540E+02  0.34506753722E+03  0.25500000920E-02 0.  1.
       -2    1    3    3    0  502 -0.23996631712E+03  0.23917471755E+03  0.62517766040E+03  0.71108050595E+03  0.25500000920E-02 0. -1.
</event>
<event>
 5   0  0.9321543E-04  0.8995747E+03  0.7818609E-02  0.9426113E-01
        1   -1    0    0  501    0  0.00000000000E+00  0.00000000000E+00  0.70628238966E+03  0.70628238968E+03  0.50400001928E-02 0. -1.
       -1   -1    0    0    0  501  0.00000000000E+00  0.00000000000E+00 -0.28644163179E+03  0.28644163184E+03  0.50400001928E-02 0.  1.
    10030    2    1    2    0    0  0.00000000000E+00  0.00000000000E+00  0.41984075787E+03  0.99272402152E+03  0.89957474449E+03 0.  0.
        3    1    3    3  502    0  0.32324485181E+03  0.29781715339E+03  0.10449612754E+03  0.45177620781E+03  0.10100000352E+00 0.  1.
       -3    1    3    3    0  502 -0.32324485181E+03 -0.29781715339E+03  0.31534463033E+03  0.54094781370E+03  0.10100000352E+00 0. -1.
</event>
<event>
 5   0  0.1641516E-03  0.9016854E+03  0.7818609E-02  0.9423477E-01
       -2   -1    0    0    0  501  0.00000000000E+00  0.00000000000E+00  0.54846623836E+03  0.54846623837E+03  0.25500000920E-02 0.  1.
        2   -1    0    0  501    0  0.00000000000E+00  0.00000000000E+00 -0.37059556018E+03  0.37059556019E+03  0.25500000920E-02 0. -1.
    10030    2    1    2    0    0  0.00000000000E+00  0.00000000000E+00  0.17787067819E+03  0.91906179856E+03  0.90168542819E+03 0.  0.
        1    1    3    3  502    0 -0.97183477870E+02 -0.29765128789E+03  0.41955994386E+03  0.52351835123E+03  0.50400001928E-02 0.  1.
       -1    1    3    3    0  502  0.97183477870E+02  0.29765128789E+03 -0.24168926567E+03  0.39554344733E+03  0.50400001928E-02 0. -1.
</event>
<event>
 5   0  0.1007561E-03  0.8997180E+03  0.7818609E-02  0.9425934E-01
       -1   -1    0    0    0  501  0.00000000000E+00  0.00000000000E+00  0.13508945227E+03  0.13508945237E+03  0.50400001928E-02 0.  1.
        1   -1    0    0  501    0  0.00000000000E+00  0.00000000000E+00 -0.14980673973E+04  0.14980673973E+04  0.50400001928E-02 0. -1.
    10030    2    1    2    0    0  0.00000000000E+00  0.00000000000E+00 -0.13629779451E+04  0.16331568497E+04  0.89971796526E+03 0.  0.
        2    1    3    3  502    0 -0.37705949008E+03  0.23500088934E+03 -0.80950573828E+03  0.92341692500E+03  0.25500000920E-02 0. -1.
       -2    1    3    3    0  502  0.37705949008E+03 -0.23500088934E+03 -0.55347220678E+03  0.70973992471E+03  0.25500000920E-02 0.  1.
</event>
<event>
 5   0  0.9981885E-04  0.9087686E+03  0.7818609E-02  0.9414686E-01
        1   -1    0    0  501    0  0.00000000000E+00  0.00000000000E+00  0.26901492633E+03  0.26901492638E+03  0.50400001928E-02 0. -1.
       -1   -1    0    0    0  501  0.00000000000E+00  0.00000000000E+00 -0.76748555649E+03  0.76748555650E+03  0.50400001928E-02 0.  1.
    10030    2    1    2    0    0  0.00000000000E+00  0.00000000000E+00 -0.49847063016E+03  0.10365004829E+04  0.90876855243E+03 0.  0.
        4    1    3    3  502    0  0.65707256175E+02  0.23378347615E+03  0.18879021210E+03  0.30759634965E+03  0.12699999809E+01 0. -1.
       -4    1    3    3    0  502 -0.65707256175E+02 -0.23378347615E+03 -0.68726084226E+03  0.72890413323E+03  0.12699999809E+01 0.  1.
</event>
<event>
 5   0  0.1704416E-03  0.9003648E+03  0.7818609E-02  0.9425125E-01
        2   -1    0    0  501    0  0.00000000000E+00  0.00000000000E+00  0.24997829337E+03  0.24997829338E+03  0.25500000920E-02 0.  1.
       -2   -1    0    0    0  501  0.00000000000E+00  0.00000000000E+00 -0.81072724426E+03  0.81072724426E+03  0.25500000920E-02 0. -1.
    10030    2    1    2    0    0  0.00000000000E+00  0.00000000000E+00 -0.56074895089E+03  0.10607055376E+04  0.90036484364E+03 0.  0.
        3    1    3    3  502    0 -0.38805802432E+03 -0.57168259965E+02 -0.20108619234E+02  0.39276151409E+03  0.10100000352E+00 0.  1.
       -3    1    3    3    0  502  0.38805802432E+03  0.57168259965E+02 -0.54064033166E+03  0.66794402355E+03  0.10100000352E+00 0. -1.
</event>
<event>
 5   0  0.1635686E-03  0.8988507E+03  0.7818609E-02  0.9427019E-01
       -2   -1    0    0    0  501  0.00000000000E+00  0.00000000000E+00  0.12882287805E+03  0.12882287807E+03  0.25500000920E-02 0.  1.
        2   -1    0    0  501    0  0.00000000000E+00  0.00000000000E+00 -0.15679135772E+04  0.15679135772E+04  0.25500000920E-02 0. -1.
    10030    2    1    2    0    0  0.00000000000E+00  0.00000000000E+00 -0.14390906992E+04  0.16967364553E+04  0.89885068744E+03 0.  0.
        5    1    3    3  502    0 -0.66091654590E+02 -0.14077347768E+03 -0.15154538100E+04  0.15234197120E+04  0.46999998093E+01 0. -1.
       -5    1    3    3    0  502  0.66091654590E+02  0.14077347768E+03  0.76363110771E+02  0.17331674330E+03  0.46999998093E+01 0.  1.
</event>
<event>
 5   0  0.6375625E-04  0.8989869E+03  0.7818609E-02  0.9426849E-01
        3   -1    0    0  501    0  0.00000000000E+00  0.00000000000E+00  0.74550682895E+03  0.74550683579E+03  0.10100000352E+00 0. -1.
       -3   -1    0    0    0  501  0.00000000000E+00  0.00000000000E+00 -0.27101608381E+03  0.27101610263E+03  0.10100000352E+00 0.  1.
    10030    2    1    2    0    0  0.00000000000E+00  0.00000000000E+00  0.47449074514E+03  0.10165229384E+04  0.89898688372E+03 0.  0.
        3    1    3    3  502    0 -0.25122506580E+02  0.37529162766E+02  0.74293494672E+03  0.74430633724E+03  0.10100000352E+00 0. -1.
       -3    1    3    3    0  502  0.25122506580E+02 -0.37529162766E+02 -0.26844420158E+03  0.27221660118E+03  0.10100000352E+00 0.  1.
</event>
<event>
 5   0  0.6375625E-04  0.9004684E+03  0.7818609E-02  0.9424996E-01
        3   -1    0    0  501    0  0.00000000000E+00  0.00000000000E+00  0.13110996208E+04  0.13110996247E+04  0.10100000352E+00 0. -1.
       -3   -1    0    0    0  501  0.00000000000E+00  0.00000000000E+00 -0.15461130359E+03  0.15461133658E+03  0.10100000352E+00 0.  1.
    10030    2    1    2    0    0  0.00000000000E+00  0.00000000000E+00  0.11564883172E+04  0.14657109613E+04  0.90046843039E+03 0.  0.
        2    1    3    3  502    0  0.20206264578E+03  0.96975816442E+01  0.12329591969E+04  0.12494445715E+04  0.25500000920E-02 0. -1.
       -2    1    3    3    0  502 -0.20206264578E+03 -0.96975816442E+01 -0.76470879699E+02  0.21626638980E+03  0.25500000920E-02 0.  1.
</event>
<event>
 5   0  0.1635686E-03  0.9008765E+03  0.7818609E-02  0.9424486E-01
        2   -1    0    0  501    0  0.00000000000E+00  0.00000000000E+00  0.49082582196E+03  0.49082582197E+03  0.25500000920E-02 0. -1.
       -2   -1    0    0    0  501  0.00000000000E+00  0.00000000000E+00 -0.41337392640E+03  0.41337392641E+03  0.25500000920E-02 0.  1.
    10030    2    1    2    0    0  0.00000000000E+00  0.00000000000E+00  0.77451895564E+02  0.90419974838E+03  0.90087645593E+03 0.  0.
        5    1    3    3  502    0 -0.26108555627E+03 -0.21745612141E+03  0.33548483790E+03  0.47751963194E+03  0.46999998093E+01 0. -1.
       -5    1    3    3    0  502  0.26108555627E+03  0.21745612141E+03 -0.25803294233E+03  0.42668011644E+03  0.46999998093E+01 0.  1.
</event>
<event>
 5   0  0.1641516E-03  0.8999571E+03  0.7818609E-02  0.9425635E-01
        2   -1    0    0  501    0  0.00000000000E+00  0.00000000000E+00  0.13307238806E+04  0.13307238806E+04  0.25500000920E-02 0. -1.
       -2   -1    0    0    0  501  0.00000000000E+00  0.00000000000E+00 -0.15215831317E+03  0.15215831319E+03  0.25500000920E-02 0.  1.
    10030    2    1    2    0    0  0.00000000000E+00  0.00000000000E+00  0.11785655675E+04  0.14828821938E+04  0.89995711228E+03 0.  0.
        1    1    3    3  502    0 -0.36182322089E+03 -0.39018709258E+02  0.10253613290E+04  0.10880277377E+04  0.50400001928E-02 0. -1.
       -1    1    3    3    0  502  0.36182322089E+03  0.39018709258E+02  0.15320423845E+03  0.39485445617E+03  0.50400001928E-02 0.  1.
</event>
<event>
 5   0  0.9981885E-04  0.9038787E+03  0.7818609E-02  0.9420746E-01
        1   -1    0    0  501    0  0.00000000000E+00  0.00000000000E+00  0.56170397327E+03  0.56170397329E+03  0.50400001928E-02 0. -1.
       -1   -1    0    0    0  501  0.00000000000E+00  0.00000000000E+00 -0.36362420011E+03  0.36362420015E+03  0.50400001928E-02 0.  1.
    10030    2    1    2    0    0  0.00000000000E+00  0.00000000000E+00  0.19807977315E+03  0.92532817344E+03  0.90387866001E+03 0.  0.
        4    1    3    3  502    0 -0.28824858437E+03 -0.20626134930E+03  0.38608004121E+03  0.52410915059E+03  0.12699999809E+01 0. -1.
       -4    1    3    3    0  502  0.28824858437E+03  0.20626134930E+03 -0.18800026806E+03  0.40121902285E+03  0.12699999809E+01 0.  1.
</event>
<event>
 5   0  0.9697941E-04  0.9010168E+03  0.7818609E-02  0.9424311E-01
       -1   -1    0    0    0  501  0.00000000000E+00  0.00000000000E+00  0.18838369841E+03  0.18838369848E+03  0.50400001928E-02 0. -1.
        1   -1    0    0  501    0  0.00000000000E+00  0.00000000000E+00 -0.10773640040E+04  0.10773640040E+04  0.50400001928E-02 0.  1.
    10030    2    1    2    0    0  0.00000000000E+00  0.00000000000E+00 -0.88898030557E+03  0.12657477025E+04  0.90101679374E+03 0.  0.
        5    1    3    3  502    0 -0.12720955468E+03 -0.37975376821E+03 -0.73423499391E+03  0.83637211309E+03  0.46999998093E+01 0.  1.
       -5    1    3    3    0  502  0.12720955468E+03  0.37975376821E+03 -0.15474531166E+03  0.42937558938E+03  0.46999998093E+01 0. -1.
</event>
<event>
 5   0  0.1635686E-03  0.9005587E+03  0.7818609E-02  0.9424883E-01
       -2   -1    0    0    0  501  0.00000000000E+00  0.00000000000E+00  0.11025095718E+03  0.11025095721E+03  0.25500000920E-02 0.  1.
        2   -1    0    0  501    0  0.00000000000E+00  0.00000000000E+00 -0.18390000185E+04  0.18390000185E+04  0.25500000920E-02 0. -1.
    10030    2    1    2    0    0  0.00000000000E+00  0.00000000000E+00 -0.17287490613E+04  0.19492509757E+04  0.90055874283E+03 0.  0.
        5    1    3    3  502    0 -0.27964320570E+03  0.29343638454E+03 -0.12886599067E+04  0.13509151266E+04  0.46999998093E+01 0. -1.
       -5    1    3    3    0  502  0.27964320570E+03 -0.29343638454E+03 -0.44008915464E+03  0.59833584908E+03  0.46999998093E+01 0.  1.
</event>
<event>
 5   0  0.1536020E-03  0.9006628E+03  0.7818609E-02  0.9424753E-01
       -2   -1    0    0    0  501  0.00000000000E+00  0.00000000000E+00  0.91067194114E+02  0.91067194150E+02  0.25500000920E-02 0. -1.
        2   -1    0    0  501    0  0.00000000000E+00  0.00000000000E+00 -0.22269091693E+04  0.22269091693E+04  0.25500000920E-02 0.  1.
    10030    2    1    2    0    0  0.00000000000E+00  0.00000000000E+00 -0.21358419752E+04  0.23179763634E+04  0.90066279958E+03 0.  0.
        2    1    3    3  502    0  0.36534150216E+03 -0.10894162970E+03 -0.45102314161E+03  0.59056292311E+03  0.25500000920E-02 0. -1.
       -2    1    3    3    0  502 -0.36534150216E+03  0.10894162970E+03 -0.16848188336E+04  0.17274134403E+04  0.25500000920E-02 0.  1.
</event>
<event>
 5   0  0.1704416E-03  0.8994008E+03  0.7818609E-02  0.9426331E-01
       -2   -1    0    0    0  501  0.00000000000E+00  0.00000000000E+00  0.29683663818E+03  0.29683663819E+03  0.25500000920E-02 0. -1.
        2   -1    0    0  501    0  0.00000000000E+00  0.00000000000E+00 -0.68128536199E+03  0.68128536199E+03  0.25500000920E-02 0.  1.
    10030    2    1    2    0    0  0.00000000000E+00  0.00000000000E+00 -0.38444872381E+03  0.97812200018E+03  0.89940081499E+03 0.  0.
        3    1    3    3  502    0 -0.17909204749E+03  0.34389355366E+03 -0.43996491612E+03  0.58643488585E+03  0.10100000352E+00 0.  1.
       -3    1    3    3    0  502  0.17909204749E+03 -0.34389355366E+03  0.55516192313E+02  0.39168711433E+03  0.10100000352E+00 0. -1.
</event>
<event>
 5   0  0.9223454E-04  0.8995420E+03  0.7818609E-02  0.9426154E-01
        1   -1    0    0  501    0  0.00000000000E+00  0.00000000000E+00  0.36373405606E+03  0.36373405610E+03  0.50400001928E-02 0.  1.
       -1   -1    0    0    0  501  0.00000000000E+00  0.00000000000E+00 -0.55615901287E+03  0.55615901289E+03  0.50400001928E-02 0. -1.
    10030    2    1    2    0    0  0.00000000000E+00  0.00000000000E+00 -0.19242495680E+03  0.91989306899E+03  0.89954204703E+03 0.  0.
        1    1    3    3  502    0 -0.15336731430E+03  0.31453096158E+03  0.19274472519E+03  0.39950192490E+03  0.50400001928E-02 0.  1.
       -1    1    3    3    0  502  0.15336731430E+03 -0.31453096158E+03 -0.38516968200E+03  0.52039114409E+03  0.50400001928E-02 0. -1.
</event>
<event>
 5   0  0.1704416E-03  0.9005287E+03  0.7818609E-02  0.9424921E-01
        2   -1    0    0  501    0  0.00000000000E+00  0.00000000000E+00  0.17126762002E+04  0.17126762002E+04  0.25500000920E-02 0.  1.
       -2   -1    0    0    0  501  0.00000000000E+00  0.00000000000E+00 -0.11837497737E+03  0.11837497739E+03  0.25500000920E-02 0. -1.
    10030    2    1    2    0    0  0.00000000000E+00  0.00000000000E+00  0.15943012228E+04  0.18310511776E+04  0.90052874793E+03 0.  0.
        3    1    3    3  502    0  0.39390566591E+03  0.72245408861E+02  0.37867986289E+03  0.55116197392E+03  0.10100000352E+00 0.  1.
       -3    1    3    3    0  502 -0.39390566591E+03 -0.72245408861E+02  0.12156213600E+04  0.12798892037E+04  0.10100000352E+00 0. -1.
</event>
<event>
 5   0  0.1635686E-03  0.8998154E+03  0.7818609E-02  0.9425812E-01
        2   -1    0    0  501    0  0.00000000000E+00  0.00000000000E+00  0.33343273943E+03  0.33343273944E+03  0.25500000920E-02 0. -1.
       -2   -1    0    0    0  501  0.00000000000E+00  0.00000000000E+00 -0.60706980370E+03  0.60706980371E+03  0.25500000920E-02 0.  1.
    10030    2    1    2    0    0  0.00000000000E+00  0.00000000000E+00 -0.27363706428E+03  0.94050254314E+03  0.89981542036E+03 0.  0.
        5    1    3    3  502    0  0.33006452042E+03 -0.10622698259E+02 -0.45614808365E+03  0.56315947437E+03  0.46999998093E+01 0.  1.
       -5    1    3    3    0  502 -0.33006452042E+03  0.10622698259E+02  0.18251101937E+03  0.37734306877E+03  0.46999998093E+01 0. -1.
</event>
<event>
 5   0  0.9223454E-04  0.8950687E+03  0.7818609E-02  0.9431767E-01
        1   -1    0    0  501    0  0.00000000000E+00  0.00000000000E+00  0.14639268230E+04  0.14639268230E+04  0.50400001928E-02 0. -1.
       -1   -1    0    0    0  501  0.00000000000E+00  0.00000000000E+00 -0.13681488136E+03  0.13681488146E+03  0.50400001928E-02 0.  1.
    10030    2    1    2    0    0  0.00000000000E+00  0.00000000000E+00  0.13271119417E+04  0.16007417045E+04  0.89506865591E+03 0.  0.
        1    1    3    3  502    0  0.18716202919E+03  0.92085354745E+02  0.13716761458E+04  0.13874454175E+04  0.50400001928E-02 0. -1.
       -1    1    3    3    0  502 -0.18716202919E+03 -0.92085354745E+02 -0.44564204090E+02  0.21329628698E+03  0.50400001928E-02 0.  1.
</event>
<event>
 5   0  0.1007561E-03  0.9033806E+03  0.7818609E-02  0.9421365E-01
        1   -1    0    0  501    0  0.00000000000E+00  0.00000000000E+00  0.90849747655E+03  0.90849747657E+03  0.50400001928E-02 0. -1.
       -1   -1    0    0    0  501  0.00000000000E+00  0.00000000000E+00 -0.22457315955E+03  0.22457315961E+03  0.50400001928E-02 0.  1.
    10030    2    1    2    0    0  0.00000000000E+00  0.00000000000E+00  0.68392431700E+03  0.11330706362E+04  0.90338064800E+03 0.  0.
        2    1    3    3  502    0  0.27002220411E+03 -0.34333490251E+03  0.19767744322E+03  0.47944469708E+03  0.25500000920E-02 0.  1.
       -2    1    3    3    0  502 -0.27002220411E+03  0.34333490251E+03  0.48624687379E+03  0.65362593910E+03  0.25500000920E-02 0. -1.
</event>
<event>
 5   0  0.1630202E-03  0.9001935E+03  0.7818609E-02  0.9425340E-01
        2   -1    0    0  501    0  0.00000000000E+00  0.00000000000E+00  0.37647408881E+03  0.37647408882E+03  0.25500000920E-02 0.  1.
       -2   -1    0    0    0  501  0.00000000000E+00  0.00000000000E+00 -0.53811697590E+03  0.53811697590E+03  0.25500000920E-02 0. -1.
    10030    2    1    2    0    0  0.00000000000E+00  0.00000000000E+00 -0.16164288709E+03  0.91459106472E+03  0.90019353070E+03 0.  0.
        4    1    3    3  502    0 -0.34335496457E+03 -0.88016414620E+02  0.20100646002E+03  0.40748586578E+03  0.12699999809E+01 0.  1.
       -4    1    3    3    0  502  0.34335496457E+03  0.88016414620E+02 -0.36264934711E+03  0.50710519894E+03  0.12699999809E+01 0. -1.
</event>
<event>
 5   0  0.1630202E-03  0.9031431E+03  0.7818609E-02  0.9421661E-01
        2   -1    0    0  501    0  0.00000000000E+00  0.00000000000E+00  0.61678850568E+03  0.61678850568E+03  0.25500000920E-02 0. -1.
       -2   -1    0    0    0  501  0.00000000000E+00  0.00000000000E+00 -0.33061066437E+03  0.33061066438E+03  0.25500000920E-02 0.  1.
    10030    2    1    2    0    0  0.00000000000E+00  0.00000000000E+00  0.28617784131E+03  0.94739917007E+03  0.90314308423E+03 0.  0.
        4    1    3    3  502    0  0.43237146888E+03 -0.11737716972E+03  0.20236226307E+03  0.49160409426E+03  0.12699999809E+01 0. -1.
       -4    1    3    3    0  502 -0.43237146888E+03  0.11737716972E+03  0.83815578241E+02  0.45579507581E+03  0.12699999809E+01 0.  1.
</event>
<event>
 5   0  0.1536020E-03  0.9003937E+03  0.7818609E-02  0.9425089E-01
        2   -1    0    0  501    0  0.00000000000E+00  0.00000000000E+00  0.69627372875E+03  0.69627372876E+03  0.25500000920E-02 0.  1.
       -2   -1    0    0    0  501  0.00000000000E+00  0.00000000000E+00 -0.29108838064E+03  0.29108838065E+03  0.25500000920E-02 0. -1.
    10030    2    1    2    0    0  0.00000000000E+00  0.00000000000E+00  0.40518534812E+03  0.98736210940E+03  0.90039367432E+03 0.  0.
        2    1    3    3  502    0  0.15073985619E+03  0.15314316476E+03 -0.23122153435E+03  0.31565603290E+03  0.25500000920E-02 0. -1.
       -2    1    3    3    0  502 -0.15073985619E+03 -0.15314316476E+03  0.63640688246E+03  0.67170607650E+03  0.25500000920E-02 0.  1.
</event>
<event>
 5   0  0.1641516E-03  0.8997150E+03  0.7818609E-02  0.9425938E-01
        2   -1    0    0  501    0  0.00000000000E+00  0.00000000000E+00  0.23186320659E+03  0.23186320661E+03  0.25500000920E-02 0.  1.
       -2   -1    0    0    0  501  0.00000000000E+00  0.00000000000E+00 -0.87280681280E+03  0.87280681281E+03  0.25500000920E-02 0. -1.
    10030    2    1    2    0    0  0.00000000000E+00  0.00000000000E+00 -0.64094360621E+03  0.11046700194E+04  0.89971503569E+03 0.  0.
        1    1    3    3  502    0 -0.12794138303E+03 -0.12830411175E+02  0.20881985404E+03  0.24523325307E+03  0.50400001928E-02 0.  1.
       -1    1    3    3    0  502  0.12794138303E+03  0.12830411175E+02 -0.84976346025E+03  0.85943676635E+03  0.50400001928E-02 0. -1.
</event>
<event>
 5   0  0.1630202E-03  0.8990504E+03  0.7818609E-02  0.9426769E-01
        2   -1    0    0  501    0  0.00000000000E+00  0.00000000000E+00  0.27023128569E+03  0.27023128570E+03  0.25500000920E-02 0. -1.
       -2   -1    0    0    0  501  0.00000000000E+00  0.00000000000E+00 -0.74777764823E+03  0.74777764824E+03  0.25500000920E-02 0.  1.
    10030    2    1    2    0    0  0.00000000000E+00  0.00000000000E+00 -0.47754636254E+03  0.10180089339E+04  0.89905042194E+03 0.  0.
        4    1    3    3  502    0 -0.38143520393E+03  0.23076623469E+03 -0.30406993794E+03  0.53963507107E+03  0.12699999809E+01 0.  1.
       -4    1    3    3    0  502  0.38143520393E+03 -0.23076623469E+03 -0.17347642461E+03  0.47837386286E+03  0.12699999809E+01 0. -1.
</event>
<event>
 5   0  0.1704416E-03  0.9023756E+03  0.7818609E-02  0.9422617E-01
       -2   -1    0    0    0  501  0.00000000000E+00  0.00000000000E+00  0.10973654565E+04  0.10973654565E+04  0.25500000920E-02 0.  1.
        2   -1    0    0  501    0  0.00000000000E+00  0.00000000000E+00 -0.18550833062E+03  0.18550833064E+03  0.25500000920E-02 0. -1.
    10030    2    1    2    0    0  0.00000000000E+00  0.00000000000E+00  0.91185712585E+03  0.12828737871E+04  0.90237560677E+03 0.  0.
        3    1    3    3  502    0  0.27147703874E+03 -0.35078306752E+03  0.33850678694E+03  0.55797437040E+03  0.10100000352E+00 0. -1.
       -3    1    3    3    0  502 -0.27147703874E+03  0.35078306752E+03  0.57335033891E+03  0.72489941671E+03  0.10100000352E+00 0.  1.
</event>
<event>
 5   0  0.9223454E-04  0.9009922E+03  0.7818609E-02  0.9424342E-01
       -1   -1    0    0    0  501  0.00000000000E+00  0.00000000000E+00  0.82845145624E+02  0.82845145777E+02  0.50400001928E-02 0.  1.
        1   -1    0    0  501    0  0.00000000000E+00  0.00000000000E+00 -0.24497120254E+04  0.24497120254E+04  0.50400001928E-02 0. -1.
    10030    2    1    2    0    0  0.00000000000E+00  0.00000000000E+00 -0.23668668798E+04  0.25325571712E+04  0.90099223011E+03 0.  0.
        1    1    3    3  502    0 -0.42485887219E+03 -0.53775189215E+02 -0.79041703757E+03  0.89897493044E+03  0.50400001928E-02 0.  1.
       -1    1    3    3    0  502  0.42485887219E+03  0.53775189215E+02 -0.15764498422E+04  0.16335822407E+04  0.50400001928E-02 0. -1.
</event>
<event>
 5   0  0.9321543E-04  0.8972862E+03  0.7818609E-02  0.9428980E-01
        1   -1    0    0  501    0  0.00000000000E+00  0.00000000000E+00  0.18752097770E+03  0.18752097777E+03  0.50400001928E-02 0.  1.
       -1   -1    0    0    0  501  0.00000000000E+00  0.00000000000E+00 -0.10733767158E+04  0.10733767158E+04  0.50400001928E-02 0. -1.
    10030    2    1    2    0    0  0.00000000000E+00  0.00000000000E+00 -0.88585573808E+03  0.12608976936E+04  0.89728624471E+03 0.  0.
        3    1    3    3  502    0  0.21158755217E+03  0.33538616209E+03 -0.14807136608E+03  0.42329458963E+03  0.10100000352E+00 0.  1.
       -3    1    3    3    0  502 -0.21158755217E+03 -0.33538616209E+03 -0.73778437200E+03  0.83760310394E+03  0.10100000352E+00 0. -1.
</event>
<event>
 5   0  0.9981885E-04  0.8995836E+03  0.7818609E-02  0.9426102E-01
        1   -1    0    0  501    0  0.00000000000E+00  0.00000000000E+00  0.30289047021E+03  0.30289047025E+03  0.50400001928E-02 0. -1.
       -1   -1    0    0    0  501  0.00000000000E+00  0.00000000000E+00 -0.66793998020E+03  0.66793998022E+03  0.50400001928E-02 0.  1.
    10030    2    1    2    0    0  0.00000000000E+00  0.00000000000E+00 -0.36504950999E+03  0.97083045047E+03  0.89958358079E+03 0.  0.
        4    1    3    3  502    0  0.15860850083E+03 -0.25259586245E+03 -0.54586381383E+03  0.62203717124E+03  0.12699999809E+01 0.  1.
       -4    1    3    3    0  502 -0.15860850083E+03  0.25259586245E+03  0.18081430384E+03  0.34879327923E+03  0.12699999809E+01 0. -1.
</event>
<event>
 5   0  0.9223454E-04  0.8978931E+03  0.7818609E-02  0.9428219E-01
       -1   -1    0    0    0  501  0.00000000000E+00  0.00000000000E+00  0.10802184738E+03  0.10802184750E+03  0.50400001928E-02 0.  1.
        1   -1    0    0  501    0  0.00000000000E+00  0.00000000000E+00 -0.18658540438E+04  0.18658540438E+04  0.50400001928E-02 0. -1.
    10030    2    1    2    0    0  0.00000000000E+00  0.00000000000E+00 -0.17578321965E+04  0.19738758913E+04  0.89789309135E+03 0.  0.
        1    1    3    3  502    0  0.37724315714E+03 -0.21531726918E+03 -0.62943505815E+03  0.76476298189E+03  0.50400001928E-02 0. -1.
       -1    1    3    3    0  502 -0.37724315714E+03  0.21531726918E+03 -0.11283971383E+04  0.12091129094E+04  0.50400001928E-02 0.  1.
</event>
<event>
 5   0  0.1641516E-03  0.8983635E+03  0.7818609E-02  0.9427629E-01
        2   -1    0    0  501    0  0.00000000000E+00  0.00000000000E+00  0.16163787034E+04  0.16163787034E+04  0.25500000920E-02 0. -1.
       -2   -1    0    0    0  501  0.00000000000E+00  0.00000000000E+00 -0.12482487305E+03  0.12482487308E+03  0.25500000920E-02 0.  1.
    10030    2    1    2    0    0  0.00000000000E+00  0.00000000000E+00  0.14915538304E+04  0.17412035765E+04  0.89836354888E+03 0.  0.
        1    1    3    3  502    0  0.19576874846E+03  0.36174106026E+03  0.39592191097E+03  0.57090818628E+03  0.50400001928E-02 0.  1.
       -1    1    3    3    0  502 -0.19576874846E+03 -0.36174106026E+03  0.10956319194E+04  0.11702953902E+04  0.50400001928E-02 0. -1.
</event>
<event>
 5   0  0.1630202E-03  0.9007624E+03  0.7818609E-02  0.9424629E-01
        2   -1    0    0  501    0  0.00000000000E+00  0.00000000000E+00  0.10681252566E+04  0.10681252566E+04  0.25500000920E-02 0. -1.
       -2   -1    0    0    0  501  0.00000000000E+00  0.00000000000E+00 -0.18990583487E+03  0.18990583489E+03  0.25500000920E-02 0.  1.
    10030    2    1    2    0    0  0.00000000000E+00  0.00000000000E+00  0.87821942171E+03  0.12580310915E+04  0.90076238512E+03 0.  0.
        4    1    3    3  502    0 -0.42287614467E+03  0.64481078025E+02  0.63592823526E+03  0.76641266720E+03  0.12699999809E+01 0. -1.
       -4    1    3    3    0  502  0.42287614467E+03 -0.64481078025E+02  0.24229118646E+03  0.49161842427E+03  0.12699999809E+01 0.  1.
</event>
<event>
 5   0  0.1536020E-03  0.9201349E+03  0.7818609E-02  0.9400756E-01
        2   -1    0    0  501    0  0.00000000000E+00  0.00000000000E+00  0.13585054146E+04  0.13585054146E+04  0.25500000920E-02 0. -1.
       -2   -1    0    0    0  501  0.00000000000E+00  0.00000000000E+00 -0.15580507653E+03  0.15580507655E+03  0.25500000920E-02 0.  1.
    10030    2    1    2    0    0  0.00000000000E+00  0.00000000000E+00  0.12027003381E+04  0.15143104912E+04  0.92013485993E+03 0.  0.
        2    1    3    3  502    0  0.34070244867E+03 -0.27994285387E+03  0.81728766545E+03  0.92865778846E+03  0.25500000920E-02 0.  1.
       -2    1    3    3    0  502 -0.34070244867E+03  0.27994285387E+03  0.38541267266E+03  0.58565270274E+03  0.25500000920E-02 0. -1.
</event>
<event>
 5   0  0.9697941E-04  0.8999706E+03  0.7818609E-02  0.9425618E-01
        1   -1    0    0  501    0  0.00000000000E+00  0.00000000000E+00  0.67461135084E+03  0.67461135086E+03  0.50400001928E-02 0.  1.
       -1   -1    0    0    0  501  0.00000000000E+00  0.00000000000E+00 -0.30015322585E+03  0.30015322590E+03  0.50400001928E-02 0. -1.
    10030    2    1    2    0    0  0.00000000000E+00  0.00000000000E+00  0.37445812498E+03  0.97476457675E+03  0.89997060659E+03 0.  0.
        5    1    3    3  502    0 -0.29524414500E+02 -0.19776951615E+03  0.62381691679E+03  0.65509854850E+03  0.46999998093E+01 0.  1.
       -5    1    3    3    0  502  0.29524414500E+02  0.19776951615E+03 -0.24935879181E+03  0.31966602825E+03  0.46999998093E+01 0. -1.
</event>
<event>
 5   0  0.9321543E-04  0.9010078E+03  0.7818609E-02  0.9424322E-01
        1   -1    0    0  501    0  0.00000000000E+00  0.00000000000E+00  0.63365091186E+03  0.63365091188E+03  0.50400001928E-02 0. -1.
       -1   -1    0    0    0  501  0.00000000000E+00  0.00000000000E+00 -0.32029271704E+03  0.32029271708E+03  0.50400001928E-02 0.  1.
    10030    2    1    2    0    0  0.00000000000E+00  0.00000000000E+00  0.31335819481E+03  0.95394362896E+03  0.90100781849E+03 0.  0.
        3    1    3    3  502    0  0.42649292211E+03 -0.88325968031E+02  0.34779690499E+02  0.43692942944E+03  0.10100000352E+00 0.  1.
       -3    1    3    3    0  502 -0.42649292211E+03  0.88325968031E+02  0.27857850431E+03  0.51701419952E+03  0.10100000352E+00 0. -1.
</event>
<event>
 5   0  0.1641516E-03  0.9002938E+03  0.7818609E-02  0.9425214E-01
       -2   -1    0    0    0  501  0.00000000000E+00  0.00000000000E+00  0.43288977320E+03  0.43288977321E+03  0.25500000920E-02 0.  1.
        2   -1    0    0  501    0  0.00000000000E+00  0.00000000000E+00 -0.46809193024E+03  0.46809193025E+03  0.25500000920E-02 0. -1.
    10030    2    1    2    0    0  0.00000000000E+00  0.00000000000E+00 -0.35202157037E+02  0.90098170346E+03  0.90029375101E+03 0.  0.
        1    1    3    3  502    0  0.20708266614E+03  0.39639219153E+03 -0.68847721286E+02  0.45249310367E+03  0.50400001928E-02 0. -1.
       -1    1    3    3    0  502 -0.20708266614E+03 -0.39639219153E+03  0.33645564248E+02  0.44848859978E+03  0.50400001928E-02 0.  1.
</event>
<event>
 5   0  0.9981885E-04  0.8987996E+03  0.7818609E-02  0.9427083E-01
       -1   -1    0    0    0  501  0.00000000000E+00  0.00000000000E+00  0.15414241973E+03  0.15414241981E+03  0.50400001928E-02 0.  1.
        1   -1    0    0  501    0  0.00000000000E+00  0.00000000000E+00 -0.13102181790E+04  0.13102181790E+04  0.50400001928E-02 0. -1.
    10030    2    1    2    0    0  0.00000000000E+00  0.00000000000E+00 -0.11560757593E+04  0.14643605988E+04  0.89879964520E+03 0.  0.
        4    1    3    3  502    0 -0.29492099343E+03  0.43825831051E+02 -0.30216903875E+02  0.29968945596E+03  0.12699999809E+01 0.  1.
       -4    1    3    3    0  502  0.29492099343E+03 -0.43825831051E+02 -0.11258588554E+04  0.11646711429E+04  0.12699999809E+01 0. -1.
</event>
<event>
 5   0  0.9321543E-04  0.8993596E+03  0.7818609E-02  0.9426382E-01
        1   -1    0    0  501    0  0.00000000000E+00  0.00000000000E+00  0.51770501349E+03  0.51770501351E+03  0.50400001928E-02 0.  1.
       -1   -1    0    0    0  501  0.00000000000E+00  0.00000000000E+00 -0.39059290468E+03  0.39059290471E+03  0.50400001928E-02 0. -1.
    10030    2    1    2    0    0  0.00000000000E+00  0.00000000000E+00  0.12711210881E+03  0.90829791823E+03  0.89935956105E+03 0.  0.
        3    1    3    3  502    0  0.12478059622E+03  0.11505518554E+03 -0.35700061137E+03  0.39529399139E+03  0.10100000352E+00 0. -1.
       -3    1    3    3    0  502 -0.12478059622E+03 -0.11505518554E+03  0.48411272018E+03  0.51300392684E+03  0.10100000352E+00 0.  1.
</event>
<event>
 5   0  0.9223454E-04  0.9005888E+03  0.7818609E-02  0.9424846E-01
       -1   -1    0    0    0  501  0.00000000000E+00  0.00000000000E+00  0.76656354069E+03  0.76656354070E+03  0.50400001928E-02 0.  1.
        1   -1    0    0  501    0  0.00000000000E+00  0.00000000000E+00 -0.26451170599E+03  0.26451170604E+03  0.50400001928E-02 0. -1.
    10030    2    1    2    0    0  0.00000000000E+00  0.00000000000E+00  0.50205183470E+03  0.10310752467E+04  0.90058876282E+03 0.  0.
        1    1    3    3  502    0  0.13444470990E+03 -0.92411293964E+02  0.73153866925E+03  0.74950920736E+03  0.50400001928E-02 0.  1.
       -1    1    3    3    0  502 -0.13444470990E+03  0.92411293964E+02 -0.22948683456E+03  0.28156603938E+03  0.50400001928E-02 0. -1.
</event>
<event>
 5   0  0.6375625E-04  0.8975608E+03  0.7818609E-02  0.9428636E-01
       -3   -1    0    0    0  501  0.00000000000E+00  0.00000000000E+00  0.20781975393E+03  0.20781977847E+03  0.10100000352E+00 0. -1.
        3   -1    0    0  501    0  0.00000000000E+00  0.00000000000E+00 -0.96912751842E+03  0.96912752368E+03  0.10100000352E+00 0.  1.
    10030    2    1    2    0    0  0.00000000000E+00  0.00000000000E+00 -0.76130776449E+03  0.11769473022E+04  0.89756082790E+03 0.  0.
        3    1    3    3  502    0  0.28903897279E+03 -0.18130185274E+03 -0.76292980037E+03  0.83574863452E+03  0.10100000352E+00 0.  1.
       -3    1    3    3    0  502 -0.28903897279E+03  0.18130185274E+03  0.16220358836E+01  0.34119866764E+03  0.10100000352E+00 0. -1.
</event>
<event>
 5   0  0.9697941E-04  0.9000731E+03  0.7818609E-02  0.9425490E-01
        1   -1    0    0  501    0  0.00000000000E+00  0.00000000000E+00  0.12944371731E+04  0.12944371731E+04  0.50400001928E-02 0. -1.
       -1   -1    0    0    0  501  0.00000000000E+00  0.00000000000E+00 -0.15646407795E+03  0.15646407804E+03  0.50400001928E-02 0.  1.
    10030    2    1    2    0    0  0.00000000000E+00  0.00000000000E+00  0.11379730951E+04  0.14509012511E+04  0.90007314997E+03 0.  0.
        5    1    3    3  502    0 -0.43000540431E+03 -0.12902940567E+03  0.61886932858E+03  0.76457476490E+03  0.46999998093E+01 0. -1.
       -5    1    3    3    0  502  0.43000540431E+03  0.12902940567E+03  0.51910376656E+03  0.68632648624E+03  0.46999998093E+01 0.  1.
</event>
<event>
 5   0  0.9321543E-04  0.9001937E+03  0.7818609E-02  0.9425339E-01
       -1   -1    0    0    0  501  0.00000000000E+00  0.00000000000E+00  0.31615245858E+03  0.31615245862E+03  0.50400001928E-02 0. -1.
        1   -1    0    0  501    0  0.00000000000E+00  0.00000000000E+00 -0.64078956243E+03  0.64078956245E+03  0.50400001928E-02 0.  1.
    10030    2    1    2    0    0  0.00000000000E+00  0.00000000000E+00 -0.32463710385E+03  0.95694202108E+03  0.90019374720E+03 0.  0.
        3    1    3    3  502    0  0.23849038980E+03  0.16913186048E+02 -0.56770280586E+03  0.61599529858E+03  0.10100000352E+00 0.  1.
       -3    1    3    3    0  502 -0.23849038980E+03 -0.16913186048E+02  0.24306570201E+03  0.34094672250E+03  0.10100000352E+00 0. -1.
</event>
<event>
 5   0  0.1630202E-03  0.8945229E+03  0.7818609E-02  0.9432454E-01
       -2   -1    0    0    0  501  0.00000000000E+00  0.00000000000E+00  0.38694829258E+03  0.38694829259E+03  0.25500000920E-02 0.  1.
        2   -1    0    0  501    0  0.00000000000E+00  0.00000000000E+00 -0.51697555384E+03  0.51697555384E+03  0.25500000920E-02 0. -1.
    10030    2    1    2    0    0  0.00000000000E+00  0.00000000000E+00 -0.13002726126E+03  0.90392384643E+03  0.89452290719E+03 0.  0.
        4    1    3    3  502    0  0.79140853920E+01  0.33503691875E+03  0.23428968931E+03  0.40890786382E+03  0.12699999809E+01 0.  1.
       -4    1    3    3    0  502 -0.79140853920E+01 -0.33503691875E+03 -0.36431695057E+03  0.49501598262E+03  0.12699999809E+01 0. -1.
</event>
<event>
 5   0  0.1641516E-03  0.9008489E+03  0.7818609E-02  0.9424521E-01
        2   -1    0    0  501    0  0.00000000000E+00  0.00000000000E+00  0.43048716881E+03  0.43048716882E+03  0.25500000920E-02 0.  1.
       -2   -1    0    0    0  501  0.00000000000E+00  0.00000000000E+00 -0.47128509988E+03  0.47128509989E+03  0.25500000920E-02 0. -1.
    10030    2    1    2    0    0  0.00000000000E+00  0.00000000000E+00 -0.40797931067E+02  0.90177226871E+03  0.90084890711E+03 0.  0.
        1    1    3    3  502    0  0.13000119720E+03  0.57591916241E+02  0.40743242654E+03  0.43153021020E+03  0.50400001928E-02 0.  1.
       -1    1    3    3    0  502 -0.13000119720E+03 -0.57591916241E+02 -0.44823035761E+03  0.47024205851E+03  0.50400001928E-02 0. -1.
</event>
<event>
 5   0  0.9981885E-04  0.8988397E+03  0.7818609E-02  0.9427033E-01
        1   -1    0    0  501    0  0.00000000000E+00  0.00000000000E+00  0.30409859223E+03  0.30409859227E+03  0.50400001928E-02 0.  1.
       -1   -1    0    0    0  501  0.00000000000E+00  0.00000000000E+00 -0.66418651062E+03  0.66418651064E+03  0.50400001928E-02 0. -1.
    10030    2    1    2    0    0  0.00000000000E+00  0.00000000000E+00 -0.36008791839E+03  0.96828510290E+03  0.89883965841E+03 0.  0.
        4    1    3    3  502    0  0.26832413146E+03 -0.35038971832E+03 -0.88598657799E+02  0.45013567876E+03  0.12699999809E+01 0.  1.
       -4    1    3    3    0  502 -0.26832413146E+03  0.35038971832E+03 -0.27148926059E+03  0.51814942415E+03  0.12699999809E+01 0. -1.
</event>
<event>
 5   0  0.1635686E-03  0.8995602E+03  0.7818609E-02  0.9426131E-01
        2   -1    0    0  501    0  0.00000000000E+00  0.00000000000E+00  0.65319038327E+03  0.65319038327E+03  0.25500000920E-02 0.  1.
       -2   -1    0    0    0  501  0.00000000000E+00  0.00000000000E+00 -0.30971389997E+03  0.30971389998E+03  0.25500000920E-02 0. -1.
    10030    2    1    2    0    0  0.00000000000E+00  0.00000000000E+00  0.34347648329E+03  0.96290428325E+03  0.89956020595E+03 0.  0.
        5    1    3    3  502    0 -0.21269395902E+03  0.31741805274E+03 -0.82217105309E+02  0.39086402087E+03  0.46999998093E+01 0. -1.
       -5    1    3    3    0  502  0.21269395902E+03 -0.31741805274E+03  0.42569358860E+03  0.57204026238E+03  0.46999998093E+01 0.  1.
</event>
<event>
 5   0  0.9981885E-04  0.9004669E+03  0.7818609E-02  0.9424998E-01
       -1   -1    0    0    0  501  0.00000000000E+00  0.00000000000E+00  0.41038124699E+03  0.41038124702E+03  0.50400001928E-02 0.  1.
        1   -1    0    0  501    0  0.00000000000E+00  0.00000000000E+00 -0.49395571061E+03  0.49395571064E+03  0.50400001928E-02 0. -1.
    10030    2    1    2    0    0  0.00000000000E+00  0.00000000000E+00 -0.83574463626E+02  0.90433695765E+03  0.90046690223E+03 0.  0.
        4    1    3    3  502    0 -0.61746045892E+02  0.20809727369E+03  0.35435893353E+03  0.41555855926E+03  0.12699999809E+01 0.  1.
       -4    1    3    3    0  502  0.61746045892E+02 -0.20809727369E+03 -0.43793339715E+03  0.48877839840E+03  0.12699999809E+01 0. -1.
</event>
<event>
 5   0  0.9223454E-04  0.9030933E+03  0.7818609E-02  0.9421723E-01
       -1   -1    0    0    0  501  0.00000000000E+00  0.00000000000E+00  0.17044436251E+04  0.17044436251E+04  0.50400001928E-02 0. -1.
        1   -1    0    0  501    0  0.00000000000E+00  0.00000000000E+00 -0.11962518992E+03  0.11962519002E+03  0.50400001928E-02 0.  1.
    10030    2    1    2    0    0  0.00000000000E+00  0.00000000000E+00  0.15848184352E+04  0.18240688152E+04  0.90309333396E+03 0.  0.
        1    1    3    3  502    0  0.44977202805E+03 -0.37061384255E+02  0.82277140337E+03  0.93841419727E+03  0.50400001928E-02 0.  1.
       -1    1    3    3    0  502 -0.44977202805E+03  0.37061384255E+02  0.76204703185E+03  0.88565461789E+03  0.50400001928E-02 0. -1.
</event>
<event>
 5   0  0.9223454E-04  0.8992571E+03  0.7818609E-02  0.9426511E-01
       -1   -1    0    0    0  501  0.00000000000E+00  0.00000000000E+00  0.12614633229E+04  0.12614633229E+04  0.50400001928E-02 0. -1.
        1   -1    0    0  501    0  0.00000000000E+00  0.00000000000E+00 -0.16026293292E+03  0.16026293300E+03  0.50400001928E-02 0.  1.
    10030    2    1    2    0    0  0.00000000000E+00  0.00000000000E+00  0.11012003900E+04  0.14217262559E+04  0.89925705326E+03 0.  0.
        1    1    3    3  502    0  0.30938440330E+03 -0.27201751217E+03  0.26578483299E+03  0.49025892486E+03  0.50400001928E-02 0.  1.
       -1    1    3    3    0  502 -0.30938440330E+03  0.27201751217E+03  0.83541555697E+03  0.93146733103E+03  0.50400001928E-02 0. -1.
</event>
<event>
 5   0  0.9321543E-04  0.9037024E+03  0.7818609E-02  0.9420965E-01
       -1   -1    0    0    0  501  0.00000000000E+00  0.00000000000E+00  0.18315905822E+04  0.18315905822E+04  0.50400001928E-02 0.  1.
        1   -1    0    0  501    0  0.00000000000E+00  0.00000000000E+00 -0.11147113719E+03  0.11147113730E+03  0.50400001928E-02 0. -1.
    10030    2    1    2    0    0  0.00000000000E+00  0.00000000000E+00  0.17201194450E+04  0.19430617195E+04  0.90370235184E+03 0.  0.
        3    1    3    3  502    0 -0.34391128319E+03  0.17515174178E+02  0.14890832928E+04  0.15283817636E+04  0.10100000352E+00 0.  1.
       -3    1    3    3    0  502  0.34391128319E+03 -0.17515174178E+02  0.23103615215E+03  0.41467995591E+03  0.10100000352E+00 0. -1.
</event>
<event>
 5   0  0.1635686E-03  0.9003099E+03  0.7818609E-02  0.9425194E-01
       -2   -1    0    0    0  501  0.00000000000E+00  0.00000000000E+00  0.23899759825E+03  0.23899759827E+03  0.25500000920E-02 0. -1.
        2   -1    0    0  501    0  0.00000000000E+00  0.00000000000E+00 -0.84787245473E+03  0.84787245473E+03  0.25500000920E-02 0.  1.
    10030    2    1    2    0    0  0.00000000000E+00  0.00000000000E+00 -0.60887485648E+03  0.10868700530E+04  0.90030990290E+03 0.  0.
        5    1    3    3  502    0 -0.20693509883E+03 -0.30500961821E+03 -0.61636806487E+03  0.71818151168E+03  0.46999998093E+01 0.  1.
       -5    1    3    3    0  502  0.20693509883E+03  0.30500961821E+03  0.74932083946E+01  0.36868854132E+03  0.46999998093E+01 0. -1.
</event>
<event>
 5   0  0.1641516E-03  0.8994648E+03  0.7818609E-02  0.9426251E-01
       -2   -1    0    0    0  501  0.00000000000E+00  0.00000000000E+00  0.25009414302E+03  0.25009414303E+03  0.25500000920E-02 0.  1.
        2   -1    0    0  501    0  0.00000000000E+00  0.00000000000E+00 -0.80873236866E+03  0.80873236866E+03  0.25500000920E-02 0. -1.
    10030    2    1    2    0    0  0.00000000000E+00  0.00000000000E+00 -0.55863822563E+03  0.10588265117E+04  0.89946479349E+03 0.  0.
        1    1    3    3  502    0 -0.88749453182E+01 -0.78450241492E+02 -0.80051082742E+03  0.80439467296E+03  0.50400001928E-02 0. -1.
       -1    1    3    3    0  502  0.88749453182E+01  0.78450241492E+02  0.24187260178E+03  0.25443183874E+03  0.50400001928E-02 0.  1.
</event>
<event>
 5   0  0.9981885E-04  0.8999438E+03  0.7818609E-02  0.9425652E-01
       -1   -1    0    0    0  501  0.00000000000E+00  0.00000000000E+00  0.83534454091E+03  0.83534454093E+03  0.50400001928E-02 0.  1.
        1   -1    0    0  501    0  0.00000000000E+00  0.00000000000E+00 -0.24238468525E+03  0.24238468530E+03  0.50400001928E-02 0. -1.
    10030    2    1    2    0    0  0.00000000000E+00  0.00000000000E+00  0.59295985567E+03  0.10777292262E+04  0.89994382860E+03 0.  0.
        4    1    3    3  502    0 -0.57125408988E+02  0.24709655411E+03 -0.14863746124E+03  0.29396381952E+03  0.12699999809E+01 0. -1.
       -4    1    3    3    0  502  0.57125408988E+02 -0.24709655411E+03  0.74159731691E+03  0.78376540670E+03  0.12699999809E+01 0.  1.
</event>
<event>
 5   0  0.9321543E-04  0.9022284E+03  0.7818609E-02  0.9422800E-01
       -1   -1    0    0    0  501  0.00000000000E+00  0.00000000000E+00  0.76210174003E+03  0.76210174005E+03  0.50400001928E-02 0. -1.
        1   -1    0    0  501    0  0.00000000000E+00  0.00000000000E+00 -0.26702997065E+03  0.26702997070E+03  0.50400001928E-02 0.  1.
    10030    2    1    2    0    0  0.00000000000E+00  0.00000000000E+00  0.49507176938E+03  0.10291317107E+04  0.90222836424E+03 0.  0.
        3    1    3    3  502    0  0.90812244622E+01  0.42170319762E+03  0.42999776347E+03  0.60234055343E+03  0.10100000352E+00 0. -1.
       -3    1    3    3    0  502 -0.90812244622E+01 -0.42170319762E+03  0.65074005910E+02  0.42679115732E+03  0.10100000352E+00 0.  1.
</event>
<event>
 5   0  0.1635686E-03  0.9023540E+03  0.7818609E-02  0.9422644E-01
       -2   -1    0    0    0  501  0.00000000000E+00  0.00000000000E+00  0.12667199651E+04  0.12667199651E+04  0.25500000920E-02 0. -1.
        2   -1    0    0  501    0  0.00000000000E+00  0.00000000000E+00 -0.16069905137E+03  0.16069905139E+03  0.25500000920E-02 0.  1.
    10030    2    1    2    0    0  0.00000000000E+00  0.00000000000E+00  0.11060209137E+04  0.14274190164E+04  0.90235402532E+03 0.  0.
        5    1    3    3  502    0 -0.18791957385E+03 -0.40871396307E+03  0.60729780910E+03  0.75577350362E+03  0.46999998093E+01 0.  1.
       -5    1    3    3    0  502  0.18791957385E+03  0.40871396307E+03  0.49872310459E+03  0.67164551282E+03  0.46999998093E+01 0. -1.
</event>
<event>
 5   0  0.9321543E-04  0.9016878E+03  0.7818609E-02  0.9423474E-01
        1   -1    0    0  501    0  0.00000000000E+00  0.00000000000E+00  0.87211681797E+03  0.87211681799E+03  0.50400001928E-02 0.  1.
       -1   -1    0    0    0  501  0.00000000000E+00  0.00000000000E+00 -0.23306537007E+03  0.23306537012E+03  0.50400001928E-02 0. -1.
    10030    2    1    2    0    0  0.00000000000E+00  0.00000000000E+00  0.63905144791E+03  0.11051821881E+04  0.90168781507E+03 0.  0.
        3    1    3    3  502    0 -0.24573998978E+03 -0.13625086815E+02  0.78251295858E+03  0.82030502017E+03  0.10100000352E+00 0.  1.
       -3    1    3    3    0  502  0.24573998978E+03  0.13625086815E+02 -0.14346151068E+03  0.28487716794E+03  0.10100000352E+00 0. -1.
</event>
<event>
 5   0  0.9223454E-04  0.8927133E+03  0.7818609E-02  0.9434736E-01
        1   -1    0    0  501    0  0.00000000000E+00  0.00000000000E+00  0.12457083715E+04  0.12457083715E+04  0.50400001928E-02 0. -1.
       -1   -1    0    0    0  501  0.00000000000E+00  0.00000000000E+00 -0.15993651302E+03  0.15993651310E+03  0.50400001928E-02 0.  1.
    10030    2    1    2    0    0  0.00000000000E+00  0.00000000000E+00  0.10857718585E+04  0.14056448846E+04  0.89271328710E+03 0.  0.
        1    1    3    3  502    0  0.34481463296E+02 -0.49983051206E+02 -0.15340248731E+03  0.16498363512E+03  0.50400001928E-02 0.  1.
       -1    1    3    3    0  502 -0.34481463296E+02  0.49983051206E+02  0.12391743458E+04  0.12406612495E+04  0.50400001928E-02 0. -1.
</event>
<event>
 5   0  0.1630202E-03  0.8996066E+03  0.7818609E-02  0.9426073E-01
        2   -1    0    0  501    0  0.00000000000E+00  0.00000000000E+00  0.78525958810E+03  0.78525958810E+03  0.25500000920E-02 0.  1.
       -2   -1    0    0    0  501  0.00000000000E+00  0.00000000000E+00 -0.25765113472E+03  0.25765113474E+03  0.25500000920E-02 0. -1.
    10030    2    1    2    0    0  0.00000000000E+00  0.00000000000E+00  0.52760845337E+03  0.10429107228E+04  0.89960663389E+03 0.  0.
        4    1    3    3  502    0  0.23697685212E+03  0.38038086539E+02 -0.17721090261E+03  0.29834584189E+03  0.12699999809E+01 0. -1.
       -4    1    3    3    0  502 -0.23697685212E+03 -0.38038086539E+02  0.70481935599E+03  0.74456488095E+03  0.12699999809E+01 0.  1.
</event>
<event>
 5   0  0.1536020E-03  0.9007065E+03  0.7818609E-02  0.9424699E-01
        2   -1    0    0  501    0  0.00000000000E+00  0.00000000000E+00  0.47818797805E+03  0.47818797805E+03  0.25500000920E-02 0. -1.
       -2   -1    0    0    0  501  0.00000000000E+00  0.00000000000E+00 -0.42413872718E+03  0.42413872718E+03  0.25500000920E-02 0.  1.
    10030    2    1    2    0    0  0.00000000000E+00  0.00000000000E+00  0.54049250871E+02  0.90232670524E+03  0.90070647908E+03 0.  0.
        2    1    3    3  502    0  0.37847122154E+03 -0.92317012747E+02 -0.19933568288E+03  0.43760439995E+03  0.25500000920E-02 0.  1.
       -2    1    3    3    0  502 -0.37847122154E+03  0.92317012747E+02  0.25338493375E+03  0.46472230529E+03  0.25500000920E-02 0. -1.
</event>
<event>
 5   0  0.1007561E-03  0.8998185E+03  0.7818609E-02  0.9425808E-01
       -1   -1    0    0    0  501  0.00000000000E+00  0.00000000000E+00  0.91688925280E+02  0.91688925419E+02  0.50400001928E-02 0. -1.
        1   -1    0    0  501    0  0.00000000000E+00  0.00000000000E+00 -0.22076640926E+04  0.22076640926E+04  0.50400001928E-02 0.  1.
    10030    2    1    2    0    0  0.00000000000E+00  0.00000000000E+00 -0.21159751674E+04  0.22993530181E+04  0.89981853326E+03 0.  0.
        2    1    3    3  502    0 -0.25133934838E+03 -0.17987113090E+03 -0.22252717666E+03  0.38084568546E+03  0.25500000920E-02 0. -1.
       -2    1    3    3    0  502  0.25133934838E+03  0.17987113090E+03 -0.18934479907E+04  0.19185073326E+04  0.25500000920E-02 0.  1.
</event>
<event>
 5   0  0.1536020E-03  0.8996719E+03  0.7818609E-02  0.9425992E-01
        2   -1    0    0  501    0  0.00000000000E+00  0.00000000000E+00  0.86785917922E+03  0.86785917922E+03  0.25500000920E-02 0.  1.
       -2   -1    0    0    0  501  0.00000000000E+00  0.00000000000E+00 -0.23316266683E+03  0.23316266685E+03  0.25500000920E-02 0. -1.
    10030    2    1    2    0    0  0.00000000000E+00  0.00000000000E+00  0.63469651238E+03  0.11010218461E+04  0.89967185278E+03 0.  0.
        2    1    3    3  502    0 -0.18609683046E+03 -0.48141602591E+02  0.81506599770E+03  0.83742595185E+03  0.25500000920E-02 0.  1.
       -2    1    3    3    0  502  0.18609683046E+03  0.48141602591E+02 -0.18036948532E+03  0.26359589422E+03  0.25500000920E-02 0. -1.
</event>
<event>
 5   0  0.1007561E-03  0.9006809E+03  0.7818609E-02  0.9424731E-01
       -1   -1    0    0    0  501  0.00000000000E+00  0.00000000000E+00  0.42400432281E+03  0.42400432284E+03  0.50400001928E-02 0.  1.
        1   -1    0    0  501    0  0.00000000000E+00  0.00000000000E+00 -0.47831241303E+03  0.47831241305E+03  0.50400001928E-02 0. -1.
    10030    2    1    2    0    0  0.00000000000E+00  0.00000000000E+00 -0.54308090223E+02  0.90231673589E+03  0.90068092197E+03 0.  0.
        2    1    3    3  502    0 -0.13984307952E+03  0.11482233529E+03 -0.44029395349E+03  0.47602418116E+03  0.25500000920E-02 0. -1.
       -2    1    3    3    0  502  0.13984307952E+03 -0.11482233529E+03  0.38598586326E+03  0.42629255473E+03  0.25500000920E-02 0.  1.
</event>
<event>
 5   0  0.6375625E-04  0.9002259E+03  0.7818609E-02  0.9425299E-01
       -3   -1    0    0    0  501  0.00000000000E+00  0.00000000000E+00  0.54150512421E+03  0.54150513363E+03  0.10100000352E+00 0. -1.
        3   -1    0    0  501    0  0.00000000000E+00  0.00000000000E+00 -0.37414543757E+03  0.37414545120E+03  0.10100000352E+00 0.  1.
    10030    2    1    2    0    0  0.00000000000E+00  0.00000000000E+00  0.16735968664E+03  0.91565058484E+03  0.90022593209E+03 0.  0.
        2    1    3    3  502    0 -0.26097276998E+03 -0.21937654625E+03  0.38260107795E+03  0.51246116006E+03  0.25500000920E-02 0. -1.
       -2    1    3    3    0  502  0.26097276998E+03  0.21937654625E+03 -0.21524139131E+03  0.40318942478E+03  0.25500000920E-02 0.  1.
</event>
<event>
 5   0  0.9223454E-04  0.8995337E+03  0.7818609E-02  0.9426164E-01
        1   -1    0    0  501    0  0.00000000000E+00  0.00000000000E+00  0.82670337769E+03  0.82670337771E+03  0.50400001928E-02 0.  1.
       -1   -1    0    0    0  501  0.00000000000E+00  0.00000000000E+00 -0.24469505030E+03  0.24469505035E+03  0.50400001928E-02 0. -1.
    10030    2    1    2    0    0  0.00000000000E+00  0.00000000000E+00  0.58200832739E+03  0.10713984281E+04  0.89953371170E+03 0.  0.
        1    1    3    3  502    0  0.37145668520E+03 -0.84929224768E+02  0.57560809813E+03  0.69030263281E+03  0.50400001928E-02 0. -1.
       -1    1    3    3    0  502 -0.37145668520E+03  0.84929224768E+02  0.64002292559E+01  0.38109579525E+03  0.50400001928E-02 0.  1.
</event>
<event>
 5   0  0.1536020E-03  0.9001769E+03  0.7818609E-02  0.9425360E-01
       -2   -1    0    0    0  501  0.00000000000E+00  0.00000000000E+00  0.11075691464E+03  0.11075691467E+03  0.25500000920E-02 0.  1.
        2   -1    0    0  501    0  0.00000000000E+00  0.00000000000E+00 -0.18290470224E+04  0.18290470224E+04  0.25500000920E-02 0. -1.
    10030    2    1    2    0    0  0.00000000000E+00  0.00000000000E+00 -0.17182901077E+04  0.19398039370E+04  0.90017688254E+03 0.  0.
        2    1    3    3  502    0 -0.13141770406E+03  0.25094334149E+03 -0.10542879344E+03  0.30225552777E+03  0.25500000920E-02 0.  1.
       -2    1    3    3    0  502  0.13141770406E+03 -0.25094334149E+03 -0.16128613143E+04  0.16375484093E+04  0.25500000920E-02 0. -1.
</event>
<event>
 5   0  0.1630202E-03  0.8977066E+03  0.7818609E-02  0.9428453E-01
       -2   -1    0    0    0  501  0.00000000000E+00  0.00000000000E+00  0.20233601081E+03  0.20233601083E+03  0.25500000920E-02 0. -1.
        2   -1    0    0  501    0  0.00000000000E+00  0.00000000000E+00 -0.99571650450E+03  0.99571650450E+03  0.25500000920E-02 0.  1.
    10030    2    1    2    0    0  0.00000000000E+00  0.00000000000E+00 -0.79338049369E+03  0.11980525153E+04  0.89770664570E+03 0.  0.
        4    1    3    3  502    0 -0.33788338107E+03  0.17558183245E+03 -0.71383964809E+03  0.80905056404E+03  0.12699999809E+01 0.  1.
       -4    1    3    3    0  502  0.33788338107E+03 -0.17558183245E+03 -0.79540845600E+02  0.38900195129E+03  0.12699999809E+01 0. -1.
</event>
<event>
 5   0  0.1641516E-03  0.9004345E+03  0.7818609E-02  0.9425038E-01
        2   -1    0    0  501    0  0.00000000000E+00  0.00000000000E+00  0.13762167829E+04  0.13762167829E+04  0.25500000920E-02 0. -1.
       -2   -1    0    0    0  501  0.00000000000E+00  0.00000000000E+00 -0.14728463640E+03  0.14728463642E+03  0.25500000920E-02 0.  1.
    10030    2    1    2    0    0  0.00000000000E+00  0.00000000000E+00  0.12289321465E+04  0.15235014193E+04  0.90043453618E+03 0.  0.
        1    1    3    3  502    0  0.19932191755E+03  0.40358382818E+03  0.63019816475E+03  0.77444099844E+03  0.50400001928E-02 0. -1.
       -1    1    3    3    0  502 -0.19932191755E+03 -0.40358382818E+03  0.59873398173E+03  0.74906042086E+03  0.50400001928E-02 0.  1.
</event>
<event>
 5   0  0.1641516E-03  0.8971478E+03  0.7818609E-02  0.9429154E-01
       -2   -1    0    0    0  501  0.00000000000E+00  0.00000000000E+00  0.25222227363E+03  0.25222227364E+03  0.25500000920E-02 0.  1.
        2   -1    0    0  501    0  0.00000000000E+00  0.00000000000E+00 -0.79778263120E+03  0.79778263121E+03  0.25500000920E-02 0. -1.
    10030    2    1    2    0    0  0.00000000000E+00  0.00000000000E+00 -0.54556035758E+03  0.10500049048E+04  0.89714781193E+03 0.  0.
        1    1    3    3  502    0  0.38570483230E+02  0.22162690804E+03 -0.72699119375E+03  0.76100089642E+03  0.50400001928E-02 0. -1.
       -1    1    3    3    0  502 -0.38570483230E+02 -0.22162690804E+03  0.18143083617E+03  0.28900400842E+03  0.50400001928E-02 0.  1.
</event>
<event>
 5   0  0.1007561E-03  0.9006329E+03  0.7818609E-02  0.9424791E-01
       -1   -1    0    0    0  501  0.00000000000E+00  0.00000000000E+00  0.28487426965E+03  0.28487426969E+03  0.50400001928E-02 0. -1.
        1   -1    0    0  501    0  0.00000000000E+00  0.00000000000E+00 -0.71183998139E+03  0.71183998141E+03  0.50400001928E-02 0.  1.
    10030    2    1    2    0    0  0.00000000000E+00  0.00000000000E+00 -0.42696571174E+03  0.99671425110E+03  0.90063287712E+03 0.  0.
        2    1    3    3  502    0  0.10396893630E+03  0.35317408648E+03  0.73494590826E+02  0.37542366729E+03  0.25500000920E-02 0. -1.
       -2    1    3    3    0  502 -0.10396893630E+03 -0.35317408648E+03 -0.50046030257E+03  0.62129058381E+03  0.25500000920E-02 0.  1.
</event>
<event>
 5   0  0.6375625E-04  0.9008259E+03  0.7818609E-02  0.9424550E-01
        4   -1    0    0  501    0  0.00000000000E+00  0.00000000000E+00  0.83771770357E+03  0.83771866625E+03  0.12699999809E+01 0.  1.
       -4   -1    0    0    0  501  0.00000000000E+00  0.00000000000E+00 -0.24216931544E+03  0.24217264552E+03  0.12699999809E+01 0. -1.
    10030    2    1    2    0    0  0.00000000000E+00  0.00000000000E+00  0.59554838814E+03  0.10798913118E+04  0.90082593358E+03 0.  0.
        4    1    3    3  502    0 -0.26379976979E+03  0.27756326250E+03  0.13487716225E+02  0.38316473561E+03  0.12699999809E+01 0. -1.
       -4    1    3    3    0  502  0.26379976979E+03 -0.27756326250E+03  0.58206067191E+03  0.69672657615E+03  0.12699999809E+01 0.  1.
</event>
<event>
 5   0  0.1641516E-03  0.9016086E+03  0.7818609E-02  0.9423573E-01
       -2   -1    0    0    0  501  0.00000000000E+00  0.00000000000E+00  0.28316585888E+03  0.28316585890E+03  0.25500000920E-02 0. -1.
        2   -1    0    0  501    0  0.00000000000E+00  0.00000000000E+00 -0.71768717941E+03  0.71768717941E+03  0.25500000920E-02 0.  1.
    10030    2    1    2    0    0  0.00000000000E+00  0.00000000000E+00 -0.43452132052E+03  0.10008530383E+04  0.90160857710E+03 0.  0.
        1    1    3    3  502    0 -0.34524807911E+03 -0.27776540728E+03 -0.30930085737E+03  0.54038586030E+03  0.50400001928E-02 0. -1.
       -1    1    3    3    0  502  0.34524807911E+03  0.27776540728E+03 -0.12522046315E+03  0.46046717801E+03  0.50400001928E-02 0.  1.
</event>
<event>
 5   0  0.1635686E-03  0.9010639E+03  0.7818609E-02  0.9424253E-01
       -2   -1    0    0    0  501  0.00000000000E+00  0.00000000000E+00  0.32003738161E+03  0.32003738162E+03  0.25500000920E-02 0. -1.
        2   -1    0    0  501    0  0.00000000000E+00  0.00000000000E+00 -0.63423537006E+03  0.63423537006E+03  0.25500000920E-02 0.  1.
    10030    2    1    2    0    0  0.00000000000E+00  0.00000000000E+00 -0.31419798844E+03  0.95427275169E+03  0.90106387602E+03 0.  0.
        5    1    3    3  502    0  0.17959872413E+03  0.20469938726E+03  0.22297999099E+03  0.35199390227E+03  0.46999998093E+01 0. -1.
       -5    1    3    3    0  502 -0.17959872413E+03 -0.20469938726E+03 -0.53717797944E+03  0.60227884941E+03  0.46999998093E+01 0.  1.
</event>
<event>
 5   0  0.1630202E-03  0.8997984E+03  0.7818609E-02  0.9425833E-01
        2   -1    0    0  501    0  0.00000000000E+00  0.00000000000E+00  0.16669024850E+04  0.16669024850E+04  0.25500000920E-02 0.  1.
       -2   -1    0    0    0  501  0.00000000000E+00  0.00000000000E+00 -0.12142839751E+03  0.12142839754E+03  0.25500000920E-02 0. -1.
    10030    2    1    2    0    0  0.00000000000E+00  0.00000000000E+00  0.15454740875E+04  0.17883308826E+04  0.89979841652E+03 0.  0.
        4    1    3    3  502    0 -0.19398451701E+03 -0.20754588001E+03  0.79387518689E+02  0.29497334824E+03  0.12699999809E+01 0. -1.
       -4    1    3    3    0  502  0.19398451701E+03  0.20754588001E+03  0.14660865688E+04  0.14933575343E+04  0.12699999809E+01 0.  1.
</event>
<event>
 5   0  0.9223454E-04  0.9004845E+03  0.7818609E-02  0.9424976E-01
        1   -1    0    0  501    0  0.00000000000E+00  0.00000000000E+00  0.88151694193E+03  0.88151694194E+03  0.50400001928E-02 0.  1.
       -1   -1    0    0    0  501  0.00000000000E+00  0.00000000000E+00 -0.22996503647E+03  0.22996503652E+03  0.50400001928E-02 0. -1.
    10030    2    1    2    0    0  0.00000000000E+00  0.00000000000E+00  0.65155190546E+03  0.11114819785E+04  0.90048448234E+03 0.  0.
        1    1    3    3  502    0 -0.43426802649E+03  0.10411409014E+03  0.25498160185E+03  0.51424126624E+03  0.50400001928E-02 0.  1.
       -1    1    3    3    0  502  0.43426802649E+03 -0.10411409014E+03  0.39657030361E+03  0.59724071222E+03  0.50400001928E-02 0. -1.
</event>
<event>
 5   0  0.1704416E-03  0.8987396E+03  0.7818609E-02  0.9427158E-01
       -2   -1    0    0    0  501  0.00000000000E+00  0.00000000000E+00  0.12219320889E+03  0.12219320892E+03  0.25500000920E-02 0. -1.
        2   -1    0    0  501    0  0.00000000000E+00  0.00000000000E+00 -0.16525732725E+04  0.16525732725E+04  0.25500000920E-02 0.  1.
    10030    2    1    2    0    0  0.00000000000E+00  0.00000000000E+00 -0.15303800636E+04  0.17747664814E+04  0.89873963108E+03 0.  0.
        3    1    3    3  502    0 -0.29662919938E+03 -0.30352422529E+02 -0.10130806213E+03  0.31491821975E+03  0.10100000352E+00 0. -1.
       -3    1    3    3    0  502  0.29662919938E+03  0.30352422529E+02 -0.14290720015E+04  0.14598482617E+04  0.10100000352E+00 0.  1.
</event>
<event>
 5   0  0.1641516E-03  0.9008408E+03  0.7818609E-02  0.9424531E-01
        2   -1    0    0  501    0  0.00000000000E+00  0.00000000000E+00  0.10955582601E+04  0.10955582601E+04  0.25500000920E-02 0. -1.
       -2   -1    0    0    0  501  0.00000000000E+00  0.00000000000E+00 -0.18518280127E+03  0.18518280129E+03  0.25500000920E-02 0.  1.
    10030    2    1    2    0    0  0.00000000000E+00  0.00000000000E+00  0.91037545886E+03  0.12807410614E+04  0.90084082407E+03 0.  0.
        1    1    3    3  502    0 -0.38429373091E+03 -0.10236979070E+01  0.12117239878E+03  0.40294598872E+03  0.50400001928E-02 0.  1.
       -1    1    3    3    0  502  0.38429373091E+03  0.10236979070E+01  0.78920306009E+03  0.87779507270E+03  0.50400001928E-02 0. -1.
</event>
<event>
 5   0  0.9981885E-04  0.8957434E+03  0.7818609E-02  0.9430918E-01
       -1   -1    0    0    0  501  0.00000000000E+00  0.00000000000E+00  0.12488588123E+03  0.12488588133E+03  0.50400001928E-02 0. -1.
        1   -1    0    0  501    0  0.00000000000E+00  0.00000000000E+00 -0.16061788207E+04  0.16061788207E+04  0.50400001928E-02 0.  1.
    10030    2    1    2    0    0  0.00000000000E+00  0.00000000000E+00 -0.14812929395E+04  0.17310647021E+04  0.89574339526E+03 0.  0.
        4    1    3    3  502    0 -0.64137658138E+02  0.40097552951E+03 -0.37554149914E+03  0.55310762509E+03  0.12699999809E+01 0. -1.
       -4    1    3    3    0  502  0.64137658138E+02 -0.40097552951E+03 -0.11057514404E+04  0.11779570770E+04  0.12699999809E+01 0.  1.
</event>
<event>
 5   0  0.1704416E-03  0.8981986E+03  0.7818609E-02  0.9427836E-01
        2   -1    0    0  501    0  0.00000000000E+00  0.00000000000E+00  0.61326738702E+03  0.61326738702E+03  0.25500000920E-02 0. -1.
       -2   -1    0    0    0  501  0.00000000000E+00  0.00000000000E+00 -0.32887805906E+03  0.32887805907E+03  0.25500000920E-02 0.  1.
    10030    2    1    2    0    0  0.00000000000E+00  0.00000000000E+00  0.28438932796E+03  0.94214544609E+03  0.89819861486E+03 0.  0.
        3    1    3    3  502    0  0.18811333167E+03  0.73184547177E+02  0.56300634833E+03  0.59809594712E+03  0.10100000352E+00 0. -1.
       -3    1    3    3    0  502 -0.18811333167E+03 -0.73184547177E+02 -0.27861702038E+03  0.34404949897E+03  0.10100000352E+00 0.  1.
</event>
<event>
 5   0  0.1641516E-03  0.8989133E+03  0.7818609E-02  0.9426941E-01
        2   -1    0    0  501    0  0.00000000000E+00  0.00000000000E+00  0.12287994112E+04  0.12287994112E+04  0.25500000920E-02 0. -1.
       -2   -1    0    0    0  501  0.00000000000E+00  0.00000000000E+00 -0.16439726533E+03  0.16439726535E+03  0.25500000920E-02 0.  1.
    10030    2    1    2    0    0  0.00000000000E+00  0.00000000000E+00  0.10644021458E+04  0.13931966765E+04  0.89891326132E+03 0.  0.
        1    1    3    3  502    0 -0.38688536815E+03 -0.11918503358E+03  0.22957613818E+03  0.46539291310E+03  0.50400001928E-02 0.  1.
       -1    1    3    3    0  502  0.38688536815E+03  0.11918503358E+03  0.83482600767E+03  0.92780376342E+03  0.50400001928E-02 0. -1.
</event>
<event>
 5   0  0.1007561E-03  0.9016929E+03  0.7818609E-02  0.9423468E-01
        1   -1    0    0  501    0  0.00000000000E+00  0.00000000000E+00  0.61626338081E+03  0.61626338083E+03  0.50400001928E-02 0. -1.
       -1   -1    0    0    0  501  0.00000000000E+00  0.00000000000E+00 -0.32983060654E+03  0.32983060658E+03  0.50400001928E-02 0.  1.
    10030    2    1    2    0    0  0.00000000000E+00  0.00000000000E+00  0.28643277427E+03  0.94609398741E+03  0.90169290717E+03 0.  0.
        2    1    3    3  502    0 -0.17059610142E+03 -0.26005829528E+03  0.48567643800E+03  0.57672779472E+03  0.25500000920E-02 0. -1.
       -2    1    3    3    0  502  0.17059610142E+03  0.26005829528E+03 -0.19924366372E+03  0.36936619270E+03  0.25500000920E-02 0.  1.
</event>
<event>
 5   0  0.1635686E-03  0.9001638E+03  0.7818609E-02  0.9425377E-01
        2   -1    0    0  501    0  0.00000000000E+00  0.00000000000E+00  0.56116176162E+03  0.56116176162E+03  0.25500000920E-02 0.  1.
       -2   -1    0    0    0  501  0.00000000000E+00  0.00000000000E+00 -0.36098989620E+03  0.36098989621E+03  0.25500000920E-02 0. -1.
    10030    2    1    2    0    0  0.00000000000E+00  0.00000000000E+00  0.20017186541E+03  0.92215165784E+03  0.90016382084E+03 0.  0.
        5    1    3    3  502    0 -0.13856247819E+03  0.20789242793E+03  0.48357299722E+03  0.54431953446E+03  0.46999998093E+01 0.  1.
       -5    1    3    3    0  502  0.13856247819E+03 -0.20789242793E+03 -0.28340113181E+03  0.37783212338E+03  0.46999998093E+01 0. -1.
</event>
<event>
 5   0  0.9223454E-04  0.9014286E+03  0.7818609E-02  0.9423797E-01
        1   -1    0    0  501    0  0.00000000000E+00  0.00000000000E+00  0.68500926318E+03  0.68500926320E+03  0.50400001928E-02 0. -1.
       -1   -1    0    0    0  501  0.00000000000E+00  0.00000000000E+00 -0.29655569248E+03  0.29655569252E+03  0.50400001928E-02 0.  1.
    10030    2    1    2    0    0  0.00000000000E+00  0.00000000000E+00  0.38845357071E+03  0.98156495572E+03  0.90142863595E+03 0.  0.
        1    1    3    3  502    0 -0.21095339648E+03 -0.31775591144E+03 -0.67275130863E+02  0.38729329713E+03  0.50400001928E-02 0.  1.
       -1    1    3    3    0  502  0.21095339648E+03  0.31775591144E+03  0.45572870157E+03  0.59427165859E+03  0.50400001928E-02 0. -1.
</event>
<event>
 5   0  0.1641516E-03  0.8905921E+03  0.7818609E-02  0.9437419E-01
        2   -1    0    0  501    0  0.00000000000E+00  0.00000000000E+00  0.85964161949E+03  0.85964161950E+03  0.25500000920E-02 0. -1.
       -2   -1    0    0    0  501  0.00000000000E+00  0.00000000000E+00 -0.23066422113E+03  0.23066422115E+03  0.25500000920E-02 0.  1.
    10030    2    1    2    0    0  0.00000000000E+00  0.00000000000E+00  0.62897739836E+03  0.10903058406E+04  0.89059208311E+03 0.  0.
        1    1    3    3  502    0 -0.22231306783E+03 -0.56070271910E+02  0.78182708875E+03  0.81475184703E+03  0.50400001928E-02 0. -1.
       -1    1    3    3    0  502  0.22231306783E+03  0.56070271910E+02 -0.15284969039E+03  0.27555399361E+03  0.50400001928E-02 0.  1.
</event>
<event>
 5   0  0.1536020E-03  0.9002458E+03  0.7818609E-02  0.9425274E-01
        2   -1    0    0  501    0  0.00000000000E+00  0.00000000000E+00  0.46955324204E+03  0.46955324205E+03  0.25500000920E-02 0. -1.
       -2   -1    0    0    0  501  0.00000000000E+00  0.00000000000E+00 -0.43149658197E+03  0.43149658197E+03  0.25500000920E-02 0.  1.
    10030    2    1    2    0    0  0.00000000000E+00  0.00000000000E+00  0.38056660077E+02  0.90104982402E+03  0.90024578644E+03 0.  0.
        2    1    3    3  502    0 -0.13665927880E+03 -0.42263424015E+03 -0.53941924702E+02  0.44744294684E+03  0.25500000920E-02 0. -1.
       -2    1    3    3    0  502  0.13665927880E+03  0.42263424015E+03  0.91998584779E+02  0.45360687719E+03  0.25500000920E-02 0.  1.
</event>
<event>
 5   0  0.9697941E-04  0.9006697E+03  0.7818609E-02  0.9424745E-01
       -1   -1    0    0    0  501  0.00000000000E+00  0.00000000000E+00  0.71592762754E+03  0.71592762756E+03  0.50400001928E-02 0. -1.
        1   -1    0    0  501    0  0.00000000000E+00  0.00000000000E+00 -0.28327093061E+03  0.28327093066E+03  0.50400001928E-02 0.  1.
    10030    2    1    2    0    0  0.00000000000E+00  0.00000000000E+00  0.43265669693E+03  0.99919855822E+03  0.90066971824E+03 0.  0.
        5    1    3    3  502    0 -0.43178380127E+03  0.72251869632E+02  0.99331542667E+02  0.44893922648E+03  0.46999998093E+01 0.  1.
       -5    1    3    3    0  502  0.43178380127E+03 -0.72251869632E+02  0.33332515426E+03  0.55025933174E+03  0.46999998093E+01 0. -1.
</event>
<event>
 5   0  0.9321543E-04  0.9009218E+03  0.7818609E-02  0.9424430E-01
       -1   -1    0    0    0  501  0.00000000000E+00  0.00000000000E+00  0.30142911398E+03  0.30142911403E+03  0.50400001928E-02 0. -1.
        1   -1    0    0  501    0  0.00000000000E+00  0.00000000000E+00 -0.67317660676E+03  0.67317660678E+03  0.50400001928E-02 0.  1.
    10030    2    1    2    0    0  0.00000000000E+00  0.00000000000E+00 -0.37174749278E+03  0.97460572080E+03  0.90092181272E+03 0.  0.
        3    1    3    3  502    0 -0.17882868649E+03  0.23292582745E+02 -0.63242101937E+03  0.65763105117E+03  0.10100000352E+00 0.  1.
       -3    1    3    3    0  502  0.17882868649E+03 -0.23292582745E+02  0.26067352659E+03  0.31697466964E+03  0.10100000352E+00 0. -1.
</event>
<event>
 5   0  0.1704416E-03  0.9185575E+03  0.7818609E-02  0.9402676E-01
        2   -1    0    0  501    0  0.00000000000E+00  0.00000000000E+00  0.74350387420E+03  0.74350387421E+03  0.25500000920E-02 0. -1.
       -2   -1    0    0    0  501  0.00000000000E+00  0.00000000000E+00 -0.28370659871E+03  0.28370659872E+03  0.25500000920E-02 0.  1.
    10030    2    1    2    0    0  0.00000000000E+00  0.00000000000E+00  0.45979727549E+03  0.10272104729E+04  0.91855746753E+03 0.  0.
        3    1    3    3  502    0  0.31917140422E+03  0.12104598551E+03 -0.11371650335E+03  0.35979712230E+03  0.10100000352E+00 0.  1.
       -3    1    3    3    0  502 -0.31917140422E+03 -0.12104598551E+03  0.57351377883E+03  0.66741335063E+03  0.10100000352E+00 0. -1.
</event>
<event>
 5   0  0.1635686E-03  0.9003835E+03  0.7818609E-02  0.9425102E-01
       -2   -1    0    0    0  501  0.00000000000E+00  0.00000000000E+00  0.20108360098E+03  0.20108360100E+03  0.25500000920E-02 0. -1.
        2   -1    0    0  501    0  0.00000000000E+00  0.00000000000E+00 -0.10079023013E+04  0.10079023013E+04  0.25500000920E-02 0.  1.
    10030    2    1    2    0    0  0.00000000000E+00  0.00000000000E+00 -0.80681870028E+03  0.12089859023E+04  0.90038352758E+03 0.  0.
        5    1    3    3  502    0  0.11296270946E+03 -0.29803571687E+03  0.23458435211E+02  0.31962204310E+03  0.46999998093E+01 0. -1.
       -5    1    3    3    0  502 -0.11296270946E+03  0.29803571687E+03 -0.83027713549E+03  0.88936385916E+03  0.46999998093E+01 0.  1.
</event>
<event>
 5   0  0.9697941E-04  0.9005512E+03  0.7818609E-02  0.9424893E-01
       -1   -1    0    0    0  501  0.00000000000E+00  0.00000000000E+00  0.66191657866E+03  0.66191657868E+03  0.50400001928E-02 0.  1.
        1   -1    0    0  501    0  0.00000000000E+00  0.00000000000E+00 -0.30630461252E+03  0.30630461256E+03  0.50400001928E-02 0. -1.
    10030    2    1    2    0    0  0.00000000000E+00  0.00000000000E+00  0.35561196614E+03  0.96822119124E+03  0.90055116718E+03 0.  0.
        5    1    3    3  502    0  0.19614428334E+03  0.10159869686E+03 -0.24401621229E+03  0.32918213340E+03  0.46999998093E+01 0. -1.
       -5    1    3    3    0  502 -0.19614428334E+03 -0.10159869686E+03  0.59962817842E+03  0.63903905784E+03  0.46999998093E+01 0.  1.
</event>
<event>
 5   0  0.1641516E-03  0.8995408E+03  0.7818609E-02  0.9426156E-01
       -2   -1    0    0    0  501  0.00000000000E+00  0.00000000000E+00  0.18921947513E+03  0.18921947515E+03  0.25500000920E-02 0.  1.
        2   -1    0    0  501    0  0.00000000000E+00  0.00000000000E+00 -0.10690940619E+04  0.10690940619E+04  0.25500000920E-02 0. -1.
    10030    2    1    2    0    0  0.00000000000E+00  0.00000000000E+00 -0.87987458674E+03  0.12583135370E+04  0.89954081011E+03 0.  0.
        1    1    3    3  502    0 -0.32425395224E+03 -0.23811876608E+03 -0.15859222181E+03  0.43242648525E+03  0.50400001928E-02 0.  1.
       -1    1    3    3    0  502  0.32425395224E+03  0.23811876608E+03 -0.72128236494E+03  0.82588705178E+03  0.50400001928E-02 0. -1.
</event>
<event>
 5   0  0.9223454E-04  0.8990577E+03  0.7818609E-02  0.9426760E-01
       -1   -1    0    0    0  501  0.00000000000E+00  0.00000000000E+00  0.28015904633E+03  0.28015904637E+03  0.50400001928E-02 0. -1.
        1   -1    0    0  501    0  0.00000000000E+00  0.00000000000E+00 -0.72129095883E+03  0.72129095885E+03  0.50400001928E-02 0.  1.
    10030    2    1    2    0    0  0.00000000000E+00  0.00000000000E+00 -0.44113191250E+03  0.10014500052E+04  0.89905770044E+03 0.  0.
        1    1    3    3  502    0 -0.19484551458E+03 -0.70481426013E+02  0.22379566669E+03  0.30498673155E+03  0.50400001928E-02 0. -1.
       -1    1    3    3    0  502  0.19484551458E+03  0.70481426013E+02 -0.66492757920E+03  0.69646327367E+03  0.50400001928E-02 0.  1.
</event>
<event>
 5   0  0.1704416E-03  0.8983164E+03  0.7818609E-02  0.9427688E-01
        2   -1    0    0  501    0  0.00000000000E+00  0.00000000000E+00  0.13125670657E+04  0.13125670657E+04  0.25500000920E-02 0. -1.
       -2   -1    0    0    0  501  0.00000000000E+00  0.00000000000E+00 -0.15370117279E+03  0.15370117281E+03  0.25500000920E-02 0.  1.
    10030    2    1    2    0    0  0.00000000000E+00  0.00000000000E+00  0.11588658929E+04  0.14662682385E+04  0.89831641947E+03 0.  0.
        3    1    3    3  502    0  0.27902423857E+02  0.40552532226E+02  0.13081510616E+04  0.13090768744E+04  0.10100000352E+00 0. -1.
       -3    1    3    3    0  502 -0.27902423857E+02 -0.40552532226E+02 -0.14928516870E+03  0.15719136402E+03  0.10100000352E+00 0.  1.
</event>
<event>
 5   0  0.1630202E-03  0.8998273E+03  0.7818609E-02  0.9425797E-01
        2   -1    0    0  501    0  0.00000000000E+00  0.00000000000E+00  0.41313260988E+03  0.41313260988E+03  0.25500000920E-02 0. -1.
       -2   -1    0    0    0  501  0.00000000000E+00  0.00000000000E+00 -0.48996928929E+03  0.48996928930E+03  0.25500000920E-02 0.  1.
    10030    2    1    2    0    0  0.00000000000E+00  0.00000000000E+00 -0.76836679417E+02  0.90310189919E+03  0.89982729732E+03 0.  0.
        4    1    3    3  502    0 -0.15584295746E+03  0.36128931099E+02 -0.46045826799E+03  0.48745846645E+03  0.12699999809E+01 0.  1.
       -4    1    3    3    0  502  0.15584295746E+03 -0.36128931099E+02  0.38362158858E+03  0.41564343273E+03  0.12699999809E+01 0. -1.
</event>
<event>
 5   0  0.1536020E-03  0.8996186E+03  0.7818609E-02  0.9426058E-01
        2   -1    0    0  501    0  0.00000000000E+00  0.00000000000E+00  0.77156864401E+03  0.77156864401E+03  0.25500000920E-02 0. -1.
       -2   -1    0    0    0  501  0.00000000000E+00  0.00000000000E+00 -0.26222992788E+03  0.26222992790E+03  0.25500000920E-02 0.  1.
    10030    2    1    2    0    0  0.00000000000E+00  0.00000000000E+00  0.50933871613E+03  0.10337985719E+04  0.89961856336E+03 0.  0.
        2    1    3    3  502    0 -0.37207905730E+03  0.37346515710E+02 -0.32597531049E+02  0.37536673555E+03  0.25500000920E-02 0.  1.
       -2    1    3    3    0  502  0.37207905730E+03 -0.37346515710E+02  0.54193624718E+03  0.65843183636E+03  0.25500000920E-02 0. -1.
</event>
<event>
 5   0  0.1536020E-03  0.8998296E+03  0.7818609E-02  0.9425794E-01
        2   -1    0    0  501    0  0.00000000000E+00  0.00000000000E+00  0.49256455485E+03  0.49256455485E+03  0.25500000920E-02 0.  1.
       -2   -1    0    0    0  501  0.00000000000E+00  0.00000000000E+00 -0.41095796447E+03  0.41095796448E+03  0.25500000920E-02 0. -1.
    10030    2    1    2    0    0  0.00000000000E+00  0.00000000000E+00  0.81606590377E+02  0.90352251933E+03  0.89982959906E+03 0.  0.
        2    1    3    3  502    0 -0.37489498365E+03  0.24851248252E+03  0.51739462838E+02  0.45274901961E+03  0.25500000920E-02 0. -1.
       -2    1    3    3    0  502  0.37489498365E+03 -0.24851248252E+03  0.29867127539E+02  0.45077349972E+03  0.25500000920E-02 0.  1.
</event>
<event>
 5   0  0.1641516E-03  0.8992057E+03  0.7818609E-02  0.9426575E-01
        2   -1    0    0  501    0  0.00000000000E+00  0.00000000000E+00  0.29046487600E+04  0.29046487600E+04  0.25500000920E-02 0.  1.
       -2   -1    0    0    0  501  0.00000000000E+00  0.00000000000E+00 -0.69592827277E+02  0.69592827324E+02  0.25500000920E-02 0. -1.
    10030    2    1    2    0    0  0.00000000000E+00  0.00000000000E+00  0.28350559327E+04  0.29742415873E+04  0.89920569288E+03 0.  0.
        1    1    3    3  502    0  0.18397989520E+02  0.26064094899E+03  0.26277350320E+04  0.26406937704E+04  0.50400001928E-02 0.  1.
       -1    1    3    3    0  502 -0.18397989520E+02 -0.26064094899E+03  0.20732090072E+03  0.33354781698E+03  0.50400001928E-02 0. -1.
</event>
<event>
 5   0  0.9697941E-04  0.9001905E+03  0.7818609E-02  0.9425343E-01
        1   -1    0    0  501    0  0.00000000000E+00  0.00000000000E+00  0.11911164509E+04  0.11911164510E+04  0.50400001928E-02 0. -1.
       -1   -1    0    0    0  501  0.00000000000E+00  0.00000000000E+00 -0.17008052739E+03  0.17008052747E+03  0.50400001928E-02 0.  1.
    10030    2    1    2    0    0  0.00000000000E+00  0.00000000000E+00  0.10210359236E+04  0.13611969784E+04  0.90019045590E+03 0.  0.
        5    1    3    3  502    0 -0.37198555985E+03 -0.23019551955E+03  0.67054860469E+03  0.80063771783E+03  0.46999998093E+01 0.  1.
       -5    1    3    3    0  502  0.37198555985E+03  0.23019551955E+03  0.35048731886E+03  0.56055926060E+03  0.46999998093E+01 0. -1.
</event>
<event>
 5   0  0.9223454E-04  0.9025619E+03  0.7818609E-02  0.9422385E-01
        1   -1    0    0  501    0  0.00000000000E+00  0.00000000000E+00  0.79729685653E+03  0.79729685655E+03  0.50400001928E-02 0.  1.
       -1   -1    0    0    0  501  0.00000000000E+00  0.00000000000E+00 -0.25543118977E+03  0.25543118982E+03  0.50400001928E-02 0. -1.
    10030    2    1    2    0    0  0.00000000000E+00  0.00000000000E+00  0.54186566676E+03  0.10527280464E+04  0.90256187532E+03 0.  0.
        1    1    3    3  502    0 -0.97533315234E+02 -0.32203895130E+03  0.62168619306E+03  0.70690562058E+03  0.50400001928E-02 0.  1.
       -1    1    3    3    0  502  0.97533315234E+02  0.32203895130E+03 -0.79820526300E+02  0.34582242579E+03  0.50400001928E-02 0. -1.
</event>
<event>
 5   0  0.1641516E-03  0.8997988E+03  0.7818609E-02  0.9425833E-01
       -2   -1    0    0    0  501  0.00000000000E+00  0.00000000000E+00  0.17689058880E+03  0.17689058882E+03  0.25500000920E-02 0.  1.
        2   -1    0    0  501    0  0.00000000000E+00  0.00000000000E+00 -0.11442635696E+04  0.11442635696E+04  0.25500000920E-02 0. -1.
    10030    2    1    2    0    0  0.00000000000E+00  0.00000000000E+00 -0.96737298081E+03  0.13211541584E+04  0.89979876991E+03 0.  0.
        1    1    3    3  502    0  0.26083723249E+03  0.29065341814E+03 -0.81165503908E+03  0.90072158508E+03  0.50400001928E-02 0. -1.
       -1    1    3    3    0  502 -0.26083723249E+03 -0.29065341814E+03 -0.15571794173E+03  0.42043257335E+03  0.50400001928E-02 0.  1.
</event>
<event>
 5   0  0.1007561E-03  0.8999091E+03  0.7818609E-02  0.9425695E-01
       -1   -1    0    0    0  501  0.00000000000E+00  0.00000000000E+00  0.12327325295E+03  0.12327325306E+03  0.50400001928E-02 0.  1.
        1   -1    0    0  501    0  0.00000000000E+00  0.00000000000E+00 -0.16423601666E+04  0.16423601666E+04  0.50400001928E-02 0. -1.
    10030    2    1    2    0    0  0.00000000000E+00  0.00000000000E+00 -0.15190869137E+04  0.17656334197E+04  0.89990906287E+03 0.  0.
        2    1    3    3  502    0  0.39450648702E+03 -0.91027085202E+02 -0.11447070874E+04  0.12141975187E+04  0.25500000920E-02 0. -1.
       -2    1    3    3    0  502 -0.39450648702E+03  0.91027085202E+02 -0.37437982628E+03  0.55143590096E+03  0.25500000920E-02 0.  1.
</event>
<event>
 5   0  0.9321543E-04  0.9057607E+03  0.7818609E-02  0.9418409E-01
       -1   -1    0    0    0  501  0.00000000000E+00  0.00000000000E+00  0.50381278892E+03  0.50381278894E+03  0.50400001928E-02 0. -1.
        1   -1    0    0  501    0  0.00000000000E+00  0.00000000000E+00 -0.40709685056E+03  0.40709685059E+03  0.50400001928E-02 0.  1.
    10030    2    1    2    0    0  0.00000000000E+00  0.00000000000E+00  0.96715938359E+02  0.91090963953E+03  0.90576067405E+03 0.  0.
        3    1    3    3  502    0  0.49353711147E+00  0.92724545544E+02  0.49416394146E+03  0.50278832143E+03  0.10100000352E+00 0. -1.
       -3    1    3    3    0  502 -0.49353711147E+00 -0.92724545544E+02 -0.39744800310E+03  0.40812131811E+03  0.10100000352E+00 0.  1.
</event>
<event>
 5   0  0.9981885E-04  0.9008686E+03  0.7818609E-02  0.9424496E-01
        1   -1    0    0  501    0  0.00000000000E+00  0.00000000000E+00  0.32230272845E+03  0.32230272849E+03  0.50400001928E-02 0. -1.
       -1   -1    0    0    0  501  0.00000000000E+00  0.00000000000E+00 -0.62950465765E+03  0.62950465767E+03  0.50400001928E-02 0.  1.
    10030    2    1    2    0    0  0.00000000000E+00  0.00000000000E+00 -0.30720192920E+03  0.95180738616E+03  0.90086862252E+03 0.  0.
        4    1    3    3  502    0 -0.14027778061E+02 -0.22368135056E+02 -0.62868448221E+03  0.62923994079E+03  0.12699999809E+01 0.  1.
       -4    1    3    3    0  502  0.14027778061E+02  0.22368135056E+02  0.32148255300E+03  0.32256744536E+03  0.12699999809E+01 0. -1.
</event>
<event>
 5   0  0.1641516E-03  0.9016626E+03  0.7818609E-02  0.9423506E-01
       -2   -1    0    0    0  501  0.00000000000E+00  0.00000000000E+00  0.27935560643E+03  0.27935560644E+03  0.25500000920E-02 0.  1.
        2   -1    0    0  501    0  0.00000000000E+00  0.00000000000E+00 -0.72756312943E+03  0.72756312943E+03  0.25500000920E-02 0. -1.
    10030    2    1    2    0    0  0.00000000000E+00  0.00000000000E+00 -0.44820752300E+03  0.10069187359E+04  0.90166255161E+03 0.  0.
        1    1    3    3  502    0  0.30420732525E+03  0.12877352642E+03 -0.56671440994E+03  0.65596489258E+03  0.50400001928E-02 0. -1.
       -1    1    3    3    0  502 -0.30420732525E+03 -0.12877352642E+03  0.11850688694E+03  0.35095384329E+03  0.50400001928E-02 0.  1.
</event>
<event>
 5   0  0.1007561E-03  0.8990496E+03  0.7818609E-02  0.9426770E-01
        1   -1    0    0  501    0  0.00000000000E+00  0.00000000000E+00  0.76463050404E+03  0.76463050406E+03  0.50400001928E-02 0.  1.
       -1   -1    0    0    0  501  0.00000000000E+00  0.00000000000E+00 -0.26427477673E+03  0.26427477678E+03  0.50400001928E-02 0. -1.
    10030    2    1    2    0    0  0.00000000000E+00  0.00000000000E+00  0.50035572731E+03  0.10289052808E+04  0.89904962215E+03 0.  0.
        2    1    3    3  502    0  0.28363653756E+03 -0.76449189991E+02 -0.13923069238E+03  0.32508360431E+03  0.25500000920E-02 0. -1.
       -2    1    3    3    0  502 -0.28363653756E+03  0.76449189991E+02  0.63958641969E+03  0.70382167653E+03  0.25500000920E-02 0.  1.
</event>
<event>
 5   0  0.9321543E-04  0.9003216E+03  0.7818609E-02  0.9425180E-01
       -1   -1    0    0    0  501  0.00000000000E+00  0.00000000000E+00  0.15287217396E+03  0.15287217405E+03  0.50400001928E-02 0. -1.
        1   -1    0    0  501    0  0.00000000000E+00  0.00000000000E+00 -0.13255828705E+04  0.13255828705E+04  0.50400001928E-02 0.  1.
    10030    2    1    2    0    0  0.00000000000E+00  0.00000000000E+00 -0.11727106965E+04  0.14784550445E+04  0.90032157643E+03 0.  0.
        3    1    3    3  502    0 -0.16172118070E+03  0.36503456428E+03 -0.24488178811E+03  0.46837065851E+03  0.10100000352E+00 0. -1.
       -3    1    3    3    0  502  0.16172118070E+03 -0.36503456428E+03 -0.92782890840E+03  0.10100843860E+04  0.10100000352E+00 0.  1.
</event>
<event>
 5   0  0.9697941E-04  0.9011023E+03  0.7818609E-02  0.9424205E-01
       -1   -1    0    0    0  501  0.00000000000E+00  0.00000000000E+00  0.24506977105E+03  0.24506977110E+03  0.50400001928E-02 0. -1.
        1   -1    0    0  501    0  0.00000000000E+00  0.00000000000E+00 -0.82832051746E+03  0.82832051748E+03  0.50400001928E-02 0.  1.
    10030    2    1    2    0    0  0.00000000000E+00  0.00000000000E+00 -0.58325074641E+03  0.10733902886E+04  0.90110225748E+03 0.  0.
        5    1    3    3  502    0 -0.78763597481E+02 -0.27762205611E+03 -0.70374599345E+03  0.76063014904E+03  0.46999998093E+01 0.  1.
       -5    1    3    3    0  502  0.78763597481E+02  0.27762205611E+03  0.12049524704E+03  0.31276013954E+03  0.46999998093E+01 0. -1.
</event>
<event>
 5   0  0.1641516E-03  0.8995420E+03  0.7818609E-02  0.9426154E-01
        2   -1    0    0  501    0  0.00000000000E+00  0.00000000000E+00  0.67290954484E+03  0.67290954485E+03  0.25500000920E-02 0. -1.
       -2   -1    0    0    0  501  0.00000000000E+00  0.00000000000E+00 -0.30062577986E+03  0.30062577987E+03  0.25500000920E-02 0.  1.
    10030    2    1    2    0    0  0.00000000000E+00  0.00000000000E+00  0.37228376498E+03  0.97353532471E+03  0.89954200947E+03 0.  0.
        1    1    3    3  502    0  0.44021781882E+03 -0.86863151664E+02  0.21962231986E+03  0.49957071424E+03  0.50400001928E-02 0. -1.
       -1    1    3    3    0  502 -0.44021781882E+03  0.86863151664E+02  0.15266144513E+03  0.47396461047E+03  0.50400001928E-02 0.  1.
</event>
<event>
 5   0  0.6375625E-04  0.9017915E+03  0.7818609E-02  0.9423345E-01
        3   -1    0    0  501    0  0.00000000000E+00  0.00000000000E+00  0.12854020696E+03  0.12854024664E+03  0.10100000352E+00 0.  1.
       -3   -1    0    0    0  501  0.00000000000E+00  0.00000000000E+00 -0.15816603843E+04  0.15816603876E+04  0.10100000352E+00 0. -1.
    10030    2    1    2    0    0  0.00000000000E+00  0.00000000000E+00 -0.14531201774E+04  0.17102006342E+04  0.90179152764E+03 0.  0.
        4    1    3    3  502    0 -0.27332069231E+03  0.14226333179E+03 -0.13508410072E+04  0.13855381973E+04  0.12699999809E+01 0. -1.
       -4    1    3    3    0  502  0.27332069231E+03 -0.14226333179E+03 -0.10227917019E+03  0.32466243696E+03  0.12699999809E+01 0.  1.
</event>
<event>
 5   0  0.9697941E-04  0.9022682E+03  0.7818609E-02  0.9422751E-01
        1   -1    0    0  501    0  0.00000000000E+00  0.00000000000E+00  0.87509945159E+03  0.87509945160E+03  0.50400001928E-02 0.  1.
       -1   -1    0    0    0  501  0.00000000000E+00  0.00000000000E+00 -0.23257009280E+03  0.23257009286E+03  0.50400001928E-02 0. -1.
    10030    2    1    2    0    0  0.00000000000E+00  0.00000000000E+00  0.64252935878E+03  0.11076695445E+04  0.90226816569E+03 0.  0.
        5    1    3    3  502    0 -0.23818083708E+03  0.14092107860E+03  0.75860974308E+03  0.80752689976E+03  0.46999998093E+01 0.  1.
       -5    1    3    3    0  502  0.23818083708E+03 -0.14092107860E+03 -0.11608038430E+03  0.30014264469E+03  0.46999998093E+01 0. -1.
</event>
<event>
 5   0  0.1536020E-03  0.8997345E+03  0.7818609E-02  0.9425913E-01
        2   -1    0    0  501    0  0.00000000000E+00  0.00000000000E+00  0.46802090228E+03  0.46802090229E+03  0.25500000920E-02 0.  1.
       -2   -1    0    0    0  501  0.00000000000E+00  0.00000000000E+00 -0.43241770459E+03  0.43241770460E+03  0.25500000920E-02 0. -1.
    10030    2    1    2    0    0  0.00000000000E+00  0.00000000000E+00  0.35603197689E+02  0.90043860689E+03  0.89973445921E+03 0.  0.
        2    1    3    3  502    0 -0.22113595573E+03  0.36473811660E+03  0.16090133401E+03  0.45587744396E+03  0.25500000920E-02 0.  1.
       -2    1    3    3    0  502  0.22113595573E+03 -0.36473811660E+03 -0.12529813632E+03  0.44456116293E+03  0.25500000920E-02 0. -1.
</event>
<event>
 5   0  0.1007561E-03  0.8903509E+03  0.7818609E-02  0.9437724E-01
       -1   -1    0    0    0  501  0.00000000000E+00  0.00000000000E+00  0.94006314476E+03  0.94006314477E+03  0.50400001928E-02 0. -1.
        1   -1    0    0  501    0  0.00000000000E+00  0.00000000000E+00 -0.21081688516E+03  0.21081688522E+03  0.50400001928E-02 0.  1.
    10030    2    1    2    0    0  0.00000000000E+00  0.00000000000E+00  0.72924625960E+03  0.11508800300E+04  0.89035090626E+03 0.  0.
        2    1    3    3  502    0 -0.52820048531E+02  0.18865669989E+03  0.88134526763E+03  0.90285701455E+03  0.25500000920E-02 0. -1.
       -2    1    3    3    0  502  0.52820048531E+02 -0.18865669989E+03 -0.15209900803E+03  0.24802301544E+03  0.25500000920E-02 0.  1.
</event>
<event>
 5   0  0.1635686E-03  0.8989424E+03  0.7818609E-02  0.9426904E-01
       -2   -1    0    0    0  501  0.00000000000E+00  0.00000000000E+00  0.29220321565E+03  0.29220321566E+03  0.25500000920E-02 0. -1.
        2   -1    0    0  501    0  0.00000000000E+00  0.00000000000E+00 -0.69138310153E+03  0.69138310153E+03  0.25500000920E-02 0.  1.
    10030    2    1    2    0    0  0.00000000000E+00  0.00000000000E+00 -0.39917988588E+03  0.98358631719E+03  0.89894241310E+03 0.  0.
        5    1    3    3  502    0 -0.37694896028E+03 -0.24473976624E+03 -0.19546629960E+03  0.49011961409E+03  0.46999998093E+01 0.  1.
       -5    1    3    3    0  502  0.37694896028E+03  0.24473976624E+03 -0.20371358628E+03  0.49346670310E+03  0.46999998093E+01 0. -1.
</event>
<event>
 5   0  0.1630202E-03  0.8986795E+03  0.7818609E-02  0.9427234E-01
        2   -1    0    0  501    0  0.00000000000E+00  0.00000000000E+00  0.10602211779E+04  0.10602211779E+04  0.25500000920E-02 0. -1.
       -2   -1    0    0    0  501  0.00000000000E+00  0.00000000000E+00 -0.19043780817E+03  0.19043780819E+03  0.25500000920E-02 0.  1.
    10030    2    1    2    0    0  0.00000000000E+00  0.00000000000E+00  0.86978336969E+03  0.12506589860E+04  0.89867946967E+03 0.  0.
        4    1    3    3  502    0 -0.21803184505E+02 -0.13476119936E+03  0.10306610228E+04  0.10396632707E+04  0.12699999809E+01 0. -1.
       -4    1    3    3    0  502  0.21803184505E+02  0.13476119936E+03 -0.16087765311E+03  0.21099571531E+03  0.12699999809E+01 0.  1.
</event>
<event>
 5   0  0.1630202E-03  0.8997574E+03  0.7818609E-02  0.9425885E-01
        2   -1    0    0  501    0  0.00000000000E+00  0.00000000000E+00  0.14830247370E+04  0.14830247370E+04  0.25500000920E-02 0.  1.
       -2   -1    0    0    0  501  0.00000000000E+00  0.00000000000E+00 -0.13647166623E+03  0.13647166626E+03  0.25500000920E-02 0. -1.
    10030    2    1    2    0    0  0.00000000000E+00  0.00000000000E+00  0.13465530708E+04  0.16194964033E+04  0.89975742718E+03 0.  0.
        4    1    3    3  502    0 -0.10900050661E+03 -0.26381114973E+03  0.47399653384E+02  0.28935406202E+03  0.12699999809E+01 0. -1.
       -4    1    3    3    0  502  0.10900050661E+03  0.26381114973E+03  0.12991534174E+04  0.13301423412E+04  0.12699999809E+01 0.  1.
</event>
<event>
 5   0  0.9697941E-04  0.8992121E+03  0.7818609E-02  0.9426567E-01
        1   -1    0    0  501    0  0.00000000000E+00  0.00000000000E+00  0.85926906102E+03  0.85926906103E+03  0.50400001928E-02 0.  1.
       -1   -1    0    0    0  501  0.00000000000E+00  0.00000000000E+00 -0.23525297863E+03  0.23525297869E+03  0.50400001928E-02 0. -1.
    10030    2    1    2    0    0  0.00000000000E+00  0.00000000000E+00  0.62401608239E+03  0.10945220397E+04  0.89921211311E+03 0.  0.
        5    1    3    3  502    0  0.34769063744E+03 -0.15003600988E+03  0.17043420596E+02  0.37909385620E+03  0.46999998093E+01 0. -1.
       -5    1    3    3    0  502 -0.34769063744E+03  0.15003600988E+03  0.60697266179E+03  0.71542818352E+03  0.46999998093E+01 0.  1.
</event>
<event>
 5   0  0.9697941E-04  0.8992780E+03  0.7818609E-02  0.9426484E-01
        1   -1    0    0  501    0  0.00000000000E+00  0.00000000000E+00  0.39126612789E+03  0.39126612792E+03  0.50400001928E-02 0. -1.
       -1   -1    0    0    0  501  0.00000000000E+00  0.00000000000E+00 -0.51672046299E+03  0.51672046301E+03  0.50400001928E-02 0.  1.
    10030    2    1    2    0    0  0.00000000000E+00  0.00000000000E+00 -0.12545433510E+03  0.90798659093E+03  0.89927796544E+03 0.  0.
        5    1    3    3  502    0  0.23211872065E+02 -0.40655331390E+03 -0.25517393954E+03  0.48058320556E+03  0.46999998093E+01 0.  1.
       -5    1    3    3    0  502 -0.23211872065E+02  0.40655331390E+03  0.12971960444E+03  0.42740338537E+03  0.46999998093E+01 0. -1.
</event>
<event>
 5   0  0.9697941E-04  0.9006857E+03  0.7818609E-02  0.9424725E-01
        1   -1    0    0  501    0  0.00000000000E+00  0.00000000000E+00  0.82809545610E+03  0.82809545611E+03  0.50400001928E-02 0.  1.
       -1   -1    0    0    0  501  0.00000000000E+00  0.00000000000E+00 -0.24490976909E+03  0.24490976914E+03  0.50400001928E-02 0. -1.
    10030    2    1    2    0    0  0.00000000000E+00  0.00000000000E+00  0.58318568701E+03  0.10730052253E+04  0.90068566542E+03 0.  0.
        5    1    3    3  502    0  0.41145048780E+03 -0.14057060638E+03  0.43121121402E+03  0.61238615299E+03  0.46999998093E+01 0.  1.
       -5    1    3    3    0  502 -0.41145048780E+03  0.14057060638E+03  0.15197447299E+03  0.46061907226E+03  0.46999998093E+01 0. -1.
</event>
<event>
 5   0  0.1630202E-03  0.8991041E+03  0.7818609E-02  0.9426702E-01
       -2   -1    0    0    0  501  0.00000000000E+00  0.00000000000E+00  0.25640563475E+03  0.25640563476E+03  0.25500000920E-02 0.  1.
        2   -1    0    0  501    0  0.00000000000E+00  0.00000000000E+00 -0.78819272940E+03  0.78819272941E+03  0.25500000920E-02 0. -1.
    10030    2    1    2    0    0  0.00000000000E+00  0.00000000000E+00 -0.53178709466E+03  0.10445983642E+04  0.89910412543E+03 0.  0.
        4    1    3    3  502    0 -0.28217768861E+03 -0.28421573246E+03 -0.28663928115E+02  0.40152965544E+03  0.12699999809E+01 0.  1.
       -4    1    3    3    0  502  0.28217768861E+03  0.28421573246E+03 -0.50312316654E+03  0.64306870872E+03  0.12699999809E+01 0. -1.
</event>
<event>
 5   0  0.1635686E-03  0.8943257E+03  0.7818609E-02  0.9432703E-01
        2   -1    0    0  501    0  0.00000000000E+00  0.00000000000E+00  0.11675405738E+04  0.11675405738E+04  0.25500000920E-02 0. -1.
       -2   -1    0    0    0  501  0.00000000000E+00  0.00000000000E+00 -0.17126137852E+03  0.17126137854E+03  0.25500000920E-02 0.  1.
    10030    2    1    2    0    0  0.00000000000E+00  0.00000000000E+00  0.99627919524E+03  0.13388019523E+04  0.89432568598E+03 0.  0.
        5    1    3    3  502    0  0.36768851171E+02  0.22307932752E+02 -0.16812103651E+03  0.17359828685E+03  0.46999998093E+01 0.  1.
       -5    1    3    3    0  502 -0.36768851171E+02 -0.22307932752E+02  0.11644002318E+04  0.11652036655E+04  0.46999998093E+01 0. -1.
</event>
<event>
 5   0  0.9321543E-04  0.9001065E+03  0.7818609E-02  0.9425448E-01
       -1   -1    0    0    0  501  0.00000000000E+00  0.00000000000E+00  0.10480252470E+04  0.10480252470E+04  0.50400001928E-02 0.  1.
        1   -1    0    0  501    0  0.00000000000E+00  0.00000000000E+00 -0.19326626674E+03  0.19326626681E+03  0.50400001928E-02 0. -1.
    10030    2    1    2    0    0  0.00000000000E+00  0.00000000000E+00  0.85475898029E+03  0.12412915138E+04  0.90010649812E+03 0.  0.
        3    1    3    3  502    0  0.40597174586E+03 -0.14989170843E+03  0.59777631349E+03  0.73798178423E+03  0.10100000352E+00 0.  1.
       -3    1    3    3    0  502 -0.40597174586E+03  0.14989170843E+03  0.25698266680E+03  0.50330972962E+03  0.10100000352E+00 0. -1.
</event>
<event>
 5   0  0.1630202E-03  0.9012159E+03  0.7818609E-02  0.9424063E-01
       -2   -1    0    0    0  501  0.00000000000E+00  0.00000000000E+00  0.44726012890E+03  0.44726012890E+03  0.25500000920E-02 0. -1.
        2   -1    0    0  501    0  0.00000000000E+00  0.00000000000E+00 -0.45398085225E+03  0.45398085226E+03  0.25500000920E-02 0.  1.
    10030    2    1    2    0    0  0.00000000000E+00  0.00000000000E+00 -0.67207233509E+01  0.90124098116E+03  0.90121592196E+03 0.  0.
        4    1    3    3  502    0 -0.20126071626E+03  0.26093977290E+03 -0.31069687636E+03  0.45291235672E+03  0.12699999809E+01 0.  1.
       -4    1    3    3    0  502  0.20126071626E+03 -0.26093977290E+03  0.30397615301E+03  0.44832862444E+03  0.12699999809E+01 0. -1.
</event>
<event>
 5   0  0.1641516E-03  0.8988545E+03  0.7818609E-02  0.9427015E-01
       -2   -1    0    0    0  501  0.00000000000E+00  0.00000000000E+00  0.95761661030E+02  0.95761661064E+02  0.25500000920E-02 0.  1.
        2   -1    0    0  501    0  0.00000000000E+00  0.00000000000E+00 -0.21092453753E+04  0.21092453753E+04  0.25500000920E-02 0. -1.
    10030    2    1    2    0    0  0.00000000000E+00  0.00000000000E+00 -0.20134837143E+04  0.22050070364E+04  0.89885447253E+03 0.  0.
        1    1    3    3  502    0  0.48275070890E+02 -0.22060799179E+03 -0.53529607340E+02  0.23208573286E+03  0.50400001928E-02 0.  1.
       -1    1    3    3    0  502 -0.48275070890E+02  0.22060799179E+03 -0.19599541070E+04  0.19729213035E+04  0.50400001928E-02 0. -1.
</event>
<event>
 5   0  0.9223454E-04  0.8990742E+03  0.7818609E-02  0.9426739E-01
        1   -1    0    0  501    0  0.00000000000E+00  0.00000000000E+00  0.14100345986E+04  0.14100345986E+04  0.50400001928E-02 0. -1.
       -1   -1    0    0    0  501  0.00000000000E+00  0.00000000000E+00 -0.14331818616E+03  0.14331818625E+03  0.50400001928E-02 0.  1.
    10030    2    1    2    0    0  0.00000000000E+00  0.00000000000E+00  0.12667164124E+04  0.15533527849E+04  0.89907419308E+03 0.  0.
        1    1    3    3  502    0  0.34587500448E+02  0.46022987272E+02 -0.13692264751E+03  0.14853357186E+03  0.50400001928E-02 0.  1.
       -1    1    3    3    0  502 -0.34587500448E+02 -0.46022987272E+02  0.14036390600E+04  0.14048192130E+04  0.50400001928E-02 0. -1.
</event>
<event>
 5   0  0.1704416E-03  0.9037241E+03  0.7818609E-02  0.9420938E-01
        2   -1    0    0  501    0  0.00000000000E+00  0.00000000000E+00  0.16450258227E+03  0.16450258229E+03  0.25500000920E-02 0.  1.
       -2   -1    0    0    0  501  0.00000000000E+00  0.00000000000E+00 -0.12411921534E+04  0.12411921534E+04  0.25500000920E-02 0. -1.
    10030    2    1    2    0    0  0.00000000000E+00  0.00000000000E+00 -0.10766895711E+04  0.14056947357E+04  0.90372410467E+03 0.  0.
        3    1    3    3  502    0  0.35788932574E+03 -0.18590124583E+03 -0.22134159994E+03  0.46003929913E+03  0.10100000352E+00 0.  1.
       -3    1    3    3    0  502 -0.35788932574E+03  0.18590124583E+03 -0.85534797115E+03  0.94565543653E+03  0.10100000352E+00 0. -1.
</event>
<event>
 5   0  0.9321543E-04  0.9000488E+03  0.7818609E-02  0.9425520E-01
       -1   -1    0    0    0  501  0.00000000000E+00  0.00000000000E+00  0.12046850186E+03  0.12046850196E+03  0.50400001928E-02 0.  1.
        1   -1    0    0  501    0  0.00000000000E+00  0.00000000000E+00 -0.16811197296E+04  0.16811197296E+04  0.50400001928E-02 0. -1.
    10030    2    1    2    0    0  0.00000000000E+00  0.00000000000E+00 -0.15606512278E+04  0.18015882316E+04  0.90004883283E+03 0.  0.
        3    1    3    3  502    0 -0.33884414019E+03  0.29234527058E+03 -0.87507938320E+03  0.98287590554E+03  0.10100000352E+00 0. -1.
       -3    1    3    3    0  502  0.33884414019E+03 -0.29234527058E+03 -0.68557184456E+03  0.81871232605E+03  0.10100000352E+00 0.  1.
</event>
<event>
 5   0  0.9697941E-04  0.9012660E+03  0.7818609E-02  0.9424000E-01
       -1   -1    0    0    0  501  0.00000000000E+00  0.00000000000E+00  0.85403857079E+03  0.85403857081E+03  0.50400001928E-02 0. -1.
        1   -1    0    0  501    0  0.00000000000E+00  0.00000000000E+00 -0.23777624714E+03  0.23777624720E+03  0.50400001928E-02 0.  1.
    10030    2    1    2    0    0  0.00000000000E+00  0.00000000000E+00  0.61626232365E+03  0.10918148180E+04  0.90126596810E+03 0.  0.
        5    1    3    3  502    0  0.12370811824E+03 -0.83002686069E+02  0.82331365205E+03  0.83669624360E+03  0.46999998093E+01 0. -1.
       -5    1    3    3    0  502 -0.12370811824E+03  0.83002686069E+02 -0.20705132840E+03  0.25511857440E+03  0.46999998093E+01 0.  1.
</event>
<event>
 5   0  0.6375625E-04  0.8996407E+03  0.7818609E-02  0.9426031E-01
       -3   -1    0    0    0  501  0.00000000000E+00  0.00000000000E+00  0.14850664029E+03  0.14850667464E+03  0.10100000352E+00 0.  1.
        3   -1    0    0  501    0  0.00000000000E+00  0.00000000000E+00 -0.13624866561E+04  0.13624866598E+04  0.10100000352E+00 0. -1.
    10030    2    1    2    0    0  0.00000000000E+00  0.00000000000E+00 -0.12139800158E+04  0.15109933344E+04  0.89964069385E+03 0.  0.
        5    1    3    3  502    0 -0.17393292415E+03 -0.28783735703E+03 -0.11086484590E+04  0.11585449935E+04  0.46999998093E+01 0. -1.
       -5    1    3    3    0  502  0.17393292415E+03  0.28783735703E+03 -0.10533155675E+03  0.35244834097E+03  0.46999998093E+01 0.  1.
</event>
<event>
 5   0  0.9223454E-04  0.9012010E+03  0.7818609E-02  0.9424081E-01
       -1   -1    0    0    0  501  0.00000000000E+00  0.00000000000E+00  0.67587713797E+03  0.67587713798E+03  0.50400001928E-02 0. -1.
        1   -1    0    0  501    0  0.00000000000E+00  0.00000000000E+00 -0.30041084963E+03  0.30041084968E+03  0.50400001928E-02 0.  1.
    10030    2    1    2    0    0  0.00000000000E+00  0.00000000000E+00  0.37546628833E+03  0.97628798766E+03  0.90120103261E+03 0.  0.
        1    1    3    3  502    0 -0.34752333471E+03 -0.94269735132E+02  0.48119372781E+03  0.60100470451E+03  0.50400001928E-02 0.  1.
       -1    1    3    3    0  502  0.34752333471E+03  0.94269735132E+02 -0.10572743948E+03  0.37528328315E+03  0.50400001928E-02 0. -1.
</event>
<event>
 5   0  0.9223454E-04  0.8964021E+03  0.7818609E-02  0.9430090E-01
       -1   -1    0    0    0  501  0.00000000000E+00  0.00000000000E+00  0.10710905398E+04  0.10710905398E+04  0.50400001928E-02 0.  1.
        1   -1    0    0  501    0  0.00000000000E+00  0.00000000000E+00 -0.18755106314E+03  0.18755106321E+03  0.50400001928E-02 0. -1.
    10030    2    1    2    0    0  0.00000000000E+00  0.00000000000E+00  0.88353947663E+03  0.12586416030E+04  0.89640207387E+03 0.  0.
        1    1    3    3  502    0  0.30230898307E+03  0.33069483038E+03  0.45804628774E+03  0.64074659096E+03  0.50400001928E-02 0.  1.
       -1    1    3    3    0  502 -0.30230898307E+03 -0.33069483038E+03  0.42549318889E+03  0.61789501204E+03  0.50400001928E-02 0. -1.
</event>
<event>
 5   0  0.6375625E-04  0.9013094E+03  0.7818609E-02  0.9423946E-01
       -3   -1    0    0    0  501  0.00000000000E+00  0.00000000000E+00  0.19657629610E+03  0.19657632205E+03  0.10100000352E+00 0.  1.
        3   -1    0    0  501    0  0.00000000000E+00  0.00000000000E+00 -0.10331339601E+04  0.10331339651E+04  0.10100000352E+00 0. -1.
    10030    2    1    2    0    0  0.00000000000E+00  0.00000000000E+00 -0.83655766405E+03  0.12297102871E+04  0.90130941691E+03 0.  0.
        5    1    3    3  502    0 -0.12575773126E+03 -0.23982842148E+03 -0.90970389739E+03  0.94916592314E+03  0.46999998093E+01 0. -1.
       -5    1    3    3    0  502  0.12575773126E+03  0.23982842148E+03  0.73146233342E+02  0.28054436400E+03  0.46999998093E+01 0.  1.
</event>
<event>
 5   0  0.1704416E-03  0.9001006E+03  0.7818609E-02  0.9425456E-01
        2   -1    0    0  501    0  0.00000000000E+00  0.00000000000E+00  0.89864213666E+03  0.89864213666E+03  0.25500000920E-02 0.  1.
       -2   -1    0    0    0  501  0.00000000000E+00  0.00000000000E+00 -0.22539036248E+03  0.22539036250E+03  0.25500000920E-02 0. -1.
    10030    2    1    2    0    0  0.00000000000E+00  0.00000000000E+00  0.67325177417E+03  0.11240324992E+04  0.90010060979E+03 0.  0.
        3    1    3    3  502    0 -0.39641594025E+03 -0.21268857821E+03  0.35258093485E+03  0.57157270299E+03  0.10100000352E+00 0.  1.
       -3    1    3    3    0  502  0.39641594025E+03  0.21268857821E+03  0.32067083932E+03  0.55245979617E+03  0.10100000352E+00 0. -1.
</event>
<event>
 5   0  0.9223454E-04  0.8999750E+03  0.7818609E-02  0.9425613E-01
       -1   -1    0    0    0  501  0.00000000000E+00  0.00000000000E+00  0.20589907283E+03  0.20589907289E+03  0.50400001928E-02 0.  1.
        1   -1    0    0  501    0  0.00000000000E+00  0.00000000000E+00 -0.98343698439E+03  0.98343698441E+03  0.50400001928E-02 0. -1.
    10030    2    1    2    0    0  0.00000000000E+00  0.00000000000E+00 -0.77753791156E+03  0.11893360573E+04  0.89997502925E+03 0.  0.
        1    1    3    3  502    0 -0.91395136174E+02  0.88734561545E+02  0.18157403067E+03  0.22180176277E+03  0.50400001928E-02 0.  1.
       -1    1    3    3    0  502  0.91395136174E+02 -0.88734561545E+02 -0.95911194223E+03  0.96753429453E+03  0.50400001928E-02 0. -1.
</event>
<event>
 5   0  0.1007561E-03  0.8997486E+03  0.7818609E-02  0.9425896E-01
       -1   -1    0    0    0  501  0.00000000000E+00  0.00000000000E+00  0.19027139667E+03  0.19027139674E+03  0.50400001928E-02 0. -1.
        1   -1    0    0  501    0  0.00000000000E+00  0.00000000000E+00 -0.10636746850E+04  0.10636746850E+04  0.50400001928E-02 0.  1.
    10030    2    1    2    0    0  0.00000000000E+00  0.00000000000E+00 -0.87340328833E+03  0.12539460818E+04  0.89974856037E+03 0.  0.
        2    1    3    3  502    0 -0.41338852709E+03  0.99659364358E+02 -0.23204282347E+03  0.48442330163E+03  0.25500000920E-02 0. -1.
       -2    1    3    3    0  502  0.41338852709E+03 -0.99659364358E+02 -0.64136046487E+03  0.76952278013E+03  0.25500000920E-02 0.  1.
</event>
<event>
 5   0  0.9697941E-04  0.9003523E+03  0.7818609E-02  0.9425141E-01
        1   -1    0    0  501    0  0.00000000000E+00  0.00000000000E+00  0.66781666267E+03  0.66781666268E+03  0.50400001928E-02 0. -1.
       -1   -1    0    0    0  501  0.00000000000E+00  0.00000000000E+00 -0.30346436029E+03  0.30346436033E+03  0.50400001928E-02 0.  1.
    10030    2    1    2    0    0  0.00000000000E+00  0.00000000000E+00  0.36435230238E+03  0.97128102301E+03  0.90035227851E+03 0.  0.
        5    1    3    3  502    0  0.11458347424E+03 -0.27687906798E+03  0.54456409538E+03  0.62158147884E+03  0.46999998093E+01 0. -1.
       -5    1    3    3    0  502 -0.11458347424E+03  0.27687906798E+03 -0.18021179300E+03  0.34969954417E+03  0.46999998093E+01 0.  1.
</event>
<event>
 5   0  0.1630202E-03  0.8988666E+03  0.7818609E-02  0.9426999E-01
        2   -1    0    0  501    0  0.00000000000E+00  0.00000000000E+00  0.86352327451E+03  0.86352327451E+03  0.25500000920E-02 0. -1.
       -2   -1    0    0    0  501  0.00000000000E+00  0.00000000000E+00 -0.23391411276E+03  0.23391411277E+03  0.25500000920E-02 0.  1.
    10030    2    1    2    0    0  0.00000000000E+00  0.00000000000E+00  0.62960916175E+03  0.10974373873E+04  0.89886657655E+03 0.  0.
        4    1    3    3  502    0 -0.23524305633E+03 -0.32785794574E+03  0.55640504421E+03  0.68732693404E+03  0.12699999809E+01 0. -1.
       -4    1    3    3    0  502  0.23524305633E+03  0.32785794574E+03  0.73204117543E+02  0.41011045324E+03  0.12699999809E+01 0.  1.
</event>
<event>
 5   0  0.1704416E-03  0.9001167E+03  0.7818609E-02  0.9425436E-01
       -2   -1    0    0    0  501  0.00000000000E+00  0.00000000000E+00  0.16514137782E+03  0.16514137784E+03  0.25500000920E-02 0.  1.
        2   -1    0    0  501    0  0.00000000000E+00  0.00000000000E+00 -0.12265400958E+04  0.12265400958E+04  0.25500000920E-02 0. -1.
    10030    2    1    2    0    0  0.00000000000E+00  0.00000000000E+00 -0.10613987179E+04  0.13916814736E+04  0.90011670663E+03 0.  0.
        3    1    3    3  502    0  0.34603359632E+03 -0.16705763158E+03 -0.89298156818E+03  0.97214381311E+03  0.10100000352E+00 0.  1.
       -3    1    3    3    0  502 -0.34603359632E+03  0.16705763158E+03 -0.16841714976E+03  0.41953766051E+03  0.10100000352E+00 0. -1.
</event>
<event>
 5   0  0.9981885E-04  0.9017665E+03  0.7818609E-02  0.9423376E-01
        1   -1    0    0  501    0  0.00000000000E+00  0.00000000000E+00  0.47550312510E+03  0.47550312513E+03  0.50400001928E-02 0. -1.
       -1   -1    0    0    0  501  0.00000000000E+00  0.00000000000E+00 -0.42753807544E+03  0.42753807547E+03  0.50400001928E-02 0.  1.
    10030    2    1    2    0    0  0.00000000000E+00  0.00000000000E+00  0.47965049664E+02  0.90304120060E+03  0.90176646866E+03 0.  0.
        4    1    3    3  502    0  0.29726442565E+03  0.92547163670E+02 -0.30261184520E+03  0.43417353444E+03  0.12699999809E+01 0.  1.
       -4    1    3    3    0  502 -0.29726442565E+03 -0.92547163670E+02  0.35057689486E+03  0.46886766616E+03  0.12699999809E+01 0. -1.
</event>
<event>
 5   0  0.1007561E-03  0.8986815E+03  0.7818609E-02  0.9427231E-01
        1   -1    0    0  501    0  0.00000000000E+00  0.00000000000E+00  0.86319054325E+03  0.86319054326E+03  0.50400001928E-02 0. -1.
       -1   -1    0    0    0  501  0.00000000000E+00  0.00000000000E+00 -0.23390792965E+03  0.23390792970E+03  0.50400001928E-02 0.  1.
    10030    2    1    2    0    0  0.00000000000E+00  0.00000000000E+00  0.62928261360E+03  0.10970984730E+04  0.89868150733E+03 0.  0.
        2    1    3    3  502    0  0.29814983327E+03 -0.20461597304E+02  0.72427868303E+03  0.78351235520E+03  0.25500000920E-02 0. -1.
       -2    1    3    3    0  502 -0.29814983327E+03  0.20461597304E+02 -0.94996069434E+02  0.31358611777E+03  0.25500000920E-02 0.  1.
</event>
<event>
 5   0  0.9981885E-04  0.9001141E+03  0.7818609E-02  0.9425439E-01
       -1   -1    0    0    0  501  0.00000000000E+00  0.00000000000E+00  0.37790690222E+03  0.37790690225E+03  0.50400001928E-02 0. -1.
        1   -1    0    0  501    0  0.00000000000E+00  0.00000000000E+00 -0.53598211814E+03  0.53598211817E+03  0.50400001928E-02 0.  1.
    10030    2    1    2    0    0  0.00000000000E+00  0.00000000000E+00 -0.15807521592E+03  0.91388902042E+03  0.90011408596E+03 0.  0.
        4    1    3    3  502    0  0.22819328491E+03  0.34263897288E+03 -0.26368916374E+03  0.48888365588E+03  0.12699999809E+01 0.  1.
       -4    1    3    3    0  502 -0.22819328491E+03 -0.34263897288E+03  0.10561394781E+03  0.42500536454E+03  0.12699999809E+01 0. -1.
</event>
<event>
 5   0  0.9223454E-04  0.8990999E+03  0.7818609E-02  0.9426707E-01
       -1   -1    0    0    0  501  0.00000000000E+00  0.00000000000E+00  0.22625141287E+03  0.22625141293E+03  0.50400001928E-02 0. -1.
        1   -1    0    0  501    0  0.00000000000E+00  0.00000000000E+00 -0.89323274097E+03  0.89323274098E+03  0.50400001928E-02 0.  1.
    10030    2    1    2    0    0  0.00000000000E+00  0.00000000000E+00 -0.66698132810E+03  0.11194841539E+04  0.89909992706E+03 0.  0.
        1    1    3    3  502    0 -0.44853423302E+03  0.60430030705E+01 -0.37033630183E+03  0.58169446667E+03  0.50400001928E-02 0. -1.
       -1    1    3    3    0  502  0.44853423302E+03 -0.60430030705E+01 -0.29664502626E+03  0.53778968724E+03  0.50400001928E-02 0.  1.
</event>
<event>
 5   0  0.6375625E-04  0.8989826E+03  0.7818609E-02  0.9426854E-01
       -3   -1    0    0    0  501  0.00000000000E+00  0.00000000000E+00  0.68698327196E+03  0.68698327938E+03  0.10100000352E+00 0.  1.
        3   -1    0    0  501    0  0.00000000000E+00  0.00000000000E+00 -0.29410089523E+03  0.29410091257E+03  0.10100000352E+00 0. -1.
    10030    2    1    2    0    0  0.00000000000E+00  0.00000000000E+00  0.39288237673E+03  0.98108419196E+03  0.89898255253E+03 0.  0.
        2    1    3    3  502    0  0.40675688405E+03  0.21539796286E+02 -0.10989332999E+02  0.40747501885E+03  0.25500000920E-02 0. -1.
       -2    1    3    3    0  502 -0.40675688405E+03 -0.21539796286E+02  0.40387170973E+03  0.57360917310E+03  0.25500000920E-02 0.  1.
</event>
<event>
 5   0  0.9981885E-04  0.8995033E+03  0.7818609E-02  0.9426203E-01
        1   -1    0    0  501    0  0.00000000000E+00  0.00000000000E+00  0.46479726559E+03  0.46479726561E+03  0.50400001928E-02 0.  1.
       -1   -1    0    0    0  501  0.00000000000E+00  0.00000000000E+00 -0.43519308251E+03  0.43519308254E+03  0.50400001928E-02 0. -1.
    10030    2    1    2    0    0  0.00000000000E+00  0.00000000000E+00  0.29604183070E+02  0.89999034816E+03  0.89950331801E+03 0.  0.
        4    1    3    3  502    0  0.44414588362E+03 -0.66778714710E+01  0.85301451340E+02  0.45231417223E+03  0.12699999809E+01 0. -1.
       -4    1    3    3    0  502 -0.44414588362E+03  0.66778714710E+01 -0.55697268270E+02  0.44767617593E+03  0.12699999809E+01 0.  1.
</event>
<event>
 5   0  0.1630202E-03  0.8992499E+03  0.7818609E-02  0.9426520E-01
        2   -1    0    0  501    0  0.00000000000E+00  0.00000000000E+00  0.66279739571E+03  0.66279739571E+03  0.25500000920E-02 0. -1.
       -2   -1    0    0    0  501  0.00000000000E+00  0.00000000000E+00 -0.30501413372E+03  0.30501413373E+03  0.25500000920E-02 0.  1.
    10030    2    1    2    0    0  0.00000000000E+00  0.00000000000E+00  0.35778326199E+03  0.96781152944E+03  0.89924985068E+03 0.  0.
        4    1    3    3  502    0  0.41243215372E+03  0.17462986395E+03  0.13631414205E+03  0.46816560001E+03  0.12699999809E+01 0. -1.
       -4    1    3    3    0  502 -0.41243215372E+03 -0.17462986395E+03  0.22146911994E+03  0.49964592943E+03  0.12699999809E+01 0.  1.
</event>
<event>
 5   0  0.6375625E-04  0.8994954E+03  0.7818609E-02  0.9426212E-01
        3   -1    0    0  501    0  0.00000000000E+00  0.00000000000E+00  0.19489696367E+04  0.19489696393E+04  0.10100000352E+00 0. -1.
       -3   -1    0    0    0  501  0.00000000000E+00  0.00000000000E+00 -0.10378455017E+03  0.10378459932E+03  0.10100000352E+00 0.  1.
    10030    2    1    2    0    0  0.00000000000E+00  0.00000000000E+00  0.18451850865E+04  0.20527542386E+04  0.89949539224E+03 0.  0.
        1    1    3    3  502    0 -0.32522705441E+03  0.29973311669E+02  0.16282133827E+04  0.16606474208E+04  0.50400001928E-02 0. -1.
       -1    1    3    3    0  502  0.32522705441E+03 -0.29973311669E+02  0.21697170373E+03  0.39210681781E+03  0.50400001928E-02 0.  1.
</event>
<event>
 5   0  0.1630202E-03  0.8999563E+03  0.7818609E-02  0.9425636E-01
       -2   -1    0    0    0  501  0.00000000000E+00  0.00000000000E+00  0.11394114488E+03  0.11394114491E+03  0.25500000920E-02 0.  1.
        2   -1    0    0  501    0  0.00000000000E+00  0.00000000000E+00 -0.17770607375E+04  0.17770607375E+04  0.25500000920E-02 0. -1.
    10030    2    1    2    0    0  0.00000000000E+00  0.00000000000E+00 -0.16631195926E+04  0.18910018824E+04  0.89995629889E+03 0.  0.
        4    1    3    3  502    0  0.34229371780E+02  0.79790436593E+02 -0.17592898870E+04  0.17614314301E+04  0.12699999809E+01 0. -1.
       -4    1    3    3    0  502 -0.34229371780E+02 -0.79790436593E+02  0.96170294422E+02  0.12957045224E+03  0.12699999809E+01 0.  1.
</event>
<event>
 5   0  0.9223454E-04  0.9007972E+03  0.7818609E-02  0.9424585E-01
        1   -1    0    0  501    0  0.00000000000E+00  0.00000000000E+00  0.11009863484E+04  0.11009863485E+04  0.50400001928E-02 0.  1.
       -1   -1    0    0    0  501  0.00000000000E+00  0.00000000000E+00 -0.18425194974E+03  0.18425194981E+03  0.50400001928E-02 0. -1.
    10030    2    1    2    0    0  0.00000000000E+00  0.00000000000E+00  0.91673439871E+03  0.12852382983E+04  0.90079716116E+03 0.  0.
        1    1    3    3  502    0 -0.14276117647E+03  0.10293235697E+03 -0.13315791082E+03  0.22069629099E+03  0.50400001928E-02 0. -1.
       -1    1    3    3    0  502  0.14276117647E+03 -0.10293235697E+03  0.10498923095E+04  0.10645420073E+04  0.50400001928E-02 0.  1.
</event>
<event>
 5   0  0.9981885E-04  0.9032285E+03  0.7818609E-02  0.9421555E-01
       -1   -1    0    0    0  501  0.00000000000E+00  0.00000000000E+00  0.19103377398E+03  0.19103377404E+03  0.50400001928E-02 0.  1.
        1   -1    0    0  501    0  0.00000000000E+00  0.00000000000E+00 -0.10676407540E+04  0.10676407541E+04  0.50400001928E-02 0. -1.
    10030    2    1    2    0    0  0.00000000000E+00  0.00000000000E+00 -0.87660698007E+03  0.12586745281E+04  0.90322852600E+03 0.  0.
        4    1    3    3  502    0 -0.22362836191E+03  0.12429558135E+03  0.80296521850E+02  0.26815700646E+03  0.12699999809E+01 0.  1.
       -4    1    3    3    0  502  0.22362836191E+03 -0.12429558135E+03 -0.95690350191E+03  0.99051752164E+03  0.12699999809E+01 0. -1.
</event>
<event>
 5   0  0.1630202E-03  0.9007646E+03  0.7818609E-02  0.9424626E-01
        2   -1    0    0  501    0  0.00000000000E+00  0.00000000000E+00  0.37182686826E+03  0.37182686827E+03  0.25500000920E-02 0. -1.
       -2   -1    0    0    0  501  0.00000000000E+00  0.00000000000E+00 -0.54553408801E+03  0.54553408801E+03  0.25500000920E-02 0.  1.
    10030    2    1    2    0    0  0.00000000000E+00  0.00000000000E+00 -0.17370721975E+03  0.91736095628E+03  0.90076463402E+03 0.  0.
        4    1    3    3  502    0  0.13596206262E+03 -0.28550548890E+03  0.23974735202E+03  0.39683683342E+03  0.12699999809E+01 0. -1.
       -4    1    3    3    0  502 -0.13596206262E+03  0.28550548890E+03 -0.41345457176E+03  0.52052412286E+03  0.12699999809E+01 0.  1.
</event>
<event>
 5   0  0.1630202E-03  0.8997321E+03  0.7818609E-02  0.9425916E-01
       -2   -1    0    0    0  501  0.00000000000E+00  0.00000000000E+00  0.19056639253E+03  0.19056639255E+03  0.25500000920E-02 0. -1.
        2   -1    0    0  501    0  0.00000000000E+00  0.00000000000E+00 -0.10619893120E+04  0.10619893120E+04  0.25500000920E-02 0.  1.
    10030    2    1    2    0    0  0.00000000000E+00  0.00000000000E+00 -0.87142291948E+03  0.12525557046E+04  0.89973212037E+03 0.  0.
        4    1    3    3  502    0 -0.14339053254E+03 -0.18266095017E+02 -0.10287763779E+04  0.10388825457E+04  0.12699999809E+01 0.  1.
       -4    1    3    3    0  502  0.14339053254E+03  0.18266095017E+02  0.15735345843E+03  0.21367315889E+03  0.12699999809E+01 0. -1.
</event>
<event>
 5   0  0.1635686E-03  0.9009683E+03  0.7818609E-02  0.9424372E-01
       -2   -1    0    0    0  501  0.00000000000E+00  0.00000000000E+00  0.13223727004E+03  0.13223727006E+03  0.25500000920E-02 0.  1.
        2   -1    0    0  501    0  0.00000000000E+00  0.00000000000E+00 -0.15346352142E+04  0.15346352142E+04  0.25500000920E-02 0. -1.
    10030    2    1    2    0    0  0.00000000000E+00  0.00000000000E+00 -0.14023979441E+04  0.16668724842E+04  0.90096830411E+03 0.  0.
        5    1    3    3  502    0 -0.13384554538E+01 -0.10323472688E+03  0.11000734890E+03  0.15094007787E+03  0.46999998093E+01 0.  1.
       -5    1    3    3    0  502  0.13384554538E+01  0.10323472688E+03 -0.15124052930E+04  0.15159324064E+04  0.46999998093E+01 0. -1.
</event>
<event>
 5   0  0.1641516E-03  0.9019189E+03  0.7818609E-02  0.9423186E-01
        2   -1    0    0  501    0  0.00000000000E+00  0.00000000000E+00  0.86481502198E+03  0.86481502198E+03  0.25500000920E-02 0.  1.
       -2   -1    0    0    0  501  0.00000000000E+00  0.00000000000E+00 -0.23515364679E+03  0.23515364680E+03  0.25500000920E-02 0. -1.
    10030    2    1    2    0    0  0.00000000000E+00  0.00000000000E+00  0.62966137519E+03  0.10999686688E+04  0.90191885716E+03 0.  0.
        1    1    3    3  502    0 -0.41519194015E+03  0.16624038904E+03  0.24430319321E+03  0.50961187619E+03  0.50400001928E-02 0. -1.
       -1    1    3    3    0  502  0.41519194015E+03 -0.16624038904E+03  0.38535818198E+03  0.59035679260E+03  0.50400001928E-02 0.  1.
</event>
<event>
 5   0  0.9697941E-04  0.8997417E+03  0.7818609E-02  0.9425904E-01
        1   -1    0    0  501    0  0.00000000000E+00  0.00000000000E+00  0.49069647541E+03  0.49069647544E+03  0.50400001928E-02 0. -1.
       -1   -1    0    0    0  501  0.00000000000E+00  0.00000000000E+00 -0.41244186699E+03  0.41244186702E+03  0.50400001928E-02 0.  1.
    10030    2    1    2    0    0  0.00000000000E+00  0.00000000000E+00  0.78254608427E+02  0.90313834245E+03  0.89974167508E+03 0.  0.
        5    1    3    3  502    0 -0.10055560543E+03 -0.36316893078E+02 -0.39947917904E+03  0.41356505050E+03  0.46999998093E+01 0.  1.
       -5    1    3    3    0  502  0.10055560543E+03  0.36316893078E+02  0.47773378747E+03  0.48957329196E+03  0.46999998093E+01 0. -1.
</event>
<event>
 5   0  0.1635686E-03  0.8993823E+03  0.7818609E-02  0.9426354E-01
        2   -1    0    0  501    0  0.00000000000E+00  0.00000000000E+00  0.78440041513E+03  0.78440041513E+03  0.25500000920E-02 0. -1.
       -2   -1    0    0    0  501  0.00000000000E+00  0.00000000000E+00 -0.25780470395E+03  0.25780470397E+03  0.25500000920E-02 0.  1.
    10030    2    1    2    0    0  0.00000000000E+00  0.00000000000E+00  0.52659571117E+03  0.10422051191E+04  0.89938226981E+03 0.  0.
        5    1    3    3  502    0 -0.14739832348E+03 -0.52340925807E+02 -0.22523566505E+03  0.27426088509E+03  0.46999998093E+01 0.  1.
       -5    1    3    3    0  502  0.14739832348E+03  0.52340925807E+02  0.75183137622E+03  0.76794423401E+03  0.46999998093E+01 0. -1.
</event>
<event>
 5   0  0.6375625E-04  0.8996121E+03  0.7818609E-02  0.9426066E-01
        4   -1    0    0  501    0  0.00000000000E+00  0.00000000000E+00  0.12946923724E+03  0.12947546598E+03  0.12699999809E+01 0.  1.
       -4   -1    0    0    0  501  0.00000000000E+00  0.00000000000E+00 -0.15626859812E+04  0.15626864973E+04  0.12699999809E+01 0. -1.
    10030    2    1    2    0    0  0.00000000000E+00  0.00000000000E+00 -0.14332167440E+04  0.16921619632E+04  0.89961206899E+03 0.  0.
        5    1    3    3  502    0  0.12809463921E+03  0.23012471074E+03 -0.14024294571E+04  0.14269534300E+04  0.46999998093E+01 0. -1.
       -5    1    3    3    0  502 -0.12809463921E+03 -0.23012471074E+03 -0.30787286823E+02  0.26520853326E+03  0.46999998093E+01 0.  1.
</event>
<event>
 5   0  0.1635686E-03  0.9006240E+03  0.7818609E-02  0.9424802E-01
        2   -1    0    0  501    0  0.00000000000E+00  0.00000000000E+00  0.11385826129E+04  0.11385826129E+04  0.25500000920E-02 0. -1.
       -2   -1    0    0    0  501  0.00000000000E+00  0.00000000000E+00 -0.17809941446E+03  0.17809941447E+03  0.25500000920E-02 0.  1.
    10030    2    1    2    0    0  0.00000000000E+00  0.00000000000E+00  0.96048319846E+03  0.13166820274E+04  0.90062399853E+03 0.  0.
        5    1    3    3  502    0 -0.63727155192E+02  0.40132135783E+03  0.19660947613E+03  0.45143920816E+03  0.46999998093E+01 0.  1.
       -5    1    3    3    0  502  0.63727155192E+02 -0.40132135783E+03  0.76387372234E+03  0.86524281923E+03  0.46999998093E+01 0. -1.
</event>
<event>
 5   0  0.9321543E-04  0.8966640E+03  0.7818609E-02  0.9429761E-01
       -1   -1    0    0    0  501  0.00000000000E+00  0.00000000000E+00  0.70266462413E+03  0.70266462415E+03  0.50400001928E-02 0. -1.
        1   -1    0    0  501    0  0.00000000000E+00  0.00000000000E+00 -0.28605618731E+03  0.28605618735E+03  0.50400001928E-02 0.  1.
    10030    2    1    2    0    0  0.00000000000E+00  0.00000000000E+00  0.41660843682E+03  0.98872081150E+03  0.89666395793E+03 0.  0.
        3    1    3    3  502    0 -0.32411663947E+03 -0.33995413718E+02  0.54780048548E+03  0.63741090846E+03  0.10100000352E+00 0. -1.
       -3    1    3    3    0  502  0.32411663947E+03  0.33995413718E+02 -0.13119204866E+03  0.35130990303E+03  0.10100000352E+00 0.  1.
</event>
<event>
 5   0  0.9981885E-04  0.8992462E+03  0.7818609E-02  0.9426524E-01
       -1   -1    0    0    0  501  0.00000000000E+00  0.00000000000E+00  0.23264684324E+03  0.23264684330E+03  0.50400001928E-02 0. -1.
        1   -1    0    0  501    0  0.00000000000E+00  0.00000000000E+00 -0.86896064442E+03  0.86896064443E+03  0.50400001928E-02 0.  1.
    10030    2    1    2    0    0  0.00000000000E+00  0.00000000000E+00 -0.63631380117E+03  0.11016074877E+04  0.89924624184E+03 0.  0.
        4    1    3    3  502    0  0.33658677592E+03  0.51127022631E+02  0.41625281827E+02  0.34298528708E+03  0.12699999809E+01 0. -1.
       -4    1    3    3    0  502 -0.33658677592E+03 -0.51127022631E+02 -0.67793908300E+03  0.75862220065E+03  0.12699999809E+01 0.  1.
</event>
<event>
 5   0  0.9321543E-04  0.9015040E+03  0.7818609E-02  0.9423703E-01
        1   -1    0    0  501    0  0.00000000000E+00  0.00000000000E+00  0.12364989163E+04  0.12364989164E+04  0.50400001928E-02 0. -1.
       -1   -1    0    0    0  501  0.00000000000E+00  0.00000000000E+00 -0.16431666432E+03  0.16431666440E+03  0.50400001928E-02 0.  1.
    10030    2    1    2    0    0  0.00000000000E+00  0.00000000000E+00  0.10721822520E+04  0.14008155808E+04  0.90150402646E+03 0.  0.
        3    1    3    3  502    0  0.28064268657E+03 -0.30282293991E+03  0.81714453523E+03  0.91552566983E+03  0.10100000352E+00 0. -1.
       -3    1    3    3    0  502 -0.28064268657E+03  0.30282293991E+03  0.25503771679E+03  0.48528991093E+03  0.10100000352E+00 0.  1.
</event>
<event>
 5   0  0.9321543E-04  0.8993073E+03  0.7818609E-02  0.9426448E-01
        1   -1    0    0  501    0  0.00000000000E+00  0.00000000000E+00  0.65477406116E+03  0.65477406118E+03  0.50400001928E-02 0. -1.
       -1   -1    0    0    0  501  0.00000000000E+00  0.00000000000E+00 -0.30879111278E+03  0.30879111282E+03  0.50400001928E-02 0.  1.
    10030    2    1    2    0    0  0.00000000000E+00  0.00000000000E+00  0.34598294839E+03  0.96356517400E+03  0.89930731342E+03 0.  0.
        3    1    3    3  502    0 -0.32396744290E+03 -0.31066583869E+03  0.20174622436E+03  0.49210742388E+03  0.10100000352E+00 0.  1.
       -3    1    3    3    0  502  0.32396744290E+03  0.31066583869E+03  0.14423672402E+03  0.47145775012E+03  0.10100000352E+00 0. -1.
</event>
<event>
 5   0  0.1536020E-03  0.8971144E+03  0.7818609E-02  0.9429196E-01
       -2   -1    0    0    0  501  0.00000000000E+00  0.00000000000E+00  0.18389178157E+03  0.18389178159E+03  0.25500000920E-02 0. -1.
        2   -1    0    0  501    0  0.00000000000E+00  0.00000000000E+00 -0.10941410404E+04  0.10941410404E+04  0.25500000920E-02 0.  1.
    10030    2    1    2    0    0  0.00000000000E+00  0.00000000000E+00 -0.91024925879E+03  0.12780328220E+04  0.89711436332E+03 0.  0.
        2    1    3    3  502    0  0.42574192864E+03 -0.13868543783E+03 -0.41706596962E+03  0.61191001257E+03  0.25500000920E-02 0. -1.
       -2    1    3    3    0  502 -0.42574192864E+03  0.13868543783E+03 -0.49318328918E+03  0.66612280939E+03  0.25500000920E-02 0.  1.
</event>
<event>
 5   0  0.9697941E-04  0.9012299E+03  0.7818609E-02  0.9424045E-01
       -1   -1    0    0    0  501  0.00000000000E+00  0.00000000000E+00  0.47671259563E+03  0.47671259566E+03  0.50400001928E-02 0.  1.
        1   -1    0    0  501    0  0.00000000000E+00  0.00000000000E+00 -0.42594600975E+03  0.42594600978E+03  0.50400001928E-02 0. -1.
    10030    2    1    2    0    0  0.00000000000E+00  0.00000000000E+00  0.50766585881E+02  0.90265860544E+03  0.90122988839E+03 0.  0.
        5    1    3    3  502    0 -0.13783169837E+03 -0.41238339324E+03 -0.93016196703E+02  0.44467037561E+03  0.46999998093E+01 0. -1.
       -5    1    3    3    0  502  0.13783169837E+03  0.41238339324E+03  0.14378278258E+03  0.45798822983E+03  0.46999998093E+01 0.  1.
</event>
<event>
 5   0  0.1007561E-03  0.8934408E+03  0.7818609E-02  0.9433818E-01
        1   -1    0    0  501    0  0.00000000000E+00  0.00000000000E+00  0.16120072656E+04  0.16120072656E+04  0.50400001928E-02 0.  1.
       -1   -1    0    0    0  501  0.00000000000E+00  0.00000000000E+00 -0.12379542752E+03  0.12379542762E+03  0.50400001928E-02 0. -1.
    10030    2    1    2    0    0  0.00000000000E+00  0.00000000000E+00  0.14882118381E+04  0.17358026932E+04  0.89344082893E+03 0.  0.
        2    1    3    3  502    0 -0.39401000475E+03 -0.14676536399E+03  0.45090494897E+03  0.61652188033E+03  0.25500000920E-02 0. -1.
       -2    1    3    3    0  502  0.39401000475E+03  0.14676536399E+03  0.10373068891E+04  0.11192808129E+04  0.25500000920E-02 0.  1.
</event>
<event>
 5   0  0.9321543E-04  0.9015374E+03  0.7818609E-02  0.9423662E-01
       -1   -1    0    0    0  501  0.00000000000E+00  0.00000000000E+00  0.16922214585E+03  0.16922214592E+03  0.50400001928E-02 0. -1.
        1   -1    0    0  501    0  0.00000000000E+00  0.00000000000E+00 -0.12007436278E+04  0.12007436278E+04  0.50400001928E-02 0.  1.
    10030    2    1    2    0    0  0.00000000000E+00  0.00000000000E+00 -0.10315214819E+04  0.13699657737E+04  0.90153738328E+03 0.  0.
        3    1    3    3  502    0 -0.29463697648E+03 -0.31490752791E+03 -0.31638341890E+03  0.53486089500E+03  0.10100000352E+00 0. -1.
       -3    1    3    3    0  502  0.29463697648E+03  0.31490752791E+03 -0.71513806304E+03  0.83510487872E+03  0.10100000352E+00 0.  1.
</event>
<event>
 5   0  0.1641516E-03  0.8997918E+03  0.7818609E-02  0.9425842E-01
        2   -1    0    0  501    0  0.00000000000E+00  0.00000000000E+00  0.79037033710E+03  0.79037033711E+03  0.25500000920E-02 0.  1.
       -2   -1    0    0    0  501  0.00000000000E+00  0.00000000000E+00 -0.25609048575E+03  0.25609048576E+03  0.25500000920E-02 0. -1.
    10030    2    1    2    0    0  0.00000000000E+00  0.00000000000E+00  0.53427985135E+03  0.10464608229E+04  0.89979180605E+03 0.  0.
        1    1    3    3  502    0 -0.36928982582E+03  0.24020996181E+03  0.37328920661E+03  0.57742586797E+03  0.50400001928E-02 0.  1.
       -1    1    3    3    0  502  0.36928982582E+03 -0.24020996181E+03  0.16099064475E+03  0.46903495491E+03  0.50400001928E-02 0. -1.
</event>
<event>
 5   0  0.1536020E-03  0.8983087E+03  0.7818609E-02  0.9427698E-01
       -2   -1    0    0    0  501  0.00000000000E+00  0.00000000000E+00  0.98564315023E+02  0.98564315056E+02  0.25500000920E-02 0.  1.
        2   -1    0    0  501    0  0.00000000000E+00  0.00000000000E+00 -0.20467814504E+04  0.20467814504E+04  0.25500000920E-02 0. -1.
    10030    2    1    2    0    0  0.00000000000E+00  0.00000000000E+00 -0.19482171354E+04  0.21453457654E+04  0.89830865897E+03 0.  0.
        2    1    3    3  502    0 -0.42188678764E+03 -0.15384318107E+03 -0.95229524874E+03  0.10528639165E+04  0.25500000920E-02 0.  1.
       -2    1    3    3    0  502  0.42188678764E+03  0.15384318107E+03 -0.99592188662E+03  0.10924818489E+04  0.25500000920E-02 0. -1.
</event>
<event>
 5   0  0.9321543E-04  0.8982559E+03  0.7818609E-02  0.9427764E-01
       -1   -1    0    0    0  501  0.00000000000E+00  0.00000000000E+00  0.15939204570E+03  0.15939204578E+03  0.50400001928E-02 0.  1.
        1   -1    0    0  501    0  0.00000000000E+00  0.00000000000E+00 -0.12655330834E+04  0.12655330835E+04  0.50400001928E-02 0. -1.
    10030    2    1    2    0    0  0.00000000000E+00  0.00000000000E+00 -0.11061410377E+04  0.14249251292E+04  0.89825588143E+03 0.  0.
        3    1    3    3  502    0  0.11183742203E+03 -0.41424224099E+03 -0.76358988088E+03  0.87588455836E+03  0.10100000352E+00 0. -1.
       -3    1    3    3    0  502 -0.11183742203E+03  0.41424224099E+03 -0.34255115686E+03  0.54904057087E+03  0.10100000352E+00 0.  1.
</event>
<event>
 5   0  0.1641516E-03  0.8981843E+03  0.7818609E-02  0.9427854E-01
       -2   -1    0    0    0  501  0.00000000000E+00  0.00000000000E+00  0.26784273725E+03  0.26784273726E+03  0.25500000920E-02 0. -1.
        2   -1    0    0  501    0  0.00000000000E+00  0.00000000000E+00 -0.75299327076E+03  0.75299327076E+03  0.25500000920E-02 0.  1.
    10030    2    1    2    0    0  0.00000000000E+00  0.00000000000E+00 -0.48515053351E+03  0.10208360080E+04  0.89818434361E+03 0.  0.
        1    1    3    3  502    0  0.43788120136E+03  0.99285166601E+02 -0.23201765837E+03  0.50540051903E+03  0.50400001928E-02 0. -1.
       -1    1    3    3    0  502 -0.43788120136E+03 -0.99285166601E+02 -0.25313287513E+03  0.51543548899E+03  0.50400001928E-02 0.  1.
</event>
<event>
 5   0  0.9223454E-04  0.9000978E+03  0.7818609E-02  0.9425459E-01
        1   -1    0    0  501    0  0.00000000000E+00  0.00000000000E+00  0.84720196542E+03  0.84720196543E+03  0.50400001928E-02 0.  1.
       -1   -1    0    0    0  501  0.00000000000E+00  0.00000000000E+00 -0.23907408224E+03  0.23907408230E+03  0.50400001928E-02 0. -1.
    10030    2    1    2    0    0  0.00000000000E+00  0.00000000000E+00  0.60812788318E+03  0.10862760477E+04  0.90009784444E+03 0.  0.
        1    1    3    3  502    0 -0.11550324166E+02 -0.10666341269E+03 -0.22341520180E+03  0.24784036398E+03  0.50400001928E-02 0. -1.
       -1    1    3    3    0  502  0.11550324166E+02  0.10666341269E+03  0.83154308497E+03  0.83843568375E+03  0.50400001928E-02 0.  1.
</event>
<event>
 5   0  0.9321543E-04  0.9133658E+03  0.7818609E-02  0.9409026E-01
        1   -1    0    0  501    0  0.00000000000E+00  0.00000000000E+00  0.21967778467E+04  0.21967778467E+04  0.50400001928E-02 0. -1.
       -1   -1    0    0    0  501  0.00000000000E+00  0.00000000000E+00 -0.94938715796E+02  0.94938715930E+02  0.50400001928E-02 0.  1.
    10030    2    1    2    0    0  0.00000000000E+00  0.00000000000E+00  0.21018391309E+04  0.22917165626E+04  0.91336579268E+03 0.  0.
        3    1    3    3  502    0 -0.27789714396E+03  0.26325571633E+03  0.16758232288E+04  0.17189862999E+04  0.10100000352E+00 0. -1.
       -3    1    3    3    0  502  0.27789714396E+03 -0.26325571633E+03  0.42601590202E+03  0.57273026267E+03  0.10100000352E+00 0.  1.
</event>
<event>
 5   0  0.1630202E-03  0.9083471E+03  0.7818609E-02  0.9415207E-01
        2   -1    0    0  501    0  0.00000000000E+00  0.00000000000E+00  0.62935883954E+03  0.62935883954E+03  0.25500000920E-02 0. -1.
       -2   -1    0    0    0  501  0.00000000000E+00  0.00000000000E+00 -0.32775196938E+03  0.32775196939E+03  0.25500000920E-02 0.  1.
    10030    2    1    2    0    0  0.00000000000E+00  0.00000000000E+00  0.30160687016E+03  0.95711080893E+03  0.90834706827E+03 0.  0.
        4    1    3    3  502    0  0.22836116919E+03  0.19042388109E+03  0.51254393627E+03  0.59254786945E+03  0.12699999809E+01 0. -1.
       -4    1    3    3    0  502 -0.22836116919E+03 -0.19042388109E+03 -0.21093706611E+03  0.36456293948E+03  0.12699999809E+01 0.  1.
</event>
<event>
 5   0  0.6375625E-04  0.8907594E+03  0.7818609E-02  0.9437207E-01
        4   -1    0    0  501    0  0.00000000000E+00  0.00000000000E+00  0.18492185578E+03  0.18492621676E+03  0.12699999809E+01 0.  1.
       -4   -1    0    0    0  501  0.00000000000E+00  0.00000000000E+00 -0.10726686432E+04  0.10726693950E+04  0.12699999809E+01 0. -1.
    10030    2    1    2    0    0  0.00000000000E+00  0.00000000000E+00 -0.88774678740E+03  0.12575956117E+04  0.89075943113E+03 0.  0.
        2    1    3    3  502    0  0.15314647421E+03  0.18213892618E+03 -0.97539217770E+03  0.10040011610E+04  0.25500000920E-02 0. -1.
       -2    1    3    3    0  502 -0.15314647421E+03 -0.18213892618E+03  0.87645390304E+02  0.25359445073E+03  0.25500000920E-02 0.  1.
</event>
<event>
 5   0  0.6375625E-04  0.9015578E+03  0.7818609E-02  0.9423636E-01
       -3   -1    0    0    0  501  0.00000000000E+00  0.00000000000E+00  0.21219864059E+03  0.21219866463E+03  0.10100000352E+00 0. -1.
        3   -1    0    0  501    0  0.00000000000E+00  0.00000000000E+00 -0.95760078849E+03  0.95760079381E+03  0.10100000352E+00 0.  1.
    10030    2    1    2    0    0  0.00000000000E+00  0.00000000000E+00 -0.74540214789E+03  0.11697994584E+04  0.90155776902E+03 0.  0.
        4    1    3    3  502    0 -0.67744319262E+02 -0.76428647689E+02 -0.94238879286E+03  0.94790763305E+03  0.12699999809E+01 0.  1.
       -4    1    3    3    0  502  0.67744319262E+02  0.76428647689E+02  0.19698664497E+03  0.22189182539E+03  0.12699999809E+01 0. -1.
</event>
<event>
 5   0  0.1641516E-03  0.8992544E+03  0.7818609E-02  0.9426514E-01
       -2   -1    0    0    0  501  0.00000000000E+00  0.00000000000E+00  0.44879987940E+03  0.44879987941E+03  0.25500000920E-02 0. -1.
        2   -1    0    0  501    0  0.00000000000E+00  0.00000000000E+00 -0.45045605013E+03  0.45045605014E+03  0.25500000920E-02 0.  1.
    10030    2    1    2    0    0  0.00000000000E+00  0.00000000000E+00 -0.16561707267E+01  0.89925592954E+03  0.89925440445E+03 0.  0.
        1    1    3    3  502    0  0.13586797498E+03 -0.64770857129E+02  0.42285795320E+03  0.44884765697E+03  0.50400001928E-02 0. -1.
       -1    1    3    3    0  502 -0.13586797498E+03  0.64770857129E+02 -0.42451412393E+03  0.45040827257E+03  0.50400001928E-02 0.  1.
</event>
<event>
 5   0  0.1635686E-03  0.9092294E+03  0.7818609E-02  0.9414117E-01
        2   -1    0    0  501    0  0.00000000000E+00  0.00000000000E+00  0.17022135713E+04  0.17022135713E+04  0.25500000920E-02 0.  1.
       -2   -1    0    0    0  501  0.00000000000E+00  0.00000000000E+00 -0.12141516554E+03  0.12141516556E+03  0.25500000920E-02 0. -1.
    10030    2    1    2    0    0  0.00000000000E+00  0.00000000000E+00  0.15807984058E+04  0.18236287369E+04  0.90922943764E+03 0.  0.
        5    1    3    3  502    0 -0.69193122364E+02  0.53413460902E+01  0.16914774522E+04  0.16929070499E+04  0.46999998093E+01 0.  1.
       -5    1    3    3    0  502  0.69193122364E+02 -0.53413460902E+01 -0.11067904638E+03  0.13072168706E+03  0.46999998093E+01 0. -1.
</event>
<event>
 5   0  0.1630202E-03  0.9004632E+03  0.7818609E-02  0.9425003E-01
        2   -1    0    0  501    0  0.00000000000E+00  0.00000000000E+00  0.90804542933E+03  0.90804542933E+03  0.25500000920E-02 0.  1.
       -2   -1    0    0    0  501  0.00000000000E+00  0.00000000000E+00 -0.22323608587E+03  0.22323608589E+03  0.25500000920E-02 0. -1.
    10030    2    1    2    0    0  0.00000000000E+00  0.00000000000E+00  0.68480934345E+03  0.11312815152E+04  0.90046323068E+03 0.  0.
        4    1    3    3  502    0 -0.11491822857E+02 -0.35444402513E+03 -0.60873474519E+01  0.35468478631E+03  0.12699999809E+01 0. -1.
       -4    1    3    3    0  502  0.11491822857E+02  0.35444402513E+03  0.69089669091E+03  0.77659672891E+03  0.12699999809E+01 0.  1.
</event>
<event>
 5   0  0.9321543E-04  0.8989268E+03  0.7818609E-02  0.9426924E-01
       -1   -1    0    0    0  501  0.00000000000E+00  0.00000000000E+00  0.52472845816E+03  0.52472845818E+03  0.50400001928E-02 0.  1.
        1   -1    0    0  501    0  0.00000000000E+00  0.00000000000E+00 -0.38499409829E+03  0.38499409833E+03  0.50400001928E-02 0. -1.
    10030    2    1    2    0    0  0.00000000000E+00  0.00000000000E+00  0.13973435986E+03  0.90972255651E+03  0.89892682600E+03 0.  0.
        3    1    3    3  502    0  0.23150689914E+03  0.20385167857E+03 -0.26096306646E+03  0.40404539777E+03  0.10100000352E+00 0. -1.
       -3    1    3    3    0  502 -0.23150689914E+03 -0.20385167857E+03  0.40069742632E+03  0.50567715874E+03  0.10100000352E+00 0.  1.
</event>
<event>
 5   0  0.9321543E-04  0.8987496E+03  0.7818609E-02  0.9427146E-01
        1   -1    0    0  501    0  0.00000000000E+00  0.00000000000E+00  0.90549834205E+03  0.90549834207E+03  0.50400001928E-02 0. -1.
       -1   -1    0    0    0  501  0.00000000000E+00  0.00000000000E+00 -0.22301280810E+03  0.22301280815E+03  0.50400001928E-02 0.  1.
    10030    2    1    2    0    0  0.00000000000E+00  0.00000000000E+00  0.68248553396E+03  0.11285111502E+04  0.89874963817E+03 0.  0.
        3    1    3    3  502    0 -0.46601563617E+02 -0.23874014472E+03 -0.13320053638E+03  0.27732824509E+03  0.10100000352E+00 0.  1.
       -3    1    3    3    0  502  0.46601563617E+02  0.23874014472E+03  0.81568607034E+03  0.85118290513E+03  0.10100000352E+00 0. -1.
</event>
<event>
 5   0  0.1704416E-03  0.8994951E+03  0.7818609E-02  0.9426213E-01
        2   -1    0    0  501    0  0.00000000000E+00  0.00000000000E+00  0.56805661628E+03  0.56805661629E+03  0.25500000920E-02 0. -1.
       -2   -1    0    0    0  501  0.00000000000E+00  0.00000000000E+00 -0.35607872826E+03  0.35607872827E+03  0.25500000920E-02 0.  1.
    10030    2    1    2    0    0  0.00000000000E+00  0.00000000000E+00  0.21197788802E+03  0.92413534456E+03  0.89949514176E+03 0.  0.
        3    1    3    3  502    0 -0.83880481348E+02  0.31235149996E+03  0.42707768180E+03  0.53571891060E+03  0.10100000352E+00 0. -1.
       -3    1    3    3    0  502  0.83880481348E+02 -0.31235149996E+03 -0.21509979378E+03  0.38841643396E+03  0.10100000352E+00 0.  1.
</event>
<event>
 5   0  0.1630202E-03  0.8996274E+03  0.7818609E-02  0.9426047E-01
        2   -1    0    0  501    0  0.00000000000E+00  0.00000000000E+00  0.75682993454E+03  0.75682993455E+03  0.25500000920E-02 0. -1.
       -2   -1    0    0    0  501  0.00000000000E+00  0.00000000000E+00 -0.26734191894E+03  0.26734191895E+03  0.25500000920E-02 0.  1.
    10030    2    1    2    0    0  0.00000000000E+00  0.00000000000E+00  0.48948801560E+03  0.10241718535E+04  0.89962740514E+03 0.  0.
        4    1    3    3  502    0 -0.17264849764E+03  0.21596515545E+03  0.64866134781E+03  0.70513233449E+03  0.12699999809E+01 0. -1.
       -4    1    3    3    0  502  0.17264849764E+03 -0.21596515545E+03 -0.15917333220E+03  0.31903951901E+03  0.12699999809E+01 0.  1.
</event>
<event>
 5   0  0.1007561E-03  0.9006695E+03  0.7818609E-02  0.9424745E-01
       -1   -1    0    0    0  501  0.00000000000E+00  0.00000000000E+00  0.37572638441E+03  0.37572638445E+03  0.50400001928E-02 0.  1.
        1   -1    0    0  501    0  0.00000000000E+00  0.00000000000E+00 -0.53975820610E+03  0.53975820612E+03  0.50400001928E-02 0. -1.
    10030    2    1    2    0    0  0.00000000000E+00  0.00000000000E+00 -0.16403182168E+03  0.91548459057E+03  0.90066952710E+03 0.  0.
        2    1    3    3  502    0  0.14918684712E+03  0.30441472376E+02  0.34876901545E+03  0.38055646721E+03  0.25500000920E-02 0.  1.
       -2    1    3    3    0  502 -0.14918684712E+03 -0.30441472376E+02 -0.51280083713E+03  0.53492812336E+03  0.25500000920E-02 0. -1.
</event>
<event>
 5   0  0.9223454E-04  0.8964364E+03  0.7818609E-02  0.9430047E-01
        1   -1    0    0  501    0  0.00000000000E+00  0.00000000000E+00  0.11886262457E+04  0.11886262457E+04  0.50400001928E-02 0. -1.
       -1   -1    0    0    0  501  0.00000000000E+00  0.00000000000E+00 -0.16901826472E+03  0.16901826479E+03  0.50400001928E-02 0.  1.
    10030    2    1    2    0    0  0.00000000000E+00  0.00000000000E+00  0.10196079810E+04  0.13576445105E+04  0.89643637923E+03 0.  0.
        1    1    3    3  502    0  0.19790811600E+02 -0.43174567318E+03  0.32994559789E+03  0.54374635642E+03  0.50400001928E-02 0.  1.
       -1    1    3    3    0  502 -0.19790811600E+02  0.43174567318E+03  0.68966238310E+03  0.81389815409E+03  0.50400001928E-02 0. -1.
</event>
<event>
 5   0  0.1007561E-03  0.8995502E+03  0.7818609E-02  0.9426144E-01
       -1   -1    0    0    0  501  0.00000000000E+00  0.00000000000E+00  0.46309062429E+03  0.46309062432E+03  0.50400001928E-02 0. -1.
        1   -1    0    0  501    0  0.00000000000E+00  0.00000000000E+00 -0.43684243479E+03  0.43684243482E+03  0.50400001928E-02 0.  1.
    10030    2    1    2    0    0  0.00000000000E+00  0.00000000000E+00  0.26248189499E+02  0.89993305914E+03  0.89955018953E+03 0.  0.
        2    1    3    3  502    0  0.23388340322E+02 -0.41577200805E+02  0.46055259413E+03  0.46301659804E+03  0.25500000920E-02 0. -1.
       -2    1    3    3    0  502 -0.23388340322E+02  0.41577200805E+02 -0.43430440464E+03  0.43691646110E+03  0.25500000920E-02 0.  1.
</event>
<event>
 5   0  0.6375625E-04  0.9037556E+03  0.7818609E-02  0.9420899E-01
        3   -1    0    0  501    0  0.00000000000E+00  0.00000000000E+00  0.36967507921E+03  0.36967509300E+03  0.10100000352E+00 0. -1.
       -3   -1    0    0    0  501  0.00000000000E+00  0.00000000000E+00 -0.55235949614E+03  0.55235950537E+03  0.10100000352E+00 0.  1.
    10030    2    1    2    0    0  0.00000000000E+00  0.00000000000E+00 -0.18268441693E+03  0.92203459838E+03  0.90375561100E+03 0.  0.
        1    1    3    3  502    0 -0.14638457998E+03  0.42129887278E+03 -0.17262550092E+02  0.44633975973E+03  0.50400001928E-02 0. -1.
       -1    1    3    3    0  502  0.14638457998E+03 -0.42129887278E+03 -0.16542186684E+03  0.47569483864E+03  0.50400001928E-02 0.  1.
</event>
<event>
 5   0  0.1630202E-03  0.9004256E+03  0.7818609E-02  0.9425050E-01
       -2   -1    0    0    0  501  0.00000000000E+00  0.00000000000E+00  0.27306682248E+03  0.27306682249E+03  0.25500000920E-02 0.  1.
        2   -1    0    0  501    0  0.00000000000E+00  0.00000000000E+00 -0.74227830732E+03  0.74227830732E+03  0.25500000920E-02 0. -1.
    10030    2    1    2    0    0  0.00000000000E+00  0.00000000000E+00 -0.46921148483E+03  0.10153451298E+04  0.90042562999E+03 0.  0.
        4    1    3    3  502    0 -0.33774060027E+03 -0.57271366127E+02 -0.56402222439E+03  0.65990257231E+03  0.12699999809E+01 0. -1.
       -4    1    3    3    0  502  0.33774060027E+03  0.57271366127E+02  0.94810739551E+02  0.35544255750E+03  0.12699999809E+01 0.  1.
</event>
<event>
 5   0  0.1630202E-03  0.9078147E+03  0.7818609E-02  0.9415865E-01
       -2   -1    0    0    0  501  0.00000000000E+00  0.00000000000E+00  0.32603045080E+03  0.32603045081E+03  0.25500000920E-02 0.  1.
        2   -1    0    0  501    0  0.00000000000E+00  0.00000000000E+00 -0.63194058794E+03  0.63194058795E+03  0.25500000920E-02 0. -1.
    10030    2    1    2    0    0  0.00000000000E+00  0.00000000000E+00 -0.30591013715E+03  0.95797103875E+03  0.90781468323E+03 0.  0.
        4    1    3    3  502    0 -0.76831150034E+02 -0.42819042235E+03 -0.28965041293E+03  0.52263662139E+03  0.12699999809E+01 0. -1.
       -4    1    3    3    0  502  0.76831150034E+02  0.42819042235E+03 -0.16259724223E+02  0.43533441736E+03  0.12699999809E+01 0.  1.
</event>
<event>
 5   0  0.1635686E-03  0.9000214E+03  0.7818609E-02  0.9425555E-01
       -2   -1    0    0    0  501  0.00000000000E+00  0.00000000000E+00  0.17883065401E+03  0.17883065403E+03  0.25500000920E-02 0.  1.
        2   -1    0    0  501    0  0.00000000000E+00  0.00000000000E+00 -0.11324100141E+04  0.11324100141E+04  0.25500000920E-02 0. -1.
    10030    2    1    2    0    0  0.00000000000E+00  0.00000000000E+00 -0.95357936013E+03  0.13112406682E+04  0.90002138520E+03 0.  0.
        5    1    3    3  502    0 -0.50950698006E+02  0.11399776764E+03 -0.11066288483E+04  0.11136610627E+04  0.46999998093E+01 0. -1.
       -5    1    3    3    0  502  0.50950698006E+02 -0.11399776764E+03  0.15304948821E+03  0.19757960545E+03  0.46999998093E+01 0.  1.
</event>
<event>
 5   0  0.6375625E-04  0.8979085E+03  0.7818609E-02  0.9428200E-01
       -3   -1    0    0    0  501  0.00000000000E+00  0.00000000000E+00  0.28368346930E+03  0.28368348728E+03  0.10100000352E+00 0.  1.
        3   -1    0    0  501    0  0.00000000000E+00  0.00000000000E+00 -0.71050995010E+03  0.71050995727E+03  0.10100000352E+00 0. -1.
    10030    2    1    2    0    0  0.00000000000E+00  0.00000000000E+00 -0.42682648080E+03  0.99419344455E+03  0.89790854795E+03 0.  0.
        5    1    3    3  502    0  0.11752132481E+03  0.17727357482E+03  0.22432975588E+03  0.30916518479E+03  0.46999998093E+01 0.  1.
       -5    1    3    3    0  502 -0.11752132481E+03 -0.17727357482E+03 -0.65115623667E+03  0.68502825976E+03  0.46999998093E+01 0. -1.
</event>
<event>
 5   0  0.9321543E-04  0.8996637E+03  0.7818609E-02  0.9426002E-01
        1   -1    0    0  501    0  0.00000000000E+00  0.00000000000E+00  0.22356538863E+03  0.22356538869E+03  0.50400001928E-02 0. -1.
       -1   -1    0    0    0  501  0.00000000000E+00  0.00000000000E+00 -0.90509856670E+03  0.90509856672E+03  0.50400001928E-02 0.  1.
    10030    2    1    2    0    0  0.00000000000E+00  0.00000000000E+00 -0.68153317807E+03  0.11286639554E+04  0.89966374353E+03 0.  0.
        3    1    3    3  502    0 -0.19788773775E+03  0.32607597478E+03 -0.41607894022E+02  0.38368779643E+03  0.10100000352E+00 0. -1.
       -3    1    3    3    0  502  0.19788773775E+03 -0.32607597478E+03 -0.63992528405E+03  0.74497615898E+03  0.10100000352E+00 0.  1.
</event>
<event>
 5   0  0.1007561E-03  0.8990575E+03  0.7818609E-02  0.9426760E-01
       -1   -1    0    0    0  501  0.00000000000E+00  0.00000000000E+00  0.15263848507E+04  0.15263848507E+04  0.50400001928E-02 0.  1.
        1   -1    0    0  501    0  0.00000000000E+00  0.00000000000E+00 -0.13238870304E+03  0.13238870314E+03  0.50400001928E-02 0. -1.
    10030    2    1    2    0    0  0.00000000000E+00  0.00000000000E+00  0.13939961477E+04  0.16587735539E+04  0.89905753056E+03 0.  0.
        2    1    3    3  502    0 -0.33554468663E+03  0.11587277007E+03  0.18816422193E+03  0.40177420274E+03  0.25500000920E-02 0. -1.
       -2    1    3    3    0  502  0.33554468663E+03 -0.11587277007E+03  0.12058319257E+04  0.12569993511E+04  0.25500000920E-02 0.  1.
</event>
<event>
 5   0  0.1641516E-03  0.9009237E+03  0.7818609E-02  0.9424427E-01
        2   -1    0    0  501    0  0.00000000000E+00  0.00000000000E+00  0.12313994753E+04  0.12313994753E+04  0.25500000920E-02 0. -1.
       -2   -1    0    0    0  501  0.00000000000E+00  0.00000000000E+00 -0.16478478030E+03  0.16478478032E+03  0.25500000920E-02 0.  1.
    10030    2    1    2    0    0  0.00000000000E+00  0.00000000000E+00  0.10666146950E+04  0.13961842556E+04  0.90092373045E+03 0.  0.
        1    1    3    3  502    0 -0.23075534136E+03 -0.22421450566E+03  0.10218905722E+04  0.10713451889E+04  0.50400001928E-02 0. -1.
       -1    1    3    3    0  502  0.23075534136E+03  0.22421450566E+03  0.44724122802E+02  0.32483906677E+03  0.50400001928E-02 0.  1.
</event>
<event>
 5   0  0.9981885E-04  0.9011379E+03  0.7818609E-02  0.9424160E-01
        1   -1    0    0  501    0  0.00000000000E+00  0.00000000000E+00  0.13229570462E+04  0.13229570462E+04  0.50400001928E-02 0.  1.
       -1   -1    0    0    0  501  0.00000000000E+00  0.00000000000E+00 -0.15345349214E+03  0.15345349222E+03  0.50400001928E-02 0. -1.
    10030    2    1    2    0    0  0.00000000000E+00  0.00000000000E+00  0.11695035541E+04  0.14764105385E+04  0.90113790014E+03 0.  0.
        4    1    3    3  502    0  0.19630935544E+03  0.65057427238E+01 -0.79614887454E+02  0.21194298980E+03  0.12699999809E+01 0. -1.
       -4    1    3    3    0  502 -0.19630935544E+03 -0.65057427238E+01  0.12491184415E+04  0.12644675487E+04  0.12699999809E+01 0.  1.
</event>
<event>
 5   0  0.1630202E-03  0.8947186E+03  0.7818609E-02  0.9432208E-01
        2   -1    0    0  501    0  0.00000000000E+00  0.00000000000E+00  0.71445501739E+03  0.71445501739E+03  0.25500000920E-02 0.  1.
       -2   -1    0    0    0  501  0.00000000000E+00  0.00000000000E+00 -0.28011607789E+03  0.28011607790E+03  0.25500000920E-02 0. -1.
    10030    2    1    2    0    0  0.00000000000E+00  0.00000000000E+00  0.43433893949E+03  0.99457109529E+03  0.89471858661E+03 0.  0.
        4    1    3    3  502    0 -0.26569096271E+03  0.21807903953E+03  0.53544228180E+03  0.63627840227E+03  0.12699999809E+01 0.  1.
       -4    1    3    3    0  502  0.26569096271E+03 -0.21807903953E+03 -0.10110334231E+03  0.35829269303E+03  0.12699999809E+01 0. -1.
</event>
<event>
 5   0  0.6375625E-04  0.8998545E+03  0.7818609E-02  0.9425763E-01
        3   -1    0    0  501    0  0.00000000000E+00  0.00000000000E+00  0.47612979345E+03  0.47612980416E+03  0.10100000352E+00 0.  1.
       -3   -1    0    0    0  501  0.00000000000E+00  0.00000000000E+00 -0.42516671771E+03  0.42516672970E+03  0.10100000352E+00 0. -1.
    10030    2    1    2    0    0  0.00000000000E+00  0.00000000000E+00  0.50963075740E+02  0.90129653387E+03  0.89985454762E+03 0.  0.
        2    1    3    3  502    0 -0.24302079015E+03  0.24657299184E+03 -0.26234145170E+03  0.43437355127E+03  0.25500000920E-02 0. -1.
       -2    1    3    3    0  502  0.24302079015E+03 -0.24657299184E+03  0.31330452744E+03  0.46692298260E+03  0.25500000920E-02 0.  1.
</event>
<event>
 5   0  0.1536020E-03  0.9009421E+03  0.7818609E-02  0.9424405E-01
        2   -1    0    0  501    0  0.00000000000E+00  0.00000000000E+00  0.20128457014E+04  0.20128457014E+04  0.25500000920E-02 0.  1.
       -2   -1    0    0    0  501  0.00000000000E+00  0.00000000000E+00 -0.10081456144E+03  0.10081456148E+03  0.25500000920E-02 0. -1.
    10030    2    1    2    0    0  0.00000000000E+00  0.00000000000E+00  0.19120311400E+04  0.21136602629E+04  0.90094207734E+03 0.  0.
        2    1    3    3  502    0  0.31475251575E+03  0.21553671223E+03  0.39394579260E+03  0.54837807032E+03  0.25500000920E-02 0. -1.
       -2    1    3    3    0  502 -0.31475251575E+03 -0.21553671223E+03  0.15180853474E+04  0.15652821926E+04  0.25500000920E-02 0.  1.
</event>
<event>
 5   0  0.9981885E-04  0.9020099E+03  0.7818609E-02  0.9423072E-01
       -1   -1    0    0    0  501  0.00000000000E+00  0.00000000000E+00  0.32501609504E+03  0.32501609508E+03  0.50400001928E-02 0. -1.
        1   -1    0    0  501    0  0.00000000000E+00  0.00000000000E+00 -0.62583198352E+03  0.62583198354E+03  0.50400001928E-02 0.  1.
    10030    2    1    2    0    0  0.00000000000E+00  0.00000000000E+00 -0.30081588848E+03  0.95084807862E+03  0.90200990563E+03 0.  0.
        4    1    3    3  502    0 -0.17083040233E+03 -0.26588009247E+03  0.18877187678E+03  0.36811911699E+03  0.12699999809E+01 0. -1.
       -4    1    3    3    0  502  0.17083040233E+03  0.26588009247E+03 -0.48958776525E+03  0.58272896163E+03  0.12699999809E+01 0.  1.
</event>
<event>
 5   0  0.1630202E-03  0.8998336E+03  0.7818609E-02  0.9425790E-01
        2   -1    0    0  501    0  0.00000000000E+00  0.00000000000E+00  0.37617604693E+03  0.37617604694E+03  0.25500000920E-02 0. -1.
       -2   -1    0    0    0  501  0.00000000000E+00  0.00000000000E+00 -0.53811269813E+03  0.53811269813E+03  0.25500000920E-02 0.  1.
    10030    2    1    2    0    0  0.00000000000E+00  0.00000000000E+00 -0.16193665119E+03  0.91428874507E+03  0.89983355704E+03 0.  0.
        4    1    3    3  502    0 -0.40491799939E+03 -0.99687002433E+02 -0.25258218594E+03  0.48754021192E+03  0.12699999809E+01 0. -1.
       -4    1    3    3    0  502  0.40491799939E+03  0.99687002433E+02  0.90645534742E+02  0.42674853316E+03  0.12699999809E+01 0.  1.
</event>
<event>
 5   0  0.9321543E-04  0.8991283E+03  0.7818609E-02  0.9426672E-01
        1   -1    0    0  501    0  0.00000000000E+00  0.00000000000E+00  0.39751434532E+03  0.39751434536E+03  0.50400001928E-02 0. -1.
       -1   -1    0    0    0  501  0.00000000000E+00  0.00000000000E+00 -0.50842921068E+03  0.50842921070E+03  0.50400001928E-02 0.  1.
    10030    2    1    2    0    0  0.00000000000E+00  0.00000000000E+00 -0.11091486535E+03  0.90594355606E+03  0.89912825526E+03 0.  0.
        3    1    3    3  502    0  0.30859439753E+03  0.10108767708E+03  0.25779893736E+03  0.41461973295E+03  0.10100000352E+00 0. -1.
       -3    1    3    3    0  502 -0.30859439753E+03 -0.10108767708E+03 -0.36871380271E+03  0.49132382311E+03  0.10100000352E+00 0.  1.
</event>
<event>
 5   0  0.1635686E-03  0.8927587E+03  0.7818609E-02  0.9434679E-01
       -2   -1    0    0    0  501  0.00000000000E+00  0.00000000000E+00  0.15282308573E+03  0.15282308575E+03  0.25500000920E-02 0. -1.
        2   -1    0    0  501    0  0.00000000000E+00  0.00000000000E+00 -0.13038247744E+04  0.13038247744E+04  0.25500000920E-02 0.  1.
    10030    2    1    2    0    0  0.00000000000E+00  0.00000000000E+00 -0.11510016886E+04  0.14566478601E+04  0.89275870263E+03 0.  0.
        5    1    3    3  502    0  0.33637702892E+03 -0.29846359373E+02 -0.99267053506E+02  0.35201754028E+03  0.46999998093E+01 0. -1.
       -5    1    3    3    0  502 -0.33637702892E+03  0.29846359373E+02 -0.10517346351E+04  0.11046303198E+04  0.46999998093E+01 0.  1.
</event>
<event>
 5   0  0.1635686E-03  0.8880048E+03  0.7818609E-02  0.9440701E-01
       -2   -1    0    0    0  501  0.00000000000E+00  0.00000000000E+00  0.14170758442E+03  0.14170758444E+03  0.25500000920E-02 0. -1.
        2   -1    0    0  501    0  0.00000000000E+00  0.00000000000E+00 -0.13911614193E+04  0.13911614193E+04  0.25500000920E-02 0.  1.
    10030    2    1    2    0    0  0.00000000000E+00  0.00000000000E+00 -0.12494538349E+04  0.15328690037E+04  0.88800478441E+03 0.  0.
        5    1    3    3  502    0 -0.60159566717E+02  0.31121234943E+03 -0.11613589442E+04  0.12038475764E+04  0.46999998093E+01 0.  1.
       -5    1    3    3    0  502  0.60159566717E+02 -0.31121234943E+03 -0.88094890695E+02  0.32902142737E+03  0.46999998093E+01 0. -1.
</event>
<event>
 5   0  0.1641516E-03  0.8951993E+03  0.7818609E-02  0.9431603E-01
        2   -1    0    0  501    0  0.00000000000E+00  0.00000000000E+00  0.35806739400E+03  0.35806739401E+03  0.25500000920E-02 0. -1.
       -2   -1    0    0    0  501  0.00000000000E+00  0.00000000000E+00 -0.55951876039E+03  0.55951876039E+03  0.25500000920E-02 0.  1.
    10030    2    1    2    0    0  0.00000000000E+00  0.00000000000E+00 -0.20145136638E+03  0.91758615440E+03  0.89519925030E+03 0.  0.
        1    1    3    3  502    0 -0.40700830834E+03  0.13905145844E+03  0.26285776148E+02  0.43090835825E+03  0.50400001928E-02 0. -1.
       -1    1    3    3    0  502  0.40700830834E+03 -0.13905145844E+03 -0.22773714253E+03  0.48667779615E+03  0.50400001928E-02 0.  1.
</event>
<event>
 5   0  0.1007561E-03  0.9003062E+03  0.7818609E-02  0.9425199E-01
       -1   -1    0    0    0  501  0.00000000000E+00  0.00000000000E+00  0.28249192943E+03  0.28249192947E+03  0.50400001928E-02 0.  1.
        1   -1    0    0  501    0  0.00000000000E+00  0.00000000000E+00 -0.71732256130E+03  0.71732256132E+03  0.50400001928E-02 0. -1.
    10030    2    1    2    0    0  0.00000000000E+00  0.00000000000E+00 -0.43483063188E+03  0.99981449079E+03  0.90030624655E+03 0.  0.
        2    1    3    3  502    0  0.12434932341E+03  0.30177782802E+03  0.12685744160E+03  0.35017912875E+03  0.25500000920E-02 0.  1.
       -2    1    3    3    0  502 -0.12434932341E+03 -0.30177782802E+03 -0.56168807348E+03  0.64963536204E+03  0.25500000920E-02 0. -1.
</event>
<event>
 5   0  0.9321543E-04  0.9013958E+03  0.7818609E-02  0.9423838E-01
        1   -1    0    0  501    0  0.00000000000E+00  0.00000000000E+00  0.21003436036E+04  0.21003436036E+04  0.50400001928E-02 0. -1.
       -1   -1    0    0    0  501  0.00000000000E+00  0.00000000000E+00 -0.96712081676E+02  0.96712081807E+02  0.50400001928E-02 0.  1.
    10030    2    1    2    0    0  0.00000000000E+00  0.00000000000E+00  0.20036315219E+04  0.21970556854E+04  0.90139581159E+03 0.  0.
        3    1    3    3  502    0  0.21176557789E+03 -0.30054459285E+02  0.19687595141E+04  0.19803439007E+04  0.10100000352E+00 0. -1.
       -3    1    3    3    0  502 -0.21176557789E+03  0.30054459285E+02  0.34872007825E+02  0.21671178471E+03  0.10100000352E+00 0.  1.
</event>
<event>
 5   0  0.9223454E-04  0.8990417E+03  0.7818609E-02  0.9426780E-01
       -1   -1    0    0    0  501  0.00000000000E+00  0.00000000000E+00  0.13622176482E+03  0.13622176491E+03  0.50400001928E-02 0. -1.
        1   -1    0    0  501    0  0.00000000000E+00  0.00000000000E+00 -0.14833826502E+04  0.14833826502E+04  0.50400001928E-02 0.  1.
    10030    2    1    2    0    0  0.00000000000E+00  0.00000000000E+00 -0.13471608854E+04  0.16196044151E+04  0.89904171783E+03 0.  0.
        1    1    3    3  502    0  0.20883330582E+03 -0.23064794798E+03 -0.12580462280E+04  0.12959514409E+04  0.50400001928E-02 0.  1.
       -1    1    3    3    0  502 -0.20883330582E+03  0.23064794798E+03 -0.89114657449E+02  0.32365297423E+03  0.50400001928E-02 0. -1.
</event>
<event>
 5   0  0.1630202E-03  0.8984022E+03  0.7818609E-02  0.9427581E-01
       -2   -1    0    0    0  501  0.00000000000E+00  0.00000000000E+00  0.14674607354E+03  0.14674607356E+03  0.25500000920E-02 0. -1.
        2   -1    0    0  501    0  0.00000000000E+00  0.00000000000E+00 -0.13750393984E+04  0.13750393984E+04  0.25500000920E-02 0.  1.
    10030    2    1    2    0    0  0.00000000000E+00  0.00000000000E+00 -0.12282933249E+04  0.15217854720E+04  0.89840220993E+03 0.  0.
        4    1    3    3  502    0  0.19212593079E+03  0.40541393549E+03 -0.57599909381E+03  0.73010232252E+03  0.12699999809E+01 0. -1.
       -4    1    3    3    0  502 -0.19212593079E+03 -0.40541393549E+03 -0.65229423108E+03  0.79168314948E+03  0.12699999809E+01 0.  1.
</event>
<event>
 5   0  0.9697941E-04  0.8999494E+03  0.7818609E-02  0.9425645E-01
       -1   -1    0    0    0  501  0.00000000000E+00  0.00000000000E+00  0.22226614111E+03  0.22226614117E+03  0.50400001928E-02 0.  1.
        1   -1    0    0  501    0  0.00000000000E+00  0.00000000000E+00 -0.91096742187E+03  0.91096742189E+03  0.50400001928E-02 0. -1.
    10030    2    1    2    0    0  0.00000000000E+00  0.00000000000E+00 -0.68870128076E+03  0.11332335631E+04  0.89994936209E+03 0.  0.
        5    1    3    3  502    0 -0.26558550863E+03  0.13471454998E+03  0.80384314419E+02  0.30849213989E+03  0.46999998093E+01 0.  1.
       -5    1    3    3    0  502  0.26558550863E+03 -0.13471454998E+03 -0.76908559518E+03  0.82474142317E+03  0.46999998093E+01 0. -1.
</event>
<event>
 5   0  0.9981885E-04  0.9015464E+03  0.7818609E-02  0.9423650E-01
        1   -1    0    0  501    0  0.00000000000E+00  0.00000000000E+00  0.10760547141E+04  0.10760547141E+04  0.50400001928E-02 0. -1.
       -1   -1    0    0    0  501  0.00000000000E+00  0.00000000000E+00 -0.18883468996E+03  0.18883469003E+03  0.50400001928E-02 0.  1.
    10030    2    1    2    0    0  0.00000000000E+00  0.00000000000E+00  0.88722002410E+03  0.12648894041E+04  0.90154635680E+03 0.  0.
        4    1    3    3  502    0  0.20618915841E+03 -0.19407305054E+03 -0.48481896031E+02  0.28728109081E+03  0.12699999809E+01 0.  1.
       -4    1    3    3    0  502 -0.20618915841E+03  0.19407305054E+03  0.93570192013E+03  0.97760831330E+03  0.12699999809E+01 0. -1.
</event>
<event>
 5   0  0.1007561E-03  0.9007190E+03  0.7818609E-02  0.9424683E-01
        1   -1    0    0  501    0  0.00000000000E+00  0.00000000000E+00  0.56672189058E+03  0.56672189061E+03  0.50400001928E-02 0. -1.
       -1   -1    0    0    0  501  0.00000000000E+00  0.00000000000E+00 -0.35788929388E+03  0.35788929392E+03  0.50400001928E-02 0.  1.
    10030    2    1    2    0    0  0.00000000000E+00  0.00000000000E+00  0.20883259670E+03  0.92461118452E+03  0.90071904005E+03 0.  0.
        2    1    3    3  502    0 -0.15876483490E+03  0.20848440532E+03 -0.27156639330E+03  0.37738617627E+03  0.25500000920E-02 0.  1.
       -2    1    3    3    0  502  0.15876483490E+03 -0.20848440532E+03  0.48039899000E+03  0.54722500826E+03  0.25500000920E-02 0. -1.
</event>
<event>
 5   0  0.1704416E-03  0.9004609E+03  0.7818609E-02  0.9425005E-01
       -2   -1    0    0    0  501  0.00000000000E+00  0.00000000000E+00  0.20512404620E+03  0.20512404621E+03  0.25500000920E-02 0.  1.
        2   -1    0    0  501    0  0.00000000000E+00  0.00000000000E+00 -0.98821890193E+03  0.98821890193E+03  0.25500000920E-02 0. -1.
    10030    2    1    2    0    0  0.00000000000E+00  0.00000000000E+00 -0.78309485573E+03  0.11933429481E+04  0.90046090355E+03 0.  0.
        3    1    3    3  502    0 -0.57605687657E+02 -0.32610290773E+03 -0.79579655912E+03  0.86194761754E+03  0.10100000352E+00 0. -1.
       -3    1    3    3    0  502  0.57605687657E+02  0.32610290773E+03  0.12701703389E+02  0.33139533061E+03  0.10100000352E+00 0.  1.
</event>
<event>
 5   0  0.1630202E-03  0.8998489E+03  0.7818609E-02  0.9425770E-01
       -2   -1    0    0    0  501  0.00000000000E+00  0.00000000000E+00  0.65219360685E+03  0.65219360686E+03  0.25500000920E-02 0. -1.
        2   -1    0    0  501    0  0.00000000000E+00  0.00000000000E+00 -0.31038639778E+03  0.31038639779E+03  0.25500000920E-02 0.  1.
    10030    2    1    2    0    0  0.00000000000E+00  0.00000000000E+00  0.34180720907E+03  0.96258000464E+03  0.89984893019E+03 0.  0.
        4    1    3    3  502    0 -0.30017251750E+03  0.42852598788E+02 -0.18467019433E+03  0.35502757507E+03  0.12699999809E+01 0.  1.
       -4    1    3    3    0  502  0.30017251750E+03 -0.42852598788E+02  0.52647740340E+03  0.60755242957E+03  0.12699999809E+01 0. -1.
</event>
<event>
 5   0  0.1641516E-03  0.8997388E+03  0.7818609E-02  0.9425908E-01
        2   -1    0    0  501    0  0.00000000000E+00  0.00000000000E+00  0.38905180891E+03  0.38905180892E+03  0.25500000920E-02 0. -1.
       -2   -1    0    0    0  501  0.00000000000E+00  0.00000000000E+00 -0.52019411371E+03  0.52019411372E+03  0.25500000920E-02 0.  1.
    10030    2    1    2    0    0  0.00000000000E+00  0.00000000000E+00 -0.13114230480E+03  0.90924592264E+03  0.89973876416E+03 0.  0.
        1    1    3    3  502    0 -0.17251275253E+03 -0.42913699698E+02  0.35205118678E+03  0.39438848049E+03  0.50400001928E-02 0. -1.
       -1    1    3    3    0  502  0.17251275253E+03  0.42913699698E+02 -0.48319349158E+03  0.51485744215E+03  0.50400001928E-02 0.  1.
</event>
<event>
 5   0  0.1704416E-03  0.9023866E+03  0.7818609E-02  0.9422603E-01
       -2   -1    0    0    0  501  0.00000000000E+00  0.00000000000E+00  0.10388001854E+03  0.10388001857E+03  0.25500000920E-02 0. -1.
        2   -1    0    0  501    0  0.00000000000E+00  0.00000000000E+00 -0.19597165396E+04  0.19597165396E+04  0.25500000920E-02 0.  1.
    10030    2    1    2    0    0  0.00000000000E+00  0.00000000000E+00 -0.18558365211E+04  0.20635965582E+04  0.90238659234E+03 0.  0.
        3    1    3    3  502    0 -0.26294969878E+03  0.58973022106E+00 -0.89454532387E+02  0.27774991527E+03  0.10100000352E+00 0. -1.
       -3    1    3    3    0  502  0.26294969878E+03 -0.58973022106E+00 -0.17663819887E+04  0.17858466429E+04  0.10100000352E+00 0.  1.
</event>
<event>
 5   0  0.9697941E-04  0.9001377E+03  0.7818609E-02  0.9425409E-01
        1   -1    0    0  501    0  0.00000000000E+00  0.00000000000E+00  0.61326938003E+03  0.61326938005E+03  0.50400001928E-02 0.  1.
       -1   -1    0    0    0  501  0.00000000000E+00  0.00000000000E+00 -0.33029849797E+03  0.33029849801E+03  0.50400001928E-02 0. -1.
    10030    2    1    2    0    0  0.00000000000E+00  0.00000000000E+00  0.28297088206E+03  0.94356787807E+03  0.90013766748E+03 0.  0.
        5    1    3    3  502    0  0.50589017653E+01 -0.36403298503E+03 -0.13584364498E+03  0.38861445233E+03  0.46999998093E+01 0. -1.
       -5    1    3    3    0  502 -0.50589017653E+01  0.36403298503E+03  0.41881452704E+03  0.55495342574E+03  0.46999998093E+01 0.  1.
</event>
<event>
 5   0  0.9981885E-04  0.9011241E+03  0.7818609E-02  0.9424177E-01
       -1   -1    0    0    0  501  0.00000000000E+00  0.00000000000E+00  0.98434705963E+03  0.98434705965E+03  0.50400001928E-02 0. -1.
        1   -1    0    0  501    0  0.00000000000E+00  0.00000000000E+00 -0.20623431705E+03  0.20623431712E+03  0.50400001928E-02 0.  1.
    10030    2    1    2    0    0  0.00000000000E+00  0.00000000000E+00  0.77811274258E+03  0.11905813768E+04  0.90112406167E+03 0.  0.
        4    1    3    3  502    0  0.28401879383E+03  0.33923554078E+03  0.27650361033E+03  0.52173104834E+03  0.12699999809E+01 0. -1.
       -4    1    3    3    0  502 -0.28401879383E+03 -0.33923554078E+03  0.50160913225E+03  0.66885032842E+03  0.12699999809E+01 0.  1.
</event>
<event>
 5   0  0.9697941E-04  0.8989330E+03  0.7818609E-02  0.9426916E-01
        1   -1    0    0  501    0  0.00000000000E+00  0.00000000000E+00  0.85238752311E+03  0.85238752312E+03  0.50400001928E-02 0. -1.
       -1   -1    0    0    0  501  0.00000000000E+00  0.00000000000E+00 -0.23700503012E+03  0.23700503017E+03  0.50400001928E-02 0.  1.
    10030    2    1    2    0    0  0.00000000000E+00  0.00000000000E+00  0.61538249299E+03  0.10893925533E+04  0.89893299111E+03 0.  0.
        5    1    3    3  502    0 -0.97583226552E+02 -0.38566485988E+03  0.54244110020E+02  0.40152756284E+03  0.46999998093E+01 0.  1.
       -5    1    3    3    0  502  0.97583226552E+02  0.38566485988E+03  0.56113838297E+03  0.68786499045E+03  0.46999998093E+01 0. -1.
</event>
<event>
 5   0  0.9223454E-04  0.8993349E+03  0.7818609E-02  0.9426413E-01
        1   -1    0    0  501    0  0.00000000000E+00  0.00000000000E+00  0.40384534204E+03  0.40384534207E+03  0.50400001928E-02 0. -1.
       -1   -1    0    0    0  501  0.00000000000E+00  0.00000000000E+00 -0.50068877105E+03  0.50068877107E+03  0.50400001928E-02 0.  1.
    10030    2    1    2    0    0  0.00000000000E+00  0.00000000000E+00 -0.96843429009E+02  0.90453411314E+03  0.89933492765E+03 0.  0.
        1    1    3    3  502    0 -0.24025039240E+02 -0.28190122120E+03 -0.39994952974E+03  0.48990318165E+03  0.50400001928E-02 0.  1.
       -1    1    3    3    0  502  0.24025039240E+02  0.28190122120E+03  0.30310610073E+03  0.41463093149E+03  0.50400001928E-02 0. -1.
</event>
<event>
 5   0  0.1630202E-03  0.9001356E+03  0.7818609E-02  0.9425412E-01
       -2   -1    0    0    0  501  0.00000000000E+00  0.00000000000E+00  0.16700177626E+03  0.16700177628E+03  0.25500000920E-02 0. -1.
        2   -1    0    0  501    0  0.00000000000E+00  0.00000000000E+00 -0.12129274377E+04  0.12129274377E+04  0.25500000920E-02 0.  1.
    10030    2    1    2    0    0  0.00000000000E+00  0.00000000000E+00 -0.10459256615E+04  0.13799292140E+04  0.90013562666E+03 0.  0.
        4    1    3    3  502    0 -0.49875236368E+01  0.27489516851E+03  0.23291156375E+02  0.27592810645E+03  0.12699999809E+01 0. -1.
       -4    1    3    3    0  502  0.49875236368E+01 -0.27489516851E+03 -0.10692168178E+04  0.11040011076E+04  0.12699999809E+01 0.  1.
</event>
<event>
 5   0  0.1641516E-03  0.8998452E+03  0.7818609E-02  0.9425775E-01
       -2   -1    0    0    0  501  0.00000000000E+00  0.00000000000E+00  0.75618975895E+03  0.75618975895E+03  0.25500000920E-02 0. -1.
        2   -1    0    0  501    0  0.00000000000E+00  0.00000000000E+00 -0.26769780496E+03  0.26769780497E+03  0.25500000920E-02 0.  1.
    10030    2    1    2    0    0  0.00000000000E+00  0.00000000000E+00  0.48849195398E+03  0.10238875639E+04  0.89984518360E+03 0.  0.
        1    1    3    3  502    0 -0.25675061925E+02  0.34078712487E+03  0.57722033899E+03  0.67080428818E+03  0.50400001928E-02 0. -1.
       -1    1    3    3    0  502  0.25675061925E+02 -0.34078712487E+03 -0.88728385001E+02  0.35308327574E+03  0.50400001928E-02 0.  1.
</event>
<event>
 5   0  0.1536020E-03  0.8996735E+03  0.7818609E-02  0.9425990E-01
       -2   -1    0    0    0  501  0.00000000000E+00  0.00000000000E+00  0.35423678712E+03  0.35423678713E+03  0.25500000920E-02 0.  1.
        2   -1    0    0  501    0  0.00000000000E+00  0.00000000000E+00 -0.57123684044E+03  0.57123684044E+03  0.25500000920E-02 0. -1.
    10030    2    1    2    0    0  0.00000000000E+00  0.00000000000E+00 -0.21700005332E+03  0.92547362757E+03  0.89967350310E+03 0.  0.
        2    1    3    3  502    0 -0.40974373512E+02  0.67495709747E+01  0.35226084353E+03  0.35470009570E+03  0.25500000920E-02 0.  1.
       -2    1    3    3    0  502  0.40974373512E+02 -0.67495709747E+01 -0.56926089685E+03  0.57077353187E+03  0.25500000920E-02 0. -1.
</event>
<event>
 5   0  0.9321543E-04  0.9007182E+03  0.7818609E-02  0.9424684E-01
        1   -1    0    0  501    0  0.00000000000E+00  0.00000000000E+00  0.38285210785E+03  0.38285210788E+03  0.50400001928E-02 0.  1.
       -1   -1    0    0    0  501  0.00000000000E+00  0.00000000000E+00 -0.52976932061E+03  0.52976932063E+03  0.50400001928E-02 0. -1.
    10030    2    1    2    0    0  0.00000000000E+00  0.00000000000E+00 -0.14691721276E+03  0.91262142851E+03  0.90071816034E+03 0.  0.
        3    1    3    3  502    0  0.24029042495E+03 -0.66759464908E+02 -0.45341701702E+03  0.51747784107E+03  0.10100000352E+00 0. -1.
       -3    1    3    3    0  502 -0.24029042495E+03  0.66759464908E+02  0.30649980426E+03  0.39514358744E+03  0.10100000352E+00 0.  1.
</event>
<event>
 5   0  0.1704416E-03  0.9006760E+03  0.7818609E-02  0.9424737E-01
       -2   -1    0    0    0  501  0.00000000000E+00  0.00000000000E+00  0.15347845467E+04  0.15347845467E+04  0.25500000920E-02 0. -1.
        2   -1    0    0  501    0  0.00000000000E+00  0.00000000000E+00 -0.13213860988E+03  0.13213860990E+03  0.25500000920E-02 0.  1.
    10030    2    1    2    0    0  0.00000000000E+00  0.00000000000E+00  0.14026459368E+04  0.16669231566E+04  0.90067596055E+03 0.  0.
        3    1    3    3  502    0  0.19256995961E+03  0.22966214489E+03  0.13233952736E+04  0.13569093376E+04  0.10100000352E+00 0. -1.
       -3    1    3    3    0  502 -0.19256995961E+03 -0.22966214489E+03  0.79250663228E+02  0.31001381898E+03  0.10100000352E+00 0.  1.
</event>
<event>
 5   0  0.1635686E-03  0.9016615E+03  0.7818609E-02  0.9423507E-01
       -2   -1    0    0    0  501  0.00000000000E+00  0.00000000000E+00  0.57208693239E+03  0.57208693240E+03  0.25500000920E-02 0.  1.
        2   -1    0    0  501    0  0.00000000000E+00  0.00000000000E+00 -0.35527533260E+03  0.35527533261E+03  0.25500000920E-02 0. -1.
    10030    2    1    2    0    0  0.00000000000E+00  0.00000000000E+00  0.21681159980E+03  0.92736226501E+03  0.90166152228E+03 0.  0.
        5    1    3    3  502    0 -0.65652882296E+02 -0.17037733160E+03  0.53232848647E+03  0.56279165202E+03  0.46999998093E+01 0.  1.
       -5    1    3    3    0  502  0.65652882296E+02  0.17037733160E+03 -0.31551688667E+03  0.36457061299E+03  0.46999998093E+01 0. -1.
</event>
<event>
 5   0  0.1641516E-03  0.9015171E+03  0.7818609E-02  0.9423687E-01
       -2   -1    0    0    0  501  0.00000000000E+00  0.00000000000E+00  0.17098728165E+03  0.17098728167E+03  0.25500000920E-02 0.  1.
        2   -1    0    0  501    0  0.00000000000E+00  0.00000000000E+00 -0.11882947121E+04  0.11882947121E+04  0.25500000920E-02 0. -1.
    10030    2    1    2    0    0  0.00000000000E+00  0.00000000000E+00 -0.10173074305E+04  0.13592819938E+04  0.90151712715E+03 0.  0.
        1    1    3    3  502    0  0.42048896294E+03 -0.48210104329E+02 -0.74247065447E+03  0.85463316978E+03  0.50400001928E-02 0. -1.
       -1    1    3    3    0  502 -0.42048896294E+03  0.48210104329E+02 -0.27483677601E+03  0.50464882402E+03  0.50400001928E-02 0.  1.
</event>
<event>
 5   0  0.9321543E-04  0.9003209E+03  0.7818609E-02  0.9425180E-01
       -1   -1    0    0    0  501  0.00000000000E+00  0.00000000000E+00  0.19102982416E+03  0.19102982422E+03  0.50400001928E-02 0. -1.
        1   -1    0    0  501    0  0.00000000000E+00  0.00000000000E+00 -0.10607999240E+04  0.10607999240E+04  0.50400001928E-02 0.  1.
    10030    2    1    2    0    0  0.00000000000E+00  0.00000000000E+00 -0.86977009986E+03  0.12518297482E+04  0.90032088279E+03 0.  0.
        3    1    3    3  502    0 -0.35806835544E+03  0.88248041338E+02 -0.79382983962E+03  0.87530936727E+03  0.10100000352E+00 0.  1.
       -3    1    3    3    0  502  0.35806835544E+03 -0.88248041338E+02 -0.75940260241E+02  0.37652038098E+03  0.10100000352E+00 0. -1.
</event>
<event>
 5   0  0.9981885E-04  0.8993164E+03  0.7818609E-02  0.9426436E-01
        1   -1    0    0  501    0  0.00000000000E+00  0.00000000000E+00  0.81858578536E+03  0.81858578537E+03  0.50400001928E-02 0.  1.
       -1   -1    0    0    0  501  0.00000000000E+00  0.00000000000E+00 -0.24700222669E+03  0.24700222675E+03  0.50400001928E-02 0. -1.
    10030    2    1    2    0    0  0.00000000000E+00  0.00000000000E+00  0.57158355866E+03  0.10655880121E+04  0.89931643321E+03 0.  0.
        4    1    3    3  502    0  0.25749489179E+03 -0.28685580267E+03  0.11468062569E+02  0.38564621116E+03  0.12699999809E+01 0. -1.
       -4    1    3    3    0  502 -0.25749489179E+03  0.28685580267E+03  0.56011549609E+03  0.67994180096E+03  0.12699999809E+01 0.  1.
</event>
<event>
 5   0  0.9321543E-04  0.9002719E+03  0.7818609E-02  0.9425242E-01
        1   -1    0    0  501    0  0.00000000000E+00  0.00000000000E+00  0.45518420773E+03  0.45518420776E+03  0.50400001928E-02 0. -1.
       -1   -1    0    0    0  501  0.00000000000E+00  0.00000000000E+00 -0.44514372307E+03  0.44514372310E+03  0.50400001928E-02 0.  1.
    10030    2    1    2    0    0  0.00000000000E+00  0.00000000000E+00  0.10040484655E+02  0.90032793086E+03  0.90027194322E+03 0.  0.
        3    1    3    3  502    0 -0.19812480369E+03 -0.16819724917E+03 -0.36253306237E+03  0.44606499972E+03  0.10100000352E+00 0.  1.
       -3    1    3    3    0  502  0.19812480369E+03  0.16819724917E+03  0.37257354702E+03  0.45426293114E+03  0.10100000352E+00 0. -1.
</event>
<event>
 5   0  0.1630202E-03  0.8997274E+03  0.7818609E-02  0.9425922E-01
       -2   -1    0    0    0  501  0.00000000000E+00  0.00000000000E+00  0.68299152565E+03  0.68299152566E+03  0.25500000920E-02 0.  1.
        2   -1    0    0  501    0  0.00000000000E+00  0.00000000000E+00 -0.29631020015E+03  0.29631020016E+03  0.25500000920E-02 0. -1.
    10030    2    1    2    0    0  0.00000000000E+00  0.00000000000E+00  0.38668132550E+03  0.97930172582E+03  0.89972741578E+03 0.  0.
        4    1    3    3  502    0  0.33664418699E+03 -0.34870135802E+02 -0.12923252235E+03  0.36228151034E+03  0.12699999809E+01 0. -1.
       -4    1    3    3    0  502 -0.33664418699E+03  0.34870135802E+02  0.51591384785E+03  0.61702021548E+03  0.12699999809E+01 0.  1.
</event>
<event>
 5   0  0.1635686E-03  0.8926603E+03  0.7818609E-02  0.9434803E-01
        2   -1    0    0  501    0  0.00000000000E+00  0.00000000000E+00  0.55397948825E+03  0.55397948826E+03  0.25500000920E-02 0. -1.
       -2   -1    0    0    0  501  0.00000000000E+00  0.00000000000E+00 -0.35959924017E+03  0.35959924017E+03  0.25500000920E-02 0.  1.
    10030    2    1    2    0    0  0.00000000000E+00  0.00000000000E+00  0.19438024809E+03  0.91357872843E+03  0.89266030056E+03 0.  0.
        5    1    3    3  502    0  0.42821093440E+03 -0.12270447172E+03  0.12554351363E+03  0.46282205601E+03  0.46999998093E+01 0.  1.
       -5    1    3    3    0  502 -0.42821093440E+03  0.12270447172E+03  0.68836734457E+02  0.45075667242E+03  0.46999998093E+01 0. -1.
</event>
<event>
 5   0  0.1536020E-03  0.9015632E+03  0.7818609E-02  0.9423629E-01
       -2   -1    0    0    0  501  0.00000000000E+00  0.00000000000E+00  0.12362950463E+03  0.12362950466E+03  0.25500000920E-02 0.  1.
        2   -1    0    0  501    0  0.00000000000E+00  0.00000000000E+00 -0.16436533414E+04  0.16436533414E+04  0.25500000920E-02 0. -1.
    10030    2    1    2    0    0  0.00000000000E+00  0.00000000000E+00 -0.15200238368E+04  0.17672828461E+04  0.90156319449E+03 0.  0.
        2    1    3    3  502    0  0.27296272927E+03  0.11256297247E+03 -0.14277184558E+04  0.14579297183E+04  0.25500000920E-02 0. -1.
       -2    1    3    3    0  502 -0.27296272927E+03 -0.11256297247E+03 -0.92305381014E+02  0.30935312785E+03  0.25500000920E-02 0.  1.
</event>
<event>
 5   0  0.1704416E-03  0.9020808E+03  0.7818609E-02  0.9422984E-01
       -2   -1    0    0    0  501  0.00000000000E+00  0.00000000000E+00  0.68176738502E+03  0.68176738502E+03  0.25500000920E-02 0. -1.
        2   -1    0    0  501    0  0.00000000000E+00  0.00000000000E+00 -0.29839715912E+03  0.29839715913E+03  0.25500000920E-02 0.  1.
    10030    2    1    2    0    0  0.00000000000E+00  0.00000000000E+00  0.38337022590E+03  0.98016454416E+03  0.90208081873E+03 0.  0.
        3    1    3    3  502    0 -0.31461886030E+03  0.28778386925E+03  0.31872706843E+02  0.42757509551E+03  0.10100000352E+00 0.  1.
       -3    1    3    3    0  502  0.31461886030E+03 -0.28778386925E+03  0.35149751906E+03  0.55258944865E+03  0.10100000352E+00 0. -1.
</event>
<event>
 5   0  0.1536020E-03  0.9006518E+03  0.7818609E-02  0.9424767E-01
       -2   -1    0    0    0  501  0.00000000000E+00  0.00000000000E+00  0.54696315796E+03  0.54696315797E+03  0.25500000920E-02 0. -1.
        2   -1    0    0  501    0  0.00000000000E+00  0.00000000000E+00 -0.37076246382E+03  0.37076246383E+03  0.25500000920E-02 0.  1.
    10030    2    1    2    0    0  0.00000000000E+00  0.00000000000E+00  0.17620069414E+03  0.91772562180E+03  0.90065178193E+03 0.  0.
        2    1    3    3  502    0 -0.40946989336E+03 -0.27376799969E+02  0.27702920650E+03  0.49513661146E+03  0.25500000920E-02 0. -1.
       -2    1    3    3    0  502  0.40946989336E+03  0.27376799969E+02 -0.10082851236E+03  0.42258901034E+03  0.25500000920E-02 0.  1.
</event>
<event>
 5   0  0.1704416E-03  0.9022054E+03  0.7818609E-02  0.9422829E-01
       -2   -1    0    0    0  501  0.00000000000E+00  0.00000000000E+00  0.11449126596E+04  0.11449126596E+04  0.25500000920E-02 0.  1.
        2   -1    0    0  501    0  0.00000000000E+00  0.00000000000E+00 -0.17773725634E+03  0.17773725636E+03  0.25500000920E-02 0. -1.
    10030    2    1    2    0    0  0.00000000000E+00  0.00000000000E+00  0.96717540322E+03  0.13226499159E+04  0.90220537545E+03 0.  0.
        3    1    3    3  502    0 -0.28986363723E+03  0.18715305701E+03  0.57567547827E+02  0.34980169768E+03  0.10100000352E+00 0. -1.
       -3    1    3    3    0  502  0.28986363723E+03 -0.18715305701E+03  0.90960785540E+03  0.97284821824E+03  0.10100000352E+00 0.  1.
</event>
<event>
 5   0  0.1704416E-03  0.8989399E+03  0.7818609E-02  0.9426908E-01
        2   -1    0    0  501    0  0.00000000000E+00  0.00000000000E+00  0.10662673050E+04  0.10662673050E+04  0.25500000920E-02 0. -1.
       -2   -1    0    0    0  501  0.00000000000E+00  0.00000000000E+00 -0.18946772466E+03  0.18946772467E+03  0.25500000920E-02 0.  1.
    10030    2    1    2    0    0  0.00000000000E+00  0.00000000000E+00  0.87679958034E+03  0.12557350297E+04  0.89893990937E+03 0.  0.
        3    1    3    3  502    0 -0.39579478519E+03  0.15386773570E+03  0.23264898258E+03  0.48420486508E+03  0.10100000352E+00 0.  1.
       -3    1    3    3    0  502  0.39579478519E+03 -0.15386773570E+03  0.64415059776E+03  0.77153016459E+03  0.10100000352E+00 0. -1.
</event>
<event>
 5   0  0.1536020E-03  0.9002172E+03  0.7818609E-02  0.9425310E-01
       -2   -1    0    0    0  501  0.00000000000E+00  0.00000000000E+00  0.85711149769E+03  0.85711149770E+03  0.25500000920E-02 0.  1.
        2   -1    0    0  501    0  0.00000000000E+00  0.00000000000E+00 -0.23637267738E+03  0.23637267739E+03  0.25500000920E-02 0. -1.
    10030    2    1    2    0    0  0.00000000000E+00  0.00000000000E+00  0.62073882031E+03  0.10934841751E+04  0.90021717276E+03 0.  0.
        2    1    3    3  502    0 -0.16758497633E+03 -0.41567398196E+03  0.25987344530E+03  0.51807701276E+03  0.25500000920E-02 0.  1.
       -2    1    3    3    0  502  0.16758497633E+03  0.41567398196E+03  0.36086537502E+03  0.57540716233E+03  0.25500000920E-02 0. -1.
</event>
<event>
 5   0  0.9321543E-04  0.9001246E+03  0.7818609E-02  0.9425426E-01
       -1   -1    0    0    0  501  0.00000000000E+00  0.00000000000E+00  0.16487300415E+03  0.16487300422E+03  0.50400001928E-02 0.  1.
        1   -1    0    0  501    0  0.00000000000E+00  0.00000000000E+00 -0.12285582449E+04  0.12285582449E+04  0.50400001928E-02 0. -1.
    10030    2    1    2    0    0  0.00000000000E+00  0.00000000000E+00 -0.10636852408E+04  0.13934312492E+04  0.90012463286E+03 0.  0.
        3    1    3    3  502    0  0.76947780905E+02 -0.37929264622E+03 -0.17622315593E+03  0.42525108272E+03  0.10100000352E+00 0. -1.
       -3    1    3    3    0  502 -0.76947780905E+02  0.37929264622E+03 -0.88746208484E+03  0.96818016644E+03  0.10100000352E+00 0.  1.
</event>
<event>
 5   0  0.1007561E-03  0.8977868E+03  0.7818609E-02  0.9428352E-01
       -1   -1    0    0    0  501  0.00000000000E+00  0.00000000000E+00  0.15440055708E+03  0.15440055717E+03  0.50400001928E-02 0.  1.
        1   -1    0    0  501    0  0.00000000000E+00  0.00000000000E+00 -0.13050814608E+04  0.13050814608E+04  0.50400001928E-02 0. -1.
    10030    2    1    2    0    0  0.00000000000E+00  0.00000000000E+00 -0.11506809037E+04  0.14594820179E+04  0.89778684475E+03 0.  0.
        2    1    3    3  502    0  0.24381877289E+03 -0.35631603652E+03 -0.77508042210E+03  0.88721946136E+03  0.25500000920E-02 0. -1.
       -2    1    3    3    0  502 -0.24381877289E+03  0.35631603652E+03 -0.37560048158E+03  0.57226255658E+03  0.25500000920E-02 0.  1.
</event>
<event>
 5   0  0.1007561E-03  0.9007277E+03  0.7818609E-02  0.9424672E-01
        1   -1    0    0  501    0  0.00000000000E+00  0.00000000000E+00  0.16550054521E+04  0.16550054521E+04  0.50400001928E-02 0. -1.
       -1   -1    0    0    0  501  0.00000000000E+00  0.00000000000E+00 -0.12255403979E+03  0.12255403989E+03  0.50400001928E-02 0.  1.
    10030    2    1    2    0    0  0.00000000000E+00  0.00000000000E+00  0.15324514124E+04  0.17775594920E+04  0.90072771497E+03 0.  0.
        2    1    3    3  502    0 -0.24175530030E+03 -0.24439937454E+03  0.13404036053E+04  0.13837841250E+04  0.25500000920E-02 0. -1.
       -2    1    3    3    0  502  0.24175530030E+03  0.24439937454E+03  0.19204780709E+03  0.39377536707E+03  0.25500000920E-02 0.  1.
</event>
<event>
 5   0  0.9321543E-04  0.8989529E+03  0.7818609E-02  0.9426891E-01
       -1   -1    0    0    0  501  0.00000000000E+00  0.00000000000E+00  0.16768908651E+03  0.16768908658E+03  0.50400001928E-02 0. -1.
        1   -1    0    0  501    0  0.00000000000E+00  0.00000000000E+00 -0.12047838198E+04  0.12047838198E+04  0.50400001928E-02 0.  1.
    10030    2    1    2    0    0  0.00000000000E+00  0.00000000000E+00 -0.10370947333E+04  0.13724729064E+04  0.89895294258E+03 0.  0.
        3    1    3    3  502    0  0.31192110943E+03  0.17016222912E+03 -0.93883016536E+03  0.10038187348E+04  0.10100000352E+00 0.  1.
       -3    1    3    3    0  502 -0.31192110943E+03 -0.17016222912E+03 -0.98264567931E+02  0.36865417160E+03  0.10100000352E+00 0. -1.
</event>
<event>
 5   0  0.1641516E-03  0.9002449E+03  0.7818609E-02  0.9425275E-01
       -2   -1    0    0    0  501  0.00000000000E+00  0.00000000000E+00  0.19946433055E+03  0.19946433057E+03  0.25500000920E-02 0. -1.
        2   -1    0    0  501    0  0.00000000000E+00  0.00000000000E+00 -0.10157717474E+04  0.10157717474E+04  0.25500000920E-02 0.  1.
    10030    2    1    2    0    0  0.00000000000E+00  0.00000000000E+00 -0.81630741686E+03  0.12152360780E+04  0.90024492579E+03 0.  0.
        1    1    3    3  502    0 -0.31171967782E+03  0.29939071619E+03 -0.23844086382E+03  0.49361726474E+03  0.50400001928E-02 0. -1.
       -1    1    3    3    0  502  0.31171967782E+03 -0.29939071619E+03 -0.57786655303E+03  0.72161881324E+03  0.50400001928E-02 0.  1.
</event>
<event>
 5   0  0.9321543E-04  0.9044107E+03  0.7818609E-02  0.9420085E-01
        1   -1    0    0  501    0  0.00000000000E+00  0.00000000000E+00  0.10940369656E+04  0.10940369656E+04  0.50400001928E-02 0. -1.
       -1   -1    0    0    0  501  0.00000000000E+00  0.00000000000E+00 -0.18691294377E+03  0.18691294384E+03  0.50400001928E-02 0.  1.
    10030    2    1    2    0    0  0.00000000000E+00  0.00000000000E+00  0.90712402180E+03  0.12809499094E+04  0.90441068079E+03 0.  0.
        3    1    3    3  502    0  0.36680838415E+03 -0.26444982060E+03  0.44966737228E+03  0.63771690756E+03  0.10100000352E+00 0.  1.
       -3    1    3    3    0  502 -0.36680838415E+03  0.26444982060E+03  0.45745664952E+03  0.64323300186E+03  0.10100000352E+00 0. -1.
</event>
<event>
 5   0  0.1704416E-03  0.8997738E+03  0.7818609E-02  0.9425864E-01
        2   -1    0    0  501    0  0.00000000000E+00  0.00000000000E+00  0.65235521966E+03  0.65235521966E+03  0.25500000920E-02 0.  1.
       -2   -1    0    0    0  501  0.00000000000E+00  0.00000000000E+00 -0.31025766294E+03  0.31025766295E+03  0.25500000920E-02 0. -1.
    10030    2    1    2    0    0  0.00000000000E+00  0.00000000000E+00  0.34209755672E+03  0.96261288262E+03  0.89977376238E+03 0.  0.
        3    1    3    3  502    0 -0.17506362016E+03  0.43321093572E+02  0.61199138628E+03  0.63801054484E+03  0.10100000352E+00 0.  1.
       -3    1    3    3    0  502  0.17506362016E+03 -0.43321093572E+02 -0.26989382956E+03  0.32460233777E+03  0.10100000352E+00 0. -1.
</event>
<event>
 5   0  0.9223454E-04  0.8961364E+03  0.7818609E-02  0.9430424E-01
        1   -1    0    0  501    0  0.00000000000E+00  0.00000000000E+00  0.34195041942E+03  0.34195041946E+03  0.50400001928E-02 0.  1.
       -1   -1    0    0    0  501  0.00000000000E+00  0.00000000000E+00 -0.58711756543E+03  0.58711756545E+03  0.50400001928E-02 0. -1.
    10030    2    1    2    0    0  0.00000000000E+00  0.00000000000E+00 -0.24516714601E+03  0.92906798491E+03  0.89613636858E+03 0.  0.
        1    1    3    3  502    0 -0.18824774647E+03 -0.38733033653E+03  0.56680932667E+01  0.43069029587E+03  0.50400001928E-02 0. -1.
       -1    1    3    3    0  502  0.18824774647E+03  0.38733033653E+03 -0.25083523928E+03  0.49837768904E+03  0.50400001928E-02 0.  1.
</event>
<event>
 5   0  0.1630202E-03  0.8965667E+03  0.7818609E-02  0.9429883E-01
       -2   -1    0    0    0  501  0.00000000000E+00  0.00000000000E+00  0.34582981206E+03  0.34582981207E+03  0.25500000920E-02 0. -1.
        2   -1    0    0  501    0  0.00000000000E+00  0.00000000000E+00 -0.58108918675E+03  0.58108918676E+03  0.25500000920E-02 0.  1.
    10030    2    1    2    0    0  0.00000000000E+00  0.00000000000E+00 -0.23525937469E+03  0.92691899883E+03  0.89656670528E+03 0.  0.
        4    1    3    3  502    0  0.66659440146E+02 -0.43243798314E+03 -0.21845170812E+03  0.48904892588E+03  0.12699999809E+01 0.  1.
       -4    1    3    3    0  502 -0.66659440146E+02  0.43243798314E+03 -0.16807666562E+02  0.43787007294E+03  0.12699999809E+01 0. -1.
</event>
<event>
 5   0  0.1630202E-03  0.8999137E+03  0.7818609E-02  0.9425689E-01
        2   -1    0    0  501    0  0.00000000000E+00  0.00000000000E+00  0.14261768723E+04  0.14261768723E+04  0.25500000920E-02 0. -1.
       -2   -1    0    0    0  501  0.00000000000E+00  0.00000000000E+00 -0.14196077101E+03  0.14196077103E+03  0.25500000920E-02 0.  1.
    10030    2    1    2    0    0  0.00000000000E+00  0.00000000000E+00  0.12842161013E+04  0.15681376433E+04  0.89991370343E+03 0.  0.
        4    1    3    3  502    0  0.38393421865E+03  0.48829838202E+02  0.10420194763E+04  0.11115736769E+04  0.12699999809E+01 0. -1.
       -4    1    3    3    0  502 -0.38393421865E+03 -0.48829838202E+02  0.24219662494E+03  0.45656396636E+03  0.12699999809E+01 0.  1.
</event>
<event>
 5   0  0.9697941E-04  0.8998413E+03  0.7818609E-02  0.9425780E-01
       -1   -1    0    0    0  501  0.00000000000E+00  0.00000000000E+00  0.28583537452E+03  0.28583537457E+03  0.50400001928E-02 0. -1.
        1   -1    0    0  501    0  0.00000000000E+00  0.00000000000E+00 -0.70819997727E+03  0.70819997729E+03  0.50400001928E-02 0.  1.
    10030    2    1    2    0    0  0.00000000000E+00  0.00000000000E+00 -0.42236460275E+03  0.99403535186E+03  0.89984133217E+03 0.  0.
        5    1    3    3  502    0 -0.62902784922E+01 -0.66309380035E+02  0.28033136699E+03  0.28817402173E+03  0.46999998093E+01 0. -1.
       -5    1    3    3    0  502  0.62902784922E+01  0.66309380035E+02 -0.70269596974E+03  0.70586133013E+03  0.46999998093E+01 0.  1.
</event>
<event>
 5   0  0.9321543E-04  0.8997618E+03  0.7818609E-02  0.9425879E-01
       -1   -1    0    0    0  501  0.00000000000E+00  0.00000000000E+00  0.44515471421E+03  0.44515471424E+03  0.50400001928E-02 0.  1.
        1   -1    0    0  501    0  0.00000000000E+00  0.00000000000E+00 -0.45465722422E+03  0.45465722425E+03  0.50400001928E-02 0. -1.
    10030    2    1    2    0    0  0.00000000000E+00  0.00000000000E+00 -0.95025100029E+01  0.89981193849E+03  0.89976176122E+03 0.  0.
        3    1    3    3  502    0  0.99083075200E+02 -0.39285487122E+03  0.19081115486E+03  0.44784072241E+03  0.10100000352E+00 0.  1.
       -3    1    3    3    0  502 -0.99083075200E+02  0.39285487122E+03 -0.20031366486E+03  0.45197121608E+03  0.10100000352E+00 0. -1.
</event>
<event>
 5   0  0.1007561E-03  0.8995459E+03  0.7818609E-02  0.9426149E-01
        1   -1    0    0  501    0  0.00000000000E+00  0.00000000000E+00  0.90346423965E+03  0.90346423966E+03  0.50400001928E-02 0.  1.
       -1   -1    0    0    0  501  0.00000000000E+00  0.00000000000E+00 -0.22391112094E+03  0.22391112100E+03  0.50400001928E-02 0. -1.
    10030    2    1    2    0    0  0.00000000000E+00  0.00000000000E+00  0.67955311871E+03  0.11273753607E+04  0.89954586468E+03 0.  0.
        2    1    3    3  502    0 -0.18958345277E+03 -0.22300455952E+03  0.76776979642E+03  0.82167108957E+03  0.25500000920E-02 0.  1.
       -2    1    3    3    0  502  0.18958345277E+03  0.22300455952E+03 -0.88216677710E+02  0.30570427109E+03  0.25500000920E-02 0. -1.
</event>
<event>
 5   0  0.1630202E-03  0.8997089E+03  0.7818609E-02  0.9425945E-01
       -2   -1    0    0    0  501  0.00000000000E+00  0.00000000000E+00  0.81206398264E+03  0.81206398264E+03  0.25500000920E-02 0.  1.
        2   -1    0    0  501    0  0.00000000000E+00  0.00000000000E+00 -0.24920327624E+03  0.24920327625E+03  0.25500000920E-02 0. -1.
    10030    2    1    2    0    0  0.00000000000E+00  0.00000000000E+00  0.56286070640E+03  0.10612672589E+04  0.89970885290E+03 0.  0.
        4    1    3    3  502    0 -0.25266721028E+03 -0.39594711078E+02 -0.15510352348E+03  0.29911064206E+03  0.12699999809E+01 0. -1.
       -4    1    3    3    0  502  0.25266721028E+03  0.39594711078E+02  0.71796422988E+03  0.76215661684E+03  0.12699999809E+01 0.  1.
</event>
<event>
 5   0  0.9321543E-04  0.9007417E+03  0.7818609E-02  0.9424655E-01
       -1   -1    0    0    0  501  0.00000000000E+00  0.00000000000E+00  0.34457140477E+03  0.34457140481E+03  0.50400001928E-02 0. -1.
        1   -1    0    0  501    0  0.00000000000E+00  0.00000000000E+00 -0.58865568033E+03  0.58865568035E+03  0.50400001928E-02 0.  1.
    10030    2    1    2    0    0  0.00000000000E+00  0.00000000000E+00 -0.24408427555E+03  0.93322708515E+03  0.90074172707E+03 0.  0.
        3    1    3    3  502    0 -0.31785698724E+02 -0.43110955273E+03  0.88802892544E+01  0.43237095975E+03  0.10100000352E+00 0. -1.
       -3    1    3    3    0  502  0.31785698724E+02  0.43110955273E+03 -0.25296456481E+03  0.50085612540E+03  0.10100000352E+00 0.  1.
</event>
<event>
 5   0  0.1536020E-03  0.8993721E+03  0.7818609E-02  0.9426367E-01
       -2   -1    0    0    0  501  0.00000000000E+00  0.00000000000E+00  0.44037888027E+03  0.44037888028E+03  0.25500000920E-02 0.  1.
        2   -1    0    0  501    0  0.00000000000E+00  0.00000000000E+00 -0.45918987767E+03  0.45918987768E+03  0.25500000920E-02 0. -1.
    10030    2    1    2    0    0  0.00000000000E+00  0.00000000000E+00 -0.18810997404E+02  0.89956875796E+03  0.89937205687E+03 0.  0.
        2    1    3    3  502    0  0.13566215858E+03 -0.20564464227E+03  0.36687298306E+03  0.44191597150E+03  0.25500000920E-02 0.  1.
       -2    1    3    3    0  502 -0.13566215858E+03  0.20564464227E+03 -0.38568398046E+03  0.45765278646E+03  0.25500000920E-02 0. -1.
</event>
<event>
 5   0  0.1630202E-03  0.9026092E+03  0.7818609E-02  0.9422326E-01
        2   -1    0    0  501    0  0.00000000000E+00  0.00000000000E+00  0.29467081307E+03  0.29467081308E+03  0.25500000920E-02 0.  1.
       -2   -1    0    0    0  501  0.00000000000E+00  0.00000000000E+00 -0.69119793591E+03  0.69119793591E+03  0.25500000920E-02 0. -1.
    10030    2    1    2    0    0  0.00000000000E+00  0.00000000000E+00 -0.39652712284E+03  0.98586874899E+03  0.90260923500E+03 0.  0.
        4    1    3    3  502    0 -0.10763951941E+01  0.56297789505E+02 -0.68734419228E+03  0.68964791835E+03  0.12699999809E+01 0. -1.
       -4    1    3    3    0  502  0.10763951941E+01 -0.56297789505E+02  0.29081706944E+03  0.29622083064E+03  0.12699999809E+01 0.  1.
</event>
<event>
 5   0  0.9697941E-04  0.9000939E+03  0.7818609E-02  0.9425464E-01
       -1   -1    0    0    0  501  0.00000000000E+00  0.00000000000E+00  0.65082303285E+03  0.65082303287E+03  0.50400001928E-02 0. -1.
        1   -1    0    0  501    0  0.00000000000E+00  0.00000000000E+00 -0.31120941307E+03  0.31120941311E+03  0.50400001928E-02 0.  1.
    10030    2    1    2    0    0  0.00000000000E+00  0.00000000000E+00  0.33961361978E+03  0.96203244599E+03  0.90009389310E+03 0.  0.
        5    1    3    3  502    0  0.25839833789E+02  0.34989647887E+03 -0.13141076009E+03  0.37468135902E+03  0.46999998093E+01 0. -1.
       -5    1    3    3    0  502 -0.25839833789E+02 -0.34989647887E+03  0.47102437986E+03  0.58735108696E+03  0.46999998093E+01 0.  1.
</event>
<event>
 5   0  0.6375625E-04  0.9007590E+03  0.7818609E-02  0.9424633E-01
       -4   -1    0    0    0  501  0.00000000000E+00  0.00000000000E+00  0.70124020087E+03  0.70124135091E+03  0.12699999809E+01 0.  1.
        4   -1    0    0  501    0  0.00000000000E+00  0.00000000000E+00 -0.28925860710E+03  0.28926139508E+03  0.12699999809E+01 0. -1.
    10030    2    1    2    0    0  0.00000000000E+00  0.00000000000E+00  0.41198159377E+03  0.99050274599E+03  0.90075904447E+03 0.  0.
        3    1    3    3  502    0  0.14438190808E+03  0.16808480343E+03  0.63715711082E+03  0.67458715567E+03  0.10100000352E+00 0.  1.
       -3    1    3    3    0  502 -0.14438190808E+03 -0.16808480343E+03 -0.22517551705E+03  0.31591559032E+03  0.10100000352E+00 0. -1.
</event>
<event>
 5   0  0.1536020E-03  0.8940786E+03  0.7818609E-02  0.9433014E-01
        2   -1    0    0  501    0  0.00000000000E+00  0.00000000000E+00  0.15282462340E+04  0.15282462340E+04  0.25500000920E-02 0.  1.
       -2   -1    0    0    0  501  0.00000000000E+00  0.00000000000E+00 -0.13076696915E+03  0.13076696918E+03  0.25500000920E-02 0. -1.
    10030    2    1    2    0    0  0.00000000000E+00  0.00000000000E+00  0.13974792648E+04  0.16590132032E+04  0.89407858303E+03 0.  0.
        2    1    3    3  502    0  0.33153633176E+03  0.52657143639E+02  0.15094176240E+03  0.36806593118E+03  0.25500000920E-02 0. -1.
       -2    1    3    3    0  502 -0.33153633176E+03 -0.52657143639E+02  0.12465375024E+04  0.12909472720E+04  0.25500000920E-02 0.  1.
</event>
<event>
 5   0  0.1704416E-03  0.8995013E+03  0.7818609E-02  0.9426205E-01
       -2   -1    0    0    0  501  0.00000000000E+00  0.00000000000E+00  0.50866713830E+03  0.50866713831E+03  0.25500000920E-02 0.  1.
        2   -1    0    0  501    0  0.00000000000E+00  0.00000000000E+00 -0.39765813981E+03  0.39765813982E+03  0.25500000920E-02 0. -1.
    10030    2    1    2    0    0  0.00000000000E+00  0.00000000000E+00  0.11100899849E+03  0.90632527813E+03  0.89950125738E+03 0.  0.
        3    1    3    3  502    0  0.35653134556E+03 -0.24184232069E+03 -0.74600271672E+02  0.43722707965E+03  0.10100000352E+00 0. -1.
       -3    1    3    3    0  502 -0.35653134556E+03  0.24184232069E+03  0.18560927016E+03  0.46909819848E+03  0.10100000352E+00 0.  1.
</event>
<event>
 5   0  0.1635686E-03  0.9002141E+03  0.7818609E-02  0.9425314E-01
        2   -1    0    0  501    0  0.00000000000E+00  0.00000000000E+00  0.25355325785E+04  0.25355325785E+04  0.25500000920E-02 0.  1.
       -2   -1    0    0    0  501  0.00000000000E+00  0.00000000000E+00 -0.79902888372E+02  0.79902888412E+02  0.25500000920E-02 0. -1.
    10030    2    1    2    0    0  0.00000000000E+00  0.00000000000E+00  0.24556296902E+04  0.26154354669E+04  0.90021414483E+03 0.  0.
        5    1    3    3  502    0 -0.12714883001E+02  0.23926125354E+03  0.12085559212E+03  0.26839482082E+03  0.46999998093E+01 0. -1.
       -5    1    3    3    0  502  0.12714883001E+02 -0.23926125354E+03  0.23347740980E+04  0.23470406461E+04  0.46999998093E+01 0.  1.
</event>
<event>
 5   0  0.1007561E-03  0.9019850E+03  0.7818609E-02  0.9423104E-01
       -1   -1    0    0    0  501  0.00000000000E+00  0.00000000000E+00  0.59844341086E+03  0.59844341089E+03  0.50400001928E-02 0. -1.
        1   -1    0    0  501    0  0.00000000000E+00  0.00000000000E+00 -0.33987209350E+03  0.33987209353E+03  0.50400001928E-02 0.  1.
    10030    2    1    2    0    0  0.00000000000E+00  0.00000000000E+00  0.25857131737E+03  0.93831550442E+03  0.90198495534E+03 0.  0.
        2    1    3    3  502    0 -0.27015056066E+03 -0.11759323827E+03 -0.22591226248E+03  0.37127596941E+03  0.25500000920E-02 0.  1.
       -2    1    3    3    0  502  0.27015056066E+03  0.11759323827E+03  0.48448357985E+03  0.56703953501E+03  0.25500000920E-02 0. -1.
</event>
<event>
 5   0  0.1536020E-03  0.9007875E+03  0.7818609E-02  0.9424598E-01
        2   -1    0    0  501    0  0.00000000000E+00  0.00000000000E+00  0.50779425672E+03  0.50779425672E+03  0.25500000920E-02 0. -1.
       -2   -1    0    0    0  501  0.00000000000E+00  0.00000000000E+00 -0.39948176361E+03  0.39948176362E+03  0.25500000920E-02 0.  1.
    10030    2    1    2    0    0  0.00000000000E+00  0.00000000000E+00  0.10831249310E+03  0.90727602034E+03  0.90078753373E+03 0.  0.
        2    1    3    3  502    0 -0.43570517527E+03 -0.42758396573E+02 -0.52375495264E+02  0.44092002987E+03  0.25500000920E-02 0. -1.
       -2    1    3    3    0  502  0.43570517527E+03  0.42758396573E+02  0.16068798837E+03  0.46635599047E+03  0.25500000920E-02 0.  1.
</event>
<event>
 5   0  0.1007561E-03  0.8980999E+03  0.7818609E-02  0.9427960E-01
       -1   -1    0    0    0  501  0.00000000000E+00  0.00000000000E+00  0.14235380903E+03  0.14235380912E+03  0.50400001928E-02 0.  1.
        1   -1    0    0  501    0  0.00000000000E+00  0.00000000000E+00 -0.14165117488E+04  0.14165117488E+04  0.50400001928E-02 0. -1.
    10030    2    1    2    0    0  0.00000000000E+00  0.00000000000E+00 -0.12741579398E+04  0.15588655579E+04  0.89809986763E+03 0.  0.
        2    1    3    3  502    0 -0.32085172277E+02 -0.80517837486E+02 -0.14018545393E+04  0.14045314983E+04  0.25500000920E-02 0. -1.
       -2    1    3    3    0  502  0.32085172277E+02  0.80517837486E+02  0.12769659950E+03  0.15433405964E+03  0.25500000920E-02 0.  1.
</event>
<event>
 5   0  0.1635686E-03  0.8990468E+03  0.7818609E-02  0.9426774E-01
       -2   -1    0    0    0  501  0.00000000000E+00  0.00000000000E+00  0.22232506967E+03  0.22232506968E+03  0.25500000920E-02 0. -1.
        2   -1    0    0  501    0  0.00000000000E+00  0.00000000000E+00 -0.90890011612E+03  0.90890011612E+03  0.25500000920E-02 0.  1.
    10030    2    1    2    0    0  0.00000000000E+00  0.00000000000E+00 -0.68657504645E+03  0.11312251858E+04  0.89904678776E+03 0.  0.
        5    1    3    3  502    0 -0.27654369108E+03 -0.22211713864E+03 -0.69070285001E+03  0.77646954439E+03  0.46999998093E+01 0.  1.
       -5    1    3    3    0  502  0.27654369108E+03  0.22211713864E+03  0.41278035554E+01  0.35475564141E+03  0.46999998093E+01 0. -1.
</event>
<event>
 5   0  0.9223454E-04  0.8983258E+03  0.7818609E-02  0.9427677E-01
       -1   -1    0    0    0  501  0.00000000000E+00  0.00000000000E+00  0.14389014559E+03  0.14389014568E+03  0.50400001928E-02 0. -1.
        1   -1    0    0  501    0  0.00000000000E+00  0.00000000000E+00 -0.14020926248E+04  0.14020926249E+04  0.50400001928E-02 0.  1.
    10030    2    1    2    0    0  0.00000000000E+00  0.00000000000E+00 -0.12582024793E+04  0.15459827705E+04  0.89832580280E+03 0.  0.
        1    1    3    3  502    0 -0.21968777075E+03  0.19521671265E+03 -0.12136580030E+04  0.12487345714E+04  0.50400001928E-02 0.  1.
       -1    1    3    3    0  502  0.21968777075E+03 -0.19521671265E+03 -0.44544476280E+02  0.29724819917E+03  0.50400001928E-02 0. -1.
</event>
<event>
 5   0  0.1007561E-03  0.8996334E+03  0.7818609E-02  0.9426040E-01
       -1   -1    0    0    0  501  0.00000000000E+00  0.00000000000E+00  0.26084681935E+03  0.26084681940E+03  0.50400001928E-02 0. -1.
        1   -1    0    0  501    0  0.00000000000E+00  0.00000000000E+00 -0.77568543990E+03  0.77568543991E+03  0.50400001928E-02 0.  1.
    10030    2    1    2    0    0  0.00000000000E+00  0.00000000000E+00 -0.51483862054E+03  0.10365322593E+04  0.89963343613E+03 0.  0.
        2    1    3    3  502    0  0.35183534732E+03  0.26935164259E+03 -0.16819730527E+03  0.47395015824E+03  0.25500000920E-02 0. -1.
       -2    1    3    3    0  502 -0.35183534732E+03 -0.26935164259E+03 -0.34664131528E+03  0.56258210108E+03  0.25500000920E-02 0.  1.
</event>
<event>
 5   0  0.9223454E-04  0.9005734E+03  0.7818609E-02  0.9424865E-01
       -1   -1    0    0    0  501  0.00000000000E+00  0.00000000000E+00  0.33995509153E+03  0.33995509157E+03  0.50400001928E-02 0. -1.
        1   -1    0    0  501    0  0.00000000000E+00  0.00000000000E+00 -0.59642621217E+03  0.59642621219E+03  0.50400001928E-02 0.  1.
    10030    2    1    2    0    0  0.00000000000E+00  0.00000000000E+00 -0.25647112064E+03  0.93638130375E+03  0.90057343415E+03 0.  0.
        1    1    3    3  502    0 -0.45217499893E+02 -0.25493478141E+03  0.25481698060E+03  0.36327408206E+03  0.50400001928E-02 0. -1.
       -1    1    3    3    0  502  0.45217499893E+02  0.25493478141E+03 -0.51128810123E+03  0.57310722169E+03  0.50400001928E-02 0.  1.
</event>
<event>
 5   0  0.1635686E-03  0.9192490E+03  0.7818609E-02  0.9401834E-01
        2   -1    0    0  501    0  0.00000000000E+00  0.00000000000E+00  0.33655995344E+03  0.33655995345E+03  0.25500000920E-02 0. -1.
       -2   -1    0    0    0  501  0.00000000000E+00  0.00000000000E+00 -0.62768816007E+03  0.62768816007E+03  0.25500000920E-02 0.  1.
    10030    2    1    2    0    0  0.00000000000E+00  0.00000000000E+00 -0.29112820663E+03  0.96424811352E+03  0.91924903684E+03 0.  0.
        5    1    3    3  502    0  0.27068417051E+03  0.26704085023E+03  0.12524408416E+03  0.40036097021E+03  0.46999998093E+01 0. -1.
       -5    1    3    3    0  502 -0.27068417051E+03 -0.26704085023E+03 -0.41637229079E+03  0.56388714331E+03  0.46999998093E+01 0.  1.
</event>
<event>
 5   0  0.9697941E-04  0.8999821E+03  0.7818609E-02  0.9425604E-01
       -1   -1    0    0    0  501  0.00000000000E+00  0.00000000000E+00  0.15090748242E+03  0.15090748251E+03  0.50400001928E-02 0. -1.
        1   -1    0    0  501    0  0.00000000000E+00  0.00000000000E+00 -0.13418284528E+04  0.13418284528E+04  0.50400001928E-02 0.  1.
    10030    2    1    2    0    0  0.00000000000E+00  0.00000000000E+00 -0.11909209703E+04  0.14927359353E+04  0.89998211920E+03 0.  0.
        5    1    3    3  502    0 -0.28942434883E+02 -0.21583320172E+03 -0.12485647366E+04  0.12674216453E+04  0.46999998093E+01 0.  1.
       -5    1    3    3    0  502  0.28942434883E+02  0.21583320172E+03  0.57643766224E+02  0.22531429001E+03  0.46999998093E+01 0. -1.
</event>
<event>
 5   0  0.9321543E-04  0.8989794E+03  0.7818609E-02  0.9426858E-01
        1   -1    0    0  501    0  0.00000000000E+00  0.00000000000E+00  0.80763609520E+03  0.80763609522E+03  0.50400001928E-02 0. -1.
       -1   -1    0    0    0  501  0.00000000000E+00  0.00000000000E+00 -0.25016339695E+03  0.25016339700E+03  0.50400001928E-02 0.  1.
    10030    2    1    2    0    0  0.00000000000E+00  0.00000000000E+00  0.55747269825E+03  0.10577994922E+04  0.89897939712E+03 0.  0.
        3    1    3    3  502    0 -0.42005571958E+02 -0.43750822777E+03  0.16796039580E+03  0.47051952372E+03  0.10100000352E+00 0.  1.
       -3    1    3    3    0  502  0.42005571958E+02  0.43750822777E+03  0.38951230245E+03  0.58727996850E+03  0.10100000352E+00 0. -1.
</event>
<event>
 5   0  0.1641516E-03  0.9074000E+03  0.7818609E-02  0.9416378E-01
       -2   -1    0    0    0  501  0.00000000000E+00  0.00000000000E+00  0.18048209722E+03  0.18048209723E+03  0.25500000920E-02 0.  1.
        2   -1    0    0  501    0  0.00000000000E+00  0.00000000000E+00 -0.11405212746E+04  0.11405212746E+04  0.25500000920E-02 0. -1.
    10030    2    1    2    0    0  0.00000000000E+00  0.00000000000E+00 -0.96003917740E+03  0.13210033718E+04  0.90739995939E+03 0.  0.
        1    1    3    3  502    0 -0.39067474843E+03  0.10557454283E+03 -0.18141517789E+03  0.44349093559E+03  0.50400001928E-02 0.  1.
       -1    1    3    3    0  502  0.39067474843E+03 -0.10557454283E+03 -0.77862399950E+03  0.87751243626E+03  0.50400001928E-02 0. -1.
</event>
<event>
 5   0  0.9223454E-04  0.9001758E+03  0.7818609E-02  0.9425362E-01
       -1   -1    0    0    0  501  0.00000000000E+00  0.00000000000E+00  0.28078767409E+03  0.28078767413E+03  0.50400001928E-02 0. -1.
        1   -1    0    0  501    0  0.00000000000E+00  0.00000000000E+00 -0.72146727229E+03  0.72146727231E+03  0.50400001928E-02 0.  1.
    10030    2    1    2    0    0  0.00000000000E+00  0.00000000000E+00 -0.44067959821E+03  0.10022549464E+04  0.90017579916E+03 0.  0.
        1    1    3    3  502    0 -0.14798737749E+03 -0.42242726499E+03 -0.27296553912E+03  0.52426638618E+03  0.50400001928E-02 0.  1.
       -1    1    3    3    0  502  0.14798737749E+03  0.42242726499E+03 -0.16771405908E+03  0.47798856026E+03  0.50400001928E-02 0. -1.
</event>
<event>
 5   0  0.1704416E-03  0.9023789E+03  0.7818609E-02  0.9422613E-01
        2   -1    0    0  501    0  0.00000000000E+00  0.00000000000E+00  0.10784243160E+04  0.10784243160E+04  0.25500000920E-02 0.  1.
       -2   -1    0    0    0  501  0.00000000000E+00  0.00000000000E+00 -0.18876793706E+03  0.18876793708E+03  0.25500000920E-02 0. -1.
    10030    2    1    2    0    0  0.00000000000E+00  0.00000000000E+00  0.88965637893E+03  0.12671922531E+04  0.90237893020E+03 0.  0.
        3    1    3    3  502    0 -0.23137463757E+03 -0.72373737685E+02  0.97919251598E+03  0.10087567469E+04  0.10100000352E+00 0.  1.
       -3    1    3    3    0  502  0.23137463757E+03  0.72373737685E+02 -0.89536137059E+02  0.25843550618E+03  0.10100000352E+00 0. -1.
</event>
<event>
 5   0  0.9223454E-04  0.9000019E+03  0.7818609E-02  0.9425579E-01
       -1   -1    0    0    0  501  0.00000000000E+00  0.00000000000E+00  0.45946657348E+03  0.45946657351E+03  0.50400001928E-02 0.  1.
        1   -1    0    0  501    0  0.00000000000E+00  0.00000000000E+00 -0.44073029530E+03  0.44073029533E+03  0.50400001928E-02 0. -1.
    10030    2    1    2    0    0  0.00000000000E+00  0.00000000000E+00  0.18736278179E+02  0.90019686884E+03  0.90000186364E+03 0.  0.
        1    1    3    3  502    0  0.64898962909E+01  0.36811949539E+03  0.26816491474E+03  0.45548490992E+03  0.50400001928E-02 0.  1.
       -1    1    3    3    0  502 -0.64898962909E+01 -0.36811949539E+03 -0.24942863656E+03  0.44471195892E+03  0.50400001928E-02 0. -1.
</event>
<event>
 5   0  0.9223454E-04  0.8987406E+03  0.7818609E-02  0.9427157E-01
       -1   -1    0    0    0  501  0.00000000000E+00  0.00000000000E+00  0.13518864361E+03  0.13518864370E+03  0.50400001928E-02 0.  1.
        1   -1    0    0  501    0  0.00000000000E+00  0.00000000000E+00 -0.14937177006E+04  0.14937177006E+04  0.50400001928E-02 0. -1.
    10030    2    1    2    0    0  0.00000000000E+00  0.00000000000E+00 -0.13585290570E+04  0.16289063443E+04  0.89874060767E+03 0.  0.
        1    1    3    3  502    0  0.41437521309E+03  0.10089494687E+03 -0.93588253167E+03  0.10284759213E+04  0.50400001928E-02 0.  1.
       -1    1    3    3    0  502 -0.41437521309E+03 -0.10089494687E+03 -0.42264652534E+03  0.60043042306E+03  0.50400001928E-02 0. -1.
</event>
<event>
 5   0  0.1641516E-03  0.9004712E+03  0.7818609E-02  0.9424993E-01
       -2   -1    0    0    0  501  0.00000000000E+00  0.00000000000E+00  0.18668861828E+03  0.18668861830E+03  0.25500000920E-02 0. -1.
        2   -1    0    0  501    0  0.00000000000E+00  0.00000000000E+00 -0.10858300093E+04  0.10858300093E+04  0.25500000920E-02 0.  1.
    10030    2    1    2    0    0  0.00000000000E+00  0.00000000000E+00 -0.89914139099E+03  0.12725186276E+04  0.90047121915E+03 0.  0.
        1    1    3    3  502    0  0.26389648789E+03  0.23984438854E+03 -0.61153566751E+02  0.36180995811E+03  0.50400001928E-02 0. -1.
       -1    1    3    3    0  502 -0.26389648789E+03 -0.23984438854E+03 -0.83798782424E+03  0.91070866946E+03  0.50400001928E-02 0.  1.
</event>
<event>
 5   0  0.9223454E-04  0.8998376E+03  0.7818609E-02  0.9425784E-01
       -1   -1    0    0    0  501  0.00000000000E+00  0.00000000000E+00  0.43641641578E+03  0.43641641580E+03  0.50400001928E-02 0.  1.
        1   -1    0    0  501    0  0.00000000000E+00  0.00000000000E+00 -0.46383898393E+03  0.46383898396E+03  0.50400001928E-02 0. -1.
    10030    2    1    2    0    0  0.00000000000E+00  0.00000000000E+00 -0.27422568159E+02  0.90025539977E+03  0.89983764511E+03 0.  0.
        1    1    3    3  502    0 -0.25781893038E+03 -0.42108504103E+02  0.35276905567E+03  0.43896438767E+03  0.50400001928E-02 0.  1.
       -1    1    3    3    0  502  0.25781893038E+03  0.42108504103E+02 -0.38019162383E+03  0.46129101209E+03  0.50400001928E-02 0. -1.
</event>
<event>
 5   0  0.9223454E-04  0.9011227E+03  0.7818609E-02  0.9424179E-01
       -1   -1    0    0    0  501  0.00000000000E+00  0.00000000000E+00  0.71827700326E+03  0.71827700328E+03  0.50400001928E-02 0. -1.
        1   -1    0    0  501    0  0.00000000000E+00  0.00000000000E+00 -0.28262847590E+03  0.28262847594E+03  0.50400001928E-02 0.  1.
    10030    2    1    2    0    0  0.00000000000E+00  0.00000000000E+00  0.43564852736E+03  0.10009054792E+04  0.90112271026E+03 0.  0.
        1    1    3    3  502    0 -0.31728943410E+03 -0.93616372653E+02  0.55758637793E+03  0.64833569939E+03  0.50400001928E-02 0. -1.
       -1    1    3    3    0  502  0.31728943410E+03  0.93616372653E+02 -0.12193785057E+03  0.35256977983E+03  0.50400001928E-02 0.  1.
</event>
<event>
 5   0  0.1704416E-03  0.8990655E+03  0.7818609E-02  0.9426750E-01
        2   -1    0    0  501    0  0.00000000000E+00  0.00000000000E+00  0.62356560036E+03  0.62356560037E+03  0.25500000920E-02 0.  1.
       -2   -1    0    0    0  501  0.00000000000E+00  0.00000000000E+00 -0.32407126601E+03  0.32407126602E+03  0.25500000920E-02 0. -1.
    10030    2    1    2    0    0  0.00000000000E+00  0.00000000000E+00  0.29949433435E+03  0.94763686639E+03  0.89906550052E+03 0.  0.
        3    1    3    3  502    0  0.83845936354E+02  0.86081732497E+02 -0.30682845817E+03  0.32952074086E+03  0.10100000352E+00 0. -1.
       -3    1    3    3    0  502 -0.83845936354E+02 -0.86081732497E+02  0.60632279252E+03  0.61811612553E+03  0.10100000352E+00 0.  1.
</event>
<event>
 5   0  0.1635686E-03  0.9002711E+03  0.7818609E-02  0.9425243E-01
       -2   -1    0    0    0  501  0.00000000000E+00  0.00000000000E+00  0.16344341920E+03  0.16344341922E+03  0.25500000920E-02 0.  1.
        2   -1    0    0  501    0  0.00000000000E+00  0.00000000000E+00 -0.12397072921E+04  0.12397072921E+04  0.25500000920E-02 0. -1.
    10030    2    1    2    0    0  0.00000000000E+00  0.00000000000E+00 -0.10762638729E+04  0.14031507113E+04  0.90027106728E+03 0.  0.
        5    1    3    3  502    0  0.40337948025E+03 -0.18976151433E+03 -0.44110478378E+03  0.62715226036E+03  0.46999998093E+01 0. -1.
       -5    1    3    3    0  502 -0.40337948025E+03  0.18976151433E+03 -0.63515908911E+03  0.77599845096E+03  0.46999998093E+01 0.  1.
</event>
<event>
 5   0  0.1536020E-03  0.8996610E+03  0.7818609E-02  0.9426005E-01
        2   -1    0    0  501    0  0.00000000000E+00  0.00000000000E+00  0.81408953978E+03  0.81408953978E+03  0.25500000920E-02 0. -1.
       -2   -1    0    0    0  501  0.00000000000E+00  0.00000000000E+00 -0.24855677786E+03  0.24855677787E+03  0.25500000920E-02 0.  1.
    10030    2    1    2    0    0  0.00000000000E+00  0.00000000000E+00  0.56553276192E+03  0.10626463177E+04  0.89966098705E+03 0.  0.
        2    1    3    3  502    0 -0.94636650104E+02  0.19053558536E+03  0.75091178233E+03  0.78046678961E+03  0.25500000920E-02 0. -1.
       -2    1    3    3    0  502  0.94636650104E+02 -0.19053558536E+03 -0.18537902041E+03  0.28217952804E+03  0.25500000920E-02 0.  1.
</event>
<event>
 5   0  0.1536020E-03  0.8995692E+03  0.7818609E-02  0.9426120E-01
       -2   -1    0    0    0  501  0.00000000000E+00  0.00000000000E+00  0.28108292117E+03  0.28108292118E+03  0.25500000920E-02 0. -1.
        2   -1    0    0  501    0  0.00000000000E+00  0.00000000000E+00 -0.71973852712E+03  0.71973852712E+03  0.25500000920E-02 0.  1.
    10030    2    1    2    0    0  0.00000000000E+00  0.00000000000E+00 -0.43865560595E+03  0.10008214483E+04  0.89956924734E+03 0.  0.
        2    1    3    3  502    0  0.38249660765E+03 -0.23071165016E+03 -0.16072356453E+03  0.47472474613E+03  0.25500000920E-02 0.  1.
       -2    1    3    3    0  502 -0.38249660765E+03  0.23071165016E+03 -0.27793204142E+03  0.52609670217E+03  0.25500000920E-02 0. -1.
</event>
<event>
 5   0  0.1704416E-03  0.8993181E+03  0.7818609E-02  0.9426434E-01
       -2   -1    0    0    0  501  0.00000000000E+00  0.00000000000E+00  0.24436049793E+03  0.24436049794E+03  0.25500000920E-02 0. -1.
        2   -1    0    0  501    0  0.00000000000E+00  0.00000000000E+00 -0.82743844214E+03  0.82743844215E+03  0.25500000920E-02 0.  1.
    10030    2    1    2    0    0  0.00000000000E+00  0.00000000000E+00 -0.58307794421E+03  0.10717989401E+04  0.89931811889E+03 0.  0.
        3    1    3    3  502    0  0.11383835148E+03 -0.17267025932E+03 -0.76738901916E+03  0.79477047356E+03  0.10100000352E+00 0.  1.
       -3    1    3    3    0  502 -0.11383835148E+03  0.17267025932E+03  0.18431107495E+03  0.27702846653E+03  0.10100000352E+00 0. -1.
</event>
<event>
 5   0  0.1007561E-03  0.9000838E+03  0.7818609E-02  0.9425477E-01
       -1   -1    0    0    0  501  0.00000000000E+00  0.00000000000E+00  0.98843610112E+03  0.98843610114E+03  0.50400001928E-02 0. -1.
        1   -1    0    0  501    0  0.00000000000E+00  0.00000000000E+00 -0.20490722329E+03  0.20490722335E+03  0.50400001928E-02 0.  1.
    10030    2    1    2    0    0  0.00000000000E+00  0.00000000000E+00  0.78352887783E+03  0.11933433245E+04  0.90008376705E+03 0.  0.
        2    1    3    3  502    0 -0.20084102152E+03 -0.33167791719E+03  0.69464928327E+03  0.79554068622E+03  0.25500000920E-02 0. -1.
       -2    1    3    3    0  502  0.20084102152E+03  0.33167791719E+03  0.88879594564E+02  0.39780263827E+03  0.25500000920E-02 0.  1.
</event>
<event>
 5   0  0.1641516E-03  0.8955034E+03  0.7818609E-02  0.9431220E-01
       -2   -1    0    0    0  501  0.00000000000E+00  0.00000000000E+00  0.14922291012E+03  0.14922291015E+03  0.25500000920E-02 0.  1.
        2   -1    0    0  501    0  0.00000000000E+00  0.00000000000E+00 -0.13435040848E+04  0.13435040848E+04  0.25500000920E-02 0. -1.
    10030    2    1    2    0    0  0.00000000000E+00  0.00000000000E+00 -0.11942811746E+04  0.14927269949E+04  0.89550340995E+03 0.  0.
        1    1    3    3  502    0 -0.29695560815E+03 -0.23533290930E+03 -0.99482226755E+03  0.10645353707E+04  0.50400001928E-02 0. -1.
       -1    1    3    3    0  502  0.29695560815E+03  0.23533290930E+03 -0.19945890709E+03  0.42819162423E+03  0.50400001928E-02 0.  1.
</event>
<event>
 5   0  0.9223454E-04  0.9004796E+03  0.7818609E-02  0.9424982E-01
       -1   -1    0    0    0  501  0.00000000000E+00  0.00000000000E+00  0.29466546054E+03  0.29466546058E+03  0.50400001928E-02 0.  1.
        1   -1    0    0  501    0  0.00000000000E+00  0.00000000000E+00 -0.68795260263E+03  0.68795260265E+03  0.50400001928E-02 0. -1.
    10030    2    1    2    0    0  0.00000000000E+00  0.00000000000E+00 -0.39328714210E+03  0.98261806323E+03  0.90047958447E+03 0.  0.
        1    1    3    3  502    0 -0.98871739133E+02  0.26544050653E+03 -0.57854059601E+03  0.64416108588E+03  0.50400001928E-02 0. -1.
       -1    1    3    3    0  502  0.98871739133E+02 -0.26544050653E+03  0.18525345391E+03  0.33845697735E+03  0.50400001928E-02 0.  1.
</event>
<event>
 5   0  0.9321543E-04  0.8996554E+03  0.7818609E-02  0.9426012E-01
        1   -1    0    0  501    0  0.00000000000E+00  0.00000000000E+00  0.52838768566E+03  0.52838768568E+03  0.50400001928E-02 0. -1.
       -1   -1    0    0    0  501  0.00000000000E+00  0.00000000000E+00 -0.38294794194E+03  0.38294794197E+03  0.50400001928E-02 0.  1.
    10030    2    1    2    0    0  0.00000000000E+00  0.00000000000E+00  0.14543974372E+03  0.91133562765E+03  0.89965543803E+03 0.  0.
        3    1    3    3  502    0 -0.17674201446E+03 -0.41224112755E+03  0.10728738175E+03  0.46118443100E+03  0.10100000352E+00 0. -1.
       -3    1    3    3    0  502  0.17674201446E+03  0.41224112755E+03  0.38152361970E+02  0.45015119665E+03  0.10100000352E+00 0.  1.
</event>
<event>
 5   0  0.9981885E-04  0.9040578E+03  0.7818609E-02  0.9420523E-01
        1   -1    0    0  501    0  0.00000000000E+00  0.00000000000E+00  0.24450540468E+04  0.24450540468E+04  0.50400001928E-02 0.  1.
       -1   -1    0    0    0  501  0.00000000000E+00  0.00000000000E+00 -0.83568750532E+02  0.83568750684E+02  0.50400001928E-02 0. -1.
    10030    2    1    2    0    0  0.00000000000E+00  0.00000000000E+00  0.23614852963E+04  0.25286227975E+04  0.90405776778E+03 0.  0.
        4    1    3    3  502    0 -0.43689212827E+03 -0.11411334627E+03  0.11226146700E+04  0.12100255773E+04  0.12699999809E+01 0.  1.
       -4    1    3    3    0  502  0.43689212827E+03  0.11411334627E+03  0.12388706262E+04  0.13185972201E+04  0.12699999809E+01 0. -1.
</event>
<event>
 5   0  0.1630202E-03  0.8998381E+03  0.7818609E-02  0.9425784E-01
        2   -1    0    0  501    0  0.00000000000E+00  0.00000000000E+00  0.79920401885E+03  0.79920401885E+03  0.25500000920E-02 0.  1.
       -2   -1    0    0    0  501  0.00000000000E+00  0.00000000000E+00 -0.25328594297E+03  0.25328594298E+03  0.25500000920E-02 0. -1.
    10030    2    1    2    0    0  0.00000000000E+00  0.00000000000E+00  0.54591807588E+03  0.10524899618E+04  0.89983808221E+03 0.  0.
        4    1    3    3  502    0  0.49908392190E+00  0.15274665008E+03 -0.22202796913E+03  0.26949920254E+03  0.12699999809E+01 0. -1.
       -4    1    3    3    0  502 -0.49908392190E+00 -0.15274665008E+03  0.76794604500E+03  0.78299075929E+03  0.12699999809E+01 0.  1.
</event>
<event>
 5   0  0.9321543E-04  0.9001171E+03  0.7818609E-02  0.9425435E-01
        1   -1    0    0  501    0  0.00000000000E+00  0.00000000000E+00  0.27984342719E+03  0.27984342724E+03  0.50400001928E-02 0. -1.
       -1   -1    0    0    0  501  0.00000000000E+00  0.00000000000E+00 -0.72380725445E+03  0.72380725447E+03  0.50400001928E-02 0.  1.
    10030    2    1    2    0    0  0.00000000000E+00  0.00000000000E+00 -0.44396382726E+03  0.10036506817E+04  0.90011710959E+03 0.  0.
        3    1    3    3  502    0 -0.73442290584E+02  0.24270991550E+03  0.19260675124E+03  0.31843247943E+03  0.10100000352E+00 0. -1.
       -3    1    3    3    0  502  0.73442290584E+02 -0.24270991550E+03 -0.63657057850E+03  0.68521820228E+03  0.10100000352E+00 0.  1.
</event>
<event>
 5   0  0.1635686E-03  0.8984588E+03  0.7818609E-02  0.9427510E-01
       -2   -1    0    0    0  501  0.00000000000E+00  0.00000000000E+00  0.36861683926E+03  0.36861683927E+03  0.25500000920E-02 0. -1.
        2   -1    0    0  501    0  0.00000000000E+00  0.00000000000E+00 -0.54747103753E+03  0.54747103753E+03  0.25500000920E-02 0.  1.
    10030    2    1    2    0    0  0.00000000000E+00  0.00000000000E+00 -0.17885419827E+03  0.91608787680E+03  0.89845877689E+03 0.  0.
        5    1    3    3  502    0  0.32577315681E+03 -0.28414339543E+03  0.35114290428E+02  0.43372885799E+03  0.46999998093E+01 0.  1.
       -5    1    3    3    0  502 -0.32577315681E+03  0.28414339543E+03 -0.21396848870E+03  0.48235901880E+03  0.46999998093E+01 0. -1.
</event>
<event>
 5   0  0.9321543E-04  0.9014934E+03  0.7818609E-02  0.9423716E-01
        1   -1    0    0  501    0  0.00000000000E+00  0.00000000000E+00  0.85786642958E+03  0.85786642959E+03  0.50400001928E-02 0. -1.
       -1   -1    0    0    0  501  0.00000000000E+00  0.00000000000E+00 -0.23683476990E+03  0.23683476995E+03  0.50400001928E-02 0.  1.
    10030    2    1    2    0    0  0.00000000000E+00  0.00000000000E+00  0.62103165968E+03  0.10947011995E+04  0.90149342424E+03 0.  0.
        3    1    3    3  502    0 -0.16176163875E+03  0.24522159126E+03  0.72565003000E+03  0.78285913984E+03  0.10100000352E+00 0. -1.
       -3    1    3    3    0  502  0.16176163875E+03 -0.24522159126E+03 -0.10461837032E+03  0.31184205970E+03  0.10100000352E+00 0.  1.
</event>
<event>
 5   0  0.1641516E-03  0.8910564E+03  0.7818609E-02  0.9436831E-01
       -2   -1    0    0    0  501  0.00000000000E+00  0.00000000000E+00  0.93800436768E+02  0.93800436802E+02  0.25500000920E-02 0. -1.
        2   -1    0    0  501    0  0.00000000000E+00  0.00000000000E+00 -0.21161454484E+04  0.21161454484E+04  0.25500000920E-02 0.  1.
    10030    2    1    2    0    0  0.00000000000E+00  0.00000000000E+00 -0.20223450117E+04  0.22099458852E+04  0.89105637839E+03 0.  0.
        1    1    3    3  502    0  0.30092693628E+03  0.30800337747E+03 -0.12947370265E+04  0.13644658549E+04  0.50400001928E-02 0.  1.
       -1    1    3    3    0  502 -0.30092693628E+03 -0.30800337747E+03 -0.72760798518E+03  0.84548003030E+03  0.50400001928E-02 0. -1.
</event>
<event>
 5   0  0.9321543E-04  0.8991922E+03  0.7818609E-02  0.9426592E-01
        1   -1    0    0  501    0  0.00000000000E+00  0.00000000000E+00  0.11472638416E+04  0.11472638416E+04  0.50400001928E-02 0.  1.
       -1   -1    0    0    0  501  0.00000000000E+00  0.00000000000E+00 -0.17619021883E+03  0.17619021890E+03  0.50400001928E-02 0. -1.
    10030    2    1    2    0    0  0.00000000000E+00  0.00000000000E+00  0.97107362280E+03  0.13234540605E+04  0.89919223164E+03 0.  0.
        3    1    3    3  502    0  0.14477699015E+03  0.31856141726E+03  0.90103735819E+03  0.96659716764E+03  0.10100000352E+00 0.  1.
       -3    1    3    3    0  502 -0.14477699015E+03 -0.31856141726E+03  0.70036264613E+02  0.35685689289E+03  0.10100000352E+00 0. -1.
</event>
<event>
 5   0  0.1635686E-03  0.8994368E+03  0.7818609E-02  0.9426286E-01
       -2   -1    0    0    0  501  0.00000000000E+00  0.00000000000E+00  0.74373531826E+03  0.74373531826E+03  0.25500000920E-02 0. -1.
        2   -1    0    0  501    0  0.00000000000E+00  0.00000000000E+00 -0.27193363273E+03  0.27193363274E+03  0.25500000920E-02 0.  1.
    10030    2    1    2    0    0  0.00000000000E+00  0.00000000000E+00  0.47180168552E+03  0.10156689510E+04  0.89943681689E+03 0.  0.
        5    1    3    3  502    0  0.20138980413E+03 -0.38382035476E+03  0.37116628902E+03  0.57066839937E+03  0.46999998093E+01 0. -1.
       -5    1    3    3    0  502 -0.20138980413E+03  0.38382035476E+03  0.10063539650E+03  0.44500055164E+03  0.46999998093E+01 0.  1.
</event>
<event>
 5   0  0.1704416E-03  0.8993071E+03  0.7818609E-02  0.9426448E-01
        2   -1    0    0  501    0  0.00000000000E+00  0.00000000000E+00  0.58670500558E+03  0.58670500559E+03  0.25500000920E-02 0. -1.
       -2   -1    0    0    0  501  0.00000000000E+00  0.00000000000E+00 -0.34461666287E+03  0.34461666288E+03  0.25500000920E-02 0.  1.
    10030    2    1    2    0    0  0.00000000000E+00  0.00000000000E+00  0.24208834271E+03  0.93132166847E+03  0.89930711355E+03 0.  0.
        3    1    3    3  502    0  0.96647408839E+01  0.20291292911E+03  0.53647466659E+03  0.57364809955E+03  0.10100000352E+00 0. -1.
       -3    1    3    3    0  502 -0.96647408839E+01 -0.20291292911E+03 -0.29438632388E+03  0.35767356892E+03  0.10100000352E+00 0.  1.
</event>
<event>
 5   0  0.6375625E-04  0.9069103E+03  0.7818609E-02  0.9416984E-01
       -3   -1    0    0    0  501  0.00000000000E+00  0.00000000000E+00  0.25460285161E+03  0.25460287164E+03  0.10100000352E+00 0.  1.
        3   -1    0    0  501    0  0.00000000000E+00  0.00000000000E+00 -0.80761691708E+03  0.80761692340E+03  0.10100000352E+00 0. -1.
    10030    2    1    2    0    0  0.00000000000E+00  0.00000000000E+00 -0.55301406547E+03  0.10622197950E+04  0.90691032432E+03 0.  0.
        5    1    3    3  502    0  0.19382009427E+03 -0.64452136975E+02  0.19763880790E+03  0.28425955620E+03  0.46999998093E+01 0.  1.
       -5    1    3    3    0  502 -0.19382009427E+03  0.64452136975E+02 -0.75065287338E+03  0.77796023884E+03  0.46999998093E+01 0. -1.
</event>
<event>
 5   0  0.1704416E-03  0.8998206E+03  0.7818609E-02  0.9425806E-01
        2   -1    0    0  501    0  0.00000000000E+00  0.00000000000E+00  0.53265388518E+03  0.53265388519E+03  0.25500000920E-02 0.  1.
       -2   -1    0    0    0  501  0.00000000000E+00  0.00000000000E+00 -0.38002026787E+03  0.38002026788E+03  0.25500000920E-02 0. -1.
    10030    2    1    2    0    0  0.00000000000E+00  0.00000000000E+00  0.15263361731E+03  0.91267415307E+03  0.89982058687E+03 0.  0.
        3    1    3    3  502    0 -0.20134728967E+03 -0.53571158387E+02  0.48077181714E+03  0.52397724228E+03  0.10100000352E+00 0.  1.
       -3    1    3    3    0  502  0.20134728967E+03  0.53571158387E+02 -0.32813819983E+03  0.38869691079E+03  0.10100000352E+00 0. -1.
</event>
<event>
 5   0  0.9223454E-04  0.9012643E+03  0.7818609E-02  0.9424002E-01
        1   -1    0    0  501    0  0.00000000000E+00  0.00000000000E+00  0.96451211648E+03  0.96451211649E+03  0.50400001928E-02 0.  1.
       -1   -1    0    0    0  501  0.00000000000E+00  0.00000000000E+00 -0.21054100300E+03  0.21054100306E+03  0.50400001928E-02 0. -1.
    10030    2    1    2    0    0  0.00000000000E+00  0.00000000000E+00  0.75397111348E+03  0.11750531196E+04  0.90126433071E+03 0.  0.
        1    1    3    3  502    0 -0.26906945045E+03  0.94605319494E+01  0.84812135640E+03  0.88983015572E+03  0.50400001928E-02 0.  1.
       -1    1    3    3    0  502  0.26906945045E+03 -0.94605319494E+01 -0.94150242917E+02  0.28522296383E+03  0.50400001928E-02 0. -1.
</event>
<event>
 5   0  0.9981885E-04  0.9013160E+03  0.7818609E-02  0.9423938E-01
       -1   -1    0    0    0  501  0.00000000000E+00  0.00000000000E+00  0.12748287494E+03  0.12748287504E+03  0.50400001928E-02 0.  1.
        1   -1    0    0  501    0  0.00000000000E+00  0.00000000000E+00 -0.15930973759E+04  0.15930973759E+04  0.50400001928E-02 0. -1.
    10030    2    1    2    0    0  0.00000000000E+00  0.00000000000E+00 -0.14656145010E+04  0.17205802509E+04  0.90131600147E+03 0.  0.
        4    1    3    3  502    0 -0.23235280499E+02  0.13303011305E+03  0.87945663078E+02  0.16116122918E+03  0.12699999809E+01 0.  1.
       -4    1    3    3    0  502  0.23235280499E+02 -0.13303011305E+03 -0.15535601640E+04  0.15594190218E+04  0.12699999809E+01 0. -1.
</event>
<event>
 5   0  0.9223454E-04  0.9000586E+03  0.7818609E-02  0.9425508E-01
       -1   -1    0    0    0  501  0.00000000000E+00  0.00000000000E+00  0.35984920063E+03  0.35984920066E+03  0.50400001928E-02 0.  1.
        1   -1    0    0  501    0  0.00000000000E+00  0.00000000000E+00 -0.56280902356E+03  0.56280902359E+03  0.50400001928E-02 0. -1.
    10030    2    1    2    0    0  0.00000000000E+00  0.00000000000E+00 -0.20295982294E+03  0.92265822425E+03  0.90005861423E+03 0.  0.
        1    1    3    3  502    0 -0.27369516354E+03 -0.11945646893E+02 -0.46748064440E+03  0.54183936175E+03  0.50400001928E-02 0. -1.
       -1    1    3    3    0  502  0.27369516354E+03  0.11945646893E+02  0.26452082146E+03  0.38081886250E+03  0.50400001928E-02 0.  1.
</event>
<event>
 5   0  0.9697941E-04  0.8923913E+03  0.7818609E-02  0.9435143E-01
       -1   -1    0    0    0  501  0.00000000000E+00  0.00000000000E+00  0.24708334889E+03  0.24708334894E+03  0.50400001928E-02 0. -1.
        1   -1    0    0  501    0  0.00000000000E+00  0.00000000000E+00 -0.80576273203E+03  0.80576273204E+03  0.50400001928E-02 0.  1.
    10030    2    1    2    0    0  0.00000000000E+00  0.00000000000E+00 -0.55867938314E+03  0.10528460810E+04  0.89239129148E+03 0.  0.
        5    1    3    3  502    0 -0.13861601611E+03  0.78504380726E+02 -0.77103761867E+03  0.78733629226E+03  0.46999998093E+01 0.  1.
       -5    1    3    3    0  502  0.13861601611E+03 -0.78504380726E+02  0.21235823553E+03  0.26550978873E+03  0.46999998093E+01 0. -1.
</event>
<event>
 5   0  0.9321543E-04  0.9015701E+03  0.7818609E-02  0.9423621E-01
       -1   -1    0    0    0  501  0.00000000000E+00  0.00000000000E+00  0.19938767697E+03  0.19938767704E+03  0.50400001928E-02 0. -1.
        1   -1    0    0  501    0  0.00000000000E+00  0.00000000000E+00 -0.10191559743E+04  0.10191559743E+04  0.50400001928E-02 0.  1.
    10030    2    1    2    0    0  0.00000000000E+00  0.00000000000E+00 -0.81976829731E+03  0.12185436513E+04  0.90157005770E+03 0.  0.
        3    1    3    3  502    0 -0.15990591790E+03  0.14448385666E+03 -0.94501688212E+03  0.96927932254E+03  0.10100000352E+00 0.  1.
       -3    1    3    3    0  502  0.15990591790E+03 -0.14448385666E+03  0.12524858480E+03  0.24926432880E+03  0.10100000352E+00 0. -1.
</event>
<event>
 5   0  0.9981885E-04  0.8976451E+03  0.7818609E-02  0.9428530E-01
       -1   -1    0    0    0  501  0.00000000000E+00  0.00000000000E+00  0.15239204369E+03  0.15239204377E+03  0.50400001928E-02 0.  1.
        1   -1    0    0  501    0  0.00000000000E+00  0.00000000000E+00 -0.13218647548E+04  0.13218647548E+04  0.50400001928E-02 0. -1.
    10030    2    1    2    0    0  0.00000000000E+00  0.00000000000E+00 -0.11694727111E+04  0.14742567986E+04  0.89764507805E+03 0.  0.
        4    1    3    3  502    0 -0.13120975880E+03 -0.42423691464E+03 -0.69176859964E+03  0.82203307044E+03  0.12699999809E+01 0. -1.
       -4    1    3    3    0  502  0.13120975880E+03  0.42423691464E+03 -0.47770411150E+03  0.65222372817E+03  0.12699999809E+01 0.  1.
</event>
<event>
 5   0  0.1007561E-03  0.8969200E+03  0.7818609E-02  0.9429440E-01
       -1   -1    0    0    0  501  0.00000000000E+00  0.00000000000E+00  0.77049681521E+02  0.77049681686E+02  0.50400001928E-02 0.  1.
        1   -1    0    0  501    0  0.00000000000E+00  0.00000000000E+00 -0.26102168647E+04  0.26102168647E+04  0.50400001928E-02 0. -1.
    10030    2    1    2    0    0  0.00000000000E+00  0.00000000000E+00 -0.25331671832E+04  0.26872665464E+04  0.89692001506E+03 0.  0.
        2    1    3    3  502    0  0.27135055452E+03 -0.35686787666E+03 -0.12323474687E+04  0.13113603961E+04  0.25500000920E-02 0.  1.
       -2    1    3    3    0  502 -0.27135055452E+03  0.35686787666E+03 -0.13008197145E+04  0.13759061503E+04  0.25500000920E-02 0. -1.
</event>
<event>
 5   0  0.1536020E-03  0.8931159E+03  0.7818609E-02  0.9434228E-01
        2   -1    0    0  501    0  0.00000000000E+00  0.00000000000E+00  0.37717267821E+03  0.37717267822E+03  0.25500000920E-02 0. -1.
       -2   -1    0    0    0  501  0.00000000000E+00  0.00000000000E+00 -0.52870740903E+03  0.52870740904E+03  0.25500000920E-02 0.  1.
    10030    2    1    2    0    0  0.00000000000E+00  0.00000000000E+00 -0.15153473082E+03  0.90588008725E+03  0.89311587033E+03 0.  0.
        2    1    3    3  502    0 -0.16355253463E+03  0.10561959873E+03  0.33185813873E+03  0.38475284985E+03  0.25500000920E-02 0. -1.
       -2    1    3    3    0  502  0.16355253463E+03 -0.10561959873E+03 -0.48339286955E+03  0.52112723740E+03  0.25500000920E-02 0.  1.
</event>
<event>
 5   0  0.9697941E-04  0.9001685E+03  0.7818609E-02  0.9425371E-01
       -1   -1    0    0    0  501  0.00000000000E+00  0.00000000000E+00  0.18087613243E+03  0.18087613250E+03  0.50400001928E-02 0. -1.
        1   -1    0    0  501    0  0.00000000000E+00  0.00000000000E+00 -0.11199699045E+04  0.11199699045E+04  0.50400001928E-02 0.  1.
    10030    2    1    2    0    0  0.00000000000E+00  0.00000000000E+00 -0.93909377210E+03  0.13008460370E+04  0.90016848383E+03 0.  0.
        5    1    3    3  502    0  0.84981090905E+02  0.41394673946E+03 -0.69332989019E+03  0.81197420868E+03  0.46999998093E+01 0. -1.
       -5    1    3    3    0  502 -0.84981090905E+02 -0.41394673946E+03 -0.24576388191E+03  0.48887182836E+03  0.46999998093E+01 0.  1.
</event>
<event>
 5   0  0.9321543E-04  0.9010218E+03  0.7818609E-02  0.9424305E-01
       -1   -1    0    0    0  501  0.00000000000E+00  0.00000000000E+00  0.31328836067E+03  0.31328836072E+03  0.50400001928E-02 0.  1.
        1   -1    0    0  501    0  0.00000000000E+00  0.00000000000E+00 -0.64783787245E+03  0.64783787247E+03  0.50400001928E-02 0. -1.
    10030    2    1    2    0    0  0.00000000000E+00  0.00000000000E+00 -0.33454951178E+03  0.96112623319E+03  0.90102178680E+03 0.  0.
        3    1    3    3  502    0  0.12972393302E+03 -0.42834456420E+03 -0.11233478550E+03  0.46143957211E+03  0.10100000352E+00 0.  1.
       -3    1    3    3    0  502 -0.12972393302E+03  0.42834456420E+03 -0.22221472628E+03  0.49968666108E+03  0.10100000352E+00 0. -1.
</event>
<event>
 5   0  0.1536020E-03  0.8987053E+03  0.7818609E-02  0.9427201E-01
       -2   -1    0    0    0  501  0.00000000000E+00  0.00000000000E+00  0.41904860805E+03  0.41904860806E+03  0.25500000920E-02 0.  1.
        2   -1    0    0  501    0  0.00000000000E+00  0.00000000000E+00 -0.48184821886E+03  0.48184821887E+03  0.25500000920E-02 0. -1.
    10030    2    1    2    0    0  0.00000000000E+00  0.00000000000E+00 -0.62799610810E+02  0.90089682693E+03  0.89870534752E+03 0.  0.
        2    1    3    3  502    0 -0.41036625642E+02 -0.32999520362E+03 -0.33435686043E+03  0.47156690848E+03  0.25500000920E-02 0. -1.
       -2    1    3    3    0  502  0.41036625642E+02  0.32999520362E+03  0.27155724962E+03  0.42932991845E+03  0.25500000920E-02 0.  1.
</event>
<event>
 5   0  0.1007561E-03  0.8998845E+03  0.7818609E-02  0.9425726E-01
        1   -1    0    0  501    0  0.00000000000E+00  0.00000000000E+00  0.66999225474E+03  0.66999225476E+03  0.50400001928E-02 0.  1.
       -1   -1    0    0    0  501  0.00000000000E+00  0.00000000000E+00 -0.30216475666E+03  0.30216475670E+03  0.50400001928E-02 0. -1.
    10030    2    1    2    0    0  0.00000000000E+00  0.00000000000E+00  0.36782749808E+03  0.97215701146E+03  0.89988454069E+03 0.  0.
        2    1    3    3  502    0  0.40082475961E+03 -0.20439590022E+03  0.18730852846E+03  0.48736296205E+03  0.25500000920E-02 0. -1.
       -2    1    3    3    0  502 -0.40082475961E+03  0.20439590022E+03  0.18051896962E+03  0.48479404940E+03  0.25500000920E-02 0.  1.
</event>
<event>
 5   0  0.9321543E-04  0.9009030E+03  0.7818609E-02  0.9424453E-01
       -1   -1    0    0    0  501  0.00000000000E+00  0.00000000000E+00  0.15557920831E+03  0.15557920840E+03  0.50400001928E-02 0. -1.
        1   -1    0    0  501    0  0.00000000000E+00  0.00000000000E+00 -0.13042010993E+04  0.13042010993E+04  0.50400001928E-02 0.  1.
    10030    2    1    2    0    0  0.00000000000E+00  0.00000000000E+00 -0.11486218909E+04  0.14597803077E+04  0.90090304600E+03 0.  0.
        3    1    3    3  502    0  0.33403402671E+03 -0.16432148810E+03 -0.16334704908E+03  0.40652496983E+03  0.10100000352E+00 0. -1.
       -3    1    3    3    0  502 -0.33403402671E+03  0.16432148810E+03 -0.98527484187E+03  0.10532553378E+04  0.10100000352E+00 0.  1.
</event>
<event>
 5   0  0.1641516E-03  0.9023739E+03  0.7818609E-02  0.9422619E-01
        2   -1    0    0  501    0  0.00000000000E+00  0.00000000000E+00  0.13031309691E+04  0.13031309691E+04  0.25500000920E-02 0. -1.
       -2   -1    0    0    0  501  0.00000000000E+00  0.00000000000E+00 -0.15621580397E+03  0.15621580399E+03  0.25500000920E-02 0.  1.
    10030    2    1    2    0    0  0.00000000000E+00  0.00000000000E+00  0.11469151651E+04  0.14593467731E+04  0.90237387383E+03 0.  0.
        1    1    3    3  502    0  0.62541549382E+02 -0.14204212206E+03 -0.11168779569E+03  0.19121080924E+03  0.50400001928E-02 0.  1.
       -1    1    3    3    0  502 -0.62541549382E+02  0.14204212206E+03  0.12586029608E+04  0.12681359639E+04  0.50400001928E-02 0. -1.
</event>
<event>
 5   0  0.1536020E-03  0.8983010E+03  0.7818609E-02  0.9427708E-01
       -2   -1    0    0    0  501  0.00000000000E+00  0.00000000000E+00  0.12944622370E+03  0.12944622372E+03  0.25500000920E-02 0.  1.
        2   -1    0    0  501    0  0.00000000000E+00  0.00000000000E+00 -0.15584554856E+04  0.15584554856E+04  0.25500000920E-02 0. -1.
    10030    2    1    2    0    0  0.00000000000E+00  0.00000000000E+00 -0.14290092619E+04  0.16879017093E+04  0.89830101287E+03 0.  0.
        2    1    3    3  502    0 -0.36790156610E+02 -0.44622395152E+03 -0.78138325493E+03  0.90057155275E+03  0.25500000920E-02 0.  1.
       -2    1    3    3    0  502  0.36790156610E+02  0.44622395152E+03 -0.64762600698E+03  0.78733015658E+03  0.25500000920E-02 0. -1.
</event>
<event>
 5   0  0.1630202E-03  0.9004025E+03  0.7818609E-02  0.9425078E-01
       -2   -1    0    0    0  501  0.00000000000E+00  0.00000000000E+00  0.19000736817E+03  0.19000736819E+03  0.25500000920E-02 0.  1.
        2   -1    0    0  501    0  0.00000000000E+00  0.00000000000E+00 -0.10667016400E+04  0.10667016400E+04  0.25500000920E-02 0. -1.
    10030    2    1    2    0    0  0.00000000000E+00  0.00000000000E+00 -0.87669427179E+03  0.12567090081E+04  0.90040251276E+03 0.  0.
        4    1    3    3  502    0  0.17196180734E+03 -0.35482114305E+03 -0.74160915848E+03  0.83991348577E+03  0.12699999809E+01 0. -1.
       -4    1    3    3    0  502 -0.17196180734E+03  0.35482114305E+03 -0.13508511330E+03  0.41679552238E+03  0.12699999809E+01 0.  1.
</event>
<event>
 5   0  0.1635686E-03  0.8999442E+03  0.7818609E-02  0.9425651E-01
        2   -1    0    0  501    0  0.00000000000E+00  0.00000000000E+00  0.19153550507E+04  0.19153550507E+04  0.25500000920E-02 0. -1.
       -2   -1    0    0    0  501  0.00000000000E+00  0.00000000000E+00 -0.10571142444E+03  0.10571142447E+03  0.25500000920E-02 0.  1.
    10030    2    1    2    0    0  0.00000000000E+00  0.00000000000E+00  0.18096436263E+04  0.20210664752E+04  0.89994424440E+03 0.  0.
        5    1    3    3  502    0 -0.19894293868E+03 -0.38130188594E+03  0.12017681262E+04  0.12764161313E+04  0.46999998093E+01 0. -1.
       -5    1    3    3    0  502  0.19894293868E+03  0.38130188594E+03  0.60787550003E+03  0.74465034386E+03  0.46999998093E+01 0.  1.
</event>
<event>
 5   0  0.1630202E-03  0.9004727E+03  0.7818609E-02  0.9424991E-01
       -2   -1    0    0    0  501  0.00000000000E+00  0.00000000000E+00  0.12561311756E+03  0.12561311758E+03  0.25500000920E-02 0. -1.
        2   -1    0    0  501    0  0.00000000000E+00  0.00000000000E+00 -0.16137867495E+04  0.16137867495E+04  0.25500000920E-02 0.  1.
    10030    2    1    2    0    0  0.00000000000E+00  0.00000000000E+00 -0.14881736320E+04  0.17393998671E+04  0.90047273075E+03 0.  0.
        4    1    3    3  502    0  0.23485840776E+03 -0.10153299060E+03 -0.28478863599E+02  0.25744917644E+03  0.12699999809E+01 0. -1.
       -4    1    3    3    0  502 -0.23485840776E+03  0.10153299060E+03 -0.14596947684E+04  0.14819506907E+04  0.12699999809E+01 0.  1.
</event>
<event>
 5   0  0.1641516E-03  0.9002799E+03  0.7818609E-02  0.9425232E-01
       -2   -1    0    0    0  501  0.00000000000E+00  0.00000000000E+00  0.14054930508E+03  0.14054930510E+03  0.25500000920E-02 0.  1.
        2   -1    0    0  501    0  0.00000000000E+00  0.00000000000E+00 -0.14416718832E+04  0.14416718832E+04  0.25500000920E-02 0. -1.
    10030    2    1    2    0    0  0.00000000000E+00  0.00000000000E+00 -0.13011225781E+04  0.15822211883E+04  0.90027991502E+03 0.  0.
        1    1    3    3  502    0  0.14672377698E+03  0.18803333443E+03 -0.13214977153E+04  0.13428479487E+04  0.50400001928E-02 0. -1.
       -1    1    3    3    0  502 -0.14672377698E+03 -0.18803333443E+03  0.20375137253E+02  0.23937323959E+03  0.50400001928E-02 0.  1.
</event>
<event>
 5   0  0.1007561E-03  0.8989544E+03  0.7818609E-02  0.9426889E-01
       -1   -1    0    0    0  501  0.00000000000E+00  0.00000000000E+00  0.21628001762E+03  0.21628001768E+03  0.50400001928E-02 0.  1.
        1   -1    0    0  501    0  0.00000000000E+00  0.00000000000E+00 -0.93411199508E+03  0.93411199509E+03  0.50400001928E-02 0. -1.
    10030    2    1    2    0    0  0.00000000000E+00  0.00000000000E+00 -0.71783197745E+03  0.11503920128E+04  0.89895441219E+03 0.  0.
        2    1    3    3  502    0 -0.41020098972E+03 -0.69797254133E+02 -0.14139238575E+03  0.43946366790E+03  0.25500000920E-02 0.  1.
       -2    1    3    3    0  502  0.41020098972E+03  0.69797254133E+02 -0.57643959170E+03  0.71092834487E+03  0.25500000920E-02 0. -1.
</event>
<event>
 5   0  0.1536020E-03  0.9066432E+03  0.7818609E-02  0.9417315E-01
       -2   -1    0    0    0  501  0.00000000000E+00  0.00000000000E+00  0.19411773147E+03  0.19411773149E+03  0.25500000920E-02 0. -1.
        2   -1    0    0  501    0  0.00000000000E+00  0.00000000000E+00 -0.10586384452E+04  0.10586384452E+04  0.25500000920E-02 0.  1.
    10030    2    1    2    0    0  0.00000000000E+00  0.00000000000E+00 -0.86452071373E+03  0.12527561767E+04  0.90664324504E+03 0.  0.
        2    1    3    3  502    0 -0.96350977856E+02 -0.43683764971E+03 -0.53370251357E+03  0.69638280861E+03  0.25500000920E-02 0.  1.
       -2    1    3    3    0  502  0.96350977856E+02  0.43683764971E+03 -0.33081820017E+03  0.55637336808E+03  0.25500000920E-02 0. -1.
</event>
<event>
 5   0  0.1704416E-03  0.8978039E+03  0.7818609E-02  0.9428331E-01
        2   -1    0    0  501    0  0.00000000000E+00  0.00000000000E+00  0.89817015968E+03  0.89817015968E+03  0.25500000920E-02 0. -1.
       -2   -1    0    0    0  501  0.00000000000E+00  0.00000000000E+00 -0.22435943587E+03  0.22435943588E+03  0.25500000920E-02 0.  1.
    10030    2    1    2    0    0  0.00000000000E+00  0.00000000000E+00  0.67381072381E+03  0.11225295956E+04  0.89780387691E+03 0.  0.
        3    1    3    3  502    0 -0.32007115624E+03  0.11822344653E+03  0.70162331906E+03  0.78019075900E+03  0.10100000352E+00 0. -1.
       -3    1    3    3    0  502  0.32007115624E+03 -0.11822344653E+03 -0.27812595255E+02  0.34233883657E+03  0.10100000352E+00 0.  1.
</event>
<event>
 5   0  0.6375625E-04  0.9002127E+03  0.7818609E-02  0.9425316E-01
        4   -1    0    0  501    0  0.00000000000E+00  0.00000000000E+00  0.47461520549E+03  0.47461690465E+03  0.12699999809E+01 0.  1.
       -4   -1    0    0    0  501  0.00000000000E+00  0.00000000000E+00 -0.42685972591E+03  0.42686161517E+03  0.12699999809E+01 0. -1.
    10030    2    1    2    0    0  0.00000000000E+00  0.00000000000E+00  0.47755479582E+02  0.90147851982E+03  0.90021271701E+03 0.  0.
        2    1    3    3  502    0 -0.44117158674E+03  0.57964083348E+02  0.91822462491E+02  0.45433860559E+03  0.25500000920E-02 0.  1.
       -2    1    3    3    0  502  0.44117158674E+03 -0.57964083348E+02 -0.44066982909E+02  0.44713991423E+03  0.25500000920E-02 0. -1.
</event>
<event>
 5   0  0.1641516E-03  0.8987738E+03  0.7818609E-02  0.9427116E-01
       -2   -1    0    0    0  501  0.00000000000E+00  0.00000000000E+00  0.31756415273E+03  0.31756415274E+03  0.25500000920E-02 0.  1.
        2   -1    0    0  501    0  0.00000000000E+00  0.00000000000E+00 -0.63593007832E+03  0.63593007832E+03  0.25500000920E-02 0. -1.
    10030    2    1    2    0    0  0.00000000000E+00  0.00000000000E+00 -0.31836592558E+03  0.95349423107E+03  0.89877382367E+03 0.  0.
        1    1    3    3  502    0  0.40995067254E+03 -0.17623723926E+03 -0.21561436236E+03  0.49558921669E+03  0.50400001928E-02 0.  1.
       -1    1    3    3    0  502 -0.40995067254E+03  0.17623723926E+03 -0.10275156322E+03  0.45790501438E+03  0.50400001928E-02 0. -1.
</event>
<event>
 5   0  0.9223454E-04  0.9010896E+03  0.7818609E-02  0.9424220E-01
       -1   -1    0    0    0  501  0.00000000000E+00  0.00000000000E+00  0.24905121902E+03  0.24905121907E+03  0.50400001928E-02 0. -1.
        1   -1    0    0  501    0  0.00000000000E+00  0.00000000000E+00 -0.81505566289E+03  0.81505566290E+03  0.50400001928E-02 0.  1.
    10030    2    1    2    0    0  0.00000000000E+00  0.00000000000E+00 -0.56600444387E+03  0.10641068820E+04  0.90108957700E+03 0.  0.
        1    1    3    3  502    0  0.93661720966E+02  0.42144038762E+03 -0.43517990058E+03  0.61299760536E+03  0.50400001928E-02 0.  1.
       -1    1    3    3    0  502 -0.93661720966E+02 -0.42144038762E+03 -0.13082454329E+03  0.45110927661E+03  0.50400001928E-02 0. -1.
</event>
<event>
 5   0  0.1536020E-03  0.9005994E+03  0.7818609E-02  0.9424832E-01
       -2   -1    0    0    0  501  0.00000000000E+00  0.00000000000E+00  0.21699293698E+03  0.21699293699E+03  0.25500000920E-02 0.  1.
        2   -1    0    0  501    0  0.00000000000E+00  0.00000000000E+00 -0.93445361159E+03  0.93445361160E+03  0.25500000920E-02 0. -1.
    10030    2    1    2    0    0  0.00000000000E+00  0.00000000000E+00 -0.71746067462E+03  0.11514465486E+04  0.90059943074E+03 0.  0.
        2    1    3    3  502    0  0.42996801930E+03 -0.80869298834E+02 -0.22247505611E+03  0.49082327951E+03  0.25500000920E-02 0.  1.
       -2    1    3    3    0  502 -0.42996801930E+03  0.80869298834E+02 -0.49498561850E+03  0.66062326908E+03  0.25500000920E-02 0. -1.
</event>
<event>
 5   0  0.9321543E-04  0.8992916E+03  0.7818609E-02  0.9426467E-01
        1   -1    0    0  501    0  0.00000000000E+00  0.00000000000E+00  0.63470387030E+03  0.63470387032E+03  0.50400001928E-02 0. -1.
       -1   -1    0    0    0  501  0.00000000000E+00  0.00000000000E+00 -0.31854434543E+03  0.31854434546E+03  0.50400001928E-02 0.  1.
    10030    2    1    2    0    0  0.00000000000E+00  0.00000000000E+00  0.31615952487E+03  0.95324821578E+03  0.89929156324E+03 0.  0.
        3    1    3    3  502    0 -0.40806946443E+02  0.28517389170E+03  0.52403584400E+03  0.59799910651E+03  0.10100000352E+00 0. -1.
       -3    1    3    3    0  502  0.40806946443E+02 -0.28517389170E+03 -0.20787631913E+03  0.35524910927E+03  0.10100000352E+00 0.  1.
</event>
<event>
 5   0  0.1635686E-03  0.8790042E+03  0.7818609E-02  0.9452214E-01
        2   -1    0    0  501    0  0.00000000000E+00  0.00000000000E+00  0.13703987232E+04  0.13703987232E+04  0.25500000920E-02 0. -1.
       -2   -1    0    0    0  501  0.00000000000E+00  0.00000000000E+00 -0.14095322352E+03  0.14095322354E+03  0.25500000920E-02 0.  1.
    10030    2    1    2    0    0  0.00000000000E+00  0.00000000000E+00  0.12294454996E+04  0.15113519467E+04  0.87900424927E+03 0.  0.
        5    1    3    3  502    0  0.36650585248E+03 -0.23929483148E+03  0.54699814081E+03  0.70058376538E+03  0.46999998093E+01 0.  1.
       -5    1    3    3    0  502 -0.36650585248E+03  0.23929483148E+03  0.68244735883E+03  0.81076818132E+03  0.46999998093E+01 0. -1.
</event>
<event>
 5   0  0.1007561E-03  0.9191121E+03  0.7818609E-02  0.9402001E-01
       -1   -1    0    0    0  501  0.00000000000E+00  0.00000000000E+00  0.28555174189E+03  0.28555174193E+03  0.50400001928E-02 0.  1.
        1   -1    0    0  501    0  0.00000000000E+00  0.00000000000E+00 -0.73959188224E+03  0.73959188226E+03  0.50400001928E-02 0. -1.
    10030    2    1    2    0    0  0.00000000000E+00  0.00000000000E+00 -0.45404014035E+03  0.10251436242E+04  0.91911207215E+03 0.  0.
        2    1    3    3  502    0  0.21354251783E+03  0.40246883283E+03 -0.29403642328E+03  0.54225361829E+03  0.25500000920E-02 0.  1.
       -2    1    3    3    0  502 -0.21354251783E+03 -0.40246883283E+03 -0.16000371707E+03  0.48289000590E+03  0.25500000920E-02 0. -1.
</event>
<event>
 5   0  0.1630202E-03  0.9000111E+03  0.7818609E-02  0.9425568E-01
        2   -1    0    0  501    0  0.00000000000E+00  0.00000000000E+00  0.22110102204E+04  0.22110102204E+04  0.25500000920E-02 0. -1.
       -2   -1    0    0    0  501  0.00000000000E+00  0.00000000000E+00 -0.91589348550E+02  0.91589348586E+02  0.25500000920E-02 0.  1.
    10030    2    1    2    0    0  0.00000000000E+00  0.00000000000E+00  0.21194208718E+04  0.23025995690E+04  0.90001107941E+03 0.  0.
        4    1    3    3  502    0 -0.27294977347E+03 -0.16566331889E+03  0.24841747458E+03  0.40454760985E+03  0.12699999809E+01 0.  1.
       -4    1    3    3    0  502  0.27294977347E+03  0.16566331889E+03  0.18710033973E+04  0.18980519591E+04  0.12699999809E+01 0. -1.
</event>
<event>
 5   0  0.9223454E-04  0.8976853E+03  0.7818609E-02  0.9428480E-01
        1   -1    0    0  501    0  0.00000000000E+00  0.00000000000E+00  0.31991280860E+03  0.31991280864E+03  0.50400001928E-02 0. -1.
       -1   -1    0    0    0  501  0.00000000000E+00  0.00000000000E+00 -0.62973321285E+03  0.62973321287E+03  0.50400001928E-02 0.  1.
    10030    2    1    2    0    0  0.00000000000E+00  0.00000000000E+00 -0.30982040425E+03  0.94964602151E+03  0.89768529190E+03 0.  0.
        1    1    3    3  502    0  0.20596851707E+03  0.38859988790E+03 -0.60131807399E+02  0.44390172019E+03  0.50400001928E-02 0. -1.
       -1    1    3    3    0  502 -0.20596851707E+03 -0.38859988790E+03 -0.24968859685E+03  0.50574430132E+03  0.50400001928E-02 0.  1.
</event>
<event>
 5   0  0.1641516E-03  0.9005569E+03  0.7818609E-02  0.9424886E-01
       -2   -1    0    0    0  501  0.00000000000E+00  0.00000000000E+00  0.57497811773E+03  0.57497811773E+03  0.25500000920E-02 0. -1.
        2   -1    0    0  501    0  0.00000000000E+00  0.00000000000E+00 -0.35262328910E+03  0.35262328911E+03  0.25500000920E-02 0.  1.
    10030    2    1    2    0    0  0.00000000000E+00  0.00000000000E+00  0.22235482863E+03  0.92760140684E+03  0.90055688336E+03 0.  0.
        1    1    3    3  502    0  0.37552977437E+03 -0.12108504789E+03  0.33464065062E+03  0.51736695423E+03  0.50400001928E-02 0. -1.
       -1    1    3    3    0  502 -0.37552977437E+03  0.12108504789E+03 -0.11228582200E+03  0.41023445261E+03  0.50400001928E-02 0.  1.
</event>
<event>
 5   0  0.9981885E-04  0.9007343E+03  0.7818609E-02  0.9424664E-01
       -1   -1    0    0    0  501  0.00000000000E+00  0.00000000000E+00  0.27968461620E+03  0.27968461624E+03  0.50400001928E-02 0.  1.
        1   -1    0    0  501    0  0.00000000000E+00  0.00000000000E+00 -0.72521167506E+03  0.72521167508E+03  0.50400001928E-02 0. -1.
    10030    2    1    2    0    0  0.00000000000E+00  0.00000000000E+00 -0.44552705887E+03  0.10048962913E+04  0.90073425389E+03 0.  0.
        4    1    3    3  502    0 -0.25240714515E+03  0.37033154941E+02 -0.63682745611E+03  0.68602597854E+03  0.12699999809E+01 0. -1.
       -4    1    3    3    0  502  0.25240714515E+03 -0.37033154941E+02  0.19130039724E+03  0.31887031278E+03  0.12699999809E+01 0.  1.
</event>
<event>
 5   0  0.6375625E-04  0.8987809E+03  0.7818609E-02  0.9427107E-01
       -3   -1    0    0    0  501  0.00000000000E+00  0.00000000000E+00  0.12866121230E+03  0.12866125194E+03  0.10100000352E+00 0. -1.
        3   -1    0    0  501    0  0.00000000000E+00  0.00000000000E+00 -0.15696396104E+04  0.15696396137E+04  0.10100000352E+00 0.  1.
    10030    2    1    2    0    0  0.00000000000E+00  0.00000000000E+00 -0.14409783981E+04  0.16983008656E+04  0.89878088891E+03 0.  0.
        4    1    3    3  502    0 -0.29086024575E+03 -0.20943499046E+03 -0.12327220442E+04  0.12837709878E+04  0.12699999809E+01 0.  1.
       -4    1    3    3    0  502  0.29086024575E+03  0.20943499046E+03 -0.20825635389E+03  0.41452987784E+03  0.12699999809E+01 0. -1.
</event>
<event>
 5   0  0.1704416E-03  0.8947585E+03  0.7818609E-02  0.9432157E-01
        2   -1    0    0  501    0  0.00000000000E+00  0.00000000000E+00  0.83654461951E+03  0.83654461951E+03  0.25500000920E-02 0.  1.
       -2   -1    0    0    0  501  0.00000000000E+00  0.00000000000E+00 -0.23925586092E+03  0.23925586093E+03  0.25500000920E-02 0. -1.
    10030    2    1    2    0    0  0.00000000000E+00  0.00000000000E+00  0.59728875859E+03  0.10758004804E+04  0.89475852194E+03 0.  0.
        3    1    3    3  502    0  0.17961603054E+03  0.30209299708E+03  0.63146807531E+03  0.72268529641E+03  0.10100000352E+00 0.  1.
       -3    1    3    3    0  502 -0.17961603054E+03 -0.30209299708E+03 -0.34179316719E+02  0.35311518404E+03  0.10100000352E+00 0. -1.
</event>
<event>
 5   0  0.9321543E-04  0.8983226E+03  0.7818609E-02  0.9427681E-01
        1   -1    0    0  501    0  0.00000000000E+00  0.00000000000E+00  0.10445680227E+04  0.10445680227E+04  0.50400001928E-02 0. -1.
       -1   -1    0    0    0  501  0.00000000000E+00  0.00000000000E+00 -0.19313810191E+03  0.19313810198E+03  0.50400001928E-02 0.  1.
    10030    2    1    2    0    0  0.00000000000E+00  0.00000000000E+00  0.85142992076E+03  0.12377061247E+04  0.89832262638E+03 0.  0.
        3    1    3    3  502    0 -0.28662431339E+03 -0.28633107173E+03  0.69290418678E+03  0.80265509524E+03  0.10100000352E+00 0. -1.
       -3    1    3    3    0  502  0.28662431339E+03  0.28633107173E+03  0.15852573398E+03  0.43505102942E+03  0.10100000352E+00 0.  1.
</event>
<event>
 5   0  0.1641516E-03  0.8958032E+03  0.7818609E-02  0.9430843E-01
        2   -1    0    0  501    0  0.00000000000E+00  0.00000000000E+00  0.10775890266E+04  0.10775890266E+04  0.25500000920E-02 0. -1.
       -2   -1    0    0    0  501  0.00000000000E+00  0.00000000000E+00 -0.18617102391E+03  0.18617102393E+03  0.25500000920E-02 0.  1.
    10030    2    1    2    0    0  0.00000000000E+00  0.00000000000E+00  0.89141800271E+03  0.12637600506E+04  0.89580322048E+03 0.  0.
        1    1    3    3  502    0  0.11274812844E+03 -0.11846631373E+03  0.10339613047E+04  0.10468153550E+04  0.50400001928E-02 0. -1.
       -1    1    3    3    0  502 -0.11274812844E+03  0.11846631373E+03 -0.14254330196E+03  0.21694469552E+03  0.50400001928E-02 0.  1.
</event>
<event>
 5   0  0.9981885E-04  0.8993309E+03  0.7818609E-02  0.9426418E-01
       -1   -1    0    0    0  501  0.00000000000E+00  0.00000000000E+00  0.71388858987E+03  0.71388858989E+03  0.50400001928E-02 0.  1.
        1   -1    0    0  501    0  0.00000000000E+00  0.00000000000E+00 -0.28323609714E+03  0.28323609718E+03  0.50400001928E-02 0. -1.
    10030    2    1    2    0    0  0.00000000000E+00  0.00000000000E+00  0.43065249273E+03  0.99712468708E+03  0.89933090244E+03 0.  0.
        4    1    3    3  502    0 -0.27053675104E+03  0.35049343608E+03  0.12829453902E+03  0.46097384312E+03  0.12699999809E+01 0. -1.
       -4    1    3    3    0  502  0.27053675104E+03 -0.35049343608E+03  0.30235795372E+03  0.53615084396E+03  0.12699999809E+01 0.  1.
</event>
<event>
 5   0  0.1704416E-03  0.9016170E+03  0.7818609E-02  0.9423562E-01
       -2   -1    0    0    0  501  0.00000000000E+00  0.00000000000E+00  0.21710546458E+03  0.21710546460E+03  0.25500000920E-02 0. -1.
        2   -1    0    0  501    0  0.00000000000E+00  0.00000000000E+00 -0.93608109199E+03  0.93608109200E+03  0.25500000920E-02 0.  1.
    10030    2    1    2    0    0  0.00000000000E+00  0.00000000000E+00 -0.71897562741E+03  0.11531865566E+04  0.90161703705E+03 0.  0.
        3    1    3    3  502    0 -0.33433252472E+03  0.75704018848E+02 -0.73395687754E+03  0.81006298758E+03  0.10100000352E+00 0.  1.
       -3    1    3    3    0  502  0.33433252472E+03 -0.75704018848E+02  0.14981250133E+02  0.34312356901E+03  0.10100000352E+00 0. -1.
</event>
<event>
 5   0  0.9981885E-04  0.8944799E+03  0.7818609E-02  0.9432508E-01
        1   -1    0    0  501    0  0.00000000000E+00  0.00000000000E+00  0.46185214275E+03  0.46185214278E+03  0.50400001928E-02 0.  1.
       -1   -1    0    0    0  501  0.00000000000E+00  0.00000000000E+00 -0.43309007412E+03  0.43309007415E+03  0.50400001928E-02 0. -1.
    10030    2    1    2    0    0  0.00000000000E+00  0.00000000000E+00  0.28762068625E+02  0.89494221693E+03  0.89447991316E+03 0.  0.
        4    1    3    3  502    0 -0.39289200256E+03  0.21060907456E+03 -0.21716108936E+02  0.44631100171E+03  0.12699999809E+01 0. -1.
       -4    1    3    3    0  502  0.39289200256E+03 -0.21060907456E+03  0.50478177561E+02  0.44863121522E+03  0.12699999809E+01 0.  1.
</event>
<event>
 5   0  0.9697941E-04  0.8996566E+03  0.7818609E-02  0.9426011E-01
       -1   -1    0    0    0  501  0.00000000000E+00  0.00000000000E+00  0.70209727798E+03  0.70209727800E+03  0.50400001928E-02 0.  1.
        1   -1    0    0  501    0  0.00000000000E+00  0.00000000000E+00 -0.28820150072E+03  0.28820150076E+03  0.50400001928E-02 0. -1.
    10030    2    1    2    0    0  0.00000000000E+00  0.00000000000E+00  0.41389577726E+03  0.99029877876E+03  0.89965657713E+03 0.  0.
        5    1    3    3  502    0 -0.11774456637E+03 -0.33403702823E+03 -0.98258069981E+02  0.36758843487E+03  0.46999998093E+01 0. -1.
       -5    1    3    3    0  502  0.11774456637E+03  0.33403702823E+03  0.51215384724E+03  0.62271034388E+03  0.46999998093E+01 0.  1.
</event>
<event>
 5   0  0.9981885E-04  0.9109774E+03  0.7818609E-02  0.9411962E-01
        1   -1    0    0  501    0  0.00000000000E+00  0.00000000000E+00  0.50015919370E+03  0.50015919373E+03  0.50400001928E-02 0.  1.
       -1   -1    0    0    0  501  0.00000000000E+00  0.00000000000E+00 -0.41480784751E+03  0.41480784754E+03  0.50400001928E-02 0. -1.
    10030    2    1    2    0    0  0.00000000000E+00  0.00000000000E+00  0.85351346196E+02  0.91496704126E+03  0.91097740603E+03 0.  0.
        4    1    3    3  502    0  0.30047848169E+03 -0.10418694164E+03 -0.28482922901E+03  0.42693271058E+03  0.12699999809E+01 0. -1.
       -4    1    3    3    0  502 -0.30047848169E+03  0.10418694164E+03  0.37018057520E+03  0.48803433068E+03  0.12699999809E+01 0.  1.
</event>
<event>
 5   0  0.9321543E-04  0.9027533E+03  0.7818609E-02  0.9422146E-01
       -1   -1    0    0    0  501  0.00000000000E+00  0.00000000000E+00  0.40191693730E+03  0.40191693734E+03  0.50400001928E-02 0. -1.
        1   -1    0    0  501    0  0.00000000000E+00  0.00000000000E+00 -0.50692284926E+03  0.50692284929E+03  0.50400001928E-02 0.  1.
    10030    2    1    2    0    0  0.00000000000E+00  0.00000000000E+00 -0.10500591196E+03  0.90883978663E+03  0.90275329753E+03 0.  0.
        3    1    3    3  502    0 -0.31618254582E+03  0.21744365331E+03 -0.29177683300E+03  0.48206521874E+03  0.10100000352E+00 0.  1.
       -3    1    3    3    0  502  0.31618254582E+03 -0.21744365331E+03  0.18677092104E+03  0.42677456788E+03  0.10100000352E+00 0. -1.
</event>
<event>
 5   0  0.1536020E-03  0.9000965E+03  0.7818609E-02  0.9425461E-01
        2   -1    0    0  501    0  0.00000000000E+00  0.00000000000E+00  0.11294114338E+04  0.11294114338E+04  0.25500000920E-02 0.  1.
       -2   -1    0    0    0  501  0.00000000000E+00  0.00000000000E+00 -0.17933536336E+03  0.17933536338E+03  0.25500000920E-02 0. -1.
    10030    2    1    2    0    0  0.00000000000E+00  0.00000000000E+00  0.95007607048E+03  0.13087467972E+04  0.90009646123E+03 0.  0.
        2    1    3    3  502    0 -0.78617328480E+02  0.41370502568E+03  0.70590434262E+03  0.82196926558E+03  0.25500000920E-02 0.  1.
       -2    1    3    3    0  502  0.78617328480E+02 -0.41370502568E+03  0.24417172785E+03  0.48677753163E+03  0.25500000920E-02 0. -1.
</event>
<event>
 5   0  0.1630202E-03  0.9076090E+03  0.7818609E-02  0.9416119E-01
       -2   -1    0    0    0  501  0.00000000000E+00  0.00000000000E+00  0.58286314538E+03  0.58286314539E+03  0.25500000920E-02 0.  1.
        2   -1    0    0  501    0  0.00000000000E+00  0.00000000000E+00 -0.35332226827E+03  0.35332226828E+03  0.25500000920E-02 0. -1.
    10030    2    1    2    0    0  0.00000000000E+00  0.00000000000E+00  0.22954087711E+03  0.93618541367E+03  0.90760900971E+03 0.  0.
        4    1    3    3  502    0 -0.39587886630E+03  0.21679788764E+03  0.16332168737E+03  0.47999686180E+03  0.12699999809E+01 0.  1.
       -4    1    3    3    0  502  0.39587886630E+03 -0.21679788764E+03  0.66219189739E+02  0.45618855187E+03  0.12699999809E+01 0. -1.
</event>
<event>
 5   0  0.1635686E-03  0.9021599E+03  0.7818609E-02  0.9422886E-01
       -2   -1    0    0    0  501  0.00000000000E+00  0.00000000000E+00  0.14732871762E+03  0.14732871764E+03  0.25500000920E-02 0.  1.
        2   -1    0    0  501    0  0.00000000000E+00  0.00000000000E+00 -0.13810824132E+04  0.13810824132E+04  0.25500000920E-02 0. -1.
    10030    2    1    2    0    0  0.00000000000E+00  0.00000000000E+00 -0.12337536956E+04  0.15284111309E+04  0.90215985477E+03 0.  0.
        5    1    3    3  502    0 -0.80203526058E+02 -0.24165405699E+03 -0.12476487496E+04  0.12733729938E+04  0.46999998093E+01 0. -1.
       -5    1    3    3    0  502  0.80203526058E+02  0.24165405699E+03  0.13895054007E+02  0.25503813710E+03  0.46999998093E+01 0.  1.
</event>
<event>
 5   0  0.1635686E-03  0.9007190E+03  0.7818609E-02  0.9424683E-01
        2   -1    0    0  501    0  0.00000000000E+00  0.00000000000E+00  0.49971367844E+03  0.49971367845E+03  0.25500000920E-02 0.  1.
       -2   -1    0    0    0  501  0.00000000000E+00  0.00000000000E+00 -0.40587977478E+03  0.40587977479E+03  0.25500000920E-02 0. -1.
    10030    2    1    2    0    0  0.00000000000E+00  0.00000000000E+00  0.93833903660E+02  0.90559345323E+03  0.90071899117E+03 0.  0.
        5    1    3    3  502    0  0.16510942714E+02  0.20151560216E+03 -0.35765408360E+03  0.41087672441E+03  0.46999998093E+01 0. -1.
       -5    1    3    3    0  502 -0.16510942714E+02 -0.20151560216E+03  0.45148798726E+03  0.49471672883E+03  0.46999998093E+01 0.  1.
</event>
<event>
 5   0  0.9981885E-04  0.8996855E+03  0.7818609E-02  0.9425975E-01
        1   -1    0    0  501    0  0.00000000000E+00  0.00000000000E+00  0.68296739404E+03  0.68296739406E+03  0.50400001928E-02 0.  1.
       -1   -1    0    0    0  501  0.00000000000E+00  0.00000000000E+00 -0.29629304781E+03  0.29629304785E+03  0.50400001928E-02 0. -1.
    10030    2    1    2    0    0  0.00000000000E+00  0.00000000000E+00  0.38667434623E+03  0.97926044191E+03  0.89968548007E+03 0.  0.
        4    1    3    3  502    0 -0.14838461037E+03 -0.42325338647E+03  0.15570369854E+03  0.47477013006E+03  0.12699999809E+01 0.  1.
       -4    1    3    3    0  502  0.14838461037E+03  0.42325338647E+03  0.23097064769E+03  0.50449031185E+03  0.12699999809E+01 0. -1.
</event>
<event>
 5   0  0.9223454E-04  0.8994666E+03  0.7818609E-02  0.9426248E-01
       -1   -1    0    0    0  501  0.00000000000E+00  0.00000000000E+00  0.13075754418E+04  0.13075754418E+04  0.50400001928E-02 0. -1.
        1   -1    0    0  501    0  0.00000000000E+00  0.00000000000E+00 -0.15468326455E+03  0.15468326463E+03  0.50400001928E-02 0.  1.
    10030    2    1    2    0    0  0.00000000000E+00  0.00000000000E+00  0.11528921773E+04  0.14622587065E+04  0.89946659315E+03 0.  0.
        1    1    3    3  502    0 -0.18685382522E+03 -0.66138091559E+02  0.12327347905E+04  0.12485686457E+04  0.50400001928E-02 0. -1.
       -1    1    3    3    0  502  0.18685382522E+03  0.66138091559E+02 -0.79842613267E+02  0.21369006077E+03  0.50400001928E-02 0.  1.
</event>
<event>
 5   0  0.1704416E-03  0.9001152E+03  0.7818609E-02  0.9425437E-01
       -2   -1    0    0    0  501  0.00000000000E+00  0.00000000000E+00  0.65016834092E+03  0.65016834093E+03  0.25500000920E-02 0.  1.
        2   -1    0    0  501    0  0.00000000000E+00  0.00000000000E+00 -0.31153756231E+03  0.31153756232E+03  0.25500000920E-02 0. -1.
    10030    2    1    2    0    0  0.00000000000E+00  0.00000000000E+00  0.33863077861E+03  0.96170590325E+03  0.90011523714E+03 0.  0.
        3    1    3    3  502    0  0.43005319146E+03  0.13268003185E+03  0.17086791520E+03  0.48139961880E+03  0.10100000352E+00 0. -1.
       -3    1    3    3    0  502 -0.43005319146E+03 -0.13268003185E+03  0.16776286342E+03  0.48030628445E+03  0.10100000352E+00 0.  1.
</event>
<event>
 5   0  0.1641516E-03  0.8978457E+03  0.7818609E-02  0.9428278E-01
       -2   -1    0    0    0  501  0.00000000000E+00  0.00000000000E+00  0.28688364418E+03  0.28688364420E+03  0.25500000920E-02 0.  1.
        2   -1    0    0  501    0  0.00000000000E+00  0.00000000000E+00 -0.70248592335E+03  0.70248592336E+03  0.25500000920E-02 0. -1.
    10030    2    1    2    0    0  0.00000000000E+00  0.00000000000E+00 -0.41560227917E+03  0.98936956755E+03  0.89784569206E+03 0.  0.
        1    1    3    3  502    0 -0.48326927691E+01 -0.31528310709E+03 -0.55991263071E+03  0.64259547664E+03  0.50400001928E-02 0. -1.
       -1    1    3    3    0  502  0.48326927691E+01  0.31528310709E+03  0.14431035155E+03  0.34677409091E+03  0.50400001928E-02 0.  1.
</event>
<event>
 5   0  0.6375625E-04  0.8999109E+03  0.7818609E-02  0.9425693E-01
        3   -1    0    0  501    0  0.00000000000E+00  0.00000000000E+00  0.10934530981E+04  0.10934531028E+04  0.10100000352E+00 0. -1.
       -3   -1    0    0    0  501  0.00000000000E+00  0.00000000000E+00 -0.18515645761E+03  0.18515648515E+03  0.10100000352E+00 0.  1.
    10030    2    1    2    0    0  0.00000000000E+00  0.00000000000E+00  0.90829664048E+03  0.12786095879E+04  0.89991093513E+03 0.  0.
        4    1    3    3  502    0 -0.78261286144E+01 -0.39943871682E+03  0.74824655613E+03  0.84822582986E+03  0.12699999809E+01 0. -1.
       -4    1    3    3    0  502  0.78261286144E+01  0.39943871682E+03  0.16005008436E+03  0.43038375805E+03  0.12699999809E+01 0.  1.
</event>
<event>
 5   0  0.1635686E-03  0.9006760E+03  0.7818609E-02  0.9424737E-01
        2   -1    0    0  501    0  0.00000000000E+00  0.00000000000E+00  0.65321141676E+03  0.65321141677E+03  0.25500000920E-02 0.  1.
       -2   -1    0    0    0  501  0.00000000000E+00  0.00000000000E+00 -0.31047269692E+03  0.31047269693E+03  0.25500000920E-02 0. -1.
    10030    2    1    2    0    0  0.00000000000E+00  0.00000000000E+00  0.34273871985E+03  0.96368411370E+03  0.90067599108E+03 0.  0.
        5    1    3    3  502    0 -0.14018046516E+03 -0.40445641790E+03  0.32095931480E+03  0.53504441736E+03  0.46999998093E+01 0. -1.
       -5    1    3    3    0  502  0.14018046516E+03  0.40445641790E+03  0.21779405041E+02  0.42863969634E+03  0.46999998093E+01 0.  1.
</event>
<event>
 5   0  0.9321543E-04  0.9002422E+03  0.7818609E-02  0.9425279E-01
        1   -1    0    0  501    0  0.00000000000E+00  0.00000000000E+00  0.13149863648E+04  0.13149863648E+04  0.50400001928E-02 0.  1.
       -1   -1    0    0    0  501  0.00000000000E+00  0.00000000000E+00 -0.15407687936E+03  0.15407687944E+03  0.50400001928E-02 0. -1.
    10030    2    1    2    0    0  0.00000000000E+00  0.00000000000E+00  0.11609094854E+04  0.14690632442E+04  0.90024217976E+03 0.  0.
        3    1    3    3  502    0 -0.24468816108E+03  0.24522817465E+03  0.10494524463E+04  0.11051513929E+04  0.10100000352E+00 0.  1.
       -3    1    3    3    0  502  0.24468816108E+03 -0.24522817465E+03  0.11145703910E+03  0.36391185139E+03  0.10100000352E+00 0. -1.
</event>
<event>
 5   0  0.6375625E-04  0.9005749E+03  0.7818609E-02  0.9424863E-01
       -3   -1    0    0    0  501  0.00000000000E+00  0.00000000000E+00  0.32245499024E+03  0.32245500606E+03  0.10100000352E+00 0.  1.
        3   -1    0    0  501    0  0.00000000000E+00  0.00000000000E+00 -0.62879716478E+03  0.62879717289E+03  0.10100000352E+00 0. -1.
    10030    2    1    2    0    0  0.00000000000E+00  0.00000000000E+00 -0.30634217454E+03  0.95125217895E+03  0.90057491640E+03 0.  0.
        1    1    3    3  502    0 -0.36445392722E+03  0.15717039712E+03  0.71468955609E+02  0.40328279214E+03  0.50400001928E-02 0.  1.
       -1    1    3    3    0  502  0.36445392722E+03 -0.15717039712E+03 -0.37781113015E+03  0.54796938681E+03  0.50400001928E-02 0. -1.
</event>
<event>
 5   0  0.1536020E-03  0.8985184E+03  0.7818609E-02  0.9427435E-01
       -2   -1    0    0    0  501  0.00000000000E+00  0.00000000000E+00  0.22871827543E+03  0.22871827544E+03  0.25500000920E-02 0. -1.
        2   -1    0    0  501    0  0.00000000000E+00  0.00000000000E+00 -0.88245605997E+03  0.88245605998E+03  0.25500000920E-02 0.  1.
    10030    2    1    2    0    0  0.00000000000E+00  0.00000000000E+00 -0.65373778455E+03  0.11111743354E+04  0.89851839867E+03 0.  0.
        2    1    3    3  502    0  0.75786283622E+02 -0.39474625979E+03 -0.78714122814E+02  0.40959014092E+03  0.25500000920E-02 0. -1.
       -2    1    3    3    0  502 -0.75786283622E+02  0.39474625979E+03 -0.57502366173E+03  0.70158419450E+03  0.25500000920E-02 0.  1.
</event>
<event>
 5   0  0.9223454E-04  0.9000527E+03  0.7818609E-02  0.9425516E-01
        1   -1    0    0  501    0  0.00000000000E+00  0.00000000000E+00  0.50886816560E+03  0.50886816563E+03  0.50400001928E-02 0. -1.
       -1   -1    0    0    0  501  0.00000000000E+00  0.00000000000E+00 -0.39798856255E+03  0.39798856258E+03  0.50400001928E-02 0.  1.
    10030    2    1    2    0    0  0.00000000000E+00  0.00000000000E+00  0.11087960305E+03  0.90685672821E+03  0.90005268686E+03 0.  0.
        1    1    3    3  502    0  0.25542997854E+03  0.27584884634E+03  0.30466909369E+03  0.48390114346E+03  0.50400001928E-02 0. -1.
       -1    1    3    3    0  502 -0.25542997854E+03 -0.27584884634E+03 -0.19378949064E+03  0.42295558475E+03  0.50400001928E-02 0.  1.
</event>
<event>
 5   0  0.1704416E-03  0.8991598E+03  0.7818609E-02  0.9426632E-01
       -2   -1    0    0    0  501  0.00000000000E+00  0.00000000000E+00  0.45248950826E+03  0.45248950827E+03  0.25500000920E-02 0.  1.
        2   -1    0    0  501    0  0.00000000000E+00  0.00000000000E+00 -0.44668896018E+03  0.44668896019E+03  0.25500000920E-02 0. -1.
    10030    2    1    2    0    0  0.00000000000E+00  0.00000000000E+00  0.58005480791E+01  0.89917846845E+03  0.89915975876E+03 0.  0.
        3    1    3    3  502    0  0.16550392926E+03  0.76828382858E+02 -0.40799500792E+03  0.44693857263E+03  0.10100000352E+00 0. -1.
       -3    1    3    3    0  502 -0.16550392926E+03 -0.76828382858E+02  0.41379555600E+03  0.45223989583E+03  0.10100000352E+00 0.  1.
</event>
<event>
 5   0  0.1536020E-03  0.8991471E+03  0.7818609E-02  0.9426648E-01
        2   -1    0    0  501    0  0.00000000000E+00  0.00000000000E+00  0.18147774036E+04  0.18147774036E+04  0.25500000920E-02 0. -1.
       -2   -1    0    0    0  501  0.00000000000E+00  0.00000000000E+00 -0.11137253582E+03  0.11137253585E+03  0.25500000920E-02 0.  1.
    10030    2    1    2    0    0  0.00000000000E+00  0.00000000000E+00  0.17034048677E+04  0.19261499394E+04  0.89914706566E+03 0.  0.
        2    1    3    3  502    0 -0.27400794759E+03 -0.57514999436E+02  0.98184816363E+02  0.29669612177E+03  0.25500000920E-02 0.  1.
       -2    1    3    3    0  502  0.27400794759E+03  0.57514999436E+02  0.16052200514E+04  0.16294538176E+04  0.25500000920E-02 0. -1.
</event>
<event>
 5   0  0.9223454E-04  0.8999764E+03  0.7818609E-02  0.9425611E-01
       -1   -1    0    0    0  501  0.00000000000E+00  0.00000000000E+00  0.54661726375E+03  0.54661726377E+03  0.50400001928E-02 0. -1.
        1   -1    0    0  501    0  0.00000000000E+00  0.00000000000E+00 -0.37044092001E+03  0.37044092005E+03  0.50400001928E-02 0.  1.
    10030    2    1    2    0    0  0.00000000000E+00  0.00000000000E+00  0.17617634374E+03  0.91705818382E+03  0.89997644881E+03 0.  0.
        1    1    3    3  502    0  0.15120281192E+03  0.60876696959E+02  0.51547856996E+03  0.54063519926E+03  0.50400001928E-02 0. -1.
       -1    1    3    3    0  502 -0.15120281192E+03 -0.60876696959E+02 -0.33930222622E+03  0.37642298456E+03  0.50400001928E-02 0.  1.
</event>
<event>
 5   0  0.1635686E-03  0.9013928E+03  0.7818609E-02  0.9423842E-01
        2   -1    0    0  501    0  0.00000000000E+00  0.00000000000E+00  0.45065031316E+03  0.45065031317E+03  0.25500000920E-02 0.  1.
       -2   -1    0    0    0  501  0.00000000000E+00  0.00000000000E+00 -0.45074247811E+03  0.45074247812E+03  0.25500000920E-02 0. -1.
    10030    2    1    2    0    0  0.00000000000E+00  0.00000000000E+00 -0.92164947974E-01  0.90139279129E+03  0.90139278657E+03 0.  0.
        5    1    3    3  502    0 -0.33023609908E+03 -0.29577312578E+03  0.80994190996E+02  0.45068810950E+03  0.46999998093E+01 0.  1.
       -5    1    3    3    0  502  0.33023609908E+03  0.29577312578E+03 -0.81086355944E+02  0.45070468179E+03  0.46999998093E+01 0. -1.
</event>
<event>
 5   0  0.1536020E-03  0.9029772E+03  0.7818609E-02  0.9421867E-01
       -2   -1    0    0    0  501  0.00000000000E+00  0.00000000000E+00  0.35888680943E+03  0.35888680944E+03  0.25500000920E-02 0.  1.
        2   -1    0    0  501    0  0.00000000000E+00  0.00000000000E+00 -0.56798403478E+03  0.56798403478E+03  0.25500000920E-02 0. -1.
    10030    2    1    2    0    0  0.00000000000E+00  0.00000000000E+00 -0.20909722535E+03  0.92687084422E+03  0.90297724901E+03 0.  0.
        2    1    3    3  502    0 -0.51841821385E+02 -0.21392418057E+03 -0.50917586710E+03  0.55471721906E+03  0.25500000920E-02 0. -1.
       -2    1    3    3    0  502  0.51841821385E+02  0.21392418057E+03  0.30007864176E+03  0.37215362516E+03  0.25500000920E-02 0.  1.
</event>
<event>
 5   0  0.1635686E-03  0.9001405E+03  0.7818609E-02  0.9425406E-01
        2   -1    0    0  501    0  0.00000000000E+00  0.00000000000E+00  0.60649809476E+03  0.60649809476E+03  0.25500000920E-02 0.  1.
       -2   -1    0    0    0  501  0.00000000000E+00  0.00000000000E+00 -0.33398821312E+03  0.33398821313E+03  0.25500000920E-02 0. -1.
    10030    2    1    2    0    0  0.00000000000E+00  0.00000000000E+00  0.27250988164E+03  0.94048630790E+03  0.90014046668E+03 0.  0.
        5    1    3    3  502    0 -0.23435966223E+03  0.78842363986E+02  0.52914202182E+03  0.58408384577E+03  0.46999998093E+01 0.  1.
       -5    1    3    3    0  502  0.23435966223E+03 -0.78842363986E+02 -0.25663214018E+03  0.35640246213E+03  0.46999998093E+01 0. -1.
</event>
<event>
 5   0  0.9223454E-04  0.8965796E+03  0.7818609E-02  0.9429867E-01
        1   -1    0    0  501    0  0.00000000000E+00  0.00000000000E+00  0.17841086511E+04  0.17841086511E+04  0.50400001928E-02 0. -1.
       -1   -1    0    0    0  501  0.00000000000E+00  0.00000000000E+00 -0.11264098892E+03  0.11264098903E+03  0.50400001928E-02 0.  1.
    10030    2    1    2    0    0  0.00000000000E+00  0.00000000000E+00  0.16714676622E+04  0.18967496402E+04  0.89657964045E+03 0.  0.
        1    1    3    3  502    0  0.14073139015E+03  0.98345763946E+02 -0.40330843198E+02  0.17636266725E+03  0.50400001928E-02 0.  1.
       -1    1    3    3    0  502 -0.14073139015E+03 -0.98345763946E+02  0.17117985054E+04  0.17203869729E+04  0.50400001928E-02 0. -1.
</event>
<event>
 5   0  0.1630202E-03  0.9045257E+03  0.7818609E-02  0.9419942E-01
        2   -1    0    0  501    0  0.00000000000E+00  0.00000000000E+00  0.99847981430E+03  0.99847981430E+03  0.25500000920E-02 0.  1.
       -2   -1    0    0    0  501  0.00000000000E+00  0.00000000000E+00 -0.20485311604E+03  0.20485311605E+03  0.25500000920E-02 0. -1.
    10030    2    1    2    0    0  0.00000000000E+00  0.00000000000E+00  0.79362669826E+03  0.12033329304E+04  0.90452573489E+03 0.  0.
        4    1    3    3  502    0  0.33068759093E+03  0.29941445900E+03  0.49580391226E+03  0.66695309682E+03  0.12699999809E+01 0. -1.
       -4    1    3    3    0  502 -0.33068759093E+03 -0.29941445900E+03  0.29782278601E+03  0.53637983353E+03  0.12699999809E+01 0.  1.
</event>
<event>
 5   0  0.1704416E-03  0.9003832E+03  0.7818609E-02  0.9425103E-01
        2   -1    0    0  501    0  0.00000000000E+00  0.00000000000E+00  0.38820939661E+03  0.38820939662E+03  0.25500000920E-02 0. -1.
       -2   -1    0    0    0  501  0.00000000000E+00  0.00000000000E+00 -0.52206997878E+03  0.52206997878E+03  0.25500000920E-02 0.  1.
    10030    2    1    2    0    0  0.00000000000E+00  0.00000000000E+00 -0.13386058217E+03  0.91027937540E+03  0.90038318832E+03 0.  0.
        3    1    3    3  502    0  0.75685812905E+02  0.28410944056E+03  0.27773604540E+03  0.40445498836E+03  0.10100000352E+00 0. -1.
       -3    1    3    3    0  502 -0.75685812905E+02 -0.28410944056E+03 -0.41159662757E+03  0.50582438704E+03  0.10100000352E+00 0.  1.
</event>
<event>
 5   0  0.1635686E-03  0.8994909E+03  0.7818609E-02  0.9426218E-01
       -2   -1    0    0    0  501  0.00000000000E+00  0.00000000000E+00  0.91941660034E+03  0.91941660034E+03  0.25500000920E-02 0.  1.
        2   -1    0    0  501    0  0.00000000000E+00  0.00000000000E+00 -0.21999923641E+03  0.21999923643E+03  0.25500000920E-02 0. -1.
    10030    2    1    2    0    0  0.00000000000E+00  0.00000000000E+00  0.69941736393E+03  0.11394158368E+04  0.89949085605E+03 0.  0.
        5    1    3    3  502    0 -0.11999133244E+03 -0.43334082263E+03  0.33936545680E+03  0.56335884806E+03  0.46999998093E+01 0. -1.
       -5    1    3    3    0  502  0.11999133244E+03  0.43334082263E+03  0.36005190713E+03  0.57605698871E+03  0.46999998093E+01 0.  1.
</event>
<event>
 5   0  0.1704416E-03  0.9000070E+03  0.7818609E-02  0.9425573E-01
       -2   -1    0    0    0  501  0.00000000000E+00  0.00000000000E+00  0.64667651031E+03  0.64667651032E+03  0.25500000920E-02 0.  1.
        2   -1    0    0  501    0  0.00000000000E+00  0.00000000000E+00 -0.31314445793E+03  0.31314445794E+03  0.25500000920E-02 0. -1.
    10030    2    1    2    0    0  0.00000000000E+00  0.00000000000E+00  0.33353205239E+03  0.95982096826E+03  0.90000703394E+03 0.  0.
        3    1    3    3  502    0  0.16512986998E+03  0.41418761692E+03  0.10203713109E+03  0.45741757978E+03  0.10100000352E+00 0. -1.
       -3    1    3    3    0  502 -0.16512986998E+03 -0.41418761692E+03  0.23149492129E+03  0.50240338848E+03  0.10100000352E+00 0.  1.
</event>
<event>
 5   0  0.9321543E-04  0.9013328E+03  0.7818609E-02  0.9423917E-01
       -1   -1    0    0    0  501  0.00000000000E+00  0.00000000000E+00  0.23997524409E+03  0.23997524414E+03  0.50400001928E-02 0.  1.
        1   -1    0    0  501    0  0.00000000000E+00  0.00000000000E+00 -0.84633822360E+03  0.84633822362E+03  0.50400001928E-02 0. -1.
    10030    2    1    2    0    0  0.00000000000E+00  0.00000000000E+00 -0.60636297951E+03  0.10863134678E+04  0.90133283936E+03 0.  0.
        3    1    3    3  502    0  0.11057231461E+03 -0.42794368202E+03 -0.19716110402E+03  0.48397783304E+03  0.10100000352E+00 0.  1.
       -3    1    3    3    0  502 -0.11057231461E+03  0.42794368202E+03 -0.40920187550E+03  0.60233563472E+03  0.10100000352E+00 0. -1.
</event>
<event>
 5   0  0.9321543E-04  0.8999898E+03  0.7818609E-02  0.9425594E-01
        1   -1    0    0  501    0  0.00000000000E+00  0.00000000000E+00  0.14384918388E+04  0.14384918388E+04  0.50400001928E-02 0. -1.
       -1   -1    0    0    0  501  0.00000000000E+00  0.00000000000E+00 -0.14076924499E+03  0.14076924508E+03  0.50400001928E-02 0.  1.
    10030    2    1    2    0    0  0.00000000000E+00  0.00000000000E+00  0.12977225938E+04  0.15792610839E+04  0.89998980029E+03 0.  0.
        3    1    3    3  502    0 -0.12418817462E+03 -0.18425002868E+03  0.13355167352E+04  0.13538743427E+04  0.10100000352E+00 0. -1.
       -3    1    3    3    0  502  0.12418817462E+03  0.18425002868E+03 -0.37794141329E+02  0.22538674119E+03  0.10100000352E+00 0.  1.
</event>
<event>
 5   0  0.1630202E-03  0.8866089E+03  0.7818609E-02  0.9442477E-01
        2   -1    0    0  501    0  0.00000000000E+00  0.00000000000E+00  0.31340831463E+03  0.31340831464E+03  0.25500000920E-02 0.  1.
       -2   -1    0    0    0  501  0.00000000000E+00  0.00000000000E+00 -0.62703773407E+03  0.62703773407E+03  0.25500000920E-02 0. -1.
    10030    2    1    2    0    0  0.00000000000E+00  0.00000000000E+00 -0.31362941944E+03  0.94044604872E+03  0.88660890917E+03 0.  0.
        4    1    3    3  502    0  0.30076040613E+03  0.13058248281E+02  0.18835210684E+03  0.35511331825E+03  0.12699999809E+01 0.  1.
       -4    1    3    3    0  502 -0.30076040613E+03 -0.13058248281E+02 -0.50198152627E+03  0.58533273047E+03  0.12699999809E+01 0. -1.
</event>
<event>
 5   0  0.9697941E-04  0.8998888E+03  0.7818609E-02  0.9425720E-01
        1   -1    0    0  501    0  0.00000000000E+00  0.00000000000E+00  0.61116098064E+03  0.61116098066E+03  0.50400001928E-02 0. -1.
       -1   -1    0    0    0  501  0.00000000000E+00  0.00000000000E+00 -0.33125470169E+03  0.33125470173E+03  0.50400001928E-02 0.  1.
    10030    2    1    2    0    0  0.00000000000E+00  0.00000000000E+00  0.27990627895E+03  0.94241568240E+03  0.89988876725E+03 0.  0.
        5    1    3    3  502    0 -0.46958303982E+02 -0.37269146664E+03  0.39929245986E+03  0.54823404684E+03  0.46999998093E+01 0. -1.
       -5    1    3    3    0  502  0.46958303982E+02  0.37269146664E+03 -0.11938618091E+03  0.39418163555E+03  0.46999998093E+01 0.  1.
</event>
<event>
 5   0  0.6375625E-04  0.9013431E+03  0.7818609E-02  0.9423904E-01
        3   -1    0    0  501    0  0.00000000000E+00  0.00000000000E+00  0.21851996636E+03  0.21851998971E+03  0.10100000352E+00 0. -1.
       -3   -1    0    0    0  501  0.00000000000E+00  0.00000000000E+00 -0.92945652417E+03  0.92945652966E+03  0.10100000352E+00 0.  1.
    10030    2    1    2    0    0  0.00000000000E+00  0.00000000000E+00 -0.71093655781E+03  0.11479765194E+04  0.90134305333E+03 0.  0.
        2    1    3    3  502    0 -0.33491961885E+03  0.18407326304E+03 -0.65967822360E+03  0.76238407378E+03  0.25500000920E-02 0.  1.
       -2    1    3    3    0  502  0.33491961885E+03 -0.18407326304E+03 -0.51258334209E+02  0.38559244558E+03  0.25500000920E-02 0. -1.
</event>
<event>
 5   0  0.9321543E-04  0.8992306E+03  0.7818609E-02  0.9426544E-01
       -1   -1    0    0    0  501  0.00000000000E+00  0.00000000000E+00  0.13915694656E+03  0.13915694665E+03  0.50400001928E-02 0.  1.
        1   -1    0    0  501    0  0.00000000000E+00  0.00000000000E+00 -0.14527046148E+04  0.14527046148E+04  0.50400001928E-02 0. -1.
    10030    2    1    2    0    0  0.00000000000E+00  0.00000000000E+00 -0.13135476683E+04  0.15918615615E+04  0.89923064568E+03 0.  0.
        3    1    3    3  502    0 -0.27917815154E+02  0.26426795345E+03 -0.14739700245E+02  0.26614699808E+03  0.10100000352E+00 0.  1.
       -3    1    3    3    0  502  0.27917815154E+02 -0.26426795345E+03 -0.12988079680E+04  0.13257145634E+04  0.10100000352E+00 0. -1.
</event>
<event>
 5   0  0.9697941E-04  0.9008068E+03  0.7818609E-02  0.9424573E-01
        1   -1    0    0  501    0  0.00000000000E+00  0.00000000000E+00  0.72805840764E+03  0.72805840765E+03  0.50400001928E-02 0.  1.
       -1   -1    0    0    0  501  0.00000000000E+00  0.00000000000E+00 -0.27863591895E+03  0.27863591900E+03  0.50400001928E-02 0. -1.
    10030    2    1    2    0    0  0.00000000000E+00  0.00000000000E+00  0.44942248868E+03  0.10066943267E+04  0.90080680170E+03 0.  0.
        5    1    3    3  502    0 -0.62263107541E+01 -0.27945031363E+03 -0.16994266601E+03  0.32716027336E+03  0.46999998093E+01 0. -1.
       -5    1    3    3    0  502  0.62263107541E+01  0.27945031363E+03  0.61936515470E+03  0.67953405329E+03  0.46999998093E+01 0.  1.
</event>
<event>
 5   0  0.9321543E-04  0.9002535E+03  0.7818609E-02  0.9425265E-01
       -1   -1    0    0    0  501  0.00000000000E+00  0.00000000000E+00  0.26379920569E+03  0.26379920574E+03  0.50400001928E-02 0. -1.
        1   -1    0    0  501    0  0.00000000000E+00  0.00000000000E+00 -0.76806173634E+03  0.76806173636E+03  0.50400001928E-02 0.  1.
    10030    2    1    2    0    0  0.00000000000E+00  0.00000000000E+00 -0.50426253065E+03  0.10318609421E+04  0.90025346653E+03 0.  0.
        3    1    3    3  502    0  0.32909419984E+03  0.28540907193E+03 -0.12218788816E+03  0.45242813896E+03  0.10100000352E+00 0. -1.
       -3    1    3    3    0  502 -0.32909419984E+03 -0.28540907193E+03 -0.38207464249E+03  0.57943280313E+03  0.10100000352E+00 0.  1.
</event>
<event>
 5   0  0.1641516E-03  0.8888867E+03  0.7818609E-02  0.9439581E-01
       -2   -1    0    0    0  501  0.00000000000E+00  0.00000000000E+00  0.16483724163E+03  0.16483724164E+03  0.25500000920E-02 0. -1.
        2   -1    0    0  501    0  0.00000000000E+00  0.00000000000E+00 -0.11983329917E+04  0.11983329917E+04  0.25500000920E-02 0.  1.
    10030    2    1    2    0    0  0.00000000000E+00  0.00000000000E+00 -0.10334957501E+04  0.13631702333E+04  0.88888673050E+03 0.  0.
        1    1    3    3  502    0 -0.23550432767E+03  0.22105952161E+03 -0.48568436334E+02  0.32663204600E+03  0.50400001928E-02 0. -1.
       -1    1    3    3    0  502  0.23550432767E+03 -0.22105952161E+03 -0.98492731373E+03  0.10365381873E+04  0.50400001928E-02 0.  1.
</event>
<event>
 5   0  0.1007561E-03  0.8991730E+03  0.7818609E-02  0.9426616E-01
       -1   -1    0    0    0  501  0.00000000000E+00  0.00000000000E+00  0.25058897337E+03  0.25058897342E+03  0.50400001928E-02 0.  1.
        1   -1    0    0  501    0  0.00000000000E+00  0.00000000000E+00 -0.80661179176E+03  0.80661179178E+03  0.50400001928E-02 0. -1.
    10030    2    1    2    0    0  0.00000000000E+00  0.00000000000E+00 -0.55602281839E+03  0.10572007652E+04  0.89917299969E+03 0.  0.
        2    1    3    3  502    0  0.41183097168E+03 -0.17268978908E+03 -0.33912212471E+03  0.56074087416E+03  0.25500000920E-02 0. -1.
       -2    1    3    3    0  502 -0.41183097168E+03  0.17268978908E+03 -0.21690069368E+03  0.49645989104E+03  0.25500000920E-02 0.  1.
</event>
<event>
 5   0  0.9321543E-04  0.9015653E+03  0.7818609E-02  0.9423627E-01
       -1   -1    0    0    0  501  0.00000000000E+00  0.00000000000E+00  0.20944371586E+03  0.20944371592E+03  0.50400001928E-02 0.  1.
        1   -1    0    0  501    0  0.00000000000E+00  0.00000000000E+00 -0.97021297763E+03  0.97021297765E+03  0.50400001928E-02 0. -1.
    10030    2    1    2    0    0  0.00000000000E+00  0.00000000000E+00 -0.76076926177E+03  0.11796566936E+04  0.90156533042E+03 0.  0.
        3    1    3    3  502    0  0.21018459382E+03 -0.16171020619E+03 -0.85734659178E+03  0.89742461684E+03  0.10100000352E+00 0. -1.
       -3    1    3    3    0  502 -0.21018459382E+03  0.16171020619E+03  0.96577330006E+02  0.28223207673E+03  0.10100000352E+00 0.  1.
</event>
<event>
 5   0  0.1007561E-03  0.9081306E+03  0.7818609E-02  0.9415475E-01
       -1   -1    0    0    0  501  0.00000000000E+00  0.00000000000E+00  0.69818430471E+03  0.69818430473E+03  0.50400001928E-02 0. -1.
        1   -1    0    0  501    0  0.00000000000E+00  0.00000000000E+00 -0.29530208098E+03  0.29530208103E+03  0.50400001928E-02 0.  1.
    10030    2    1    2    0    0  0.00000000000E+00  0.00000000000E+00  0.40288222372E+03  0.99348638575E+03  0.90813055916E+03 0.  0.
        2    1    3    3  502    0  0.39579497398E+03 -0.11758537169E+03 -0.52487286632E+01  0.41292557467E+03  0.25500000920E-02 0.  1.
       -2    1    3    3    0  502 -0.39579497398E+03  0.11758537169E+03  0.40813095239E+03  0.58056081108E+03  0.25500000920E-02 0. -1.
</event>
<event>
 5   0  0.9321543E-04  0.8999763E+03  0.7818609E-02  0.9425611E-01
       -1   -1    0    0    0  501  0.00000000000E+00  0.00000000000E+00  0.26765449625E+03  0.26765449630E+03  0.50400001928E-02 0. -1.
        1   -1    0    0  501    0  0.00000000000E+00  0.00000000000E+00 -0.75653254122E+03  0.75653254124E+03  0.50400001928E-02 0.  1.
    10030    2    1    2    0    0  0.00000000000E+00  0.00000000000E+00 -0.48887804497E+03  0.10241870375E+04  0.89997630246E+03 0.  0.
        3    1    3    3  502    0  0.15685732761E+03  0.25572435881E+03  0.13724630257E+03  0.32990260181E+03  0.10100000352E+00 0. -1.
       -3    1    3    3    0  502 -0.15685732761E+03 -0.25572435881E+03 -0.62612434754E+03  0.69428443573E+03  0.10100000352E+00 0.  1.
</event>
<event>
 5   0  0.1635686E-03  0.8995693E+03  0.7818609E-02  0.9426120E-01
        2   -1    0    0  501    0  0.00000000000E+00  0.00000000000E+00  0.15458090951E+04  0.15458090951E+04  0.25500000920E-02 0. -1.
       -2   -1    0    0    0  501  0.00000000000E+00  0.00000000000E+00 -0.13087400113E+03  0.13087400115E+03  0.25500000920E-02 0.  1.
    10030    2    1    2    0    0  0.00000000000E+00  0.00000000000E+00  0.14149350940E+04  0.16766830963E+04  0.89956927756E+03 0.  0.
        5    1    3    3  502    0 -0.14216425918E+03  0.17963228976E+03 -0.13939753991E+02  0.22955357294E+03  0.46999998093E+01 0.  1.
       -5    1    3    3    0  502  0.14216425918E+03 -0.17963228976E+03  0.14288748480E+04  0.14471295233E+04  0.46999998093E+01 0. -1.
</event>
<event>
 5   0  0.1641516E-03  0.8983011E+03  0.7818609E-02  0.9427708E-01
       -2   -1    0    0    0  501  0.00000000000E+00  0.00000000000E+00  0.26867281222E+03  0.26867281223E+03  0.25500000920E-02 0.  1.
        2   -1    0    0  501    0  0.00000000000E+00  0.00000000000E+00 -0.75086204122E+03  0.75086204122E+03  0.25500000920E-02 0. -1.
    10030    2    1    2    0    0  0.00000000000E+00  0.00000000000E+00 -0.48218922900E+03  0.10195348535E+04  0.89830109922E+03 0.  0.
        1    1    3    3  502    0 -0.12049912636E+03 -0.10706506783E+03 -0.71690270868E+03  0.73480096757E+03  0.50400001928E-02 0. -1.
       -1    1    3    3    0  502  0.12049912636E+03  0.10706506783E+03  0.23471347968E+03  0.28473388589E+03  0.50400001928E-02 0.  1.
</event>
<event>
 5   0  0.9223454E-04  0.9002673E+03  0.7818609E-02  0.9425247E-01
       -1   -1    0    0    0  501  0.00000000000E+00  0.00000000000E+00  0.23507923705E+03  0.23507923711E+03  0.50400001928E-02 0. -1.
        1   -1    0    0  501    0  0.00000000000E+00  0.00000000000E+00 -0.86192347659E+03  0.86192347660E+03  0.50400001928E-02 0.  1.
    10030    2    1    2    0    0  0.00000000000E+00  0.00000000000E+00 -0.62684423953E+03  0.10970027137E+04  0.90026732321E+03 0.  0.
        1    1    3    3  502    0 -0.10029580956E+03 -0.25417634104E+03  0.12245654496E+03  0.29943357726E+03  0.50400001928E-02 0. -1.
       -1    1    3    3    0  502  0.10029580956E+03  0.25417634104E+03 -0.74930078449E+03  0.79756913645E+03  0.50400001928E-02 0.  1.
</event>
<event>
 5   0  0.1536020E-03  0.8993496E+03  0.7818609E-02  0.9426395E-01
        2   -1    0    0  501    0  0.00000000000E+00  0.00000000000E+00  0.32205708642E+03  0.32205708643E+03  0.25500000920E-02 0. -1.
       -2   -1    0    0    0  501  0.00000000000E+00  0.00000000000E+00 -0.62786199076E+03  0.62786199076E+03  0.25500000920E-02 0.  1.
    10030    2    1    2    0    0  0.00000000000E+00  0.00000000000E+00 -0.30580490434E+03  0.94991907719E+03  0.89934955034E+03 0.  0.
        2    1    3    3  502    0  0.35133749717E+03 -0.19489247759E+03  0.60409496060E+02  0.40628859442E+03  0.25500000920E-02 0. -1.
       -2    1    3    3    0  502 -0.35133749717E+03  0.19489247759E+03 -0.36621440040E+03  0.54363048277E+03  0.25500000920E-02 0.  1.
</event>
<event>
 5   0  0.1635686E-03  0.9005390E+03  0.7818609E-02  0.9424908E-01
        2   -1    0    0  501    0  0.00000000000E+00  0.00000000000E+00  0.11611584692E+04  0.11611584692E+04  0.25500000920E-02 0. -1.
       -2   -1    0    0    0  501  0.00000000000E+00  0.00000000000E+00 -0.17460374363E+03  0.17460374365E+03  0.25500000920E-02 0.  1.
    10030    2    1    2    0    0  0.00000000000E+00  0.00000000000E+00  0.98655472559E+03  0.13357622129E+04  0.90053898458E+03 0.  0.
        5    1    3    3  502    0  0.24668079792E+03 -0.29452858324E+03  0.14502889811E+03  0.41067502200E+03  0.46999998093E+01 0. -1.
       -5    1    3    3    0  502 -0.24668079792E+03  0.29452858324E+03  0.84152582748E+03  0.92508719087E+03  0.46999998093E+01 0.  1.
</event>
<event>
 5   0  0.1007561E-03  0.8977202E+03  0.7818609E-02  0.9428436E-01
        1   -1    0    0  501    0  0.00000000000E+00  0.00000000000E+00  0.96494277096E+03  0.96494277097E+03  0.50400001928E-02 0. -1.
       -1   -1    0    0    0  501  0.00000000000E+00  0.00000000000E+00 -0.20879519176E+03  0.20879519182E+03  0.50400001928E-02 0.  1.
    10030    2    1    2    0    0  0.00000000000E+00  0.00000000000E+00  0.75614757920E+03  0.11737379628E+04  0.89772024806E+03 0.  0.
        2    1    3    3  502    0 -0.23483879153E+03  0.11461180602E+03 -0.99088822938E+02  0.27947042585E+03  0.25500000920E-02 0.  1.
       -2    1    3    3    0  502  0.23483879153E+03 -0.11461180602E+03  0.85523640213E+03  0.89426753694E+03  0.25500000920E-02 0. -1.
</event>
<event>
 5   0  0.1536020E-03  0.8991718E+03  0.7818609E-02  0.9426617E-01
       -2   -1    0    0    0  501  0.00000000000E+00  0.00000000000E+00  0.27075762331E+03  0.27075762333E+03  0.25500000920E-02 0.  1.
        2   -1    0    0  501    0  0.00000000000E+00  0.00000000000E+00 -0.74652557214E+03  0.74652557214E+03  0.25500000920E-02 0. -1.
    10030    2    1    2    0    0  0.00000000000E+00  0.00000000000E+00 -0.47576794883E+03  0.10172831955E+04  0.89917181820E+03 0.  0.
        2    1    3    3  502    0 -0.19195899977E+03  0.31017734110E+03 -0.53521590516E+03  0.64769924013E+03  0.25500000920E-02 0. -1.
       -2    1    3    3    0  502  0.19195899977E+03 -0.31017734110E+03  0.59447956332E+02  0.36958395534E+03  0.25500000920E-02 0.  1.
</event>
<event>
 5   0  0.1704416E-03  0.9007311E+03  0.7818609E-02  0.9424668E-01
       -2   -1    0    0    0  501  0.00000000000E+00  0.00000000000E+00  0.47405489214E+03  0.47405489214E+03  0.25500000920E-02 0.  1.
        2   -1    0    0  501    0  0.00000000000E+00  0.00000000000E+00 -0.42786001041E+03  0.42786001042E+03  0.25500000920E-02 0. -1.
    10030    2    1    2    0    0  0.00000000000E+00  0.00000000000E+00  0.46194881722E+02  0.90191490256E+03  0.90073110547E+03 0.  0.
        3    1    3    3  502    0  0.20472524859E+03  0.16243477175E+03  0.39036504160E+03  0.46976840931E+03  0.10100000352E+00 0.  1.
       -3    1    3    3    0  502 -0.20472524859E+03 -0.16243477175E+03 -0.34417015988E+03  0.43214649325E+03  0.10100000352E+00 0. -1.
</event>
<event>
 5   0  0.9697941E-04  0.8966035E+03  0.7818609E-02  0.9429837E-01
        1   -1    0    0  501    0  0.00000000000E+00  0.00000000000E+00  0.33920427105E+03  0.33920427109E+03  0.50400001928E-02 0. -1.
       -1   -1    0    0    0  501  0.00000000000E+00  0.00000000000E+00 -0.59248802995E+03  0.59248802997E+03  0.50400001928E-02 0.  1.
    10030    2    1    2    0    0  0.00000000000E+00  0.00000000000E+00 -0.25328375890E+03  0.93169230106E+03  0.89660352516E+03 0.  0.
        5    1    3    3  502    0  0.15422095678E+03  0.20493718010E+03  0.25539972631E+03  0.36198682503E+03  0.46999998093E+01 0. -1.
       -5    1    3    3    0  502 -0.15422095678E+03 -0.20493718010E+03 -0.50868348520E+03  0.56970547603E+03  0.46999998093E+01 0.  1.
</event>
<event>
 5   0  0.9697941E-04  0.8959589E+03  0.7818609E-02  0.9430647E-01
       -1   -1    0    0    0  501  0.00000000000E+00  0.00000000000E+00  0.35106358190E+03  0.35106358193E+03  0.50400001928E-02 0.  1.
        1   -1    0    0  501    0  0.00000000000E+00  0.00000000000E+00 -0.57165022034E+03  0.57165022036E+03  0.50400001928E-02 0. -1.
    10030    2    1    2    0    0  0.00000000000E+00  0.00000000000E+00 -0.22058663844E+03  0.92271380230E+03  0.89595886953E+03 0.  0.
        5    1    3    3  502    0 -0.35462270128E+03  0.80981648051E+02 -0.37953511169E+03  0.52572262515E+03  0.46999998093E+01 0. -1.
       -5    1    3    3    0  502  0.35462270128E+03 -0.80981648051E+02  0.15894847325E+03  0.39699117715E+03  0.46999998093E+01 0.  1.
</event>
<event>
 5   0  0.1641516E-03  0.9037360E+03  0.7818609E-02  0.9420923E-01
       -2   -1    0    0    0  501  0.00000000000E+00  0.00000000000E+00  0.97059680884E+02  0.97059680918E+02  0.25500000920E-02 0. -1.
        2   -1    0    0  501    0  0.00000000000E+00  0.00000000000E+00 -0.21037026913E+04  0.21037026913E+04  0.25500000920E-02 0.  1.
    10030    2    1    2    0    0  0.00000000000E+00  0.00000000000E+00 -0.20066430105E+04  0.22007623723E+04  0.90373604982E+03 0.  0.
        1    1    3    3  502    0  0.25916965791E+03 -0.32916313968E+03 -0.59100956742E+03  0.72443743202E+03  0.50400001928E-02 0. -1.
       -1    1    3    3    0  502 -0.25916965791E+03  0.32916313968E+03 -0.14156334430E+04  0.14763249402E+04  0.50400001928E-02 0.  1.
</event>
<event>
 5   0  0.9981885E-04  0.8997935E+03  0.7818609E-02  0.9425840E-01
        1   -1    0    0  501    0  0.00000000000E+00  0.00000000000E+00  0.24535014249E+04  0.24535014249E+04  0.50400001928E-02 0. -1.
       -1   -1    0    0    0  501  0.00000000000E+00  0.00000000000E+00 -0.82497233330E+02  0.82497233484E+02  0.50400001928E-02 0.  1.
    10030    2    1    2    0    0  0.00000000000E+00  0.00000000000E+00  0.23710041916E+04  0.25359986584E+04  0.89979348682E+03 0.  0.
        4    1    3    3  502    0 -0.14696707436E+03  0.37786515883E+03  0.63591634887E+03  0.75417014981E+03  0.12699999809E+01 0.  1.
       -4    1    3    3    0  502  0.14696707436E+03 -0.37786515883E+03  0.17350878427E+04  0.17818285086E+04  0.12699999809E+01 0. -1.
</event>
<event>
 5   0  0.1007561E-03  0.8954678E+03  0.7818609E-02  0.9431265E-01
        1   -1    0    0  501    0  0.00000000000E+00  0.00000000000E+00  0.72840554875E+03  0.72840554877E+03  0.50400001928E-02 0.  1.
       -1   -1    0    0    0  501  0.00000000000E+00  0.00000000000E+00 -0.27521157089E+03  0.27521157094E+03  0.50400001928E-02 0. -1.
    10030    2    1    2    0    0  0.00000000000E+00  0.00000000000E+00  0.45319397786E+03  0.10036171197E+04  0.89546777798E+03 0.  0.
        2    1    3    3  502    0 -0.17281432894E+03 -0.24502545514E+03 -0.14607240791E+03  0.33352573261E+03  0.25500000920E-02 0. -1.
       -2    1    3    3    0  502  0.17281432894E+03  0.24502545514E+03  0.59926638577E+03  0.67009138710E+03  0.25500000920E-02 0.  1.
</event>
<event>
 5   0  0.1630202E-03  0.8996544E+03  0.7818609E-02  0.9426014E-01
       -2   -1    0    0    0  501  0.00000000000E+00  0.00000000000E+00  0.31628571497E+03  0.31628571498E+03  0.25500000920E-02 0. -1.
        2   -1    0    0  501    0  0.00000000000E+00  0.00000000000E+00 -0.63975226515E+03  0.63975226516E+03  0.25500000920E-02 0.  1.
    10030    2    1    2    0    0  0.00000000000E+00  0.00000000000E+00 -0.32346655018E+03  0.95603798014E+03  0.89965438385E+03 0.  0.
        4    1    3    3  502    0  0.27997252781E+03  0.16730446799E+03  0.16746800060E+03  0.36663680320E+03  0.12699999809E+01 0. -1.
       -4    1    3    3    0  502 -0.27997252781E+03 -0.16730446799E+03 -0.49093455078E+03  0.58940117694E+03  0.12699999809E+01 0.  1.
</event>
<event>
 5   0  0.1536020E-03  0.8963083E+03  0.7818609E-02  0.9430208E-01
        2   -1    0    0  501    0  0.00000000000E+00  0.00000000000E+00  0.57838664067E+03  0.57838664068E+03  0.25500000920E-02 0.  1.
       -2   -1    0    0    0  501  0.00000000000E+00  0.00000000000E+00 -0.34724549897E+03  0.34724549898E+03  0.25500000920E-02 0. -1.
    10030    2    1    2    0    0  0.00000000000E+00  0.00000000000E+00  0.23114114170E+03  0.92563213966E+03  0.89630833455E+03 0.  0.
        2    1    3    3  502    0  0.96202708441E+02  0.22177998622E+03 -0.27413557750E+03  0.36550189912E+03  0.25500000920E-02 0. -1.
       -2    1    3    3    0  502 -0.96202708441E+02 -0.22177998622E+03  0.50527671920E+03  0.56013024054E+03  0.25500000920E-02 0.  1.
</event>
<event>
 5   0  0.1704416E-03  0.8975470E+03  0.7818609E-02  0.9428653E-01
        2   -1    0    0  501    0  0.00000000000E+00  0.00000000000E+00  0.45232522250E+03  0.45232522251E+03  0.25500000920E-02 0. -1.
       -2   -1    0    0    0  501  0.00000000000E+00  0.00000000000E+00 -0.44524970452E+03  0.44524970453E+03  0.25500000920E-02 0.  1.
    10030    2    1    2    0    0  0.00000000000E+00  0.00000000000E+00  0.70755179756E+01  0.89757492704E+03  0.89754703871E+03 0.  0.
        3    1    3    3  502    0  0.22137772981E+03  0.12195187144E+02 -0.38665488644E+03  0.44571160323E+03  0.10100000352E+00 0.  1.
       -3    1    3    3    0  502 -0.22137772981E+03 -0.12195187144E+02  0.39373040441E+03  0.45186332381E+03  0.10100000352E+00 0. -1.
</event>
<event>
 5   0  0.6375625E-04  0.8981130E+03  0.7818609E-02  0.9427943E-01
        4   -1    0    0  501    0  0.00000000000E+00  0.00000000000E+00  0.46465235674E+03  0.46465409234E+03  0.12699999809E+01 0. -1.
       -4   -1    0    0    0  501  0.00000000000E+00  0.00000000000E+00 -0.43398065183E+03  0.43398251009E+03  0.12699999809E+01 0.  1.
    10030    2    1    2    0    0  0.00000000000E+00  0.00000000000E+00  0.30671704916E+02  0.89863660243E+03  0.89811301613E+03 0.  0.
        1    1    3    3  502    0 -0.11973547954E+03 -0.31368488864E+02  0.44724845947E+03  0.46406007335E+03  0.50400001928E-02 0. -1.
       -1    1    3    3    0  502  0.11973547954E+03  0.31368488864E+02 -0.41657675456E+03  0.43457652907E+03  0.50400001928E-02 0.  1.
</event>
<event>
 5   0  0.1630202E-03  0.9115754E+03  0.7818609E-02  0.9411226E-01
        2   -1    0    0  501    0  0.00000000000E+00  0.00000000000E+00  0.68253481013E+03  0.68253481013E+03  0.25500000920E-02 0. -1.
       -2   -1    0    0    0  501  0.00000000000E+00  0.00000000000E+00 -0.30436899692E+03  0.30436899693E+03  0.25500000920E-02 0.  1.
    10030    2    1    2    0    0  0.00000000000E+00  0.00000000000E+00  0.37816581321E+03  0.98690380706E+03  0.91157541768E+03 0.  0.
        4    1    3    3  502    0 -0.21294771549E+03  0.36815265072E+03  0.36650871022E+03  0.56143864431E+03  0.12699999809E+01 0.  1.
       -4    1    3    3    0  502  0.21294771549E+03 -0.36815265072E+03  0.11657102986E+02  0.42546516275E+03  0.12699999809E+01 0. -1.
</event>
<event>
 5   0  0.1704416E-03  0.9008368E+03  0.7818609E-02  0.9424536E-01
       -2   -1    0    0    0  501  0.00000000000E+00  0.00000000000E+00  0.22193034312E+03  0.22193034314E+03  0.25500000920E-02 0. -1.
        2   -1    0    0  501    0  0.00000000000E+00  0.00000000000E+00 -0.91414597650E+03  0.91414597650E+03  0.25500000920E-02 0.  1.
    10030    2    1    2    0    0  0.00000000000E+00  0.00000000000E+00 -0.69221563337E+03  0.11360763196E+04  0.90083678930E+03 0.  0.
        3    1    3    3  502    0  0.52502056920E+02 -0.96296594577E+02 -0.89704782655E+03  0.90372800854E+03  0.10100000352E+00 0.  1.
       -3    1    3    3    0  502 -0.52502056920E+02  0.96296594577E+02  0.20483219318E+03  0.23234831110E+03  0.10100000352E+00 0. -1.
</event>
<event>
 5   0  0.9321543E-04  0.9014446E+03  0.7818609E-02  0.9423777E-01
       -1   -1    0    0    0  501  0.00000000000E+00  0.00000000000E+00  0.39726998838E+03  0.39726998841E+03  0.50400001928E-02 0.  1.
        1   -1    0    0  501    0  0.00000000000E+00  0.00000000000E+00 -0.51136656158E+03  0.51136656161E+03  0.50400001928E-02 0. -1.
    10030    2    1    2    0    0  0.00000000000E+00  0.00000000000E+00 -0.11409657320E+03  0.90863655002E+03  0.90144459176E+03 0.  0.
        3    1    3    3  502    0  0.41017470681E+03 -0.11889260816E+02  0.13089555963E+03  0.43071835620E+03  0.10100000352E+00 0.  1.
       -3    1    3    3    0  502 -0.41017470681E+03  0.11889260816E+02 -0.24499213284E+03  0.47791819382E+03  0.10100000352E+00 0. -1.
</event>
<event>
 5   0  0.1641516E-03  0.9001039E+03  0.7818609E-02  0.9425452E-01
        2   -1    0    0  501    0  0.00000000000E+00  0.00000000000E+00  0.13460476803E+04  0.13460476803E+04  0.25500000920E-02 0. -1.
       -2   -1    0    0    0  501  0.00000000000E+00  0.00000000000E+00 -0.15047517207E+03  0.15047517209E+03  0.25500000920E-02 0.  1.
    10030    2    1    2    0    0  0.00000000000E+00  0.00000000000E+00  0.11955725082E+04  0.14965228524E+04  0.90010389694E+03 0.  0.
        1    1    3    3  502    0 -0.18884573856E+03 -0.40362866172E+03  0.49305564502E+03  0.66459211449E+03  0.50400001928E-02 0.  1.
       -1    1    3    3    0  502  0.18884573856E+03  0.40362866172E+03  0.70251686316E+03  0.83193073786E+03  0.50400001928E-02 0. -1.
</event>
<event>
 5   0  0.1007561E-03  0.8956819E+03  0.7818609E-02  0.9430995E-01
        1   -1    0    0  501    0  0.00000000000E+00  0.00000000000E+00  0.17965052656E+04  0.17965052656E+04  0.50400001928E-02 0. -1.
       -1   -1    0    0    0  501  0.00000000000E+00  0.00000000000E+00 -0.11163982394E+03  0.11163982405E+03  0.50400001928E-02 0.  1.
    10030    2    1    2    0    0  0.00000000000E+00  0.00000000000E+00  0.16848654416E+04  0.19081450896E+04  0.89568193387E+03 0.  0.
        2    1    3    3  502    0  0.24288913214E+03  0.32347311520E+03  0.43302472793E+03  0.59257100990E+03  0.25500000920E-02 0. -1.
       -2    1    3    3    0  502 -0.24288913214E+03 -0.32347311520E+03  0.12518407137E+04  0.13155740797E+04  0.25500000920E-02 0.  1.
</event>
<event>
 5   0  0.9223454E-04  0.9006601E+03  0.7818609E-02  0.9424757E-01
       -1   -1    0    0    0  501  0.00000000000E+00  0.00000000000E+00  0.38034500872E+03  0.38034500876E+03  0.50400001928E-02 0. -1.
        1   -1    0    0  501    0  0.00000000000E+00  0.00000000000E+00 -0.53319262952E+03  0.53319262954E+03  0.50400001928E-02 0.  1.
    10030    2    1    2    0    0  0.00000000000E+00  0.00000000000E+00 -0.15284762080E+03  0.91353763830E+03  0.90066010315E+03 0.  0.
        1    1    3    3  502    0 -0.17009304373E+03 -0.38655817211E+03  0.82138855688E+02  0.43023906795E+03  0.50400001928E-02 0.  1.
       -1    1    3    3    0  502  0.17009304373E+03  0.38655817211E+03 -0.23498647648E+03  0.48329857035E+03  0.50400001928E-02 0. -1.
</event>
<event>
 5   0  0.1630202E-03  0.9008504E+03  0.7818609E-02  0.9424519E-01
        2   -1    0    0  501    0  0.00000000000E+00  0.00000000000E+00  0.14416009125E+04  0.14416009125E+04  0.25500000920E-02 0. -1.
       -2   -1    0    0    0  501  0.00000000000E+00  0.00000000000E+00 -0.14073442972E+03  0.14073442975E+03  0.25500000920E-02 0.  1.
    10030    2    1    2    0    0  0.00000000000E+00  0.00000000000E+00  0.13008664827E+04  0.15823353422E+04  0.90085044779E+03 0.  0.
        4    1    3    3  502    0  0.23141724992E+02  0.14311212112E+02 -0.13928641472E+03  0.14192486905E+03  0.12699999809E+01 0.  1.
       -4    1    3    3    0  502 -0.23141724992E+02 -0.14311212112E+02  0.14401528975E+04  0.14404104732E+04  0.12699999809E+01 0. -1.
</event>
<event>
 5   0  0.1630202E-03  0.9001752E+03  0.7818609E-02  0.9425362E-01
       -2   -1    0    0    0  501  0.00000000000E+00  0.00000000000E+00  0.52580843482E+03  0.52580843482E+03  0.25500000920E-02 0.  1.
        2   -1    0    0  501    0  0.00000000000E+00  0.00000000000E+00 -0.38527116888E+03  0.38527116889E+03  0.25500000920E-02 0. -1.
    10030    2    1    2    0    0  0.00000000000E+00  0.00000000000E+00  0.14053726593E+03  0.91107960372E+03  0.90017516139E+03 0.  0.
        4    1    3    3  502    0  0.98976601277E+02 -0.25688338773E+03  0.43066038215E+03  0.51113150964E+03  0.12699999809E+01 0.  1.
       -4    1    3    3    0  502 -0.98976601277E+02  0.25688338773E+03 -0.29012311622E+03  0.39994809408E+03  0.12699999809E+01 0. -1.
</event>
<event>
 5   0  0.1630202E-03  0.8988983E+03  0.7818609E-02  0.9426960E-01
        2   -1    0    0  501    0  0.00000000000E+00  0.00000000000E+00  0.69165982191E+03  0.69165982191E+03  0.25500000920E-02 0.  1.
       -2   -1    0    0    0  501  0.00000000000E+00  0.00000000000E+00 -0.29205767376E+03  0.29205767377E+03  0.25500000920E-02 0. -1.
    10030    2    1    2    0    0  0.00000000000E+00  0.00000000000E+00  0.39960214814E+03  0.98371749569E+03  0.89889834493E+03 0.  0.
        4    1    3    3  502    0 -0.41168819059E+03 -0.10928921673E+03  0.35676300830E+03  0.55561925467E+03  0.12699999809E+01 0.  1.
       -4    1    3    3    0  502  0.41168819059E+03  0.10928921673E+03  0.42839139843E+02  0.42809824102E+03  0.12699999809E+01 0. -1.
</event>
<event>
 5   0  0.6375625E-04  0.8972102E+03  0.7818609E-02  0.9429076E-01
        3   -1    0    0  501    0  0.00000000000E+00  0.00000000000E+00  0.77666461903E+02  0.77666527575E+02  0.10100000352E+00 0. -1.
       -3   -1    0    0    0  501  0.00000000000E+00  0.00000000000E+00 -0.25911627012E+04  0.25911627032E+04  0.10100000352E+00 0.  1.
    10030    2    1    2    0    0  0.00000000000E+00  0.00000000000E+00 -0.25134962393E+04  0.26688292308E+04  0.89721018603E+03 0.  0.
        4    1    3    3  502    0  0.56007224649E+01 -0.17494872463E+03 -0.28108920862E+02  0.17728550047E+03  0.12699999809E+01 0. -1.
       -4    1    3    3    0  502 -0.56007224649E+01  0.17494872463E+03 -0.24853873185E+04  0.24915437303E+04  0.12699999809E+01 0.  1.
</event>
<event>
 5   0  0.9223454E-04  0.9008630E+03  0.7818609E-02  0.9424503E-01
       -1   -1    0    0    0  501  0.00000000000E+00  0.00000000000E+00  0.27481589068E+03  0.27481589073E+03  0.50400001928E-02 0. -1.
        1   -1    0    0  501    0  0.00000000000E+00  0.00000000000E+00 -0.73827067828E+03  0.73827067830E+03  0.50400001928E-02 0.  1.
    10030    2    1    2    0    0  0.00000000000E+00  0.00000000000E+00 -0.46345478760E+03  0.10130865690E+04  0.90086295084E+03 0.  0.
        1    1    3    3  502    0 -0.58834228862E+02  0.11303583276E+03 -0.71757690269E+03  0.72880393610E+03  0.50400001928E-02 0.  1.
       -1    1    3    3    0  502  0.58834228862E+02 -0.11303583276E+03  0.25412211510E+03  0.28428263292E+03  0.50400001928E-02 0. -1.
</event>
<event>
 5   0  0.6375625E-04  0.8904849E+03  0.7818609E-02  0.9437555E-01
        3   -1    0    0  501    0  0.00000000000E+00  0.00000000000E+00  0.40995890150E+03  0.40995891394E+03  0.10100000352E+00 0. -1.
       -3   -1    0    0    0  501  0.00000000000E+00  0.00000000000E+00 -0.48356264687E+03  0.48356265741E+03  0.10100000352E+00 0.  1.
    10030    2    1    2    0    0  0.00000000000E+00  0.00000000000E+00 -0.73603745366E+02  0.89352157136E+03  0.89048486071E+03 0.  0.
        4    1    3    3  502    0 -0.22999469136E+03 -0.37824007546E+03 -0.84673016329E+02  0.45070416610E+03  0.12699999809E+01 0.  1.
       -4    1    3    3    0  502  0.22999469136E+03  0.37824007546E+03  0.11069270963E+02  0.44281740526E+03  0.12699999809E+01 0. -1.
</event>
<event>
 5   0  0.1704416E-03  0.8956492E+03  0.7818609E-02  0.9431037E-01
        2   -1    0    0  501    0  0.00000000000E+00  0.00000000000E+00  0.26975306214E+03  0.26975306215E+03  0.25500000920E-02 0.  1.
       -2   -1    0    0    0  501  0.00000000000E+00  0.00000000000E+00 -0.74344608415E+03  0.74344608416E+03  0.25500000920E-02 0. -1.
    10030    2    1    2    0    0  0.00000000000E+00  0.00000000000E+00 -0.47369302201E+03  0.10131991463E+04  0.89564916735E+03 0.  0.
        3    1    3    3  502    0 -0.10774231644E+03 -0.24765642752E+03  0.16725482210E+03  0.31767325755E+03  0.10100000352E+00 0.  1.
       -3    1    3    3    0  502  0.10774231644E+03  0.24765642752E+03 -0.64094784412E+03  0.69552588875E+03  0.10100000352E+00 0. -1.
</event>
<event>
 5   0  0.6375625E-04  0.8936072E+03  0.7818609E-02  0.9433608E-01
        3   -1    0    0  501    0  0.00000000000E+00  0.00000000000E+00  0.35213562713E+03  0.35213564161E+03  0.10100000352E+00 0.  1.
       -3   -1    0    0    0  501  0.00000000000E+00  0.00000000000E+00 -0.56692198643E+03  0.56692199542E+03  0.10100000352E+00 0. -1.
    10030    2    1    2    0    0  0.00000000000E+00  0.00000000000E+00 -0.21478635930E+03  0.91905763703E+03  0.89360716204E+03 0.  0.
        3    1    3    3  502    0  0.11142381624E+02 -0.16359813290E+03 -0.53485640647E+03  0.55942817904E+03  0.10100000352E+00 0. -1.
       -3    1    3    3    0  502 -0.11142381624E+02  0.16359813290E+03  0.32007004717E+03  0.35962945799E+03  0.10100000352E+00 0.  1.
</event>
<event>
 5   0  0.1641516E-03  0.9001534E+03  0.7818609E-02  0.9425390E-01
       -2   -1    0    0    0  501  0.00000000000E+00  0.00000000000E+00  0.12560632781E+03  0.12560632784E+03  0.25500000920E-02 0. -1.
        2   -1    0    0  501    0  0.00000000000E+00  0.00000000000E+00 -0.16127294464E+04  0.16127294464E+04  0.25500000920E-02 0.  1.
    10030    2    1    2    0    0  0.00000000000E+00  0.00000000000E+00 -0.14871231186E+04  0.17383357742E+04  0.90015337257E+03 0.  0.
        1    1    3    3  502    0  0.25930823540E+03 -0.23105902769E+03 -0.12963578289E+04  0.13420777384E+04  0.50400001928E-02 0. -1.
       -1    1    3    3    0  502 -0.25930823540E+03  0.23105902769E+03 -0.19076528970E+03  0.39625803588E+03  0.50400001928E-02 0.  1.
</event>
<event>
 5   0  0.6375625E-04  0.8988233E+03  0.7818609E-02  0.9427054E-01
       -4   -1    0    0    0  501  0.00000000000E+00  0.00000000000E+00  0.28990924759E+03  0.28991202931E+03  0.12699999809E+01 0. -1.
        4   -1    0    0  501    0  0.00000000000E+00  0.00000000000E+00 -0.69666248586E+03  0.69666364345E+03  0.12699999809E+01 0.  1.
    10030    2    1    2    0    0  0.00000000000E+00  0.00000000000E+00 -0.40675323826E+03  0.98657567276E+03  0.89882332037E+03 0.  0.
        1    1    3    3  502    0 -0.24466203310E+03 -0.81674903880E+02  0.20057598168E+03  0.32674305627E+03  0.50400001928E-02 0. -1.
       -1    1    3    3    0  502  0.24466203310E+03  0.81674903880E+02 -0.60732921994E+03  0.65983261649E+03  0.50400001928E-02 0.  1.
</event>
<event>
 5   0  0.9223454E-04  0.9011543E+03  0.7818609E-02  0.9424140E-01
        1   -1    0    0  501    0  0.00000000000E+00  0.00000000000E+00  0.26365308959E+03  0.26365308964E+03  0.50400001928E-02 0. -1.
       -1   -1    0    0    0  501  0.00000000000E+00  0.00000000000E+00 -0.77002609427E+03  0.77002609428E+03  0.50400001928E-02 0.  1.
    10030    2    1    2    0    0  0.00000000000E+00  0.00000000000E+00 -0.50637300467E+03  0.10336791839E+04  0.90115427947E+03 0.  0.
        1    1    3    3  502    0  0.13416897107E+03 -0.10421393243E+03 -0.73188075550E+03  0.75133966806E+03  0.50400001928E-02 0.  1.
       -1    1    3    3    0  502 -0.13416897107E+03  0.10421393243E+03  0.22550775082E+03  0.28233951586E+03  0.50400001928E-02 0. -1.
</event>
<event>
 5   0  0.1007561E-03  0.8961168E+03  0.7818609E-02  0.9430449E-01
        1   -1    0    0  501    0  0.00000000000E+00  0.00000000000E+00  0.82659536444E+03  0.82659536445E+03  0.50400001928E-02 0.  1.
       -1   -1    0    0    0  501  0.00000000000E+00  0.00000000000E+00 -0.24287132996E+03  0.24287133001E+03  0.50400001928E-02 0. -1.
    10030    2    1    2    0    0  0.00000000000E+00  0.00000000000E+00  0.58372403448E+03  0.10694666945E+04  0.89611676814E+03 0.  0.
        2    1    3    3  502    0 -0.20159383340E+03 -0.39762556285E+03  0.34536984072E+03  0.56393837322E+03  0.25500000920E-02 0. -1.
       -2    1    3    3    0  502  0.20159383340E+03  0.39762556285E+03  0.23835419375E+03  0.50552832125E+03  0.25500000920E-02 0.  1.
</event>
<event>
 5   0  0.1704416E-03  0.9057667E+03  0.7818609E-02  0.9418401E-01
        2   -1    0    0  501    0  0.00000000000E+00  0.00000000000E+00  0.28603546294E+03  0.28603546295E+03  0.25500000920E-02 0. -1.
       -2   -1    0    0    0  501  0.00000000000E+00  0.00000000000E+00 -0.71705556194E+03  0.71705556195E+03  0.25500000920E-02 0.  1.
    10030    2    1    2    0    0  0.00000000000E+00  0.00000000000E+00 -0.43102009901E+03  0.10030910249E+04  0.90576667993E+03 0.  0.
        3    1    3    3  502    0  0.34230033265E+03 -0.19527950828E+03  0.31626734378E+02  0.39535283560E+03  0.10100000352E+00 0.  1.
       -3    1    3    3    0  502 -0.34230033265E+03  0.19527950828E+03 -0.46264683339E+03  0.60773818930E+03  0.10100000352E+00 0. -1.
</event>
<event>
 5   0  0.1007561E-03  0.9023808E+03  0.7818609E-02  0.9422610E-01
       -1   -1    0    0    0  501  0.00000000000E+00  0.00000000000E+00  0.27488034369E+03  0.27488034374E+03  0.50400001928E-02 0.  1.
        1   -1    0    0  501    0  0.00000000000E+00  0.00000000000E+00 -0.74058685829E+03  0.74058685831E+03  0.50400001928E-02 0. -1.
    10030    2    1    2    0    0  0.00000000000E+00  0.00000000000E+00 -0.46570651459E+03  0.10154672020E+04  0.90238078475E+03 0.  0.
        2    1    3    3  502    0 -0.34504543766E+03 -0.98130460838E+02 -0.54080224587E+03  0.64896302710E+03  0.25500000920E-02 0. -1.
       -2    1    3    3    0  502  0.34504543766E+03  0.98130460838E+02  0.75095731275E+02  0.36650417495E+03  0.25500000920E-02 0.  1.
</event>
<event>
 5   0  0.1536020E-03  0.8989425E+03  0.7818609E-02  0.9426904E-01
       -2   -1    0    0    0  501  0.00000000000E+00  0.00000000000E+00  0.19552287566E+03  0.19552287568E+03  0.25500000920E-02 0.  1.
        2   -1    0    0  501    0  0.00000000000E+00  0.00000000000E+00 -0.10332520693E+04  0.10332520693E+04  0.25500000920E-02 0. -1.
    10030    2    1    2    0    0  0.00000000000E+00  0.00000000000E+00 -0.83772919364E+03  0.12287749450E+04  0.89894252516E+03 0.  0.
        2    1    3    3  502    0  0.16347647409E+03  0.22584971461E+03 -0.90076978173E+03  0.94293098944E+03  0.25500000920E-02 0. -1.
       -2    1    3    3    0  502 -0.16347647409E+03 -0.22584971461E+03  0.63040588087E+02  0.28584395554E+03  0.25500000920E-02 0.  1.
</event>
<event>
 5   0  0.9321543E-04  0.8980884E+03  0.7818609E-02  0.9427974E-01
       -1   -1    0    0    0  501  0.00000000000E+00  0.00000000000E+00  0.92335651325E+02  0.92335651462E+02  0.50400001928E-02 0.  1.
        1   -1    0    0  501    0  0.00000000000E+00  0.00000000000E+00 -0.21837795297E+04  0.21837795297E+04  0.50400001928E-02 0. -1.
    10030    2    1    2    0    0  0.00000000000E+00  0.00000000000E+00 -0.20914438784E+04  0.22761151812E+04  0.89808842635E+03 0.  0.
        3    1    3    3  502    0  0.90196029124E+02  0.73489974255E+02 -0.21449171773E+04  0.21480702520E+04  0.10100000352E+00 0. -1.
       -3    1    3    3    0  502 -0.90196029124E+02 -0.73489974255E+02  0.53473298905E+02  0.12804492916E+03  0.10100000352E+00 0.  1.
</event>
<event>
 5   0  0.9223454E-04  0.8981638E+03  0.7818609E-02  0.9427880E-01
       -1   -1    0    0    0  501  0.00000000000E+00  0.00000000000E+00  0.98082782272E+03  0.98082782273E+03  0.50400001928E-02 0.  1.
        1   -1    0    0  501    0  0.00000000000E+00  0.00000000000E+00 -0.20561666553E+03  0.20561666559E+03  0.50400001928E-02 0. -1.
    10030    2    1    2    0    0  0.00000000000E+00  0.00000000000E+00  0.77521115719E+03  0.11864444883E+04  0.89816378553E+03 0.  0.
        1    1    3    3  502    0 -0.41414652064E+03  0.88915647991E+02  0.19055907543E+03  0.46447399741E+03  0.50400001928E-02 0. -1.
       -1    1    3    3    0  502  0.41414652064E+03 -0.88915647991E+02  0.58465208176E+03  0.72197049091E+03  0.50400001928E-02 0.  1.
</event>
<event>
 5   0  0.1630202E-03  0.8929522E+03  0.7818609E-02  0.9434435E-01
        2   -1    0    0  501    0  0.00000000000E+00  0.00000000000E+00  0.44942452412E+03  0.44942452413E+03  0.25500000920E-02 0. -1.
       -2   -1    0    0    0  501  0.00000000000E+00  0.00000000000E+00 -0.44354703316E+03  0.44354703316E+03  0.25500000920E-02 0.  1.
    10030    2    1    2    0    0  0.00000000000E+00  0.00000000000E+00  0.58774909631E+01  0.89297155729E+03  0.89295221441E+03 0.  0.
        4    1    3    3  502    0  0.11599496609E+03 -0.23389141605E+03 -0.35925589548E+03  0.44410183292E+03  0.12699999809E+01 0.  1.
       -4    1    3    3    0  502 -0.11599496609E+03  0.23389141605E+03  0.36513338644E+03  0.44886972437E+03  0.12699999809E+01 0. -1.
</event>
<event>
 5   0  0.1635686E-03  0.9004111E+03  0.7818609E-02  0.9425068E-01
       -2   -1    0    0    0  501  0.00000000000E+00  0.00000000000E+00  0.44438822296E+03  0.44438822297E+03  0.25500000920E-02 0. -1.
        2   -1    0    0  501    0  0.00000000000E+00  0.00000000000E+00 -0.45609906880E+03  0.45609906880E+03  0.25500000920E-02 0.  1.
    10030    2    1    2    0    0  0.00000000000E+00  0.00000000000E+00 -0.11710845836E+02  0.90048729177E+03  0.90041113872E+03 0.  0.
        5    1    3    3  502    0  0.26284771866E+03 -0.27916434252E+03  0.23004863294E+03  0.44717571138E+03  0.46999998093E+01 0. -1.
       -5    1    3    3    0  502 -0.26284771866E+03  0.27916434252E+03 -0.24175947878E+03  0.45331158039E+03  0.46999998093E+01 0.  1.
</event>
<event>
 5   0  0.1007561E-03  0.9002487E+03  0.7818609E-02  0.9425271E-01
        1   -1    0    0  501    0  0.00000000000E+00  0.00000000000E+00  0.68668846012E+03  0.68668846014E+03  0.50400001928E-02 0. -1.
       -1   -1    0    0    0  501  0.00000000000E+00  0.00000000000E+00 -0.29505658402E+03  0.29505658407E+03  0.50400001928E-02 0.  1.
    10030    2    1    2    0    0  0.00000000000E+00  0.00000000000E+00  0.39163187609E+03  0.98174504420E+03  0.90024874643E+03 0.  0.
        2    1    3    3  502    0  0.15611428339E+03 -0.41542354368E+03  0.11374658830E+03  0.45813390671E+03  0.25500000920E-02 0. -1.
       -2    1    3    3    0  502 -0.15611428339E+03  0.41542354368E+03  0.27788528780E+03  0.52361113749E+03  0.25500000920E-02 0.  1.
</event>
<event>
 5   0  0.1007561E-03  0.8986936E+03  0.7818609E-02  0.9427216E-01
        1   -1    0    0  501    0  0.00000000000E+00  0.00000000000E+00  0.11562713919E+04  0.11562713919E+04  0.50400001928E-02 0. -1.
       -1   -1    0    0    0  501  0.00000000000E+00  0.00000000000E+00 -0.17462384575E+03  0.17462384583E+03  0.50400001928E-02 0.  1.
    10030    2    1    2    0    0  0.00000000000E+00  0.00000000000E+00  0.98164754610E+03  0.13308952377E+04  0.89869362351E+03 0.  0.
        2    1    3    3  502    0 -0.90366706643E+01 -0.41502790388E+03  0.74553692556E+03  0.85332006292E+03  0.25500000920E-02 0. -1.
       -2    1    3    3    0  502  0.90366706643E+01  0.41502790388E+03  0.23611062054E+03  0.47757517477E+03  0.25500000920E-02 0.  1.
</event>
<event>
 5   0  0.9223454E-04  0.8987566E+03  0.7818609E-02  0.9427137E-01
       -1   -1    0    0    0  501  0.00000000000E+00  0.00000000000E+00  0.33940269522E+03  0.33940269525E+03  0.50400001928E-02 0. -1.
        1   -1    0    0  501    0  0.00000000000E+00  0.00000000000E+00 -0.59498891220E+03  0.59498891222E+03  0.50400001928E-02 0.  1.
    10030    2    1    2    0    0  0.00000000000E+00  0.00000000000E+00 -0.25558621698E+03  0.93439160747E+03  0.89875656426E+03 0.  0.
        1    1    3    3  502    0 -0.46917352102E+02  0.16162848216E+03  0.30539998300E+03  0.34870353284E+03  0.50400001928E-02 0. -1.
       -1    1    3    3    0  502  0.46917352102E+02 -0.16162848216E+03 -0.56098619998E+03  0.58568807464E+03  0.50400001928E-02 0.  1.
</event>
<event>
 5   0  0.9697941E-04  0.8998151E+03  0.7818609E-02  0.9425813E-01
       -1   -1    0    0    0  501  0.00000000000E+00  0.00000000000E+00  0.79722582895E+03  0.79722582896E+03  0.50400001928E-02 0.  1.
        1   -1    0    0  501    0  0.00000000000E+00  0.00000000000E+00 -0.25390144901E+03  0.25390144906E+03  0.50400001928E-02 0. -1.
    10030    2    1    2    0    0  0.00000000000E+00  0.00000000000E+00  0.54332437994E+03  0.10511272780E+04  0.89981507698E+03 0.  0.
        5    1    3    3  502    0 -0.12712383035E+03 -0.17661017111E+03 -0.18830646571E+03  0.28780728936E+03  0.46999998093E+01 0. -1.
       -5    1    3    3    0  502  0.12712383035E+03  0.17661017111E+03  0.73163084565E+03  0.76331998866E+03  0.46999998093E+01 0.  1.
</event>
<event>
 5   0  0.9321543E-04  0.9004825E+03  0.7818609E-02  0.9424979E-01
       -1   -1    0    0    0  501  0.00000000000E+00  0.00000000000E+00  0.11761003258E+04  0.11761003258E+04  0.50400001928E-02 0.  1.
        1   -1    0    0  501    0  0.00000000000E+00  0.00000000000E+00 -0.17236383563E+03  0.17236383570E+03  0.50400001928E-02 0. -1.
    10030    2    1    2    0    0  0.00000000000E+00  0.00000000000E+00  0.10037364901E+04  0.13484641615E+04  0.90048245577E+03 0.  0.
        3    1    3    3  502    0 -0.13298566010E+03  0.15987328660E+03  0.10998763270E+04  0.11193625858E+04  0.10100000352E+00 0.  1.
       -3    1    3    3    0  502  0.13298566010E+03 -0.15987328660E+03 -0.96139836847E+02  0.22910157570E+03  0.10100000352E+00 0. -1.
</event>
<event>
 5   0  0.1641516E-03  0.8975881E+03  0.7818609E-02  0.9428601E-01
       -2   -1    0    0    0  501  0.00000000000E+00  0.00000000000E+00  0.60287384050E+03  0.60287384050E+03  0.25500000920E-02 0.  1.
        2   -1    0    0  501    0  0.00000000000E+00  0.00000000000E+00 -0.33409330916E+03  0.33409330917E+03  0.25500000920E-02 0. -1.
    10030    2    1    2    0    0  0.00000000000E+00  0.00000000000E+00  0.26878053134E+03  0.93696714968E+03  0.89758813804E+03 0.  0.
        1    1    3    3  502    0  0.44818693802E+03 -0.22274438511E+02  0.14165507083E+03  0.47056757340E+03  0.50400001928E-02 0.  1.
       -1    1    3    3    0  502 -0.44818693802E+03  0.22274438511E+02  0.12712546051E+03  0.46639957628E+03  0.50400001928E-02 0. -1.
</event>
<event>
 5   0  0.9321543E-04  0.8997701E+03  0.7818609E-02  0.9425869E-01
        1   -1    0    0  501    0  0.00000000000E+00  0.00000000000E+00  0.25452348307E+03  0.25452348312E+03  0.50400001928E-02 0. -1.
       -1   -1    0    0    0  501  0.00000000000E+00  0.00000000000E+00 -0.79519801210E+03  0.79519801212E+03  0.50400001928E-02 0.  1.
    10030    2    1    2    0    0  0.00000000000E+00  0.00000000000E+00 -0.54067452903E+03  0.10497214952E+04  0.89977012133E+03 0.  0.
        3    1    3    3  502    0  0.67254022623E+02  0.18721843264E+03  0.20042323577E+03  0.28238861294E+03  0.10100000352E+00 0. -1.
       -3    1    3    3    0  502 -0.67254022623E+02 -0.18721843264E+03 -0.74109776480E+03  0.76733288231E+03  0.10100000352E+00 0.  1.
</event>
<event>
 5   0  0.9223454E-04  0.9034173E+03  0.7818609E-02  0.9421320E-01
       -1   -1    0    0    0  501  0.00000000000E+00  0.00000000000E+00  0.12812447577E+03  0.12812447587E+03  0.50400001928E-02 0.  1.
        1   -1    0    0  501    0  0.00000000000E+00  0.00000000000E+00 -0.15925193535E+04  0.15925193535E+04  0.50400001928E-02 0. -1.
    10030    2    1    2    0    0  0.00000000000E+00  0.00000000000E+00 -0.14643948777E+04  0.17206438294E+04  0.90341730647E+03 0.  0.
        1    1    3    3  502    0 -0.93596947728E+02  0.31093710361E+03 -0.13302475690E+04  0.13693067099E+04  0.50400001928E-02 0. -1.
       -1    1    3    3    0  502  0.93596947728E+02 -0.31093710361E+03 -0.13414730874E+03  0.35133711944E+03  0.50400001928E-02 0.  1.
</event>
<event>
 5   0  0.9223454E-04  0.9004894E+03  0.7818609E-02  0.9424970E-01
       -1   -1    0    0    0  501  0.00000000000E+00  0.00000000000E+00  0.37340501966E+03  0.37340501969E+03  0.50400001928E-02 0.  1.
        1   -1    0    0  501    0  0.00000000000E+00  0.00000000000E+00 -0.54289651900E+03  0.54289651902E+03  0.50400001928E-02 0. -1.
    10030    2    1    2    0    0  0.00000000000E+00  0.00000000000E+00 -0.16949149934E+03  0.91630153871E+03  0.90048939000E+03 0.  0.
        1    1    3    3  502    0  0.35052811315E+03  0.80923232368E+01 -0.37216775107E+03  0.51131622189E+03  0.50400001928E-02 0. -1.
       -1    1    3    3    0  502 -0.35052811315E+03 -0.80923232368E+01  0.20267625173E+03  0.40498531682E+03  0.50400001928E-02 0.  1.
</event>
<event>
 5   0  0.1007561E-03  0.8991537E+03  0.7818609E-02  0.9426640E-01
       -1   -1    0    0    0  501  0.00000000000E+00  0.00000000000E+00  0.23144133726E+03  0.23144133731E+03  0.50400001928E-02 0.  1.
        1   -1    0    0  501    0  0.00000000000E+00  0.00000000000E+00 -0.87330708970E+03  0.87330708971E+03  0.50400001928E-02 0. -1.
    10030    2    1    2    0    0  0.00000000000E+00  0.00000000000E+00 -0.64186575244E+03  0.11047484270E+04  0.89915373706E+03 0.  0.
        2    1    3    3  502    0 -0.14434445831E+03  0.33849234785E+03 -0.63826573234E+03  0.73674658960E+03  0.25500000920E-02 0. -1.
       -2    1    3    3    0  502  0.14434445831E+03 -0.33849234785E+03 -0.36000201014E+01  0.36800183743E+03  0.25500000920E-02 0.  1.
</event>
<event>
 5   0  0.9321543E-04  0.9011361E+03  0.7818609E-02  0.9424162E-01
       -1   -1    0    0    0  501  0.00000000000E+00  0.00000000000E+00  0.19897851055E+03  0.19897851062E+03  0.50400001928E-02 0.  1.
        1   -1    0    0  501    0  0.00000000000E+00  0.00000000000E+00 -0.10202687209E+04  0.10202687209E+04  0.50400001928E-02 0. -1.
    10030    2    1    2    0    0  0.00000000000E+00  0.00000000000E+00 -0.82129021031E+03  0.12192472315E+04  0.90113606184E+03 0.  0.
        3    1    3    3  502    0  0.36684611109E+03  0.22529949094E+03 -0.23076272760E+03  0.48845406795E+03  0.10100000352E+00 0.  1.
       -3    1    3    3    0  502 -0.36684611109E+03 -0.22529949094E+03 -0.59052748271E+03  0.73079316355E+03  0.10100000352E+00 0. -1.
</event>
<event>
 5   0  0.1641516E-03  0.8981389E+03  0.7818609E-02  0.9427911E-01
       -2   -1    0    0    0  501  0.00000000000E+00  0.00000000000E+00  0.27699400496E+03  0.27699400497E+03  0.25500000920E-02 0. -1.
        2   -1    0    0  501    0  0.00000000000E+00  0.00000000000E+00 -0.72804233345E+03  0.72804233345E+03  0.25500000920E-02 0.  1.
    10030    2    1    2    0    0  0.00000000000E+00  0.00000000000E+00 -0.45104832849E+03  0.10050363384E+04  0.89813887953E+03 0.  0.
        1    1    3    3  502    0  0.13475555963E+03  0.30133310396E+02  0.25264793901E+03  0.28792022916E+03  0.50400001928E-02 0. -1.
       -1    1    3    3    0  502 -0.13475555963E+03 -0.30133310396E+02 -0.70369626750E+03  0.71711610927E+03  0.50400001928E-02 0.  1.
</event>
<event>
 5   0  0.1704416E-03  0.8980984E+03  0.7818609E-02  0.9427962E-01
        2   -1    0    0  501    0  0.00000000000E+00  0.00000000000E+00  0.74004826423E+03  0.74004826423E+03  0.25500000920E-02 0. -1.
       -2   -1    0    0    0  501  0.00000000000E+00  0.00000000000E+00 -0.27247569161E+03  0.27247569162E+03  0.25500000920E-02 0.  1.
    10030    2    1    2    0    0  0.00000000000E+00  0.00000000000E+00  0.46757257262E+03  0.10125239559E+04  0.89809835236E+03 0.  0.
        3    1    3    3  502    0  0.36051301252E+03  0.70017179294E+02  0.52511428500E+03  0.64079408557E+03  0.10100000352E+00 0. -1.
       -3    1    3    3    0  502 -0.36051301252E+03 -0.70017179294E+02 -0.57541712381E+02  0.37172987028E+03  0.10100000352E+00 0.  1.
</event>
<event>
 5   0  0.9321543E-04  0.8991797E+03  0.7818609E-02  0.9426607E-01
        1   -1    0    0  501    0  0.00000000000E+00  0.00000000000E+00  0.18541814366E+04  0.18541814366E+04  0.50400001928E-02 0. -1.
       -1   -1    0    0    0  501  0.00000000000E+00  0.00000000000E+00 -0.10901362839E+03  0.10901362851E+03  0.50400001928E-02 0.  1.
    10030    2    1    2    0    0  0.00000000000E+00  0.00000000000E+00  0.17451678082E+04  0.19631950651E+04  0.89917972890E+03 0.  0.
        3    1    3    3  502    0 -0.43862734863E+03  0.54340389554E+02  0.10524157056E+04  0.11414576893E+04  0.10100000352E+00 0.  1.
       -3    1    3    3    0  502  0.43862734863E+03 -0.54340389554E+02  0.69275210257E+03  0.82173737576E+03  0.10100000352E+00 0. -1.
</event>
<event>
 5   0  0.6375625E-04  0.9021954E+03  0.7818609E-02  0.9422841E-01
       -4   -1    0    0    0  501  0.00000000000E+00  0.00000000000E+00  0.51531063077E+03  0.51531219574E+03  0.12699999809E+01 0. -1.
        4   -1    0    0  501    0  0.00000000000E+00  0.00000000000E+00 -0.39488316346E+03  0.39488520570E+03  0.12699999809E+01 0.  1.
    10030    2    1    2    0    0  0.00000000000E+00  0.00000000000E+00  0.12042746731E+03  0.91019740145E+03  0.90219539719E+03 0.  0.
        2    1    3    3  502    0 -0.11512281910E+03  0.24129990552E+03  0.42676841567E+03  0.50359724831E+03  0.25500000920E-02 0. -1.
       -2    1    3    3    0  502  0.11512281910E+03 -0.24129990552E+03 -0.30634094836E+03  0.40660015314E+03  0.25500000920E-02 0.  1.
</event>
<event>
 5   0  0.9981885E-04  0.8927554E+03  0.7818609E-02  0.9434683E-01
       -1   -1    0    0    0  501  0.00000000000E+00  0.00000000000E+00  0.16761173944E+03  0.16761173952E+03  0.50400001928E-02 0. -1.
        1   -1    0    0  501    0  0.00000000000E+00  0.00000000000E+00 -0.11887774403E+04  0.11887774403E+04  0.50400001928E-02 0.  1.
    10030    2    1    2    0    0  0.00000000000E+00  0.00000000000E+00 -0.10211657009E+04  0.13563891799E+04  0.89275540803E+03 0.  0.
        4    1    3    3  502    0  0.43551832076E+03  0.85796391136E+02 -0.43909017428E+03  0.62437090138E+03  0.12699999809E+01 0.  1.
       -4    1    3    3    0  502 -0.43551832076E+03 -0.85796391136E+02 -0.58207552662E+03  0.73201827848E+03  0.12699999809E+01 0. -1.
</event>
<event>
 5   0  0.1007561E-03  0.8986016E+03  0.7818609E-02  0.9427331E-01
        1   -1    0    0  501    0  0.00000000000E+00  0.00000000000E+00  0.29881801936E+03  0.29881801940E+03  0.50400001928E-02 0.  1.
       -1   -1    0    0    0  501  0.00000000000E+00  0.00000000000E+00 -0.67556570398E+03  0.67556570400E+03  0.50400001928E-02 0. -1.
    10030    2    1    2    0    0  0.00000000000E+00  0.00000000000E+00 -0.37674768462E+03  0.97438372340E+03  0.89860159279E+03 0.  0.
        2    1    3    3  502    0  0.25180138175E+03  0.35651955419E+03 -0.72796529386E+02  0.44250363057E+03  0.25500000920E-02 0.  1.
       -2    1    3    3    0  502 -0.25180138175E+03 -0.35651955419E+03 -0.30395115524E+03  0.53188009283E+03  0.25500000920E-02 0. -1.
</event>
<event>
 5   0  0.9223454E-04  0.8984919E+03  0.7818609E-02  0.9427469E-01
       -1   -1    0    0    0  501  0.00000000000E+00  0.00000000000E+00  0.31953070456E+03  0.31953070460E+03  0.50400001928E-02 0. -1.
        1   -1    0    0  501    0  0.00000000000E+00  0.00000000000E+00 -0.63161980318E+03  0.63161980320E+03  0.50400001928E-02 0.  1.
    10030    2    1    2    0    0  0.00000000000E+00  0.00000000000E+00 -0.31208909863E+03  0.95115050780E+03  0.89849189368E+03 0.  0.
        1    1    3    3  502    0  0.14234579180E+03  0.34090955573E+03  0.11455405166E+03  0.38678712544E+03  0.50400001928E-02 0. -1.
       -1    1    3    3    0  502 -0.14234579180E+03 -0.34090955573E+03 -0.42664315029E+03  0.56436338236E+03  0.50400001928E-02 0.  1.
</event>
<event>
 5   0  0.9697941E-04  0.8971340E+03  0.7818609E-02  0.9429171E-01
        1   -1    0    0  501    0  0.00000000000E+00  0.00000000000E+00  0.30334680707E+03  0.30334680711E+03  0.50400001928E-02 0.  1.
       -1   -1    0    0    0  501  0.00000000000E+00  0.00000000000E+00 -0.66330797226E+03  0.66330797228E+03  0.50400001928E-02 0. -1.
    10030    2    1    2    0    0  0.00000000000E+00  0.00000000000E+00 -0.35996116519E+03  0.96665477939E+03  0.89713400452E+03 0.  0.
        5    1    3    3  502    0 -0.86777224914E+02 -0.25276784582E+03  0.20816848807E+03  0.33878913806E+03  0.46999998093E+01 0.  1.
       -5    1    3    3    0  502  0.86777224914E+02  0.25276784582E+03 -0.56812965326E+03  0.62786564133E+03  0.46999998093E+01 0. -1.
</event>
<event>
 5   0  0.1635686E-03  0.9008434E+03  0.7818609E-02  0.9424528E-01
        2   -1    0    0  501    0  0.00000000000E+00  0.00000000000E+00  0.15245367158E+04  0.15245367159E+04  0.25500000920E-02 0. -1.
       -2   -1    0    0    0  501  0.00000000000E+00  0.00000000000E+00 -0.13307630147E+03  0.13307630150E+03  0.25500000920E-02 0.  1.
    10030    2    1    2    0    0  0.00000000000E+00  0.00000000000E+00  0.13914604144E+04  0.16576130173E+04  0.90084339955E+03 0.  0.
        5    1    3    3  502    0 -0.13901182584E+03  0.25831981317E+03  0.13246034038E+04  0.13567054510E+04  0.46999998093E+01 0. -1.
       -5    1    3    3    0  502  0.13901182584E+03 -0.25831981317E+03  0.66857010607E+02  0.30090756631E+03  0.46999998093E+01 0.  1.
</event>
<event>
 5   0  0.1630202E-03  0.9018883E+03  0.7818609E-02  0.9423224E-01
       -2   -1    0    0    0  501  0.00000000000E+00  0.00000000000E+00  0.23270839470E+03  0.23270839472E+03  0.25500000920E-02 0. -1.
        2   -1    0    0  501    0  0.00000000000E+00  0.00000000000E+00 -0.87384316148E+03  0.87384316148E+03  0.25500000920E-02 0.  1.
    10030    2    1    2    0    0  0.00000000000E+00  0.00000000000E+00 -0.64113476678E+03  0.11065515562E+04  0.90188832865E+03 0.  0.
        4    1    3    3  502    0 -0.54733845626E+02  0.33425273334E+03  0.44695212285E+02  0.34164302789E+03  0.12699999809E+01 0. -1.
       -4    1    3    3    0  502  0.54733845626E+02 -0.33425273334E+03 -0.68582997906E+03  0.76490852831E+03  0.12699999809E+01 0.  1.
</event>
<event>
 5   0  0.9697941E-04  0.8972422E+03  0.7818609E-02  0.9429035E-01
       -1   -1    0    0    0  501  0.00000000000E+00  0.00000000000E+00  0.10702904325E+03  0.10702904337E+03  0.50400001928E-02 0.  1.
        1   -1    0    0  501    0  0.00000000000E+00  0.00000000000E+00 -0.18804324185E+04  0.18804324185E+04  0.50400001928E-02 0. -1.
    10030    2    1    2    0    0  0.00000000000E+00  0.00000000000E+00 -0.17734033752E+04  0.19874614618E+04  0.89724218084E+03 0.  0.
        5    1    3    3  502    0 -0.34210763436E+03  0.28921027920E+03 -0.93905320454E+03  0.10404437659E+04  0.46999998093E+01 0.  1.
       -5    1    3    3    0  502  0.34210763436E+03 -0.28921027920E+03 -0.83435017067E+03  0.94701769591E+03  0.46999998093E+01 0. -1.
</event>
<event>
 5   0  0.9697941E-04  0.8988174E+03  0.7818609E-02  0.9427061E-01
       -1   -1    0    0    0  501  0.00000000000E+00  0.00000000000E+00  0.35486176395E+03  0.35486176398E+03  0.50400001928E-02 0.  1.
        1   -1    0    0  501    0  0.00000000000E+00  0.00000000000E+00 -0.56914606032E+03  0.56914606034E+03  0.50400001928E-02 0. -1.
    10030    2    1    2    0    0  0.00000000000E+00  0.00000000000E+00 -0.21428429637E+03  0.92400782433E+03  0.89881738954E+03 0.  0.
        5    1    3    3  502    0  0.24087168015E+02  0.30679152250E+03  0.22951854691E+03  0.38392978956E+03  0.46999998093E+01 0.  1.
       -5    1    3    3    0  502 -0.24087168015E+02 -0.30679152250E+03 -0.44380284328E+03  0.54007803477E+03  0.46999998093E+01 0. -1.
</event>
<event>
 5   0  0.1641516E-03  0.8996713E+03  0.7818609E-02  0.9425992E-01
        2   -1    0    0  501    0  0.00000000000E+00  0.00000000000E+00  0.18553733948E+04  0.18553733948E+04  0.25500000920E-02 0.  1.
       -2   -1    0    0    0  501  0.00000000000E+00  0.00000000000E+00 -0.10906274915E+03  0.10906274918E+03  0.25500000920E-02 0. -1.
    10030    2    1    2    0    0  0.00000000000E+00  0.00000000000E+00  0.17463106457E+04  0.19644361440E+04  0.89967132482E+03 0.  0.
        1    1    3    3  502    0 -0.13844924283E+03 -0.41285576027E+03  0.11195534140E+04  0.12012568079E+04  0.50400001928E-02 0.  1.
       -1    1    3    3    0  502  0.13844924283E+03  0.41285576027E+03  0.62675723164E+03  0.76317933611E+03  0.50400001928E-02 0. -1.
</event>
<event>
 5   0  0.1630202E-03  0.8976586E+03  0.7818609E-02  0.9428513E-01
       -2   -1    0    0    0  501  0.00000000000E+00  0.00000000000E+00  0.14237025792E+03  0.14237025794E+03  0.25500000920E-02 0. -1.
        2   -1    0    0  501    0  0.00000000000E+00  0.00000000000E+00 -0.14149565303E+04  0.14149565303E+04  0.25500000920E-02 0.  1.
    10030    2    1    2    0    0  0.00000000000E+00  0.00000000000E+00 -0.12725862724E+04  0.15573267882E+04  0.89765856801E+03 0.  0.
        4    1    3    3  502    0  0.59521107191E+01  0.54894479172E+02 -0.14090385433E+04  0.14101205838E+04  0.12699999809E+01 0.  1.
       -4    1    3    3    0  502 -0.59521107191E+01 -0.54894479172E+02  0.13645227096E+03  0.14720620440E+03  0.12699999809E+01 0. -1.
</event>
<event>
 5   0  0.1630202E-03  0.8748528E+03  0.7818609E-02  0.9457574E-01
        2   -1    0    0  501    0  0.00000000000E+00  0.00000000000E+00  0.15210662594E+04  0.15210662594E+04  0.25500000920E-02 0. -1.
       -2   -1    0    0    0  501  0.00000000000E+00  0.00000000000E+00 -0.12579456022E+03  0.12579456024E+03  0.25500000920E-02 0.  1.
    10030    2    1    2    0    0  0.00000000000E+00  0.00000000000E+00  0.13952716992E+04  0.16468608196E+04  0.87485281319E+03 0.  0.
        4    1    3    3  502    0  0.16326920917E+02  0.64944547526E+02 -0.11608472246E+03  0.13402103674E+03  0.12699999809E+01 0.  1.
       -4    1    3    3    0  502 -0.16326920917E+02 -0.64944547526E+02  0.15113564216E+04  0.15128397829E+04  0.12699999809E+01 0. -1.
</event>
<event>
 5   0  0.9981885E-04  0.8995553E+03  0.7818609E-02  0.9426138E-01
       -1   -1    0    0    0  501  0.00000000000E+00  0.00000000000E+00  0.60400334071E+03  0.60400334073E+03  0.50400001928E-02 0.  1.
        1   -1    0    0  501    0  0.00000000000E+00  0.00000000000E+00 -0.33493180603E+03  0.33493180606E+03  0.50400001928E-02 0. -1.
    10030    2    1    2    0    0  0.00000000000E+00  0.00000000000E+00  0.26907153468E+03  0.93893514679E+03  0.89955528963E+03 0.  0.
        4    1    3    3  502    0 -0.25065601991E+03 -0.29175607231E+02  0.52314989368E+03  0.58083309180E+03  0.12699999809E+01 0.  1.
       -4    1    3    3    0  502  0.25065601991E+03  0.29175607231E+02 -0.25407835900E+03  0.35810205499E+03  0.12699999809E+01 0. -1.
</event>
<event>
 5   0  0.9321543E-04  0.8988935E+03  0.7818609E-02  0.9426966E-01
        1   -1    0    0  501    0  0.00000000000E+00  0.00000000000E+00  0.21477708216E+03  0.21477708222E+03  0.50400001928E-02 0. -1.
       -1   -1    0    0    0  501  0.00000000000E+00  0.00000000000E+00 -0.94052109312E+03  0.94052109313E+03  0.50400001928E-02 0.  1.
    10030    2    1    2    0    0  0.00000000000E+00  0.00000000000E+00 -0.72574401096E+03  0.11552981754E+04  0.89889348898E+03 0.  0.
        3    1    3    3  502    0 -0.18645141952E+02 -0.18228315230E+03 -0.89033555527E+03  0.90899515956E+03  0.10100000352E+00 0.  1.
       -3    1    3    3    0  502  0.18645141952E+02  0.18228315230E+03  0.16459154431E+03  0.24630301579E+03  0.10100000352E+00 0. -1.
</event>
<event>
 5   0  0.9321543E-04  0.9000703E+03  0.7818609E-02  0.9425494E-01
        1   -1    0    0  501    0  0.00000000000E+00  0.00000000000E+00  0.84078268774E+03  0.84078268775E+03  0.50400001928E-02 0.  1.
       -1   -1    0    0    0  501  0.00000000000E+00  0.00000000000E+00 -0.24088462771E+03  0.24088462777E+03  0.50400001928E-02 0. -1.
    10030    2    1    2    0    0  0.00000000000E+00  0.00000000000E+00  0.59989806002E+03  0.10816673155E+04  0.90007027450E+03 0.  0.
        3    1    3    3  502    0  0.27525678681E+03 -0.31979994669E+03  0.48802834191E+03  0.64514337732E+03  0.10100000352E+00 0.  1.
       -3    1    3    3    0  502 -0.27525678681E+03  0.31979994669E+03  0.11186971811E+03  0.43652393820E+03  0.10100000352E+00 0. -1.
</event>
<event>
 5   0  0.1630202E-03  0.9082944E+03  0.7818609E-02  0.9415272E-01
       -2   -1    0    0    0  501  0.00000000000E+00  0.00000000000E+00  0.14018728714E+03  0.14018728716E+03  0.25500000920E-02 0.  1.
        2   -1    0    0  501    0  0.00000000000E+00  0.00000000000E+00 -0.14712438450E+04  0.14712438450E+04  0.25500000920E-02 0. -1.
    10030    2    1    2    0    0  0.00000000000E+00  0.00000000000E+00 -0.13310565578E+04  0.16114311321E+04  0.90829440903E+03 0.  0.
        4    1    3    3  502    0 -0.37162885943E+02 -0.33692910123E+03 -0.12017313932E+04  0.12486241443E+04  0.12699999809E+01 0.  1.
       -4    1    3    3    0  502  0.37162885943E+02  0.33692910123E+03 -0.12932516464E+03  0.36280698788E+03  0.12699999809E+01 0. -1.
</event>
<event>
 5   0  0.9981885E-04  0.8952926E+03  0.7818609E-02  0.9431485E-01
        1   -1    0    0  501    0  0.00000000000E+00  0.00000000000E+00  0.77191497494E+03  0.77191497496E+03  0.50400001928E-02 0.  1.
       -1   -1    0    0    0  501  0.00000000000E+00  0.00000000000E+00 -0.25959748801E+03  0.25959748806E+03  0.50400001928E-02 0. -1.
    10030    2    1    2    0    0  0.00000000000E+00  0.00000000000E+00  0.51231748693E+03  0.10315124630E+04  0.89529255215E+03 0.  0.
        4    1    3    3  502    0 -0.13595853208E+03  0.27612662910E+03  0.63066097286E+03  0.70175887122E+03  0.12699999809E+01 0.  1.
       -4    1    3    3    0  502  0.13595853208E+03 -0.27612662910E+03 -0.11834348593E+03  0.32975359180E+03  0.12699999809E+01 0. -1.
</event>
<event>
 5   0  0.1641516E-03  0.8992670E+03  0.7818609E-02  0.9426498E-01
       -2   -1    0    0    0  501  0.00000000000E+00  0.00000000000E+00  0.47738850108E+03  0.47738850109E+03  0.25500000920E-02 0.  1.
        2   -1    0    0  501    0  0.00000000000E+00  0.00000000000E+00 -0.42349218323E+03  0.42349218324E+03  0.25500000920E-02 0. -1.
    10030    2    1    2    0    0  0.00000000000E+00  0.00000000000E+00  0.53896317847E+02  0.90088068433E+03  0.89926703171E+03 0.  0.
        1    1    3    3  502    0 -0.64785004454E+01 -0.17524303779E+03  0.44171790938E+03  0.47525446316E+03  0.50400001928E-02 0.  1.
       -1    1    3    3    0  502  0.64785004454E+01  0.17524303779E+03 -0.38782159153E+03  0.42562622117E+03  0.50400001928E-02 0. -1.
</event>
<event>
 5   0  0.9697941E-04  0.8999738E+03  0.7818609E-02  0.9425614E-01
        1   -1    0    0  501    0  0.00000000000E+00  0.00000000000E+00  0.13300277222E+04  0.13300277222E+04  0.50400001928E-02 0. -1.
       -1   -1    0    0    0  501  0.00000000000E+00  0.00000000000E+00 -0.15224359041E+03  0.15224359049E+03  0.50400001928E-02 0.  1.
    10030    2    1    2    0    0  0.00000000000E+00  0.00000000000E+00  0.11777841317E+04  0.14822713127E+04  0.89997376814E+03 0.  0.
        5    1    3    3  502    0 -0.67271640772E+02 -0.41946639046E+03  0.83312062038E+03  0.93519494464E+03  0.46999998093E+01 0. -1.
       -5    1    3    3    0  502  0.67271640772E+02  0.41946639046E+03  0.34466351136E+03  0.54707636802E+03  0.46999998093E+01 0.  1.
</event>
<event>
 5   0  0.1704416E-03  0.8987149E+03  0.7818609E-02  0.9427189E-01
       -2   -1    0    0    0  501  0.00000000000E+00  0.00000000000E+00  0.10104550784E+04  0.10104550784E+04  0.25500000920E-02 0.  1.
        2   -1    0    0  501    0  0.00000000000E+00  0.00000000000E+00 -0.19983286141E+03  0.19983286143E+03  0.25500000920E-02 0. -1.
    10030    2    1    2    0    0  0.00000000000E+00  0.00000000000E+00  0.81062221698E+03  0.12102879398E+04  0.89871492623E+03 0.  0.
        3    1    3    3  502    0  0.10818920229E+03  0.77893448214E+02 -0.17258851062E+03  0.21808048277E+03  0.10100000352E+00 0. -1.
       -3    1    3    3    0  502 -0.10818920229E+03 -0.77893448214E+02  0.98321072760E+03  0.99220745706E+03  0.10100000352E+00 0.  1.
</event>
<event>
 5   0  0.1641516E-03  0.8995687E+03  0.7818609E-02  0.9426121E-01
       -2   -1    0    0    0  501  0.00000000000E+00  0.00000000000E+00  0.30138528331E+03  0.30138528332E+03  0.25500000920E-02 0.  1.
        2   -1    0    0  501    0  0.00000000000E+00  0.00000000000E+00 -0.67125365509E+03  0.67125365509E+03  0.25500000920E-02 0. -1.
    10030    2    1    2    0    0  0.00000000000E+00  0.00000000000E+00 -0.36986837178E+03  0.97263893841E+03  0.89956872560E+03 0.  0.
        1    1    3    3  502    0 -0.10774010112E+03  0.42945471368E+03 -0.27052684053E+03  0.51886804870E+03  0.50400001928E-02 0. -1.
       -1    1    3    3    0  502  0.10774010112E+03 -0.42945471368E+03 -0.99341531250E+02  0.45377088971E+03  0.50400001928E-02 0.  1.
</event>
<event>
 5   0  0.9697941E-04  0.9015428E+03  0.7818609E-02  0.9423655E-01
        1   -1    0    0  501    0  0.00000000000E+00  0.00000000000E+00  0.10390247524E+04  0.10390247524E+04  0.50400001928E-02 0.  1.
       -1   -1    0    0    0  501  0.00000000000E+00  0.00000000000E+00 -0.19556306736E+03  0.19556306742E+03  0.50400001928E-02 0. -1.
    10030    2    1    2    0    0  0.00000000000E+00  0.00000000000E+00  0.84346168505E+03  0.12345878198E+04  0.90154282802E+03 0.  0.
        5    1    3    3  502    0  0.10307534797E+03 -0.25553749482E+03  0.91022856090E+03  0.95103210340E+03  0.46999998093E+01 0.  1.
       -5    1    3    3    0  502 -0.10307534797E+03  0.25553749482E+03 -0.66766875853E+02  0.28355571644E+03  0.46999998093E+01 0. -1.
</event>
<event>
 5   0  0.1007561E-03  0.9011419E+03  0.7818609E-02  0.9424155E-01
       -1   -1    0    0    0  501  0.00000000000E+00  0.00000000000E+00  0.19409269548E+03  0.19409269554E+03  0.50400001928E-02 0.  1.
        1   -1    0    0  501    0  0.00000000000E+00  0.00000000000E+00 -0.10459649805E+04  0.10459649805E+04  0.50400001928E-02 0. -1.
    10030    2    1    2    0    0  0.00000000000E+00  0.00000000000E+00 -0.85187228505E+03  0.12400576761E+04  0.90114185896E+03 0.  0.
        2    1    3    3  502    0  0.95041636740E+02  0.15399527580E+02  0.17977138267E+03  0.20393089073E+03  0.25500000920E-02 0.  1.
       -2    1    3    3    0  502 -0.95041636740E+02 -0.15399527580E+02 -0.10316436677E+04  0.10361267853E+04  0.25500000920E-02 0. -1.
</event>
<event>
 5   0  0.1536020E-03  0.8729827E+03  0.7818609E-02  0.9459999E-01
       -2   -1    0    0    0  501  0.00000000000E+00  0.00000000000E+00  0.10641266354E+03  0.10641266357E+03  0.25500000920E-02 0.  1.
        2   -1    0    0  501    0  0.00000000000E+00  0.00000000000E+00 -0.17904325693E+04  0.17904325693E+04  0.25500000920E-02 0. -1.
    10030    2    1    2    0    0  0.00000000000E+00  0.00000000000E+00 -0.16840199057E+04  0.18968452328E+04  0.87298269997E+03 0.  0.
        2    1    3    3  502    0 -0.48485044035E+02  0.10155268013E+03  0.74350982210E+02  0.13487703622E+03  0.25500000920E-02 0.  1.
       -2    1    3    3    0  502  0.48485044035E+02 -0.10155268013E+03 -0.17583708879E+04  0.17619681966E+04  0.25500000920E-02 0. -1.
</event>
<event>
 5   0  0.1536020E-03  0.8983704E+03  0.7818609E-02  0.9427621E-01
        2   -1    0    0  501    0  0.00000000000E+00  0.00000000000E+00  0.14088967618E+04  0.14088967618E+04  0.25500000920E-02 0. -1.
       -2   -1    0    0    0  501  0.00000000000E+00  0.00000000000E+00 -0.14320944406E+03  0.14320944409E+03  0.25500000920E-02 0.  1.
    10030    2    1    2    0    0  0.00000000000E+00  0.00000000000E+00  0.12656873178E+04  0.15521062059E+04  0.89837035130E+03 0.  0.
        2    1    3    3  502    0 -0.69795479421E+02 -0.25873546185E+03  0.10031191075E+02  0.26817172291E+03  0.25500000920E-02 0.  1.
       -2    1    3    3    0  502  0.69795479421E+02  0.25873546185E+03  0.12556561267E+04  0.12839344830E+04  0.25500000920E-02 0. -1.
</event>
<event>
 5   0  0.9321543E-04  0.9004513E+03  0.7818609E-02  0.9425017E-01
        1   -1    0    0  501    0  0.00000000000E+00  0.00000000000E+00  0.51258037272E+03  0.51258037274E+03  0.50400001928E-02 0.  1.
       -1   -1    0    0    0  501  0.00000000000E+00  0.00000000000E+00 -0.39545629111E+03  0.39545629114E+03  0.50400001928E-02 0. -1.
    10030    2    1    2    0    0  0.00000000000E+00  0.00000000000E+00  0.11712408161E+03  0.90803666388E+03  0.90045129378E+03 0.  0.
        3    1    3    3  502    0 -0.15248463622E+03  0.37054716040E+03 -0.14846315166E+03  0.42731496576E+03  0.10100000352E+00 0. -1.
       -3    1    3    3    0  502  0.15248463622E+03 -0.37054716040E+03  0.26558723327E+03  0.48072169812E+03  0.10100000352E+00 0.  1.
</event>
<event>
 5   0  0.1007561E-03  0.9008086E+03  0.7818609E-02  0.9424571E-01
        1   -1    0    0  501    0  0.00000000000E+00  0.00000000000E+00  0.15026219674E+04  0.15026219674E+04  0.50400001928E-02 0.  1.
       -1   -1    0    0    0  501  0.00000000000E+00  0.00000000000E+00 -0.13500669481E+03  0.13500669490E+03  0.50400001928E-02 0. -1.
    10030    2    1    2    0    0  0.00000000000E+00  0.00000000000E+00  0.13676152726E+04  0.16376286623E+04  0.90080858221E+03 0.  0.
        2    1    3    3  502    0  0.23726559807E+02 -0.40764404303E+03  0.10293500237E+04  0.11073834416E+04  0.25500000920E-02 0.  1.
       -2    1    3    3    0  502 -0.23726559807E+02  0.40764404303E+03  0.33826524890E+03  0.53024522070E+03  0.25500000920E-02 0. -1.
</event>
<event>
 5   0  0.1641516E-03  0.9000173E+03  0.7818609E-02  0.9425560E-01
        2   -1    0    0  501    0  0.00000000000E+00  0.00000000000E+00  0.91704844077E+03  0.91704844077E+03  0.25500000920E-02 0.  1.
       -2   -1    0    0    0  501  0.00000000000E+00  0.00000000000E+00 -0.22082559312E+03  0.22082559313E+03  0.25500000920E-02 0. -1.
    10030    2    1    2    0    0  0.00000000000E+00  0.00000000000E+00  0.69622284765E+03  0.11378740339E+04  0.90001725730E+03 0.  0.
        1    1    3    3  502    0  0.78201395969E+01  0.40831863540E+03  0.58706541689E+03  0.71514408782E+03  0.50400001928E-02 0.  1.
       -1    1    3    3    0  502 -0.78201395969E+01 -0.40831863540E+03  0.10915743075E+03  0.42272994608E+03  0.50400001928E-02 0. -1.
</event>
<event>
 5   0  0.9981885E-04  0.8960843E+03  0.7818609E-02  0.9430489E-01
        1   -1    0    0  501    0  0.00000000000E+00  0.00000000000E+00  0.59935319208E+03  0.59935319210E+03  0.50400001928E-02 0. -1.
       -1   -1    0    0    0  501  0.00000000000E+00  0.00000000000E+00 -0.33493069063E+03  0.33493069067E+03  0.50400001928E-02 0.  1.
    10030    2    1    2    0    0  0.00000000000E+00  0.00000000000E+00  0.26442250145E+03  0.93428388277E+03  0.89608432322E+03 0.  0.
        4    1    3    3  502    0 -0.44096395782E+03 -0.42487627415E+02  0.62380331741E+02  0.44737828430E+03  0.12699999809E+01 0. -1.
       -4    1    3    3    0  502  0.44096395782E+03  0.42487627415E+02  0.20204216971E+03  0.48690559847E+03  0.12699999809E+01 0.  1.
</event>
<event>
 5   0  0.1641516E-03  0.9017029E+03  0.7818609E-02  0.9423455E-01
        2   -1    0    0  501    0  0.00000000000E+00  0.00000000000E+00  0.55285855499E+03  0.55285855499E+03  0.25500000920E-02 0. -1.
       -2   -1    0    0    0  501  0.00000000000E+00  0.00000000000E+00 -0.36766548624E+03  0.36766548625E+03  0.25500000920E-02 0.  1.
    10030    2    1    2    0    0  0.00000000000E+00  0.00000000000E+00  0.18519306874E+03  0.92052404124E+03  0.90170285449E+03 0.  0.
        1    1    3    3  502    0 -0.42825473970E+03 -0.12505705356E+03  0.26234919350E+02  0.44691124369E+03  0.50400001928E-02 0. -1.
       -1    1    3    3    0  502  0.42825473970E+03  0.12505705356E+03  0.15895814939E+03  0.47361279755E+03  0.50400001928E-02 0.  1.
</event>
<event>
 5   0  0.9223454E-04  0.8993849E+03  0.7818609E-02  0.9426351E-01
       -1   -1    0    0    0  501  0.00000000000E+00  0.00000000000E+00  0.44680114980E+03  0.44680114983E+03  0.50400001928E-02 0.  1.
        1   -1    0    0  501    0  0.00000000000E+00  0.00000000000E+00 -0.45260246173E+03  0.45260246175E+03  0.50400001928E-02 0. -1.
    10030    2    1    2    0    0  0.00000000000E+00  0.00000000000E+00 -0.58013119246E+01  0.89940361158E+03  0.89938490165E+03 0.  0.
        1    1    3    3  502    0 -0.18010599449E+03  0.38977519155E+03 -0.13654636002E+03  0.45056384415E+03  0.50400001928E-02 0. -1.
       -1    1    3    3    0  502  0.18010599449E+03 -0.38977519155E+03  0.13074504809E+03  0.44883976743E+03  0.50400001928E-02 0.  1.
</event>
<event>
 5   0  0.1630202E-03  0.8943241E+03  0.7818609E-02  0.9432704E-01
       -2   -1    0    0    0  501  0.00000000000E+00  0.00000000000E+00  0.15958601903E+03  0.15958601905E+03  0.25500000920E-02 0.  1.
        2   -1    0    0  501    0  0.00000000000E+00  0.00000000000E+00 -0.12529538713E+04  0.12529538713E+04  0.25500000920E-02 0. -1.
    10030    2    1    2    0    0  0.00000000000E+00  0.00000000000E+00 -0.10933678523E+04  0.14125398904E+04  0.89432414787E+03 0.  0.
        4    1    3    3  502    0  0.43600748156E+03 -0.38107734726E+02 -0.40194580077E+03  0.59423628556E+03  0.12699999809E+01 0. -1.
       -4    1    3    3    0  502 -0.43600748156E+03  0.38107734726E+02 -0.69142205155E+03  0.81830360483E+03  0.12699999809E+01 0.  1.
</event>
<event>
 5   0  0.9697941E-04  0.8859121E+03  0.7818609E-02  0.9443365E-01
        1   -1    0    0  501    0  0.00000000000E+00  0.00000000000E+00  0.24508631427E+03  0.24508631433E+03  0.50400001928E-02 0. -1.
       -1   -1    0    0    0  501  0.00000000000E+00  0.00000000000E+00 -0.80057532395E+03  0.80057532396E+03  0.50400001928E-02 0.  1.
    10030    2    1    2    0    0  0.00000000000E+00  0.00000000000E+00 -0.55548900967E+03  0.10456616383E+04  0.88591208476E+03 0.  0.
        5    1    3    3  502    0 -0.35796055641E+03 -0.16273187971E+03 -0.37090337223E+02  0.39498760453E+03  0.46999998093E+01 0. -1.
       -5    1    3    3    0  502  0.35796055641E+03  0.16273187971E+03 -0.51839867245E+03  0.65067403376E+03  0.46999998093E+01 0.  1.
</event>
<event>
 5   0  0.1704416E-03  0.8958434E+03  0.7818609E-02  0.9430792E-01
       -2   -1    0    0    0  501  0.00000000000E+00  0.00000000000E+00  0.76281543507E+03  0.76281543507E+03  0.25500000920E-02 0.  1.
        2   -1    0    0  501    0  0.00000000000E+00  0.00000000000E+00 -0.26301758006E+03  0.26301758007E+03  0.25500000920E-02 0. -1.
    10030    2    1    2    0    0  0.00000000000E+00  0.00000000000E+00  0.49979785501E+03  0.10258330151E+04  0.89584344563E+03 0.  0.
        3    1    3    3  502    0  0.37189955923E+03 -0.11714230886E+03  0.50234741318E+03  0.63591236536E+03  0.10100000352E+00 0.  1.
       -3    1    3    3    0  502 -0.37189955923E+03  0.11714230886E+03 -0.25495581658E+01  0.38992064979E+03  0.10100000352E+00 0. -1.
</event>
<event>
 5   0  0.1536020E-03  0.8979714E+03  0.7818609E-02  0.9428121E-01
       -2   -1    0    0    0  501  0.00000000000E+00  0.00000000000E+00  0.30450217510E+03  0.30450217512E+03  0.25500000920E-02 0. -1.
        2   -1    0    0  501    0  0.00000000000E+00  0.00000000000E+00 -0.66202535106E+03  0.66202535106E+03  0.25500000920E-02 0.  1.
    10030    2    1    2    0    0  0.00000000000E+00  0.00000000000E+00 -0.35752317595E+03  0.96652752618E+03  0.89797140128E+03 0.  0.
        2    1    3    3  502    0 -0.25653105158E+03  0.28247869175E+03 -0.43343906587E+03  0.57747018585E+03  0.25500000920E-02 0.  1.
       -2    1    3    3    0  502  0.25653105158E+03 -0.28247869175E+03  0.75915889911E+02  0.38905734033E+03  0.25500000920E-02 0. -1.
</event>
<event>
 5   0  0.1641516E-03  0.9010376E+03  0.7818609E-02  0.9424285E-01
        2   -1    0    0  501    0  0.00000000000E+00  0.00000000000E+00  0.14615612035E+04  0.14615612035E+04  0.25500000920E-02 0.  1.
       -2   -1    0    0    0  501  0.00000000000E+00  0.00000000000E+00 -0.13887011686E+03  0.13887011688E+03  0.25500000920E-02 0. -1.
    10030    2    1    2    0    0  0.00000000000E+00  0.00000000000E+00  0.13226910866E+04  0.16004313203E+04  0.90103756889E+03 0.  0.
        1    1    3    3  502    0 -0.20171958487E+03 -0.30856997481E+03  0.11213150156E+04  0.11803616329E+04  0.50400001928E-02 0.  1.
       -1    1    3    3    0  502  0.20171958487E+03  0.30856997481E+03  0.20137607099E+03  0.42006968739E+03  0.50400001928E-02 0. -1.
</event>
<event>
 5   0  0.1007561E-03  0.8993927E+03  0.7818609E-02  0.9426341E-01
        1   -1    0    0  501    0  0.00000000000E+00  0.00000000000E+00  0.10078382417E+04  0.10078382417E+04  0.50400001928E-02 0.  1.
       -1   -1    0    0    0  501  0.00000000000E+00  0.00000000000E+00 -0.20065404476E+03  0.20065404483E+03  0.50400001928E-02 0. -1.
    10030    2    1    2    0    0  0.00000000000E+00  0.00000000000E+00  0.80718419692E+03  0.12084922865E+04  0.89939272781E+03 0.  0.
        2    1    3    3  502    0 -0.41094045858E+03 -0.15089543151E+03  0.26534797793E+03  0.51190921182E+03  0.25500000920E-02 0. -1.
       -2    1    3    3    0  502  0.41094045858E+03  0.15089543151E+03  0.54183621899E+03  0.69658307471E+03  0.25500000920E-02 0.  1.
</event>
<event>
 5   0  0.1536020E-03  0.9025480E+03  0.7818609E-02  0.9422402E-01
        2   -1    0    0  501    0  0.00000000000E+00  0.00000000000E+00  0.56157002037E+03  0.56157002038E+03  0.25500000920E-02 0.  1.
       -2   -1    0    0    0  501  0.00000000000E+00  0.00000000000E+00 -0.36264083558E+03  0.36264083558E+03  0.25500000920E-02 0. -1.
    10030    2    1    2    0    0  0.00000000000E+00  0.00000000000E+00  0.19892918479E+03  0.92421085596E+03  0.90254799635E+03 0.  0.
        2    1    3    3  502    0 -0.33058944462E+03  0.10134245231E+02 -0.21491589202E+03  0.39443747853E+03  0.25500000920E-02 0. -1.
       -2    1    3    3    0  502  0.33058944462E+03 -0.10134245231E+02  0.41384507682E+03  0.52977337743E+03  0.25500000920E-02 0.  1.
</event>
<event>
 5   0  0.9321543E-04  0.8995870E+03  0.7818609E-02  0.9426098E-01
       -1   -1    0    0    0  501  0.00000000000E+00  0.00000000000E+00  0.95269791477E+03  0.95269791478E+03  0.50400001928E-02 0. -1.
        1   -1    0    0  501    0  0.00000000000E+00  0.00000000000E+00 -0.21235924898E+03  0.21235924903E+03  0.50400001928E-02 0.  1.
    10030    2    1    2    0    0  0.00000000000E+00  0.00000000000E+00  0.74033866579E+03  0.11650571638E+04  0.89958704687E+03 0.  0.
        3    1    3    3  502    0  0.28521155288E+03 -0.16812830826E+03 -0.24149295534E+02  0.33195776329E+03  0.10100000352E+00 0.  1.
       -3    1    3    3    0  502 -0.28521155288E+03  0.16812830826E+03  0.76448796133E+03  0.83309940052E+03  0.10100000352E+00 0. -1.
</event>
<event>
 5   0  0.9981885E-04  0.9002450E+03  0.7818609E-02  0.9425275E-01
       -1   -1    0    0    0  501  0.00000000000E+00  0.00000000000E+00  0.48252062666E+03  0.48252062669E+03  0.50400001928E-02 0.  1.
        1   -1    0    0  501    0  0.00000000000E+00  0.00000000000E+00 -0.41989967785E+03  0.41989967788E+03  0.50400001928E-02 0. -1.
    10030    2    1    2    0    0  0.00000000000E+00  0.00000000000E+00  0.62620948818E+02  0.90242030457E+03  0.90024497936E+03 0.  0.
        4    1    3    3  502    0 -0.24695214486E+03  0.32382280105E+03  0.22350816091E+03  0.46454717654E+03  0.12699999809E+01 0.  1.
       -4    1    3    3    0  502  0.24695214486E+03 -0.32382280105E+03 -0.16088721209E+03  0.43787312803E+03  0.12699999809E+01 0. -1.
</event>
<event>
 5   0  0.1007561E-03  0.9009090E+03  0.7818609E-02  0.9424446E-01
        1   -1    0    0  501    0  0.00000000000E+00  0.00000000000E+00  0.11014496361E+04  0.11014496361E+04  0.50400001928E-02 0.  1.
       -1   -1    0    0    0  501  0.00000000000E+00  0.00000000000E+00 -0.18422017207E+03  0.18422017214E+03  0.50400001928E-02 0. -1.
    10030    2    1    2    0    0  0.00000000000E+00  0.00000000000E+00  0.91722946405E+03  0.12856698083E+04  0.90090896665E+03 0.  0.
        2    1    3    3  502    0  0.10322661414E+03 -0.43320321293E+03  0.55528282390E+03  0.71180037376E+03  0.25500000920E-02 0.  1.
       -2    1    3    3    0  502 -0.10322661414E+03  0.43320321293E+03  0.36194664016E+03  0.57386943453E+03  0.25500000920E-02 0. -1.
</event>
<event>
 5   0  0.9697941E-04  0.8992478E+03  0.7818609E-02  0.9426522E-01
        1   -1    0    0  501    0  0.00000000000E+00  0.00000000000E+00  0.84544721839E+03  0.84544721840E+03  0.50400001928E-02 0. -1.
       -1   -1    0    0    0  501  0.00000000000E+00  0.00000000000E+00 -0.23911802339E+03  0.23911802345E+03  0.50400001928E-02 0.  1.
    10030    2    1    2    0    0  0.00000000000E+00  0.00000000000E+00  0.60632919500E+03  0.10845652418E+04  0.89924783632E+03 0.  0.
        5    1    3    3  502    0 -0.14777802784E+03 -0.31128926362E+03 -0.45140552468E+02  0.34756166450E+03  0.46999998093E+01 0.  1.
       -5    1    3    3    0  502  0.14777802784E+03  0.31128926362E+03  0.65146974746E+03  0.73700357734E+03  0.46999998093E+01 0. -1.
</event>
<event>
 5   0  0.1641516E-03  0.9018656E+03  0.7818609E-02  0.9423252E-01
        2   -1    0    0  501    0  0.00000000000E+00  0.00000000000E+00  0.77172633053E+03  0.77172633054E+03  0.25500000920E-02 0. -1.
       -2   -1    0    0    0  501  0.00000000000E+00  0.00000000000E+00 -0.26348772089E+03  0.26348772090E+03  0.25500000920E-02 0.  1.
    10030    2    1    2    0    0  0.00000000000E+00  0.00000000000E+00  0.50823860964E+03  0.10352140514E+04  0.90186564851E+03 0.  0.
        1    1    3    3  502    0  0.11650524135E+01  0.34374114239E+03  0.58913093818E+03  0.68208107485E+03  0.50400001928E-02 0. -1.
       -1    1    3    3    0  502 -0.11650524135E+01 -0.34374114239E+03 -0.80892328537E+02  0.35313297660E+03  0.50400001928E-02 0.  1.
</event>
<event>
 5   0  0.1630202E-03  0.8998023E+03  0.7818609E-02  0.9425829E-01
       -2   -1    0    0    0  501  0.00000000000E+00  0.00000000000E+00  0.12146131145E+03  0.12146131148E+03  0.25500000920E-02 0. -1.
        2   -1    0    0  501    0  0.00000000000E+00  0.00000000000E+00 -0.16664651936E+04  0.16664651936E+04  0.25500000920E-02 0.  1.
    10030    2    1    2    0    0  0.00000000000E+00  0.00000000000E+00 -0.15450038821E+04  0.17879265051E+04  0.89980230701E+03 0.  0.
        4    1    3    3  502    0 -0.35784856936E+02  0.42707218209E+03 -0.50050322954E+03  0.65892055696E+03  0.12699999809E+01 0.  1.
       -4    1    3    3    0  502  0.35784856936E+02 -0.42707218209E+03 -0.10445006526E+04  0.11290059481E+04  0.12699999809E+01 0. -1.
</event>
<event>
 5   0  0.1704416E-03  0.9006792E+03  0.7818609E-02  0.9424733E-01
       -2   -1    0    0    0  501  0.00000000000E+00  0.00000000000E+00  0.33152034332E+03  0.33152034333E+03  0.25500000920E-02 0. -1.
        2   -1    0    0  501    0  0.00000000000E+00  0.00000000000E+00 -0.61174450205E+03  0.61174450206E+03  0.25500000920E-02 0.  1.
    10030    2    1    2    0    0  0.00000000000E+00  0.00000000000E+00 -0.28022415873E+03  0.94326484539E+03  0.90067918229E+03 0.  0.
        3    1    3    3  502    0 -0.40739069666E+03 -0.14040523376E+03 -0.27716171908E+03  0.51234698996E+03  0.10100000352E+00 0. -1.
       -3    1    3    3    0  502  0.40739069666E+03  0.14040523376E+03 -0.30624396488E+01  0.43091785543E+03  0.10100000352E+00 0.  1.
</event>
<event>
 5   0  0.1007561E-03  0.8958225E+03  0.7818609E-02  0.9430819E-01
        1   -1    0    0  501    0  0.00000000000E+00  0.00000000000E+00  0.15325794780E+04  0.15325794780E+04  0.50400001928E-02 0.  1.
       -1   -1    0    0    0  501  0.00000000000E+00  0.00000000000E+00 -0.13090640479E+03  0.13090640488E+03  0.50400001928E-02 0. -1.
    10030    2    1    2    0    0  0.00000000000E+00  0.00000000000E+00  0.14016730732E+04  0.16634858829E+04  0.89582245921E+03 0.  0.
        2    1    3    3  502    0 -0.15789161742E+03  0.39606942772E+03  0.95560745027E+03  0.10464159562E+04  0.25500000920E-02 0.  1.
       -2    1    3    3    0  502  0.15789161742E+03 -0.39606942772E+03  0.44606562295E+03  0.61706992668E+03  0.25500000920E-02 0. -1.
</event>
<event>
 5   0  0.6375625E-04  0.8989141E+03  0.7818609E-02  0.9426940E-01
       -4   -1    0    0    0  501  0.00000000000E+00  0.00000000000E+00  0.41438173862E+03  0.41438368476E+03  0.12699999809E+01 0.  1.
        4   -1    0    0  501    0  0.00000000000E+00  0.00000000000E+00 -0.48749742697E+03  0.48749908123E+03  0.12699999809E+01 0. -1.
    10030    2    1    2    0    0  0.00000000000E+00  0.00000000000E+00 -0.73115688349E+02  0.90188276599E+03  0.89891413367E+03 0.  0.
        1    1    3    3  502    0  0.33823178801E+03 -0.10937684798E+03 -0.31250727765E+03  0.47331261963E+03  0.50400001928E-02 0. -1.
       -1    1    3    3    0  502 -0.33823178801E+03  0.10937684798E+03  0.23939158930E+03  0.42857014636E+03  0.50400001928E-02 0.  1.
</event>
<event>
 5   0  0.6375625E-04  0.8982952E+03  0.7818609E-02  0.9427715E-01
        3   -1    0    0  501    0  0.00000000000E+00  0.00000000000E+00  0.44389135261E+03  0.44389136410E+03  0.10100000352E+00 0. -1.
       -3   -1    0    0    0  501  0.00000000000E+00  0.00000000000E+00 -0.45446601542E+03  0.45446602664E+03  0.10100000352E+00 0.  1.
    10030    2    1    2    0    0  0.00000000000E+00  0.00000000000E+00 -0.10574662812E+02  0.89835739074E+03  0.89829515083E+03 0.  0.
        2    1    3    3  502    0 -0.89419272219E+02  0.42415038301E+03 -0.12291431794E+03  0.45056329545E+03  0.25500000920E-02 0. -1.
       -2    1    3    3    0  502  0.89419272219E+02 -0.42415038301E+03  0.11233965512E+03  0.44779409528E+03  0.25500000920E-02 0.  1.
</event>
<event>
 5   0  0.9697941E-04  0.9024736E+03  0.7818609E-02  0.9422495E-01
       -1   -1    0    0    0  501  0.00000000000E+00  0.00000000000E+00  0.47117410886E+03  0.47117410889E+03  0.50400001928E-02 0. -1.
        1   -1    0    0  501    0  0.00000000000E+00  0.00000000000E+00 -0.43214308504E+03  0.43214308507E+03  0.50400001928E-02 0.  1.
    10030    2    1    2    0    0  0.00000000000E+00  0.00000000000E+00  0.39031023819E+02  0.90331719396E+03  0.90247356310E+03 0.  0.
        5    1    3    3  502    0  0.40415600552E+03  0.13461175172E+03  0.16841660762E+03  0.45809239704E+03  0.46999998093E+01 0.  1.
       -5    1    3    3    0  502 -0.40415600552E+03 -0.13461175172E+03 -0.12938558381E+03  0.44522479693E+03  0.46999998093E+01 0. -1.
</event>
<event>
 5   0  0.9981885E-04  0.9011775E+03  0.7818609E-02  0.9424111E-01
        1   -1    0    0  501    0  0.00000000000E+00  0.00000000000E+00  0.58127632190E+03  0.58127632192E+03  0.50400001928E-02 0. -1.
       -1   -1    0    0    0  501  0.00000000000E+00  0.00000000000E+00 -0.34928348637E+03  0.34928348641E+03  0.50400001928E-02 0.  1.
    10030    2    1    2    0    0  0.00000000000E+00  0.00000000000E+00  0.23199283553E+03  0.93055980833E+03  0.90117749703E+03 0.  0.
        4    1    3    3  502    0  0.35781947605E+03  0.74881733009E+02  0.38799811779E+03  0.53309117765E+03  0.12699999809E+01 0. -1.
       -4    1    3    3    0  502 -0.35781947605E+03 -0.74881733009E+02 -0.15600528227E+03  0.39746863068E+03  0.12699999809E+01 0.  1.
</event>
<event>
 5   0  0.9223454E-04  0.8955958E+03  0.7818609E-02  0.9431104E-01
        1   -1    0    0  501    0  0.00000000000E+00  0.00000000000E+00  0.10108050336E+04  0.10108050336E+04  0.50400001928E-02 0. -1.
       -1   -1    0    0    0  501  0.00000000000E+00  0.00000000000E+00 -0.19837946501E+03  0.19837946508E+03  0.50400001928E-02 0.  1.
    10030    2    1    2    0    0  0.00000000000E+00  0.00000000000E+00  0.81242556854E+03  0.12091844986E+04  0.89559580578E+03 0.  0.
        1    1    3    3  502    0 -0.33566609718E+03  0.37754677879E+02  0.80313213074E+03  0.87127398903E+03  0.50400001928E-02 0. -1.
       -1    1    3    3    0  502  0.33566609718E+03 -0.37754677879E+02  0.92934378016E+01  0.33791050962E+03  0.50400001928E-02 0.  1.
</event>
<event>
 5   0  0.1630202E-03  0.8987942E+03  0.7818609E-02  0.9427090E-01
        2   -1    0    0  501    0  0.00000000000E+00  0.00000000000E+00  0.79684997476E+03  0.79684997476E+03  0.25500000920E-02 0. -1.
       -2   -1    0    0    0  501  0.00000000000E+00  0.00000000000E+00 -0.25344515286E+03  0.25344515287E+03  0.25500000920E-02 0.  1.
    10030    2    1    2    0    0  0.00000000000E+00  0.00000000000E+00  0.54340482190E+03  0.10502951276E+04  0.89879422264E+03 0.  0.
        4    1    3    3  502    0  0.20198379031E+02 -0.28225270899E+03 -0.13625997627E+03  0.31407476862E+03  0.12699999809E+01 0.  1.
       -4    1    3    3    0  502 -0.20198379031E+02  0.28225270899E+03  0.67966479817E+03  0.73622035901E+03  0.12699999809E+01 0. -1.
</event>
<event>
 5   0  0.1635686E-03  0.8999578E+03  0.7818609E-02  0.9425634E-01
       -2   -1    0    0    0  501  0.00000000000E+00  0.00000000000E+00  0.32325084251E+03  0.32325084252E+03  0.25500000920E-02 0.  1.
        2   -1    0    0  501    0  0.00000000000E+00  0.00000000000E+00 -0.62638975360E+03  0.62638975361E+03  0.25500000920E-02 0. -1.
    10030    2    1    2    0    0  0.00000000000E+00  0.00000000000E+00 -0.30313891109E+03  0.94964059613E+03  0.89995781146E+03 0.  0.
        5    1    3    3  502    0  0.16943022345E+03  0.27136355058E+03  0.18230627385E+03  0.36824237220E+03  0.46999998093E+01 0.  1.
       -5    1    3    3    0  502 -0.16943022345E+03 -0.27136355058E+03 -0.48544518494E+03  0.58139822392E+03  0.46999998093E+01 0. -1.
</event>
<event>
 5   0  0.9697941E-04  0.8972140E+03  0.7818609E-02  0.9429071E-01
       -1   -1    0    0    0  501  0.00000000000E+00  0.00000000000E+00  0.61277705830E+03  0.61277705832E+03  0.50400001928E-02 0.  1.
        1   -1    0    0  501    0  0.00000000000E+00  0.00000000000E+00 -0.32841999883E+03  0.32841999887E+03  0.50400001928E-02 0. -1.
    10030    2    1    2    0    0  0.00000000000E+00  0.00000000000E+00  0.28435705946E+03  0.94119705719E+03  0.89721400078E+03 0.  0.
        5    1    3    3  502    0  0.27712048358E+03 -0.31777705904E+03  0.30281295255E+03  0.51912984494E+03  0.46999998093E+01 0.  1.
       -5    1    3    3    0  502 -0.27712048358E+03  0.31777705904E+03 -0.18455893090E+02  0.42206721225E+03  0.46999998093E+01 0. -1.
</event>
<event>
 5   0  0.1641516E-03  0.9000062E+03  0.7818609E-02  0.9425574E-01
        2   -1    0    0  501    0  0.00000000000E+00  0.00000000000E+00  0.79478392075E+03  0.79478392075E+03  0.25500000920E-02 0. -1.
       -2   -1    0    0    0  501  0.00000000000E+00  0.00000000000E+00 -0.25478974586E+03  0.25478974587E+03  0.25500000920E-02 0.  1.
    10030    2    1    2    0    0  0.00000000000E+00  0.00000000000E+00  0.53999417489E+03  0.10495736666E+04  0.90000620706E+03 0.  0.
        1    1    3    3  502    0 -0.32825748966E+03 -0.23858278556E+03  0.49681351311E+03  0.64148140419E+03  0.50400001928E-02 0. -1.
       -1    1    3    3    0  502  0.32825748966E+03  0.23858278556E+03  0.43180661777E+02  0.40809226244E+03  0.50400001928E-02 0.  1.
</event>
<event>
 5   0  0.1536020E-03  0.8996828E+03  0.7818609E-02  0.9425978E-01
       -2   -1    0    0    0  501  0.00000000000E+00  0.00000000000E+00  0.16024292227E+03  0.16024292229E+03  0.25500000920E-02 0.  1.
        2   -1    0    0  501    0  0.00000000000E+00  0.00000000000E+00 -0.12628157205E+04  0.12628157205E+04  0.25500000920E-02 0. -1.
    10030    2    1    2    0    0  0.00000000000E+00  0.00000000000E+00 -0.11025727982E+04  0.14230586428E+04  0.89968279155E+03 0.  0.
        2    1    3    3  502    0  0.37580204055E+03  0.20080855956E+03 -0.77944035038E+03  0.88830091246E+03  0.25500000920E-02 0. -1.
       -2    1    3    3    0  502 -0.37580204055E+03 -0.20080855956E+03 -0.32313244781E+03  0.53475773029E+03  0.25500000920E-02 0.  1.
</event>
<event>
 5   0  0.1536020E-03  0.9011153E+03  0.7818609E-02  0.9424188E-01
        2   -1    0    0  501    0  0.00000000000E+00  0.00000000000E+00  0.82268598644E+03  0.82268598644E+03  0.25500000920E-02 0.  1.
       -2   -1    0    0    0  501  0.00000000000E+00  0.00000000000E+00 -0.24675538449E+03  0.24675538450E+03  0.25500000920E-02 0. -1.
    10030    2    1    2    0    0  0.00000000000E+00  0.00000000000E+00  0.57593060195E+03  0.10694413709E+04  0.90111530207E+03 0.  0.
        2    1    3    3  502    0  0.41175767321E+02 -0.22495543329E+03  0.74868400578E+03  0.78283339945E+03  0.25500000920E-02 0.  1.
       -2    1    3    3    0  502 -0.41175767321E+02  0.22495543329E+03 -0.17275340383E+03  0.28660797149E+03  0.25500000920E-02 0. -1.
</event>
<event>
 5   0  0.9981885E-04  0.8997473E+03  0.7818609E-02  0.9425897E-01
        1   -1    0    0  501    0  0.00000000000E+00  0.00000000000E+00  0.13527004040E+04  0.13527004040E+04  0.50400001928E-02 0. -1.
       -1   -1    0    0    0  501  0.00000000000E+00  0.00000000000E+00 -0.14961649496E+03  0.14961649504E+03  0.50400001928E-02 0.  1.
    10030    2    1    2    0    0  0.00000000000E+00  0.00000000000E+00  0.12030839090E+04  0.15023168990E+04  0.89974728283E+03 0.  0.
        4    1    3    3  502    0  0.38884273303E+03  0.41980418072E+02  0.97274235250E+03  0.10484227791E+04  0.12699999809E+01 0. -1.
       -4    1    3    3    0  502 -0.38884273303E+03 -0.41980418072E+02  0.23034155652E+03  0.45389411991E+03  0.12699999809E+01 0.  1.
</event>
<event>
 5   0  0.9223454E-04  0.9011184E+03  0.7818609E-02  0.9424184E-01
        1   -1    0    0  501    0  0.00000000000E+00  0.00000000000E+00  0.63380070455E+03  0.63380070457E+03  0.50400001928E-02 0. -1.
       -1   -1    0    0    0  501  0.00000000000E+00  0.00000000000E+00 -0.32029560180E+03  0.32029560184E+03  0.50400001928E-02 0.  1.
    10030    2    1    2    0    0  0.00000000000E+00  0.00000000000E+00  0.31350510275E+03  0.95409630641E+03  0.90111836761E+03 0.  0.
        1    1    3    3  502    0 -0.18377323314E+03  0.17394404299E+03  0.55146229694E+03  0.60674524825E+03  0.50400001928E-02 0. -1.
       -1    1    3    3    0  502  0.18377323314E+03 -0.17394404299E+03 -0.23795719418E+03  0.34735105815E+03  0.50400001928E-02 0.  1.
</event>
<event>
 5   0  0.1635686E-03  0.8999124E+03  0.7818609E-02  0.9425691E-01
       -2   -1    0    0    0  501  0.00000000000E+00  0.00000000000E+00  0.87885643292E+03  0.87885643292E+03  0.25500000920E-02 0.  1.
        2   -1    0    0  501    0  0.00000000000E+00  0.00000000000E+00 -0.23036818462E+03  0.23036818463E+03  0.25500000920E-02 0. -1.
    10030    2    1    2    0    0  0.00000000000E+00  0.00000000000E+00  0.64848824830E+03  0.11092246175E+04  0.89991235351E+03 0.  0.
        5    1    3    3  502    0  0.29666674687E+03 -0.32912296977E+03  0.42055509148E+03  0.61091878584E+03  0.46999998093E+01 0. -1.
       -5    1    3    3    0  502 -0.29666674687E+03  0.32912296977E+03  0.22793315682E+03  0.49830583170E+03  0.46999998093E+01 0.  1.
</event>
<event>
 5   0  0.9697941E-04  0.8998997E+03  0.7818609E-02  0.9425707E-01
        1   -1    0    0  501    0  0.00000000000E+00  0.00000000000E+00  0.10989499913E+04  0.10989499913E+04  0.50400001928E-02 0.  1.
       -1   -1    0    0    0  501  0.00000000000E+00  0.00000000000E+00 -0.18422572887E+03  0.18422572894E+03  0.50400001928E-02 0. -1.
    10030    2    1    2    0    0  0.00000000000E+00  0.00000000000E+00  0.91472426246E+03  0.12831757203E+04  0.89989969040E+03 0.  0.
        5    1    3    3  502    0  0.32447808709E+02  0.48658203879E+02 -0.17874751568E+03  0.18813092636E+03  0.46999998093E+01 0. -1.
       -5    1    3    3    0  502 -0.32447808709E+02 -0.48658203879E+02  0.10934717781E+04  0.10950447939E+04  0.46999998093E+01 0.  1.
</event>
<event>
 5   0  0.1536020E-03  0.9001796E+03  0.7818609E-02  0.9425357E-01
        2   -1    0    0  501    0  0.00000000000E+00  0.00000000000E+00  0.34743215243E+03  0.34743215244E+03  0.25500000920E-02 0. -1.
       -2   -1    0    0    0  501  0.00000000000E+00  0.00000000000E+00 -0.58308031606E+03  0.58308031607E+03  0.25500000920E-02 0.  1.
    10030    2    1    2    0    0  0.00000000000E+00  0.00000000000E+00 -0.23564816364E+03  0.93051246850E+03  0.90017964708E+03 0.  0.
        2    1    3    3  502    0 -0.99631625853E+02  0.42667770508E+03 -0.22425227317E+03  0.49220870260E+03  0.25500000920E-02 0.  1.
       -2    1    3    3    0  502  0.99631625853E+02 -0.42667770508E+03 -0.11395890469E+02  0.43830376591E+03  0.25500000920E-02 0. -1.
</event>
<event>
 5   0  0.1630202E-03  0.8989150E+03  0.7818609E-02  0.9426939E-01
        2   -1    0    0  501    0  0.00000000000E+00  0.00000000000E+00  0.43945835879E+03  0.43945835880E+03  0.25500000920E-02 0. -1.
       -2   -1    0    0    0  501  0.00000000000E+00  0.00000000000E+00 -0.45968414251E+03  0.45968414252E+03  0.25500000920E-02 0.  1.
    10030    2    1    2    0    0  0.00000000000E+00  0.00000000000E+00 -0.20225783716E+02  0.89914250132E+03  0.89891498783E+03 0.  0.
        4    1    3    3  502    0  0.15980189241E+03  0.24063526299E+03  0.33431195882E+03  0.44182357715E+03  0.12699999809E+01 0. -1.
       -4    1    3    3    0  502 -0.15980189241E+03 -0.24063526299E+03 -0.35453774254E+03  0.45731892417E+03  0.12699999809E+01 0.  1.
</event>
<event>
 5   0  0.9981885E-04  0.9022219E+03  0.7818609E-02  0.9422808E-01
       -1   -1    0    0    0  501  0.00000000000E+00  0.00000000000E+00  0.20798446001E+03  0.20798446007E+03  0.50400001928E-02 0.  1.
        1   -1    0    0  501    0  0.00000000000E+00  0.00000000000E+00 -0.97844377923E+03  0.97844377924E+03  0.50400001928E-02 0. -1.
    10030    2    1    2    0    0  0.00000000000E+00  0.00000000000E+00 -0.77045931922E+03  0.11864282393E+04  0.90222192639E+03 0.  0.
        4    1    3    3  502    0  0.28368551926E+03 -0.38952144946E+02 -0.84360866358E+03  0.89088267106E+03  0.12699999809E+01 0. -1.
       -4    1    3    3    0  502 -0.28368551926E+03  0.38952144946E+02  0.73149344360E+02  0.29554556825E+03  0.12699999809E+01 0.  1.
</event>
<event>
 5   0  0.1635686E-03  0.8989225E+03  0.7818609E-02  0.9426929E-01
       -2   -1    0    0    0  501  0.00000000000E+00  0.00000000000E+00  0.88069549598E+03  0.88069549598E+03  0.25500000920E-02 0. -1.
        2   -1    0    0  501    0  0.00000000000E+00  0.00000000000E+00 -0.22938168570E+03  0.22938168571E+03  0.25500000920E-02 0.  1.
    10030    2    1    2    0    0  0.00000000000E+00  0.00000000000E+00  0.65131381028E+03  0.11100771817E+04  0.89892250493E+03 0.  0.
        5    1    3    3  502    0  0.14622125507E+03  0.23259135582E+03 -0.11358129288E+03  0.29732506508E+03  0.46999998093E+01 0.  1.
       -5    1    3    3    0  502 -0.14622125507E+03 -0.23259135582E+03  0.76489510316E+03  0.81275211662E+03  0.46999998093E+01 0. -1.
</event>
<event>
 5   0  0.1704416E-03  0.9004216E+03  0.7818609E-02  0.9425055E-01
       -2   -1    0    0    0  501  0.00000000000E+00  0.00000000000E+00  0.84949613773E+02  0.84949613811E+02  0.25500000920E-02 0.  1.
        2   -1    0    0  501    0  0.00000000000E+00  0.00000000000E+00 -0.23859997805E+04  0.23859997805E+04  0.25500000920E-02 0. -1.
    10030    2    1    2    0    0  0.00000000000E+00  0.00000000000E+00 -0.23010501667E+04  0.24709493943E+04  0.90042158984E+03 0.  0.
        3    1    3    3  502    0 -0.10380046707E+02 -0.32192134370E+03 -0.20137478661E+04  0.20393434177E+04  0.10100000352E+00 0. -1.
       -3    1    3    3    0  502  0.10380046707E+02  0.32192134370E+03 -0.28730230063E+03  0.43160597661E+03  0.10100000352E+00 0.  1.
</event>
<event>
 5   0  0.1630202E-03  0.9013372E+03  0.7818609E-02  0.9423911E-01
        2   -1    0    0  501    0  0.00000000000E+00  0.00000000000E+00  0.15658439122E+04  0.15658439122E+04  0.25500000920E-02 0.  1.
       -2   -1    0    0    0  501  0.00000000000E+00  0.00000000000E+00 -0.12970780088E+03  0.12970780090E+03  0.25500000920E-02 0. -1.
    10030    2    1    2    0    0  0.00000000000E+00  0.00000000000E+00  0.14361361113E+04  0.16955517131E+04  0.90133716308E+03 0.  0.
        4    1    3    3  502    0 -0.28947423444E+03  0.28799222870E+03  0.35933636386E+03  0.54392930744E+03  0.12699999809E+01 0. -1.
       -4    1    3    3    0  502  0.28947423444E+03 -0.28799222870E+03  0.10767997475E+04  0.11516224057E+04  0.12699999809E+01 0.  1.
</event>
<event>
 5   0  0.1007561E-03  0.8959725E+03  0.7818609E-02  0.9430630E-01
        1   -1    0    0  501    0  0.00000000000E+00  0.00000000000E+00  0.12826283823E+04  0.12826283823E+04  0.50400001928E-02 0. -1.
       -1   -1    0    0    0  501  0.00000000000E+00  0.00000000000E+00 -0.15646909251E+03  0.15646909259E+03  0.50400001928E-02 0.  1.
    10030    2    1    2    0    0  0.00000000000E+00  0.00000000000E+00  0.11261592898E+04  0.14390974749E+04  0.89597254215E+03 0.  0.
        2    1    3    3  502    0  0.21142906274E+03  0.33726008405E+03  0.89320859515E+03  0.97788967032E+03  0.25500000920E-02 0. -1.
       -2    1    3    3    0  502 -0.21142906274E+03 -0.33726008405E+03  0.23295069463E+03  0.46120780457E+03  0.25500000920E-02 0.  1.
</event>
<event>
 5   0  0.1635686E-03  0.8990153E+03  0.7818609E-02  0.9426813E-01
        2   -1    0    0  501    0  0.00000000000E+00  0.00000000000E+00  0.48189847645E+03  0.48189847645E+03  0.25500000920E-02 0. -1.
       -2   -1    0    0    0  501  0.00000000000E+00  0.00000000000E+00 -0.41929401542E+03  0.41929401543E+03  0.25500000920E-02 0.  1.
    10030    2    1    2    0    0  0.00000000000E+00  0.00000000000E+00  0.62604461024E+02  0.90119249189E+03  0.89901534408E+03 0.  0.
        5    1    3    3  502    0 -0.76573517822E+02 -0.26448326076E+03 -0.32483290393E+03  0.42585608405E+03  0.46999998093E+01 0.  1.
       -5    1    3    3    0  502  0.76573517822E+02  0.26448326076E+03  0.38743736495E+03  0.47533640783E+03  0.46999998093E+01 0. -1.
</event>
<event>
 5   0  0.9321543E-04  0.8986220E+03  0.7818609E-02  0.9427306E-01
       -1   -1    0    0    0  501  0.00000000000E+00  0.00000000000E+00  0.77925864509E+03  0.77925864511E+03  0.50400001928E-02 0. -1.
        1   -1    0    0  501    0  0.00000000000E+00  0.00000000000E+00 -0.25906721666E+03  0.25906721671E+03  0.50400001928E-02 0.  1.
    10030    2    1    2    0    0  0.00000000000E+00  0.00000000000E+00  0.52019142843E+03  0.10383258618E+04  0.89862198565E+03 0.  0.
        3    1    3    3  502    0  0.73504192705E+01  0.31457190911E+03 -0.11050203867E+03  0.33349696463E+03  0.10100000352E+00 0.  1.
       -3    1    3    3    0  502 -0.73504192705E+01 -0.31457190911E+03  0.63069346710E+03  0.70482889719E+03  0.10100000352E+00 0. -1.
</event>
<event>
 5   0  0.1630202E-03  0.9026848E+03  0.7818609E-02  0.9422232E-01
        2   -1    0    0  501    0  0.00000000000E+00  0.00000000000E+00  0.68274712627E+03  0.68274712628E+03  0.25500000920E-02 0.  1.
       -2   -1    0    0    0  501  0.00000000000E+00  0.00000000000E+00 -0.29836808523E+03  0.29836808524E+03  0.25500000920E-02 0. -1.
    10030    2    1    2    0    0  0.00000000000E+00  0.00000000000E+00  0.38437904104E+03  0.98111521152E+03  0.90268477947E+03 0.  0.
        4    1    3    3  502    0 -0.36254160939E+03 -0.23762080592E+03  0.55534335044E+02  0.43701915428E+03  0.12699999809E+01 0. -1.
       -4    1    3    3    0  502  0.36254160939E+03  0.23762080592E+03  0.32884470600E+03  0.54409605724E+03  0.12699999809E+01 0.  1.
</event>
<event>
 5   0  0.9223454E-04  0.8884591E+03  0.7818609E-02  0.9440124E-01
        1   -1    0    0  501    0  0.00000000000E+00  0.00000000000E+00  0.15046868593E+04  0.15046868593E+04  0.50400001928E-02 0.  1.
       -1   -1    0    0    0  501  0.00000000000E+00  0.00000000000E+00 -0.13115014012E+03  0.13115014021E+03  0.50400001928E-02 0. -1.
    10030    2    1    2    0    0  0.00000000000E+00  0.00000000000E+00  0.13735367192E+04  0.16358369996E+04  0.88845909871E+03 0.  0.
        1    1    3    3  502    0  0.42594348646E+03 -0.69003593632E+02  0.49234403720E+03  0.65466938265E+03  0.50400001928E-02 0.  1.
       -1    1    3    3    0  502 -0.42594348646E+03  0.69003593632E+02  0.88119268202E+03  0.98116761690E+03  0.50400001928E-02 0. -1.
</event>
<event>
 5   0  0.1635686E-03  0.8940371E+03  0.7818609E-02  0.9433066E-01
       -2   -1    0    0    0  501  0.00000000000E+00  0.00000000000E+00  0.15746477513E+03  0.15746477515E+03  0.25500000920E-02 0. -1.
        2   -1    0    0  501    0  0.00000000000E+00  0.00000000000E+00 -0.12690175481E+04  0.12690175481E+04  0.25500000920E-02 0.  1.
    10030    2    1    2    0    0  0.00000000000E+00  0.00000000000E+00 -0.11115527729E+04  0.14264823232E+04  0.89403705259E+03 0.  0.
        5    1    3    3  502    0 -0.37085668249E+03 -0.12446276799E+03 -0.90086516255E+03  0.98214346745E+03  0.46999998093E+01 0.  1.
       -5    1    3    3    0  502  0.37085668249E+03  0.12446276799E+03 -0.21068761038E+03  0.44433885575E+03  0.46999998093E+01 0. -1.
</event>
<event>
 5   0  0.9697941E-04  0.9023051E+03  0.7818609E-02  0.9422705E-01
        1   -1    0    0  501    0  0.00000000000E+00  0.00000000000E+00  0.75489328681E+03  0.75489328682E+03  0.50400001928E-02 0. -1.
       -1   -1    0    0    0  501  0.00000000000E+00  0.00000000000E+00 -0.26962566925E+03  0.26962566930E+03  0.50400001928E-02 0.  1.
    10030    2    1    2    0    0  0.00000000000E+00  0.00000000000E+00  0.48526761755E+03  0.10245189561E+04  0.90230506527E+03 0.  0.
        5    1    3    3  502    0 -0.98721289149E+02  0.10121993903E+03 -0.24378951982E+03  0.28186306775E+03  0.46999998093E+01 0.  1.
       -5    1    3    3    0  502  0.98721289149E+02 -0.10121993903E+03  0.72905713737E+03  0.74265588838E+03  0.46999998093E+01 0. -1.
</event>
<event>
 5   0  0.9697941E-04  0.8971703E+03  0.7818609E-02  0.9429126E-01
        1   -1    0    0  501    0  0.00000000000E+00  0.00000000000E+00  0.49622697472E+03  0.49622697474E+03  0.50400001928E-02 0. -1.
       -1   -1    0    0    0  501  0.00000000000E+00  0.00000000000E+00 -0.40551734965E+03  0.40551734968E+03  0.50400001928E-02 0.  1.
    10030    2    1    2    0    0  0.00000000000E+00  0.00000000000E+00  0.90709625069E+02  0.90174432442E+03  0.89717032415E+03 0.  0.
        5    1    3    3  502    0 -0.40646711943E+03  0.36756818539E+02  0.23242186400E+03  0.46968989318E+03  0.46999998093E+01 0. -1.
       -5    1    3    3    0  502  0.40646711943E+03 -0.36756818539E+02 -0.14171223894E+03  0.43205443124E+03  0.46999998093E+01 0.  1.
</event>
<event>
 5   0  0.1635686E-03  0.9017911E+03  0.7818609E-02  0.9423345E-01
        2   -1    0    0  501    0  0.00000000000E+00  0.00000000000E+00  0.56000732726E+03  0.56000732726E+03  0.25500000920E-02 0. -1.
       -2   -1    0    0    0  501  0.00000000000E+00  0.00000000000E+00 -0.36304311385E+03  0.36304311386E+03  0.25500000920E-02 0.  1.
    10030    2    1    2    0    0  0.00000000000E+00  0.00000000000E+00  0.19696421341E+03  0.92305044112E+03  0.90179111522E+03 0.  0.
        5    1    3    3  502    0  0.20346939481E+03  0.31540731062E+03 -0.15721318445E+03  0.40696393155E+03  0.46999998093E+01 0.  1.
       -5    1    3    3    0  502 -0.20346939481E+03 -0.31540731062E+03  0.35417739786E+03  0.51608650958E+03  0.46999998093E+01 0. -1.
</event>
<event>
 5   0  0.9981885E-04  0.8990374E+03  0.7818609E-02  0.9426786E-01
       -1   -1    0    0    0  501  0.00000000000E+00  0.00000000000E+00  0.12233122107E+03  0.12233122118E+03  0.50400001928E-02 0.  1.
        1   -1    0    0  501    0  0.00000000000E+00  0.00000000000E+00 -0.16518027253E+04  0.16518027253E+04  0.50400001928E-02 0. -1.
    10030    2    1    2    0    0  0.00000000000E+00  0.00000000000E+00 -0.15294715042E+04  0.17741339465E+04  0.89903736175E+03 0.  0.
        4    1    3    3  502    0 -0.27098516284E+01  0.81443875687E+02 -0.16371017049E+04  0.16391290533E+04  0.12699999809E+01 0. -1.
       -4    1    3    3    0  502  0.27098516284E+01 -0.81443875687E+02  0.10763020070E+03  0.13500489319E+03  0.12699999809E+01 0.  1.
</event>
<event>
 5   0  0.9981885E-04  0.9034896E+03  0.7818609E-02  0.9421230E-01
       -1   -1    0    0    0  501  0.00000000000E+00  0.00000000000E+00  0.67465420607E+03  0.67465420609E+03  0.50400001928E-02 0. -1.
        1   -1    0    0  501    0  0.00000000000E+00  0.00000000000E+00 -0.30248584131E+03  0.30248584135E+03  0.50400001928E-02 0.  1.
    10030    2    1    2    0    0  0.00000000000E+00  0.00000000000E+00  0.37216836477E+03  0.97714004744E+03  0.90348955754E+03 0.  0.
        4    1    3    3  502    0 -0.21338914841E+03 -0.54857958976E+02  0.61260196479E+03  0.65102004922E+03  0.12699999809E+01 0. -1.
       -4    1    3    3    0  502  0.21338914841E+03  0.54857958976E+02 -0.24043360002E+03  0.32611999822E+03  0.12699999809E+01 0.  1.
</event>
<event>
 5   0  0.9697941E-04  0.8932688E+03  0.7818609E-02  0.9434035E-01
       -1   -1    0    0    0  501  0.00000000000E+00  0.00000000000E+00  0.22636559023E+03  0.22636559029E+03  0.50400001928E-02 0.  1.
        1   -1    0    0  501    0  0.00000000000E+00  0.00000000000E+00 -0.88123936118E+03  0.88123936120E+03  0.50400001928E-02 0. -1.
    10030    2    1    2    0    0  0.00000000000E+00  0.00000000000E+00 -0.65487377095E+03  0.11076049515E+04  0.89326875725E+03 0.  0.
        5    1    3    3  502    0  0.35699553315E+03 -0.26147471217E+03 -0.40230069214E+03  0.59806585982E+03  0.46999998093E+01 0.  1.
       -5    1    3    3    0  502 -0.35699553315E+03  0.26147471217E+03 -0.25257307881E+03  0.50953909166E+03  0.46999998093E+01 0. -1.
</event>
<event>
 5   0  0.9981885E-04  0.8963859E+03  0.7818609E-02  0.9430111E-01
       -1   -1    0    0    0  501  0.00000000000E+00  0.00000000000E+00  0.33632245825E+03  0.33632245829E+03  0.50400001928E-02 0.  1.
        1   -1    0    0  501    0  0.00000000000E+00  0.00000000000E+00 -0.59727478955E+03  0.59727478957E+03  0.50400001928E-02 0. -1.
    10030    2    1    2    0    0  0.00000000000E+00  0.00000000000E+00 -0.26095233130E+03  0.93359724786E+03  0.89638591131E+03 0.  0.
        4    1    3    3  502    0 -0.33626653185E+03  0.28177555971E+03 -0.35004808973E+02  0.44011316277E+03  0.12699999809E+01 0. -1.
       -4    1    3    3    0  502  0.33626653185E+03 -0.28177555971E+03 -0.22594752233E+03  0.49348408509E+03  0.12699999809E+01 0.  1.
</event>
<event>
 5   0  0.9981885E-04  0.8939386E+03  0.7818609E-02  0.9433190E-01
        1   -1    0    0  501    0  0.00000000000E+00  0.00000000000E+00  0.18033018413E+04  0.18033018413E+04  0.50400001928E-02 0. -1.
       -1   -1    0    0    0  501  0.00000000000E+00  0.00000000000E+00 -0.11078653059E+03  0.11078653071E+03  0.50400001928E-02 0.  1.
    10030    2    1    2    0    0  0.00000000000E+00  0.00000000000E+00  0.16925153107E+04  0.19140883720E+04  0.89393859906E+03 0.  0.
        4    1    3    3  502    0 -0.28661329743E+03  0.24761584319E+03  0.13543964526E+04  0.14063613162E+04  0.12699999809E+01 0. -1.
       -4    1    3    3    0  502  0.28661329743E+03 -0.24761584319E+03  0.33811885809E+03  0.50772705577E+03  0.12699999809E+01 0.  1.
</event>
<event>
 5   0  0.9981885E-04  0.8988811E+03  0.7818609E-02  0.9426981E-01
        1   -1    0    0  501    0  0.00000000000E+00  0.00000000000E+00  0.43650629636E+03  0.43650629639E+03  0.50400001928E-02 0. -1.
       -1   -1    0    0    0  501  0.00000000000E+00  0.00000000000E+00 -0.46275806281E+03  0.46275806283E+03  0.50400001928E-02 0.  1.
    10030    2    1    2    0    0  0.00000000000E+00  0.00000000000E+00 -0.26251766450E+02  0.89926435922E+03  0.89888110033E+03 0.  0.
        4    1    3    3  502    0  0.38585347096E+03  0.10633225917E+03 -0.21767759343E+03  0.45560355351E+03  0.12699999809E+01 0. -1.
       -4    1    3    3    0  502 -0.38585347096E+03 -0.10633225917E+03  0.19142582698E+03  0.44366080571E+03  0.12699999809E+01 0.  1.
</event>
<event>
 5   0  0.9223454E-04  0.8925034E+03  0.7818609E-02  0.9435001E-01
       -1   -1    0    0    0  501  0.00000000000E+00  0.00000000000E+00  0.19301084355E+03  0.19301084361E+03  0.50400001928E-02 0.  1.
        1   -1    0    0  501    0  0.00000000000E+00  0.00000000000E+00 -0.10317584186E+04  0.10317584186E+04  0.50400001928E-02 0. -1.
    10030    2    1    2    0    0  0.00000000000E+00  0.00000000000E+00 -0.83874757506E+03  0.12247692622E+04  0.89250336192E+03 0.  0.
        1    1    3    3  502    0  0.31819707711E+03  0.16533753303E+03 -0.78388201907E+03  0.86200748231E+03  0.50400001928E-02 0. -1.
       -1    1    3    3    0  502 -0.31819707711E+03 -0.16533753303E+03 -0.54865555988E+02  0.36276177992E+03  0.50400001928E-02 0.  1.
</event>
<event>
 5   0  0.1536020E-03  0.9004548E+03  0.7818609E-02  0.9425013E-01
       -2   -1    0    0    0  501  0.00000000000E+00  0.00000000000E+00  0.21286376062E+03  0.21286376064E+03  0.25500000920E-02 0.  1.
        2   -1    0    0  501    0  0.00000000000E+00  0.00000000000E+00 -0.95227443879E+03  0.95227443880E+03  0.25500000920E-02 0. -1.
    10030    2    1    2    0    0  0.00000000000E+00  0.00000000000E+00 -0.73941067817E+03  0.11651381994E+04  0.90045481441E+03 0.  0.
        2    1    3    3  502    0 -0.72158746002E+01  0.12515710682E+03  0.18982390343E+03  0.22748513040E+03  0.25500000920E-02 0.  1.
       -2    1    3    3    0  502  0.72158746002E+01 -0.12515710682E+03 -0.92923458159E+03  0.93765306904E+03  0.25500000920E-02 0. -1.
</event>
<event>
 5   0  0.9223454E-04  0.9011785E+03  0.7818609E-02  0.9424109E-01
       -1   -1    0    0    0  501  0.00000000000E+00  0.00000000000E+00  0.25099763841E+03  0.25099763846E+03  0.50400001928E-02 0.  1.
        1   -1    0    0  501    0  0.00000000000E+00  0.00000000000E+00 -0.80889477767E+03  0.80889477769E+03  0.50400001928E-02 0. -1.
    10030    2    1    2    0    0  0.00000000000E+00  0.00000000000E+00 -0.55789713926E+03  0.10598924162E+04  0.90117851496E+03 0.  0.
        1    1    3    3  502    0 -0.32652210813E+03  0.73275447030E+02 -0.63382592808E+03  0.71674352830E+03  0.50400001928E-02 0. -1.
       -1    1    3    3    0  502  0.32652210813E+03 -0.73275447030E+02  0.75928788823E+02  0.34314888785E+03  0.50400001928E-02 0.  1.
</event>
<event>
 5   0  0.9981885E-04  0.9006309E+03  0.7818609E-02  0.9424793E-01
       -1   -1    0    0    0  501  0.00000000000E+00  0.00000000000E+00  0.24868476418E+03  0.24868476423E+03  0.50400001928E-02 0.  1.
        1   -1    0    0  501    0  0.00000000000E+00  0.00000000000E+00 -0.81542591233E+03  0.81542591235E+03  0.50400001928E-02 0. -1.
    10030    2    1    2    0    0  0.00000000000E+00  0.00000000000E+00 -0.56674114816E+03  0.10641106766E+04  0.90063089165E+03 0.  0.
        4    1    3    3  502    0  0.36713390896E+03 -0.78188937863E+02 -0.57728481267E+03  0.68859290220E+03  0.12699999809E+01 0. -1.
       -4    1    3    3    0  502 -0.36713390896E+03  0.78188937863E+02  0.10543664518E+02  0.37551777438E+03  0.12699999809E+01 0.  1.
</event>
<event>
 5   0  0.1635686E-03  0.9006942E+03  0.7818609E-02  0.9424714E-01
       -2   -1    0    0    0  501  0.00000000000E+00  0.00000000000E+00  0.21396953504E+03  0.21396953505E+03  0.25500000920E-02 0. -1.
        2   -1    0    0  501    0  0.00000000000E+00  0.00000000000E+00 -0.94785687872E+03  0.94785687873E+03  0.25500000920E-02 0.  1.
    10030    2    1    2    0    0  0.00000000000E+00  0.00000000000E+00 -0.73388734369E+03  0.11618264138E+04  0.90069416703E+03 0.  0.
        5    1    3    3  502    0  0.25800862589E+03  0.27457416008E+03 -0.68508956450E+03  0.78187545159E+03  0.46999998093E+01 0.  1.
       -5    1    3    3    0  502 -0.25800862589E+03 -0.27457416008E+03 -0.48797779186E+02  0.37995096219E+03  0.46999998093E+01 0. -1.
</event>
<event>
 5   0  0.6375625E-04  0.8993233E+03  0.7818609E-02  0.9426428E-01
       -4   -1    0    0    0  501  0.00000000000E+00  0.00000000000E+00  0.87004673944E+03  0.87004766634E+03  0.12699999809E+01 0. -1.
        4   -1    0    0  501    0  0.00000000000E+00  0.00000000000E+00 -0.23239345373E+03  0.23239692389E+03  0.12699999809E+01 0.  1.
    10030    2    1    2    0    0  0.00000000000E+00  0.00000000000E+00  0.63765328571E+03  0.11024445902E+04  0.89932327990E+03 0.  0.
        4    1    3    3  502    0 -0.49155810446E+02  0.11472044523E+03 -0.21073488223E+03  0.24492422858E+03  0.12699999809E+01 0.  1.
       -4    1    3    3    0  502  0.49155810446E+02 -0.11472044523E+03  0.84838816794E+03  0.85752036166E+03  0.12699999809E+01 0. -1.
</event>
<event>
 5   0  0.9321543E-04  0.9016616E+03  0.7818609E-02  0.9423507E-01
        1   -1    0    0  501    0  0.00000000000E+00  0.00000000000E+00  0.47909474041E+03  0.47909474044E+03  0.50400001928E-02 0.  1.
       -1   -1    0    0    0  501  0.00000000000E+00  0.00000000000E+00 -0.42423428892E+03  0.42423428895E+03  0.50400001928E-02 0. -1.
    10030    2    1    2    0    0  0.00000000000E+00  0.00000000000E+00  0.54860451491E+02  0.90332902939E+03  0.90166161403E+03 0.  0.
        3    1    3    3  502    0 -0.14014449617E+03 -0.39940074956E+03 -0.12805654783E+03  0.44222158270E+03  0.10100000352E+00 0.  1.
       -3    1    3    3    0  502  0.14014449617E+03  0.39940074956E+03  0.18291699932E+03  0.46110744670E+03  0.10100000352E+00 0. -1.
</event>
<event>
 5   0  0.9981885E-04  0.8978946E+03  0.7818609E-02  0.9428217E-01
       -1   -1    0    0    0  501  0.00000000000E+00  0.00000000000E+00  0.18702793466E+03  0.18702793473E+03  0.50400001928E-02 0. -1.
        1   -1    0    0  501    0  0.00000000000E+00  0.00000000000E+00 -0.10776661472E+04  0.10776661472E+04  0.50400001928E-02 0.  1.
    10030    2    1    2    0    0  0.00000000000E+00  0.00000000000E+00 -0.89063821255E+03  0.12646940819E+04  0.89789459029E+03 0.  0.
        4    1    3    3  502    0  0.17574998950E+03  0.16371617124E+03  0.88915103834E+02  0.25612214298E+03  0.12699999809E+01 0. -1.
       -4    1    3    3    0  502 -0.17574998950E+03 -0.16371617124E+03 -0.97955331638E+03  0.10085719390E+04  0.12699999809E+01 0.  1.
</event>
<event>
 5   0  0.9981885E-04  0.8992251E+03  0.7818609E-02  0.9426551E-01
       -1   -1    0    0    0  501  0.00000000000E+00  0.00000000000E+00  0.10727854204E+04  0.10727854204E+04  0.50400001928E-02 0.  1.
        1   -1    0    0  501    0  0.00000000000E+00  0.00000000000E+00 -0.18843603449E+03  0.18843603456E+03  0.50400001928E-02 0. -1.
    10030    2    1    2    0    0  0.00000000000E+00  0.00000000000E+00  0.88434938592E+03  0.12612214550E+04  0.89922506756E+03 0.  0.
        4    1    3    3  502    0  0.14403508347E+03 -0.42591444562E+03  0.44109064925E+03  0.62985061246E+03  0.12699999809E+01 0.  1.
       -4    1    3    3    0  502 -0.14403508347E+03  0.42591444562E+03  0.44325873667E+03  0.63137084253E+03  0.12699999809E+01 0. -1.
</event>
<event>
 5   0  0.1630202E-03  0.8961584E+03  0.7818609E-02  0.9430396E-01
        2   -1    0    0  501    0  0.00000000000E+00  0.00000000000E+00  0.20994898922E+03  0.20994898924E+03  0.25500000920E-02 0.  1.
       -2   -1    0    0    0  501  0.00000000000E+00  0.00000000000E+00 -0.95630360629E+03  0.95630360629E+03  0.25500000920E-02 0. -1.
    10030    2    1    2    0    0  0.00000000000E+00  0.00000000000E+00 -0.74635461707E+03  0.11662525955E+04  0.89615841354E+03 0.  0.
        4    1    3    3  502    0 -0.22364638874E+03 -0.21549724404E+03 -0.79350164354E+03  0.85211691721E+03  0.12699999809E+01 0. -1.
       -4    1    3    3    0  502  0.22364638874E+03  0.21549724404E+03  0.47147026478E+02  0.31413567832E+03  0.12699999809E+01 0.  1.
</event>
<event>
 5   0  0.9697941E-04  0.8997475E+03  0.7818609E-02  0.9425897E-01
        1   -1    0    0  501    0  0.00000000000E+00  0.00000000000E+00  0.36778355727E+03  0.36778355730E+03  0.50400001928E-02 0.  1.
       -1   -1    0    0    0  501  0.00000000000E+00  0.00000000000E+00 -0.55028664955E+03  0.55028664957E+03  0.50400001928E-02 0. -1.
    10030    2    1    2    0    0  0.00000000000E+00  0.00000000000E+00 -0.18250309228E+03  0.91807020688E+03  0.89974747905E+03 0.  0.
        5    1    3    3  502    0 -0.42814746767E+03 -0.12918020637E+03 -0.14088901027E+03  0.46890253038E+03  0.46999998093E+01 0. -1.
       -5    1    3    3    0  502  0.42814746767E+03  0.12918020637E+03 -0.41614082015E+02  0.44916767649E+03  0.46999998093E+01 0.  1.
</event>
<event>
 5   0  0.9321543E-04  0.9062386E+03  0.7818609E-02  0.9417816E-01
       -1   -1    0    0    0  501  0.00000000000E+00  0.00000000000E+00  0.52427872904E+03  0.52427872907E+03  0.50400001928E-02 0. -1.
        1   -1    0    0  501    0  0.00000000000E+00  0.00000000000E+00 -0.39161820615E+03  0.39161820618E+03  0.50400001928E-02 0.  1.
    10030    2    1    2    0    0  0.00000000000E+00  0.00000000000E+00  0.13266052290E+03  0.91589693524E+03  0.90623858981E+03 0.  0.
        3    1    3    3  502    0  0.14543861749E+03 -0.16017926975E+03 -0.33604260044E+03  0.39966789892E+03  0.10100000352E+00 0.  1.
       -3    1    3    3    0  502 -0.14543861749E+03  0.16017926975E+03  0.46870312334E+03  0.51622903632E+03  0.10100000352E+00 0. -1.
</event>
<event>
 5   0  0.1536020E-03  0.9021683E+03  0.7818609E-02  0.9422875E-01
       -2   -1    0    0    0  501  0.00000000000E+00  0.00000000000E+00  0.16323193240E+03  0.16323193242E+03  0.25500000920E-02 0. -1.
        2   -1    0    0  501    0  0.00000000000E+00  0.00000000000E+00 -0.12465508130E+04  0.12465508130E+04  0.25500000920E-02 0.  1.
    10030    2    1    2    0    0  0.00000000000E+00  0.00000000000E+00 -0.10833188806E+04  0.14097827454E+04  0.90216827268E+03 0.  0.
        2    1    3    3  502    0  0.11004415474E+03  0.27472763472E+03 -0.10736344106E+04  0.11136767201E+04  0.25500000920E-02 0.  1.
       -2    1    3    3    0  502 -0.11004415474E+03 -0.27472763472E+03 -0.96844700069E+01  0.29610602533E+03  0.25500000920E-02 0. -1.
</event>
<event>
 5   0  0.1635686E-03  0.8992051E+03  0.7818609E-02  0.9426576E-01
       -2   -1    0    0    0  501  0.00000000000E+00  0.00000000000E+00  0.25409025365E+03  0.25409025366E+03  0.25500000920E-02 0. -1.
        2   -1    0    0  501    0  0.00000000000E+00  0.00000000000E+00 -0.79555369534E+03  0.79555369535E+03  0.25500000920E-02 0.  1.
    10030    2    1    2    0    0  0.00000000000E+00  0.00000000000E+00 -0.54146344170E+03  0.10496439490E+04  0.89920507171E+03 0.  0.
        5    1    3    3  502    0 -0.24563258465E+02 -0.44402844827E+02 -0.79217143091E+03  0.79380893938E+03  0.46999998093E+01 0.  1.
       -5    1    3    3    0  502  0.24563258465E+02  0.44402844827E+02  0.25070798921E+03  0.25583500962E+03  0.46999998093E+01 0. -1.
</event>
<event>
 5   0  0.1704416E-03  0.9043322E+03  0.7818609E-02  0.9420182E-01
       -2   -1    0    0    0  501  0.00000000000E+00  0.00000000000E+00  0.18285695415E+03  0.18285695417E+03  0.25500000920E-02 0.  1.
        2   -1    0    0  501    0  0.00000000000E+00  0.00000000000E+00 -0.11181099858E+04  0.11181099858E+04  0.25500000920E-02 0. -1.
    10030    2    1    2    0    0  0.00000000000E+00  0.00000000000E+00 -0.93525303168E+03  0.13009669400E+04  0.90433220981E+03 0.  0.
        3    1    3    3  502    0  0.26693421088E+03  0.13437727225E+03 -0.95578082720E+03  0.10014130637E+04  0.10100000352E+00 0. -1.
       -3    1    3    3    0  502 -0.26693421088E+03 -0.13437727225E+03  0.20527795522E+02  0.29955387633E+03  0.10100000352E+00 0.  1.
</event>
<event>
 5   0  0.1007561E-03  0.9003797E+03  0.7818609E-02  0.9425107E-01
        1   -1    0    0  501    0  0.00000000000E+00  0.00000000000E+00  0.87602165424E+03  0.87602165426E+03  0.50400001928E-02 0.  1.
       -1   -1    0    0    0  501  0.00000000000E+00  0.00000000000E+00 -0.23135373503E+03  0.23135373509E+03  0.50400001928E-02 0. -1.
    10030    2    1    2    0    0  0.00000000000E+00  0.00000000000E+00  0.64466791921E+03  0.11073753893E+04  0.90037965708E+03 0.  0.
        2    1    3    3  502    0 -0.18689671181E+03  0.44142277373E+02  0.82311851501E+03  0.84522364573E+03  0.25500000920E-02 0.  1.
       -2    1    3    3    0  502  0.18689671181E+03 -0.44142277373E+02 -0.17845059580E+03  0.26215174362E+03  0.25500000920E-02 0. -1.
</event>
<event>
 5   0  0.1704416E-03  0.9046714E+03  0.7818609E-02  0.9419761E-01
       -2   -1    0    0    0  501  0.00000000000E+00  0.00000000000E+00  0.24286190328E+03  0.24286190330E+03  0.25500000920E-02 0. -1.
        2   -1    0    0  501    0  0.00000000000E+00  0.00000000000E+00 -0.84248533732E+03  0.84248533732E+03  0.25500000920E-02 0.  1.
    10030    2    1    2    0    0  0.00000000000E+00  0.00000000000E+00 -0.59962343404E+03  0.10853472406E+04  0.90467141553E+03 0.  0.
        3    1    3    3  502    0  0.31384868226E+02 -0.26647662710E+03 -0.73670013047E+03  0.78404202386E+03  0.10100000352E+00 0.  1.
       -3    1    3    3    0  502 -0.31384868226E+02  0.26647662710E+03  0.13707669643E+03  0.30130521676E+03  0.10100000352E+00 0. -1.
</event>
<event>
 5   0  0.9697941E-04  0.8980732E+03  0.7818609E-02  0.9427993E-01
        1   -1    0    0  501    0  0.00000000000E+00  0.00000000000E+00  0.47295496865E+03  0.47295496868E+03  0.50400001928E-02 0.  1.
       -1   -1    0    0    0  501  0.00000000000E+00  0.00000000000E+00 -0.42632785828E+03  0.42632785831E+03  0.50400001928E-02 0. -1.
    10030    2    1    2    0    0  0.00000000000E+00  0.00000000000E+00  0.46627110370E+02  0.89928282699E+03  0.89807322391E+03 0.  0.
        5    1    3    3  502    0 -0.27284752980E+03  0.10264275653E+03  0.36528558125E+03  0.46737239526E+03  0.46999998093E+01 0.  1.
       -5    1    3    3    0  502  0.27284752980E+03 -0.10264275653E+03 -0.31865847087E+03  0.43191043173E+03  0.46999998093E+01 0. -1.
</event>
<event>
 5   0  0.9321543E-04  0.9058636E+03  0.7818609E-02  0.9418281E-01
        1   -1    0    0  501    0  0.00000000000E+00  0.00000000000E+00  0.91051070190E+03  0.91051070191E+03  0.50400001928E-02 0. -1.
       -1   -1    0    0    0  501  0.00000000000E+00  0.00000000000E+00 -0.22531005468E+03  0.22531005474E+03  0.50400001928E-02 0.  1.
    10030    2    1    2    0    0  0.00000000000E+00  0.00000000000E+00  0.68520064721E+03  0.11358207567E+04  0.90586360138E+03 0.  0.
        3    1    3    3  502    0  0.43366213555E+03  0.14528270995E+02  0.17972816834E+03  0.46965534508E+03  0.10100000352E+00 0.  1.
       -3    1    3    3    0  502 -0.43366213555E+03 -0.14528270995E+02  0.50547247887E+03  0.66616541157E+03  0.10100000352E+00 0. -1.
</event>
<event>
 5   0  0.6375625E-04  0.9012927E+03  0.7818609E-02  0.9423967E-01
        3   -1    0    0  501    0  0.00000000000E+00  0.00000000000E+00  0.10300475672E+04  0.10300475721E+04  0.10100000352E+00 0.  1.
       -3   -1    0    0    0  501  0.00000000000E+00  0.00000000000E+00 -0.19715797707E+03  0.19715800294E+03  0.10100000352E+00 0. -1.
    10030    2    1    2    0    0  0.00000000000E+00  0.00000000000E+00  0.83288959012E+03  0.12272055751E+04  0.90129265734E+03 0.  0.
        3    1    3    3  502    0  0.23237436960E+03  0.70047729467E+02 -0.10056686686E+03  0.26271322190E+03  0.10100000352E+00 0. -1.
       -3    1    3    3    0  502 -0.23237436960E+03 -0.70047729467E+02  0.93345645698E+03  0.96449235317E+03  0.10100000352E+00 0.  1.
</event>
<event>
 5   0  0.9981885E-04  0.9002234E+03  0.7818609E-02  0.9425302E-01
        1   -1    0    0  501    0  0.00000000000E+00  0.00000000000E+00  0.40322550707E+03  0.40322550710E+03  0.50400001928E-02 0. -1.
       -1   -1    0    0    0  501  0.00000000000E+00  0.00000000000E+00 -0.50244969489E+03  0.50244969491E+03  0.50400001928E-02 0.  1.
    10030    2    1    2    0    0  0.00000000000E+00  0.00000000000E+00 -0.99224187818E+02  0.90567520201E+03  0.90022337900E+03 0.  0.
        4    1    3    3  502    0 -0.12667267564E+03 -0.37092647300E+03  0.17301178362E+03  0.42844731916E+03  0.12699999809E+01 0. -1.
       -4    1    3    3    0  502  0.12667267564E+03  0.37092647300E+03 -0.27223597144E+03  0.47722788285E+03  0.12699999809E+01 0.  1.
</event>
<event>
 5   0  0.1630202E-03  0.9002565E+03  0.7818609E-02  0.9425261E-01
        2   -1    0    0  501    0  0.00000000000E+00  0.00000000000E+00  0.10969088732E+04  0.10969088732E+04  0.25500000920E-02 0.  1.
       -2   -1    0    0    0  501  0.00000000000E+00  0.00000000000E+00 -0.18471493697E+03  0.18471493699E+03  0.25500000920E-02 0. -1.
    10030    2    1    2    0    0  0.00000000000E+00  0.00000000000E+00  0.91219393624E+03  0.12816238102E+04  0.90025652653E+03 0.  0.
        4    1    3    3  502    0 -0.26975718216E+03  0.28067061973E+03  0.77781289938E+03  0.86979276466E+03  0.12699999809E+01 0.  1.
       -4    1    3    3    0  502  0.26975718216E+03 -0.28067061973E+03  0.13438103686E+03  0.41183104554E+03  0.12699999809E+01 0. -1.
</event>
<event>
 5   0  0.9981885E-04  0.9006019E+03  0.7818609E-02  0.9424829E-01
        1   -1    0    0  501    0  0.00000000000E+00  0.00000000000E+00  0.57174411478E+03  0.57174411480E+03  0.50400001928E-02 0. -1.
       -1   -1    0    0    0  501  0.00000000000E+00  0.00000000000E+00 -0.35465332114E+03  0.35465332117E+03  0.50400001928E-02 0.  1.
    10030    2    1    2    0    0  0.00000000000E+00  0.00000000000E+00  0.21709079364E+03  0.92639743598E+03  0.90060190800E+03 0.  0.
        4    1    3    3  502    0 -0.17576403830E+03 -0.17440065965E+03 -0.27834010774E+03  0.37253646227E+03  0.12699999809E+01 0.  1.
       -4    1    3    3    0  502  0.17576403830E+03  0.17440065965E+03  0.49543090138E+03  0.55386097370E+03  0.12699999809E+01 0. -1.
</event>
<event>
 5   0  0.1635686E-03  0.9000834E+03  0.7818609E-02  0.9425477E-01
        2   -1    0    0  501    0  0.00000000000E+00  0.00000000000E+00  0.95950548271E+03  0.95950548271E+03  0.25500000920E-02 0.  1.
       -2   -1    0    0    0  501  0.00000000000E+00  0.00000000000E+00 -0.21108533757E+03  0.21108533759E+03  0.25500000920E-02 0. -1.
    10030    2    1    2    0    0  0.00000000000E+00  0.00000000000E+00  0.74842014513E+03  0.11705908203E+04  0.90008341554E+03 0.  0.
        5    1    3    3  502    0 -0.33434145456E+03  0.12826093696E+03  0.19756473066E+02  0.35867462193E+03  0.46999998093E+01 0. -1.
       -5    1    3    3    0  502  0.33434145456E+03 -0.12826093696E+03  0.72866367207E+03  0.81191619837E+03  0.46999998093E+01 0.  1.
</event>
<event>
 5   0  0.9321543E-04  0.8981791E+03  0.7818609E-02  0.9427860E-01
        1   -1    0    0  501    0  0.00000000000E+00  0.00000000000E+00  0.47082987281E+03  0.47082987284E+03  0.50400001928E-02 0.  1.
       -1   -1    0    0    0  501  0.00000000000E+00  0.00000000000E+00 -0.42835309501E+03  0.42835309504E+03  0.50400001928E-02 0. -1.
    10030    2    1    2    0    0  0.00000000000E+00  0.00000000000E+00  0.42476777803E+02  0.89918296788E+03  0.89817912081E+03 0.  0.
        3    1    3    3  502    0 -0.29879683968E+02  0.35150758734E+02 -0.42597449179E+03  0.42846545860E+03  0.10100000352E+00 0. -1.
       -3    1    3    3    0  502  0.29879683968E+02 -0.35150758734E+02  0.46845126959E+03  0.47071750928E+03  0.10100000352E+00 0.  1.
</event>
<event>
 5   0  0.1536020E-03  0.8998326E+03  0.7818609E-02  0.9425791E-01
       -2   -1    0    0    0  501  0.00000000000E+00  0.00000000000E+00  0.21934017136E+03  0.21934017138E+03  0.25500000920E-02 0.  1.
        2   -1    0    0  501    0  0.00000000000E+00  0.00000000000E+00 -0.92288008655E+03  0.92288008655E+03  0.25500000920E-02 0. -1.
    10030    2    1    2    0    0  0.00000000000E+00  0.00000000000E+00 -0.70353991518E+03  0.11422202579E+04  0.89983259852E+03 0.  0.
        2    1    3    3  502    0 -0.87109221605E+02 -0.36585608121E+03 -0.66524514219E+03  0.76419224535E+03  0.25500000920E-02 0. -1.
       -2    1    3    3    0  502  0.87109221605E+02  0.36585608121E+03 -0.38294772998E+02  0.37802801257E+03  0.25500000920E-02 0.  1.
</event>
<event>
 5   0  0.1630202E-03  0.8999482E+03  0.7818609E-02  0.9425646E-01
        2   -1    0    0  501    0  0.00000000000E+00  0.00000000000E+00  0.23523857659E+03  0.23523857661E+03  0.25500000920E-02 0.  1.
       -2   -1    0    0    0  501  0.00000000000E+00  0.00000000000E+00 -0.86072906266E+03  0.86072906267E+03  0.25500000920E-02 0. -1.
    10030    2    1    2    0    0  0.00000000000E+00  0.00000000000E+00 -0.62549048607E+03  0.10959676393E+04  0.89994817527E+03 0.  0.
        4    1    3    3  502    0 -0.37292295779E+03  0.25178194497E+03 -0.31647627877E+03  0.55011319579E+03  0.12699999809E+01 0. -1.
       -4    1    3    3    0  502  0.37292295779E+03 -0.25178194497E+03 -0.30901420730E+03  0.54585444348E+03  0.12699999809E+01 0.  1.
</event>
<event>
 5   0  0.1536020E-03  0.9008462E+03  0.7818609E-02  0.9424524E-01
        2   -1    0    0  501    0  0.00000000000E+00  0.00000000000E+00  0.55487997074E+03  0.55487997075E+03  0.25500000920E-02 0. -1.
       -2   -1    0    0    0  501  0.00000000000E+00  0.00000000000E+00 -0.36563036783E+03  0.36563036784E+03  0.25500000920E-02 0.  1.
    10030    2    1    2    0    0  0.00000000000E+00  0.00000000000E+00  0.18924960291E+03  0.92051033859E+03  0.90084619733E+03 0.  0.
        2    1    3    3  502    0 -0.34673138007E+03  0.28685347282E+03  0.11437024656E+03  0.46431467573E+03  0.25500000920E-02 0. -1.
       -2    1    3    3    0  502  0.34673138007E+03 -0.28685347282E+03  0.74879356352E+02  0.45619566286E+03  0.25500000920E-02 0.  1.
</event>
<event>
 5   0  0.9981885E-04  0.9063708E+03  0.7818609E-02  0.9417652E-01
       -1   -1    0    0    0  501  0.00000000000E+00  0.00000000000E+00  0.94382551809E+02  0.94382551944E+02  0.50400001928E-02 0. -1.
        1   -1    0    0  501    0  0.00000000000E+00  0.00000000000E+00 -0.21760060782E+04  0.21760060782E+04  0.50400001928E-02 0.  1.
    10030    2    1    2    0    0  0.00000000000E+00  0.00000000000E+00 -0.20816235264E+04  0.22703886302E+04  0.90637079956E+03 0.  0.
        4    1    3    3  502    0  0.18307041813E+02 -0.58194742785E+02 -0.21656687411E+04  0.21665282100E+04  0.12699999809E+01 0.  1.
       -4    1    3    3    0  502 -0.18307041813E+02  0.58194742785E+02  0.84045214656E+02  0.10386042015E+03  0.12699999809E+01 0. -1.
</event>
<event>
 5   0  0.1635686E-03  0.9034544E+03  0.7818609E-02  0.9421273E-01
        2   -1    0    0  501    0  0.00000000000E+00  0.00000000000E+00  0.13451029321E+04  0.13451029321E+04  0.25500000920E-02 0.  1.
       -2   -1    0    0    0  501  0.00000000000E+00  0.00000000000E+00 -0.15170399280E+03  0.15170399282E+03  0.25500000920E-02 0. -1.
    10030    2    1    2    0    0  0.00000000000E+00  0.00000000000E+00  0.11933989393E+04  0.14968069249E+04  0.90345444941E+03 0.  0.
        5    1    3    3  502    0 -0.12259546641E+03 -0.84786506209E+02  0.13031418758E+04  0.13116475283E+04  0.46999998093E+01 0.  1.
       -5    1    3    3    0  502  0.12259546641E+03  0.84786506209E+02 -0.10974293655E+03  0.18515939657E+03  0.46999998093E+01 0. -1.
</event>
<event>
 5   0  0.1007561E-03  0.8993533E+03  0.7818609E-02  0.9426390E-01
       -1   -1    0    0    0  501  0.00000000000E+00  0.00000000000E+00  0.55302356657E+03  0.55302356659E+03  0.50400001928E-02 0. -1.
        1   -1    0    0  501    0  0.00000000000E+00  0.00000000000E+00 -0.36564279843E+03  0.36564279846E+03  0.50400001928E-02 0.  1.
    10030    2    1    2    0    0  0.00000000000E+00  0.00000000000E+00  0.18738076814E+03  0.91866636506E+03  0.89935328877E+03 0.  0.
        2    1    3    3  502    0 -0.36911345454E+02  0.42448993029E+03  0.24049490066E+03  0.48927696205E+03  0.25500000920E-02 0. -1.
       -2    1    3    3    0  502  0.36911345454E+02 -0.42448993029E+03 -0.53114132525E+02  0.42938940301E+03  0.25500000920E-02 0.  1.
</event>
<event>
 5   0  0.9223454E-04  0.8962675E+03  0.7818609E-02  0.9430259E-01
        1   -1    0    0  501    0  0.00000000000E+00  0.00000000000E+00  0.44020370592E+03  0.44020370595E+03  0.50400001928E-02 0.  1.
       -1   -1    0    0    0  501  0.00000000000E+00  0.00000000000E+00 -0.45620664898E+03  0.45620664901E+03  0.50400001928E-02 0. -1.
    10030    2    1    2    0    0  0.00000000000E+00  0.00000000000E+00 -0.16002943062E+02  0.89641035496E+03  0.89626749930E+03 0.  0.
        1    1    3    3  502    0  0.19323892667E+01  0.25232940124E+03 -0.37839817876E+03  0.45481759264E+03  0.50400001928E-02 0. -1.
       -1    1    3    3    0  502 -0.19323892667E+01 -0.25232940124E+03  0.36239523570E+03  0.44159276233E+03  0.50400001928E-02 0.  1.
</event>
<event>
 5   0  0.9697941E-04  0.8995697E+03  0.7818609E-02  0.9426119E-01
        1   -1    0    0  501    0  0.00000000000E+00  0.00000000000E+00  0.25034939632E+03  0.25034939637E+03  0.50400001928E-02 0. -1.
       -1   -1    0    0    0  501  0.00000000000E+00  0.00000000000E+00 -0.80809628816E+03  0.80809628817E+03  0.50400001928E-02 0.  1.
    10030    2    1    2    0    0  0.00000000000E+00  0.00000000000E+00 -0.55774689184E+03  0.10584456845E+04  0.89956971479E+03 0.  0.
        5    1    3    3  502    0  0.13257788524E+02 -0.10245175143E+03 -0.79391862516E+03  0.80062538288E+03  0.46999998093E+01 0.  1.
       -5    1    3    3    0  502 -0.13257788524E+02  0.10245175143E+03  0.23617173333E+03  0.25782030166E+03  0.46999998093E+01 0. -1.
</event>
<event>
 5   0  0.9981885E-04  0.9055550E+03  0.7818609E-02  0.9418664E-01
        1   -1    0    0  501    0  0.00000000000E+00  0.00000000000E+00  0.72522367314E+03  0.72522367315E+03  0.50400001928E-02 0. -1.
       -1   -1    0    0    0  501  0.00000000000E+00  0.00000000000E+00 -0.28268173434E+03  0.28268173439E+03  0.50400001928E-02 0.  1.
    10030    2    1    2    0    0  0.00000000000E+00  0.00000000000E+00  0.44254193879E+03  0.10079054075E+04  0.90555504689E+03 0.  0.
        4    1    3    3  502    0 -0.44523425209E+03  0.29955009435E+02  0.13595899333E+03  0.46649469729E+03  0.12699999809E+01 0.  1.
       -4    1    3    3    0  502  0.44523425209E+03 -0.29955009435E+02  0.30658294546E+03  0.54141071025E+03  0.12699999809E+01 0. -1.
</event>
<event>
 5   0  0.1641516E-03  0.9004485E+03  0.7818609E-02  0.9425021E-01
       -2   -1    0    0    0  501  0.00000000000E+00  0.00000000000E+00  0.14792466666E+03  0.14792466668E+03  0.25500000920E-02 0. -1.
        2   -1    0    0  501    0  0.00000000000E+00  0.00000000000E+00 -0.13703048544E+04  0.13703048544E+04  0.25500000920E-02 0.  1.
    10030    2    1    2    0    0  0.00000000000E+00  0.00000000000E+00 -0.12223801877E+04  0.15182295211E+04  0.90044853006E+03 0.  0.
        1    1    3    3  502    0 -0.22096612936E+03 -0.33469744043E+03 -0.95613071017E+03  0.10368386287E+04  0.50400001928E-02 0.  1.
       -1    1    3    3    0  502  0.22096612936E+03  0.33469744043E+03 -0.26624947756E+03  0.48139089239E+03  0.50400001928E-02 0. -1.
</event>
<event>
 5   0  0.9223454E-04  0.9010930E+03  0.7818609E-02  0.9424216E-01
        1   -1    0    0  501    0  0.00000000000E+00  0.00000000000E+00  0.49669749566E+03  0.49669749569E+03  0.50400001928E-02 0. -1.
       -1   -1    0    0    0  501  0.00000000000E+00  0.00000000000E+00 -0.40868363852E+03  0.40868363855E+03  0.50400001928E-02 0.  1.
    10030    2    1    2    0    0  0.00000000000E+00  0.00000000000E+00  0.88013857139E+02  0.90538113424E+03  0.90109298032E+03 0.  0.
        1    1    3    3  502    0  0.13460112684E+03  0.14289075184E+03  0.45146966409E+03  0.49230081040E+03  0.50400001928E-02 0. -1.
       -1    1    3    3    0  502 -0.13460112684E+03 -0.14289075184E+03 -0.36345580695E+03  0.41308032383E+03  0.50400001928E-02 0.  1.
</event>
<event>
 5   0  0.1704416E-03  0.8997586E+03  0.7818609E-02  0.9425883E-01
        2   -1    0    0  501    0  0.00000000000E+00  0.00000000000E+00  0.12158785150E+04  0.12158785150E+04  0.25500000920E-02 0. -1.
       -2   -1    0    0    0  501  0.00000000000E+00  0.00000000000E+00 -0.16645691139E+03  0.16645691141E+03  0.25500000920E-02 0.  1.
    10030    2    1    2    0    0  0.00000000000E+00  0.00000000000E+00  0.10494216037E+04  0.13823354265E+04  0.89975859485E+03 0.  0.
        3    1    3    3  502    0  0.36499280922E+03 -0.24327018059E+03  0.37114407033E+03  0.57458512223E+03  0.10100000352E+00 0.  1.
       -3    1    3    3    0  502 -0.36499280922E+03  0.24327018059E+03  0.67827753333E+03  0.80775030422E+03  0.10100000352E+00 0. -1.
</event>
<event>
 5   0  0.1641516E-03  0.9007374E+03  0.7818609E-02  0.9424660E-01
       -2   -1    0    0    0  501  0.00000000000E+00  0.00000000000E+00  0.17162060458E+04  0.17162060458E+04  0.25500000920E-02 0.  1.
        2   -1    0    0  501    0  0.00000000000E+00  0.00000000000E+00 -0.11818626517E+03  0.11818626520E+03  0.25500000920E-02 0. -1.
    10030    2    1    2    0    0  0.00000000000E+00  0.00000000000E+00  0.15980197806E+04  0.18343923110E+04  0.90073743753E+03 0.  0.
        1    1    3    3  502    0  0.43525316709E+03 -0.11472409764E+03  0.76845867599E+03  0.89058164969E+03  0.50400001928E-02 0. -1.
       -1    1    3    3    0  502 -0.43525316709E+03  0.11472409764E+03  0.82956110463E+03  0.94381066130E+03  0.50400001928E-02 0.  1.
</event>
<event>
 5   0  0.1641516E-03  0.8968446E+03  0.7818609E-02  0.9429534E-01
        2   -1    0    0  501    0  0.00000000000E+00  0.00000000000E+00  0.17614977936E+04  0.17614977936E+04  0.25500000920E-02 0.  1.
       -2   -1    0    0    0  501  0.00000000000E+00  0.00000000000E+00 -0.11415431525E+03  0.11415431528E+03  0.25500000920E-02 0. -1.
    10030    2    1    2    0    0  0.00000000000E+00  0.00000000000E+00  0.16473434784E+04  0.18756521089E+04  0.89684463419E+03 0.  0.
        1    1    3    3  502    0 -0.29803632767E+03 -0.27492670820E+03  0.42317063535E+03  0.58607485370E+03  0.50400001928E-02 0. -1.
       -1    1    3    3    0  502  0.29803632767E+03  0.27492670820E+03  0.12241728430E+04  0.12895772552E+04  0.50400001928E-02 0.  1.
</event>
<event>
 5   0  0.1635686E-03  0.9007172E+03  0.7818609E-02  0.9424685E-01
        2   -1    0    0  501    0  0.00000000000E+00  0.00000000000E+00  0.10807186393E+04  0.10807186393E+04  0.25500000920E-02 0. -1.
       -2   -1    0    0    0  501  0.00000000000E+00  0.00000000000E+00 -0.18767408140E+03  0.18767408142E+03  0.25500000920E-02 0.  1.
    10030    2    1    2    0    0  0.00000000000E+00  0.00000000000E+00  0.89304455793E+03  0.12683927208E+04  0.90071722068E+03 0.  0.
        5    1    3    3  502    0  0.18943230784E+03  0.37161946114E+03  0.68556516770E+03  0.80250066188E+03  0.46999998093E+01 0. -1.
       -5    1    3    3    0  502 -0.18943230784E+03 -0.37161946114E+03  0.20747939022E+03  0.46589205887E+03  0.46999998093E+01 0.  1.
</event>
<event>
 5   0  0.9697941E-04  0.8976234E+03  0.7818609E-02  0.9428557E-01
        1   -1    0    0  501    0  0.00000000000E+00  0.00000000000E+00  0.84508357133E+03  0.84508357135E+03  0.50400001928E-02 0. -1.
       -1   -1    0    0    0  501  0.00000000000E+00  0.00000000000E+00 -0.23835740287E+03  0.23835740292E+03  0.50400001928E-02 0.  1.
    10030    2    1    2    0    0  0.00000000000E+00  0.00000000000E+00  0.60672616846E+03  0.10834409743E+04  0.89762336268E+03 0.  0.
        5    1    3    3  502    0 -0.76581739388E+02  0.43813907829E+03  0.23115175483E+03  0.50128219447E+03  0.46999998093E+01 0.  1.
       -5    1    3    3    0  502  0.76581739388E+02 -0.43813907829E+03  0.37557441363E+03  0.58215877980E+03  0.46999998093E+01 0. -1.
</event>
<event>
 5   0  0.1704416E-03  0.8999854E+03  0.7818609E-02  0.9425600E-01
       -2   -1    0    0    0  501  0.00000000000E+00  0.00000000000E+00  0.25501231530E+03  0.25501231531E+03  0.25500000920E-02 0.  1.
        2   -1    0    0  501    0  0.00000000000E+00  0.00000000000E+00 -0.79405346365E+03  0.79405346365E+03  0.25500000920E-02 0. -1.
    10030    2    1    2    0    0  0.00000000000E+00  0.00000000000E+00 -0.53904114834E+03  0.10490657790E+04  0.89998536043E+03 0.  0.
        3    1    3    3  502    0  0.27664883742E+03 -0.21969100890E+03 -0.59443046032E+03  0.69148123691E+03  0.10100000352E+00 0. -1.
       -3    1    3    3    0  502 -0.27664883742E+03  0.21969100890E+03  0.55389311979E+02  0.35758454206E+03  0.10100000352E+00 0.  1.
</event>
<event>
 5   0  0.1007561E-03  0.9010649E+03  0.7818609E-02  0.9424251E-01
        1   -1    0    0  501    0  0.00000000000E+00  0.00000000000E+00  0.30315362869E+03  0.30315362873E+03  0.50400001928E-02 0.  1.
       -1   -1    0    0    0  501  0.00000000000E+00  0.00000000000E+00 -0.66955982008E+03  0.66955982010E+03  0.50400001928E-02 0. -1.
    10030    2    1    2    0    0  0.00000000000E+00  0.00000000000E+00 -0.36640619139E+03  0.97271344883E+03  0.90106490135E+03 0.  0.
        2    1    3    3  502    0 -0.27959144024E+03  0.20753274631E+02 -0.56391776807E+03  0.62976608436E+03  0.25500000920E-02 0. -1.
       -2    1    3    3    0  502  0.27959144024E+03 -0.20753274631E+02  0.19751157668E+03  0.34294736446E+03  0.25500000920E-02 0.  1.
</event>
<event>
 5   0  0.9223454E-04  0.8994211E+03  0.7818609E-02  0.9426305E-01
       -1   -1    0    0    0  501  0.00000000000E+00  0.00000000000E+00  0.20923222151E+03  0.20923222157E+03  0.50400001928E-02 0.  1.
        1   -1    0    0  501    0  0.00000000000E+00  0.00000000000E+00 -0.96657961005E+03  0.96657961006E+03  0.50400001928E-02 0. -1.
    10030    2    1    2    0    0  0.00000000000E+00  0.00000000000E+00 -0.75734738854E+03  0.11758118316E+04  0.89942114522E+03 0.  0.
        1    1    3    3  502    0  0.22276425648E+03 -0.28260212549E+03 -0.73128511655E+03  0.81502502845E+03  0.50400001928E-02 0. -1.
       -1    1    3    3    0  502 -0.22276425648E+03  0.28260212549E+03 -0.26062271991E+02  0.36078680317E+03  0.50400001928E-02 0.  1.
</event>
<event>
 5   0  0.9321543E-04  0.9023684E+03  0.7818609E-02  0.9422626E-01
        1   -1    0    0  501    0  0.00000000000E+00  0.00000000000E+00  0.86238312077E+03  0.86238312079E+03  0.50400001928E-02 0. -1.
       -1   -1    0    0    0  501  0.00000000000E+00  0.00000000000E+00 -0.23605190067E+03  0.23605190072E+03  0.50400001928E-02 0.  1.
    10030    2    1    2    0    0  0.00000000000E+00  0.00000000000E+00  0.62633122011E+03  0.10984350215E+04  0.90236838331E+03 0.  0.
        3    1    3    3  502    0 -0.66164463082E+02  0.27064479682E+03  0.74515567930E+03  0.79553965257E+03  0.10100000352E+00 0. -1.
       -3    1    3    3    0  502  0.66164463082E+02 -0.27064479682E+03 -0.11882445919E+03  0.30289536894E+03  0.10100000352E+00 0.  1.
</event>
<event>
 5   0  0.9321543E-04  0.8998653E+03  0.7818609E-02  0.9425750E-01
       -1   -1    0    0    0  501  0.00000000000E+00  0.00000000000E+00  0.57740038197E+03  0.57740038200E+03  0.50400001928E-02 0.  1.
        1   -1    0    0  501    0  0.00000000000E+00  0.00000000000E+00 -0.35060490246E+03  0.35060490249E+03  0.50400001928E-02 0. -1.
    10030    2    1    2    0    0  0.00000000000E+00  0.00000000000E+00  0.22679547952E+03  0.92800528449E+03  0.89986533354E+03 0.  0.
        3    1    3    3  502    0 -0.18818123067E+03 -0.38321187762E+03 -0.33085900746E+02  0.42820346303E+03  0.10100000352E+00 0.  1.
       -3    1    3    3    0  502  0.18818123067E+03  0.38321187762E+03  0.25988138026E+03  0.49980182146E+03  0.10100000352E+00 0. -1.
</event>
<event>
 5   0  0.1536020E-03  0.9248839E+03  0.7818609E-02  0.9394999E-01
       -2   -1    0    0    0  501  0.00000000000E+00  0.00000000000E+00  0.13926307420E+03  0.13926307422E+03  0.25500000920E-02 0. -1.
        2   -1    0    0  501    0  0.00000000000E+00  0.00000000000E+00 -0.15356012061E+04  0.15356012061E+04  0.25500000920E-02 0.  1.
    10030    2    1    2    0    0  0.00000000000E+00  0.00000000000E+00 -0.13963381319E+04  0.16748642803E+04  0.92488387318E+03 0.  0.
        2    1    3    3  502    0  0.12355902129E+03 -0.39540519055E+03 -0.32598594550E+03  0.52714223235E+03  0.25500000920E-02 0. -1.
       -2    1    3    3    0  502 -0.12355902129E+03  0.39540519055E+03 -0.10703521864E+04  0.11477220479E+04  0.25500000920E-02 0.  1.
</event>
<event>
 5   0  0.9697941E-04  0.8981698E+03  0.7818609E-02  0.9427872E-01
       -1   -1    0    0    0  501  0.00000000000E+00  0.00000000000E+00  0.98816878020E+03  0.98816878022E+03  0.50400001928E-02 0. -1.
        1   -1    0    0  501    0  0.00000000000E+00  0.00000000000E+00 -0.20409191986E+03  0.20409191992E+03  0.50400001928E-02 0.  1.
    10030    2    1    2    0    0  0.00000000000E+00  0.00000000000E+00  0.78407686035E+03  0.11922607001E+04  0.89816983592E+03 0.  0.
        5    1    3    3  502    0  0.85349958543E+02  0.23311938153E+03 -0.10468765612E+03  0.26946401765E+03  0.46999998093E+01 0.  1.
       -5    1    3    3    0  502 -0.85349958543E+02 -0.23311938153E+03  0.88876451647E+03  0.92279668248E+03  0.46999998093E+01 0. -1.
</event>
<event>
 5   0  0.1635686E-03  0.8963951E+03  0.7818609E-02  0.9430099E-01
        2   -1    0    0  501    0  0.00000000000E+00  0.00000000000E+00  0.18376206429E+04  0.18376206429E+04  0.25500000920E-02 0.  1.
       -2   -1    0    0    0  501  0.00000000000E+00  0.00000000000E+00 -0.10931584061E+03  0.10931584064E+03  0.25500000920E-02 0. -1.
    10030    2    1    2    0    0  0.00000000000E+00  0.00000000000E+00  0.17283048023E+04  0.19469364835E+04  0.89639510337E+03 0.  0.
        5    1    3    3  502    0  0.18282464151E+03 -0.40855360505E+03  0.91358817434E+03  0.10173526134E+04  0.46999998093E+01 0.  1.
       -5    1    3    3    0  502 -0.18282464151E+03  0.40855360505E+03  0.81471662793E+03  0.92958387011E+03  0.46999998093E+01 0. -1.
</event>
<event>
 5   0  0.1007561E-03  0.9009029E+03  0.7818609E-02  0.9424453E-01
       -1   -1    0    0    0  501  0.00000000000E+00  0.00000000000E+00  0.60558498303E+03  0.60558498305E+03  0.50400001928E-02 0.  1.
        1   -1    0    0  501    0  0.00000000000E+00  0.00000000000E+00 -0.33505870426E+03  0.33505870430E+03  0.50400001928E-02 0. -1.
    10030    2    1    2    0    0  0.00000000000E+00  0.00000000000E+00  0.27052627877E+03  0.94064368735E+03  0.90090292432E+03 0.  0.
        2    1    3    3  502    0  0.31557706742E+03 -0.31873566649E+03  0.17863100310E+03  0.48279431008E+03  0.25500000920E-02 0. -1.
       -2    1    3    3    0  502 -0.31557706742E+03  0.31873566649E+03  0.91895275668E+02  0.45784937727E+03  0.25500000920E-02 0.  1.
</event>
<event>
 5   0  0.6375625E-04  0.8976178E+03  0.7818609E-02  0.9428564E-01
        4   -1    0    0  501    0  0.00000000000E+00  0.00000000000E+00  0.16557426692E+04  0.16557431562E+04  0.12699999809E+01 0.  1.
       -4   -1    0    0    0  501  0.00000000000E+00  0.00000000000E+00 -0.12165121217E+03  0.12165784119E+03  0.12699999809E+01 0. -1.
    10030    2    1    2    0    0  0.00000000000E+00  0.00000000000E+00  0.15340914570E+04  0.17774009974E+04  0.89761779573E+03 0.  0.
        4    1    3    3  502    0 -0.99873648071E+02 -0.28972681798E+03  0.14163096991E+04  0.14490863160E+04  0.12699999809E+01 0.  1.
       -4    1    3    3    0  502  0.99873648071E+02  0.28972681798E+03  0.11778175792E+03  0.32831468142E+03  0.12699999809E+01 0. -1.
</event>
<event>
 5   0  0.9223454E-04  0.9009981E+03  0.7818609E-02  0.9424335E-01
       -1   -1    0    0    0  501  0.00000000000E+00  0.00000000000E+00  0.42454654793E+03  0.42454654796E+03  0.50400001928E-02 0.  1.
        1   -1    0    0  501    0  0.00000000000E+00  0.00000000000E+00 -0.47803805116E+03  0.47803805118E+03  0.50400001928E-02 0. -1.
    10030    2    1    2    0    0  0.00000000000E+00  0.00000000000E+00 -0.53491503228E+02  0.90258459914E+03  0.90099812302E+03 0.  0.
        1    1    3    3  502    0 -0.35382456533E+03 -0.13649354613E+03  0.21684303783E+03  0.43685605666E+03  0.50400001928E-02 0.  1.
       -1    1    3    3    0  502  0.35382456533E+03  0.13649354613E+03 -0.27033454106E+03  0.46572854248E+03  0.50400001928E-02 0. -1.
</event>
<event>
 5   0  0.1007561E-03  0.8998570E+03  0.7818609E-02  0.9425760E-01
       -1   -1    0    0    0  501  0.00000000000E+00  0.00000000000E+00  0.93679179948E+03  0.93679179950E+03  0.50400001928E-02 0.  1.
        1   -1    0    0  501    0  0.00000000000E+00  0.00000000000E+00 -0.21609462112E+03  0.21609462118E+03  0.50400001928E-02 0. -1.
    10030    2    1    2    0    0  0.00000000000E+00  0.00000000000E+00  0.72069717836E+03  0.11528864207E+04  0.89985703091E+03 0.  0.
        2    1    3    3  502    0  0.13625003835E+03 -0.34985350836E+03  0.42691051319E+02  0.37786780246E+03  0.25500000920E-02 0. -1.
       -2    1    3    3    0  502 -0.13625003835E+03  0.34985350836E+03  0.67800612705E+03  0.77501861822E+03  0.25500000920E-02 0.  1.
</event>
<event>
 5   0  0.1641516E-03  0.9024358E+03  0.7818609E-02  0.9422542E-01
        2   -1    0    0  501    0  0.00000000000E+00  0.00000000000E+00  0.11586589656E+04  0.11586589656E+04  0.25500000920E-02 0.  1.
       -2   -1    0    0    0  501  0.00000000000E+00  0.00000000000E+00 -0.17571831545E+03  0.17571831547E+03  0.25500000920E-02 0. -1.
    10030    2    1    2    0    0  0.00000000000E+00  0.00000000000E+00  0.98294065020E+03  0.13343772811E+04  0.90243581852E+03 0.  0.
        1    1    3    3  502    0 -0.24933639823E+02 -0.44237790562E+03  0.61761226441E+03  0.76010841789E+03  0.50400001928E-02 0.  1.
       -1    1    3    3    0  502  0.24933639823E+02  0.44237790562E+03  0.36532838578E+03  0.57426886322E+03  0.50400001928E-02 0. -1.
</event>
<event>
 5   0  0.1641516E-03  0.8994997E+03  0.7818609E-02  0.9426207E-01
        2   -1    0    0  501    0  0.00000000000E+00  0.00000000000E+00  0.60709778659E+03  0.60709778660E+03  0.25500000920E-02 0. -1.
       -2   -1    0    0    0  501  0.00000000000E+00  0.00000000000E+00 -0.33318344959E+03  0.33318344960E+03  0.25500000920E-02 0.  1.
    10030    2    1    2    0    0  0.00000000000E+00  0.00000000000E+00  0.27391433700E+03  0.94028123620E+03  0.89949971603E+03 0.  0.
        1    1    3    3  502    0  0.44196716676E+02 -0.19248189535E+03 -0.28543222184E+03  0.34709391106E+03  0.50400001928E-02 0.  1.
       -1    1    3    3    0  502 -0.44196716676E+02  0.19248189535E+03  0.55934655884E+03  0.59318732514E+03  0.50400001928E-02 0. -1.
</event>
<event>
 5   0  0.6375625E-04  0.8999023E+03  0.7818609E-02  0.9425704E-01
       -3   -1    0    0    0  501  0.00000000000E+00  0.00000000000E+00  0.25805213983E+03  0.25805215960E+03  0.10100000352E+00 0.  1.
        3   -1    0    0  501    0  0.00000000000E+00  0.00000000000E+00 -0.78455479121E+03  0.78455479771E+03  0.10100000352E+00 0. -1.
    10030    2    1    2    0    0  0.00000000000E+00  0.00000000000E+00 -0.52650265138E+03  0.10426069573E+04  0.89990234221E+03 0.  0.
        2    1    3    3  502    0 -0.19450092295E+03 -0.36378943328E+03 -0.47141748615E+03  0.62642462200E+03  0.25500000920E-02 0. -1.
       -2    1    3    3    0  502  0.19450092295E+03  0.36378943328E+03 -0.55085165233E+02  0.41618233531E+03  0.25500000920E-02 0.  1.
</event>
<event>
 5   0  0.9981885E-04  0.9006708E+03  0.7818609E-02  0.9424743E-01
        1   -1    0    0  501    0  0.00000000000E+00  0.00000000000E+00  0.70392875157E+03  0.70392875159E+03  0.50400001928E-02 0.  1.
       -1   -1    0    0    0  501  0.00000000000E+00  0.00000000000E+00 -0.28810015613E+03  0.28810015617E+03  0.50400001928E-02 0. -1.
    10030    2    1    2    0    0  0.00000000000E+00  0.00000000000E+00  0.41582859545E+03  0.99202890776E+03  0.90067082391E+03 0.  0.
        4    1    3    3  502    0  0.14972409966E+03 -0.12688866672E+03  0.65434459523E+03  0.68314456887E+03  0.12699999809E+01 0.  1.
       -4    1    3    3    0  502 -0.14972409966E+03  0.12688866672E+03 -0.23851599979E+03  0.30888433889E+03  0.12699999809E+01 0. -1.
</event>
<event>
 5   0  0.1635686E-03  0.9000359E+03  0.7818609E-02  0.9425537E-01
       -2   -1    0    0    0  501  0.00000000000E+00  0.00000000000E+00  0.12125070531E+04  0.12125070531E+04  0.25500000920E-02 0. -1.
        2   -1    0    0  501    0  0.00000000000E+00  0.00000000000E+00 -0.16702264606E+03  0.16702264608E+03  0.25500000920E-02 0.  1.
    10030    2    1    2    0    0  0.00000000000E+00  0.00000000000E+00  0.10454844070E+04  0.13795296992E+04  0.90003585791E+03 0.  0.
        5    1    3    3  502    0  0.88946487458E+02 -0.19073780568E+03 -0.86902433891E+02  0.22774220330E+03  0.46999998093E+01 0.  1.
       -5    1    3    3    0  502 -0.88946487458E+02  0.19073780568E+03  0.11323868409E+04  0.11517874959E+04  0.46999998093E+01 0. -1.
</event>
<event>
 5   0  0.9697941E-04  0.8993928E+03  0.7818609E-02  0.9426341E-01
        1   -1    0    0  501    0  0.00000000000E+00  0.00000000000E+00  0.54641289163E+03  0.54641289166E+03  0.50400001928E-02 0. -1.
       -1   -1    0    0    0  501  0.00000000000E+00  0.00000000000E+00 -0.37009901181E+03  0.37009901184E+03  0.50400001928E-02 0.  1.
    10030    2    1    2    0    0  0.00000000000E+00  0.00000000000E+00  0.17631387983E+03  0.91651190350E+03  0.89939284244E+03 0.  0.
        5    1    3    3  502    0  0.28028913658E+03  0.20914007300E+03 -0.19989499649E+03  0.40284199116E+03  0.46999998093E+01 0.  1.
       -5    1    3    3    0  502 -0.28028913658E+03 -0.20914007300E+03  0.37620887632E+03  0.51366991234E+03  0.46999998093E+01 0. -1.
</event>
<event>
 5   0  0.1007561E-03  0.9011021E+03  0.7818609E-02  0.9424205E-01
       -1   -1    0    0    0  501  0.00000000000E+00  0.00000000000E+00  0.45038338066E+03  0.45038338068E+03  0.50400001928E-02 0. -1.
        1   -1    0    0  501    0  0.00000000000E+00  0.00000000000E+00 -0.45071878548E+03  0.45071878550E+03  0.50400001928E-02 0.  1.
    10030    2    1    2    0    0  0.00000000000E+00  0.00000000000E+00 -0.33540481955E+00  0.90110216619E+03  0.90110210377E+03 0.  0.
        2    1    3    3  502    0  0.34706500319E+03  0.28311488515E+03 -0.49035851963E+02  0.45056927261E+03  0.25500000920E-02 0. -1.
       -2    1    3    3    0  502 -0.34706500319E+03 -0.28311488515E+03  0.48700447143E+02  0.45053289358E+03  0.25500000920E-02 0.  1.
</event>
<event>
 5   0  0.1635686E-03  0.9012757E+03  0.7818609E-02  0.9423988E-01
       -2   -1    0    0    0  501  0.00000000000E+00  0.00000000000E+00  0.29204739121E+03  0.29204739122E+03  0.25500000920E-02 0. -1.
        2   -1    0    0  501    0  0.00000000000E+00  0.00000000000E+00 -0.69534768791E+03  0.69534768791E+03  0.25500000920E-02 0.  1.
    10030    2    1    2    0    0  0.00000000000E+00  0.00000000000E+00 -0.40330029670E+03  0.98739507913E+03  0.90127571418E+03 0.  0.
        5    1    3    3  502    0  0.24584235792E+03 -0.35256319799E+03 -0.34990687180E+03  0.55425281457E+03  0.46999998093E+01 0.  1.
       -5    1    3    3    0  502 -0.24584235792E+03  0.35256319799E+03 -0.53393424898E+02  0.43314226456E+03  0.46999998093E+01 0. -1.
</event>
<event>
 5   0  0.1641516E-03  0.9014272E+03  0.7818609E-02  0.9423799E-01
       -2   -1    0    0    0  501  0.00000000000E+00  0.00000000000E+00  0.19867172396E+03  0.19867172398E+03  0.25500000920E-02 0. -1.
        2   -1    0    0  501    0  0.00000000000E+00  0.00000000000E+00 -0.10225044882E+04  0.10225044882E+04  0.25500000920E-02 0.  1.
    10030    2    1    2    0    0  0.00000000000E+00  0.00000000000E+00 -0.82383276422E+03  0.12211762122E+04  0.90142715609E+03 0.  0.
        1    1    3    3  502    0  0.27471031766E+03 -0.17105719604E+03 -0.83690906242E+03  0.89729766618E+03  0.50400001928E-02 0.  1.
       -1    1    3    3    0  502 -0.27471031766E+03  0.17105719604E+03  0.13076298200E+02  0.32387854598E+03  0.50400001928E-02 0. -1.
</event>
<event>
 5   0  0.1007561E-03  0.8973657E+03  0.7818609E-02  0.9428880E-01
       -1   -1    0    0    0  501  0.00000000000E+00  0.00000000000E+00  0.77345722017E+02  0.77345722182E+02  0.50400001928E-02 0. -1.
        1   -1    0    0  501    0  0.00000000000E+00  0.00000000000E+00 -0.26028108383E+04  0.26028108383E+04  0.50400001928E-02 0.  1.
    10030    2    1    2    0    0  0.00000000000E+00  0.00000000000E+00 -0.25254651163E+04  0.26801565605E+04  0.89736566413E+03 0.  0.
        2    1    3    3  502    0  0.10668283144E+03  0.24046331015E+03 -0.17715065427E+03  0.31715325060E+03  0.25500000920E-02 0. -1.
       -2    1    3    3    0  502 -0.10668283144E+03 -0.24046331015E+03 -0.23483144620E+04  0.23630033099E+04  0.25500000920E-02 0.  1.
</event>
<event>
 5   0  0.9697941E-04  0.9000856E+03  0.7818609E-02  0.9425474E-01
       -1   -1    0    0    0  501  0.00000000000E+00  0.00000000000E+00  0.40814247909E+03  0.40814247913E+03  0.50400001928E-02 0.  1.
        1   -1    0    0  501    0  0.00000000000E+00  0.00000000000E+00 -0.49624469130E+03  0.49624469132E+03  0.50400001928E-02 0. -1.
    10030    2    1    2    0    0  0.00000000000E+00  0.00000000000E+00 -0.88102212201E+02  0.90438717045E+03  0.90008563719E+03 0.  0.
        5    1    3    3  502    0 -0.20112462330E+03 -0.40085380686E+03 -0.67041306191E+01  0.44855537444E+03  0.46999998093E+01 0.  1.
       -5    1    3    3    0  502  0.20112462330E+03  0.40085380686E+03 -0.81398081582E+02  0.45583179601E+03  0.46999998093E+01 0. -1.
</event>
<event>
 5   0  0.9321543E-04  0.8994680E+03  0.7818609E-02  0.9426247E-01
       -1   -1    0    0    0  501  0.00000000000E+00  0.00000000000E+00  0.23751146610E+03  0.23751146615E+03  0.50400001928E-02 0.  1.
        1   -1    0    0  501    0  0.00000000000E+00  0.00000000000E+00 -0.85158272196E+03  0.85158272198E+03  0.50400001928E-02 0. -1.
    10030    2    1    2    0    0  0.00000000000E+00  0.00000000000E+00 -0.61407125586E+03  0.10890941881E+04  0.89946797795E+03 0.  0.
        3    1    3    3  502    0  0.41478952636E+03 -0.90458562551E+02 -0.12732953124E+03  0.44322220437E+03  0.10100000352E+00 0.  1.
       -3    1    3    3    0  502 -0.41478952636E+03  0.90458562551E+02 -0.48674172462E+03  0.64587198376E+03  0.10100000352E+00 0. -1.
</event>
<event>
 5   0  0.9321543E-04  0.9010086E+03  0.7818609E-02  0.9424321E-01
       -1   -1    0    0    0  501  0.00000000000E+00  0.00000000000E+00  0.18606260593E+03  0.18606260600E+03  0.50400001928E-02 0. -1.
        1   -1    0    0  501    0  0.00000000000E+00  0.00000000000E+00 -0.10907841088E+04  0.10907841089E+04  0.50400001928E-02 0.  1.
    10030    2    1    2    0    0  0.00000000000E+00  0.00000000000E+00 -0.90472150292E+03  0.12768467149E+04  0.90100862116E+03 0.  0.
        3    1    3    3  502    0 -0.26915074684E+02  0.62769987491E+01  0.18486009786E+03  0.18691465417E+03  0.10100000352E+00 0. -1.
       -3    1    3    3    0  502  0.26915074684E+02 -0.62769987491E+01 -0.10895816008E+04  0.10899320607E+04  0.10100000352E+00 0.  1.
</event>
<event>
 5   0  0.9697941E-04  0.8995419E+03  0.7818609E-02  0.9426154E-01
        1   -1    0    0  501    0  0.00000000000E+00  0.00000000000E+00  0.39989315678E+03  0.39989315681E+03  0.50400001928E-02 0.  1.
       -1   -1    0    0    0  501  0.00000000000E+00  0.00000000000E+00 -0.50586985215E+03  0.50586985217E+03  0.50400001928E-02 0. -1.
    10030    2    1    2    0    0  0.00000000000E+00  0.00000000000E+00 -0.10597669537E+03  0.90576300899E+03  0.89954186589E+03 0.  0.
        5    1    3    3  502    0 -0.47574204594E+02 -0.53037488807E+02 -0.50012649574E+03  0.50519786411E+03  0.46999998093E+01 0. -1.
       -5    1    3    3    0  502  0.47574204594E+02  0.53037488807E+02  0.39414980037E+03  0.40056514488E+03  0.46999998093E+01 0.  1.
</event>
<event>
 5   0  0.9981885E-04  0.8993944E+03  0.7818609E-02  0.9426339E-01
        1   -1    0    0  501    0  0.00000000000E+00  0.00000000000E+00  0.75231570490E+03  0.75231570492E+03  0.50400001928E-02 0.  1.
       -1   -1    0    0    0  501  0.00000000000E+00  0.00000000000E+00 -0.26880676963E+03  0.26880676967E+03  0.50400001928E-02 0. -1.
    10030    2    1    2    0    0  0.00000000000E+00  0.00000000000E+00  0.48350893528E+03  0.10211224746E+04  0.89939436157E+03 0.  0.
        4    1    3    3  502    0  0.11427761842E+03 -0.43485881311E+03  0.23264478018E+03  0.50624773388E+03  0.12699999809E+01 0.  1.
       -4    1    3    3    0  502 -0.11427761842E+03  0.43485881311E+03  0.25086415509E+03  0.51487474071E+03  0.12699999809E+01 0. -1.
</event>
<event>
 5   0  0.9321543E-04  0.9019932E+03  0.7818609E-02  0.9423093E-01
        1   -1    0    0  501    0  0.00000000000E+00  0.00000000000E+00  0.71372903821E+03  0.71372903823E+03  0.50400001928E-02 0.  1.
       -1   -1    0    0    0  501  0.00000000000E+00  0.00000000000E+00 -0.28497922622E+03  0.28497922627E+03  0.50400001928E-02 0. -1.
    10030    2    1    2    0    0  0.00000000000E+00  0.00000000000E+00  0.42874981199E+03  0.99870826450E+03  0.90199323517E+03 0.  0.
        3    1    3    3  502    0  0.57524937329E+02 -0.12355464719E+03 -0.26163221835E+03  0.29500219853E+03  0.10100000352E+00 0. -1.
       -3    1    3    3    0  502 -0.57524937329E+02  0.12355464719E+03  0.69038203034E+03  0.70370606597E+03  0.10100000352E+00 0.  1.
</event>
<event>
 5   0  0.1630202E-03  0.9032273E+03  0.7818609E-02  0.9421556E-01
       -2   -1    0    0    0  501  0.00000000000E+00  0.00000000000E+00  0.11990474963E+04  0.11990474963E+04  0.25500000920E-02 0. -1.
        2   -1    0    0  501    0  0.00000000000E+00  0.00000000000E+00 -0.17009740472E+03  0.17009740474E+03  0.25500000920E-02 0.  1.
    10030    2    1    2    0    0  0.00000000000E+00  0.00000000000E+00  0.10289500916E+04  0.13691449010E+04  0.90322725219E+03 0.  0.
        4    1    3    3  502    0  0.31817866735E+03  0.14971786814E+03  0.94402191591E+03  0.10073887507E+04  0.12699999809E+01 0. -1.
       -4    1    3    3    0  502 -0.31817866735E+03 -0.14971786814E+03  0.84928175678E+02  0.36175615036E+03  0.12699999809E+01 0.  1.
</event>
<event>
 5   0  0.9321543E-04  0.9053959E+03  0.7818609E-02  0.9418861E-01
        1   -1    0    0  501    0  0.00000000000E+00  0.00000000000E+00  0.26242244453E+03  0.26242244457E+03  0.50400001928E-02 0.  1.
       -1   -1    0    0    0  501  0.00000000000E+00  0.00000000000E+00 -0.78093719422E+03  0.78093719423E+03  0.50400001928E-02 0. -1.
    10030    2    1    2    0    0  0.00000000000E+00  0.00000000000E+00 -0.51851474969E+03  0.10433596388E+04  0.90539593010E+03 0.  0.
        3    1    3    3  502    0 -0.32794397372E+03 -0.21407998434E+03  0.24062212360E+01  0.39164178747E+03  0.10100000352E+00 0.  1.
       -3    1    3    3    0  502  0.32794397372E+03  0.21407998434E+03 -0.52092097093E+03  0.65171785134E+03  0.10100000352E+00 0. -1.
</event>
<event>
 5   0  0.1704416E-03  0.9002747E+03  0.7818609E-02  0.9425238E-01
        2   -1    0    0  501    0  0.00000000000E+00  0.00000000000E+00  0.14398390634E+04  0.14398390634E+04  0.25500000920E-02 0.  1.
       -2   -1    0    0    0  501  0.00000000000E+00  0.00000000000E+00 -0.14072659884E+03  0.14072659886E+03  0.25500000920E-02 0. -1.
    10030    2    1    2    0    0  0.00000000000E+00  0.00000000000E+00  0.12991124646E+04  0.15805656623E+04  0.90027474538E+03 0.  0.
        3    1    3    3  502    0 -0.34747403039E+03  0.11136434145E+03  0.11123399669E+04  0.11706581185E+04  0.10100000352E+00 0.  1.
       -3    1    3    3    0  502  0.34747403039E+03 -0.11136434145E+03  0.18677249773E+03  0.40990754379E+03  0.10100000352E+00 0. -1.
</event>
<event>
 5   0  0.1704416E-03  0.9201878E+03  0.7818609E-02  0.9400692E-01
        2   -1    0    0  501    0  0.00000000000E+00  0.00000000000E+00  0.24690472297E+04  0.24690472297E+04  0.25500000920E-02 0.  1.
       -2   -1    0    0    0  501  0.00000000000E+00  0.00000000000E+00 -0.85736068729E+02  0.85736068767E+02  0.25500000920E-02 0. -1.
    10030    2    1    2    0    0  0.00000000000E+00  0.00000000000E+00  0.23833111609E+04  0.25547832984E+04  0.92018781350E+03 0.  0.
        3    1    3    3  502    0  0.22989649710E+02  0.32288781086E+03  0.28389954302E+03  0.43056244974E+03  0.10100000352E+00 0. -1.
       -3    1    3    3    0  502 -0.22989649710E+02 -0.32288781086E+03  0.20994116179E+04  0.21242208487E+04  0.10100000352E+00 0.  1.
</event>
<event>
 5   0  0.6375625E-04  0.8998796E+03  0.7818609E-02  0.9425732E-01
       -4   -1    0    0    0  501  0.00000000000E+00  0.00000000000E+00  0.46071317840E+03  0.46071492883E+03  0.12699999809E+01 0.  1.
        4   -1    0    0  501    0  0.00000000000E+00  0.00000000000E+00 -0.43941486826E+03  0.43941670353E+03  0.12699999809E+01 0. -1.
    10030    2    1    2    0    0  0.00000000000E+00  0.00000000000E+00  0.21298310142E+02  0.90013163237E+03  0.89987962393E+03 0.  0.
        4    1    3    3  502    0  0.11619682097E+02 -0.42119411231E+03  0.16850565690E+03  0.45380091071E+03  0.12699999809E+01 0.  1.
       -4    1    3    3    0  502 -0.11619682097E+02  0.42119411231E+03 -0.14720734676E+03  0.44633072166E+03  0.12699999809E+01 0. -1.
</event>
<event>
 5   0  0.1635686E-03  0.8993238E+03  0.7818609E-02  0.9426427E-01
       -2   -1    0    0    0  501  0.00000000000E+00  0.00000000000E+00  0.62863042833E+03  0.62863042834E+03  0.25500000920E-02 0.  1.
        2   -1    0    0  501    0  0.00000000000E+00  0.00000000000E+00 -0.32164498945E+03  0.32164498946E+03  0.25500000920E-02 0. -1.
    10030    2    1    2    0    0  0.00000000000E+00  0.00000000000E+00  0.30698543888E+03  0.95027541780E+03  0.89932380708E+03 0.  0.
        5    1    3    3  502    0  0.39777315151E+03  0.74483532626E+02  0.36056069228E+03  0.54203079203E+03  0.46999998093E+01 0.  1.
       -5    1    3    3    0  502 -0.39777315151E+03 -0.74483532626E+02 -0.53575253405E+02  0.40824462577E+03  0.46999998093E+01 0. -1.
</event>
<event>
 5   0  0.9697941E-04  0.8995654E+03  0.7818609E-02  0.9426125E-01
       -1   -1    0    0    0  501  0.00000000000E+00  0.00000000000E+00  0.20851805618E+03  0.20851805624E+03  0.50400001928E-02 0.  1.
        1   -1    0    0  501    0  0.00000000000E+00  0.00000000000E+00 -0.97020119102E+03  0.97020119104E+03  0.50400001928E-02 0. -1.
    10030    2    1    2    0    0  0.00000000000E+00  0.00000000000E+00 -0.76168313485E+03  0.11787192473E+04  0.89956537616E+03 0.  0.
        5    1    3    3  502    0  0.36486010189E+03  0.23320011749E+03 -0.54012607583E+03  0.69228856450E+03  0.46999998093E+01 0. -1.
       -5    1    3    3    0  502 -0.36486010189E+03 -0.23320011749E+03 -0.22155705902E+03  0.48643068277E+03  0.46999998093E+01 0.  1.
</event>
<event>
 5   0  0.1007561E-03  0.8995105E+03  0.7818609E-02  0.9426194E-01
        1   -1    0    0  501    0  0.00000000000E+00  0.00000000000E+00  0.61012202779E+03  0.61012202781E+03  0.50400001928E-02 0.  1.
       -1   -1    0    0    0  501  0.00000000000E+00  0.00000000000E+00 -0.33153989631E+03  0.33153989634E+03  0.50400001928E-02 0. -1.
    10030    2    1    2    0    0  0.00000000000E+00  0.00000000000E+00  0.27858213149E+03  0.94166192416E+03  0.89951051991E+03 0.  0.
        2    1    3    3  502    0  0.26199640770E+03  0.13149629226E+03  0.49637083112E+03  0.57646976895E+03  0.25500000920E-02 0.  1.
       -2    1    3    3    0  502 -0.26199640770E+03 -0.13149629226E+03 -0.21778869963E+03  0.36519215520E+03  0.25500000920E-02 0. -1.
</event>
<event>
 5   0  0.1635686E-03  0.8986151E+03  0.7818609E-02  0.9427314E-01
        2   -1    0    0  501    0  0.00000000000E+00  0.00000000000E+00  0.12305083307E+03  0.12305083309E+03  0.25500000920E-02 0.  1.
       -2   -1    0    0    0  501  0.00000000000E+00  0.00000000000E+00 -0.16406004822E+04  0.16406004822E+04  0.25500000920E-02 0. -1.
    10030    2    1    2    0    0  0.00000000000E+00  0.00000000000E+00 -0.15175496491E+04  0.17636513153E+04  0.89861505904E+03 0.  0.
        5    1    3    3  502    0 -0.31925949190E+03 -0.51270007095E+02 -0.14657204557E+03  0.35505026593E+03  0.46999998093E+01 0.  1.
       -5    1    3    3    0  502  0.31925949190E+03  0.51270007095E+02 -0.13709776035E+04  0.14086010493E+04  0.46999998093E+01 0. -1.
</event>
<event>
 5   0  0.1641516E-03  0.8945741E+03  0.7818609E-02  0.9432390E-01
        2   -1    0    0  501    0  0.00000000000E+00  0.00000000000E+00  0.92014352920E+03  0.92014352920E+03  0.25500000920E-02 0.  1.
       -2   -1    0    0    0  501  0.00000000000E+00  0.00000000000E+00 -0.21742878865E+03  0.21742878866E+03  0.25500000920E-02 0. -1.
    10030    2    1    2    0    0  0.00000000000E+00  0.00000000000E+00  0.70271474055E+03  0.11375723179E+04  0.89457407283E+03 0.  0.
        1    1    3    3  502    0 -0.17506990362E+03 -0.29757874606E+03  0.71296528939E+03  0.79216291579E+03  0.50400001928E-02 0.  1.
       -1    1    3    3    0  502  0.17506990362E+03  0.29757874606E+03 -0.10250548840E+02  0.34540940207E+03  0.50400001928E-02 0. -1.
</event>
<event>
 5   0  0.1007561E-03  0.8999682E+03  0.7818609E-02  0.9425621E-01
       -1   -1    0    0    0  501  0.00000000000E+00  0.00000000000E+00  0.23799349546E+03  0.23799349552E+03  0.50400001928E-02 0.  1.
        1   -1    0    0  501    0  0.00000000000E+00  0.00000000000E+00 -0.85080354769E+03  0.85080354770E+03  0.50400001928E-02 0. -1.
    10030    2    1    2    0    0  0.00000000000E+00  0.00000000000E+00 -0.61281005222E+03  0.10887970432E+04  0.89996824456E+03 0.  0.
        2    1    3    3  502    0  0.23007922133E+03  0.30608086925E+03 -0.59235156433E+03  0.70533844527E+03  0.25500000920E-02 0. -1.
       -2    1    3    3    0  502 -0.23007922133E+03 -0.30608086925E+03 -0.20458487890E+02  0.38345859794E+03  0.25500000920E-02 0.  1.
</event>
<event>
 5   0  0.1641516E-03  0.8999975E+03  0.7818609E-02  0.9425585E-01
        2   -1    0    0  501    0  0.00000000000E+00  0.00000000000E+00  0.25225882734E+03  0.25225882735E+03  0.25500000920E-02 0.  1.
       -2   -1    0    0    0  501  0.00000000000E+00  0.00000000000E+00 -0.80274253325E+03  0.80274253326E+03  0.25500000920E-02 0. -1.
    10030    2    1    2    0    0  0.00000000000E+00  0.00000000000E+00 -0.55048370591E+03  0.10550013606E+04  0.89999753356E+03 0.  0.
        1    1    3    3  502    0 -0.10899061220E+03  0.15747490860E+03 -0.75258669882E+03  0.77657197970E+03  0.50400001928E-02 0. -1.
       -1    1    3    3    0  502  0.10899061220E+03 -0.15747490860E+03  0.20210299291E+03  0.27842938091E+03  0.50400001928E-02 0.  1.
</event>
<event>
 5   0  0.9981885E-04  0.8993215E+03  0.7818609E-02  0.9426430E-01
       -1   -1    0    0    0  501  0.00000000000E+00  0.00000000000E+00  0.79852954437E+03  0.79852954438E+03  0.50400001928E-02 0. -1.
        1   -1    0    0  501    0  0.00000000000E+00  0.00000000000E+00 -0.25320887710E+03  0.25320887715E+03  0.50400001928E-02 0.  1.
    10030    2    1    2    0    0  0.00000000000E+00  0.00000000000E+00  0.54532066727E+03  0.10517384215E+04  0.89932145375E+03 0.  0.
        4    1    3    3  502    0 -0.31641503771E+03  0.18778706799E+03 -0.29624103423E+02  0.36913636965E+03  0.12699999809E+01 0.  1.
       -4    1    3    3    0  502  0.31641503771E+03 -0.18778706799E+03  0.57494477069E+03  0.68260205188E+03  0.12699999809E+01 0. -1.
</event>
<event>
 5   0  0.6375625E-04  0.8957310E+03  0.7818609E-02  0.9430934E-01
        3   -1    0    0  501    0  0.00000000000E+00  0.00000000000E+00  0.31006145670E+03  0.31006147315E+03  0.10100000352E+00 0.  1.
       -3   -1    0    0    0  501  0.00000000000E+00  0.00000000000E+00 -0.64691533804E+03  0.64691534593E+03  0.10100000352E+00 0. -1.
    10030    2    1    2    0    0  0.00000000000E+00  0.00000000000E+00 -0.33685388135E+03  0.95697681907E+03  0.89573103936E+03 0.  0.
        3    1    3    3  502    0 -0.34310577344E+03 -0.28646246577E+03 -0.19866776139E+03  0.48913311653E+03  0.10100000352E+00 0. -1.
       -3    1    3    3    0  502  0.34310577344E+03  0.28646246577E+03 -0.13818611995E+03  0.46784370255E+03  0.10100000352E+00 0.  1.
</event>
<event>
 5   0  0.1704416E-03  0.9008983E+03  0.7818609E-02  0.9424459E-01
        2   -1    0    0  501    0  0.00000000000E+00  0.00000000000E+00  0.42814130784E+03  0.42814130785E+03  0.25500000920E-02 0. -1.
       -2   -1    0    0    0  501  0.00000000000E+00  0.00000000000E+00 -0.47391931739E+03  0.47391931740E+03  0.25500000920E-02 0.  1.
    10030    2    1    2    0    0  0.00000000000E+00  0.00000000000E+00 -0.45778009553E+02  0.90206062525E+03  0.90089829918E+03 0.  0.
        3    1    3    3  502    0  0.21435595343E+03 -0.21277080636E+03 -0.35751253777E+03  0.46801187557E+03  0.10100000352E+00 0.  1.
       -3    1    3    3    0  502 -0.21435595343E+03  0.21277080636E+03  0.31173452822E+03  0.43404874968E+03  0.10100000352E+00 0. -1.
</event>
<event>
 5   0  0.9981885E-04  0.8972485E+03  0.7818609E-02  0.9429027E-01
        1   -1    0    0  501    0  0.00000000000E+00  0.00000000000E+00  0.79890513310E+03  0.79890513312E+03  0.50400001928E-02 0. -1.
       -1   -1    0    0    0  501  0.00000000000E+00  0.00000000000E+00 -0.25192444222E+03  0.25192444227E+03  0.50400001928E-02 0.  1.
    10030    2    1    2    0    0  0.00000000000E+00  0.00000000000E+00  0.54698069089E+03  0.10508295754E+04  0.89724852761E+03 0.  0.
        4    1    3    3  502    0  0.59868574584E+02  0.18254207852E+03  0.74829247575E+03  0.77256009399E+03  0.12699999809E+01 0. -1.
       -4    1    3    3    0  502 -0.59868574584E+02 -0.18254207852E+03 -0.20131178487E+03  0.27826948140E+03  0.12699999809E+01 0.  1.
</event>
<event>
 5   0  0.1704416E-03  0.9008218E+03  0.7818609E-02  0.9424555E-01
        2   -1    0    0  501    0  0.00000000000E+00  0.00000000000E+00  0.95195893263E+03  0.95195893263E+03  0.25500000920E-02 0.  1.
       -2   -1    0    0    0  501  0.00000000000E+00  0.00000000000E+00 -0.21310788737E+03  0.21310788738E+03  0.25500000920E-02 0. -1.
    10030    2    1    2    0    0  0.00000000000E+00  0.00000000000E+00  0.73885104526E+03  0.11650668200E+04  0.90082175153E+03 0.  0.
        3    1    3    3  502    0  0.85987174454E+02  0.44121893637E+03  0.33279864328E+03  0.55930572244E+03  0.10100000352E+00 0. -1.
       -3    1    3    3    0  502 -0.85987174454E+02 -0.44121893637E+03  0.40605240199E+03  0.60576109758E+03  0.10100000352E+00 0.  1.
</event>
<event>
 5   0  0.1630202E-03  0.8996821E+03  0.7818609E-02  0.9425979E-01
       -2   -1    0    0    0  501  0.00000000000E+00  0.00000000000E+00  0.10378062929E+03  0.10378062933E+03  0.25500000920E-02 0.  1.
        2   -1    0    0  501    0  0.00000000000E+00  0.00000000000E+00 -0.19498529147E+04  0.19498529147E+04  0.25500000920E-02 0. -1.
    10030    2    1    2    0    0  0.00000000000E+00  0.00000000000E+00 -0.18460722854E+04  0.20536335441E+04  0.89968208286E+03 0.  0.
        4    1    3    3  502    0 -0.28011169504E+03 -0.13953969601E+03 -0.18542280536E+03  0.36375420013E+03  0.12699999809E+01 0.  1.
       -4    1    3    3    0  502  0.28011169504E+03  0.13953969601E+03 -0.16606494801E+04  0.16898793439E+04  0.12699999809E+01 0. -1.
</event>
<event>
 5   0  0.1536020E-03  0.9005012E+03  0.7818609E-02  0.9424955E-01
        2   -1    0    0  501    0  0.00000000000E+00  0.00000000000E+00  0.29586466719E+04  0.29586466719E+04  0.25500000920E-02 0. -1.
       -2   -1    0    0    0  501  0.00000000000E+00  0.00000000000E+00 -0.68519709044E+02  0.68519709091E+02  0.25500000920E-02 0.  1.
    10030    2    1    2    0    0  0.00000000000E+00  0.00000000000E+00  0.28901269629E+04  0.30271663810E+04  0.90050121421E+03 0.  0.
        2    1    3    3  502    0  0.19715477822E+03  0.40413188990E+03  0.15226744314E+04  0.15876807032E+04  0.25500000920E-02 0. -1.
       -2    1    3    3    0  502 -0.19715477822E+03 -0.40413188990E+03  0.13674525314E+04  0.14394856778E+04  0.25500000920E-02 0.  1.
</event>
<event>
 5   0  0.1536020E-03  0.9002969E+03  0.7818609E-02  0.9425210E-01
       -2   -1    0    0    0  501  0.00000000000E+00  0.00000000000E+00  0.11174923380E+03  0.11174923383E+03  0.25500000920E-02 0. -1.
        2   -1    0    0  501    0  0.00000000000E+00  0.00000000000E+00 -0.18132888690E+04  0.18132888690E+04  0.25500000920E-02 0.  1.
    10030    2    1    2    0    0  0.00000000000E+00  0.00000000000E+00 -0.17015396352E+04  0.19250381028E+04  0.90029693279E+03 0.  0.
        2    1    3    3  502    0  0.13260699831E+03  0.37780935973E+03 -0.12905853090E+04  0.13512716116E+04  0.25500000920E-02 0. -1.
       -2    1    3    3    0  502 -0.13260699831E+03 -0.37780935973E+03 -0.41095432614E+03  0.57376649125E+03  0.25500000920E-02 0.  1.
</event>
<event>
 5   0  0.9981885E-04  0.8999425E+03  0.7818609E-02  0.9425653E-01
        1   -1    0    0  501    0  0.00000000000E+00  0.00000000000E+00  0.51184118686E+03  0.51184118689E+03  0.50400001928E-02 0.  1.
       -1   -1    0    0    0  501  0.00000000000E+00  0.00000000000E+00 -0.39557995176E+03  0.39557995179E+03  0.50400001928E-02 0. -1.
    10030    2    1    2    0    0  0.00000000000E+00  0.00000000000E+00  0.11626123510E+03  0.90742113868E+03  0.89994246935E+03 0.  0.
        4    1    3    3  502    0  0.18783845137E+03  0.23883962843E+03 -0.27650813861E+03  0.41083575251E+03  0.12699999809E+01 0. -1.
       -4    1    3    3    0  502 -0.18783845137E+03 -0.23883962843E+03  0.39276937371E+03  0.49658538616E+03  0.12699999809E+01 0.  1.
</event>
<event>
 5   0  0.1536020E-03  0.8996407E+03  0.7818609E-02  0.9426031E-01
        2   -1    0    0  501    0  0.00000000000E+00  0.00000000000E+00  0.31530852316E+03  0.31530852317E+03  0.25500000920E-02 0.  1.
       -2   -1    0    0    0  501  0.00000000000E+00  0.00000000000E+00 -0.64171541479E+03  0.64171541479E+03  0.25500000920E-02 0. -1.
    10030    2    1    2    0    0  0.00000000000E+00  0.00000000000E+00 -0.32640689163E+03  0.95702393797E+03  0.89964068324E+03 0.  0.
        2    1    3    3  502    0 -0.77088277377E+02 -0.43343637520E+03 -0.26144466764E+03  0.51201856226E+03  0.25500000920E-02 0.  1.
       -2    1    3    3    0  502  0.77088277377E+02  0.43343637520E+03 -0.64962223994E+02  0.44500537571E+03  0.25500000920E-02 0. -1.
</event>
<event>
 5   0  0.1635686E-03  0.8961303E+03  0.7818609E-02  0.9430432E-01
        2   -1    0    0  501    0  0.00000000000E+00  0.00000000000E+00  0.14625252755E+04  0.14625252755E+04  0.25500000920E-02 0. -1.
       -2   -1    0    0    0  501  0.00000000000E+00  0.00000000000E+00 -0.13727104887E+03  0.13727104890E+03  0.25500000920E-02 0.  1.
    10030    2    1    2    0    0  0.00000000000E+00  0.00000000000E+00  0.13252542266E+04  0.15997963244E+04  0.89613029989E+03 0.  0.
        5    1    3    3  502    0 -0.42846146008E+03  0.11541097027E+03  0.55198083377E+03  0.70823996335E+03  0.46999998093E+01 0. -1.
       -5    1    3    3    0  502  0.42846146008E+03 -0.11541097027E+03  0.77327339286E+03  0.89155636106E+03  0.46999998093E+01 0.  1.
</event>
<event>
 5   0  0.1635686E-03  0.8997620E+03  0.7818609E-02  0.9425879E-01
        2   -1    0    0  501    0  0.00000000000E+00  0.00000000000E+00  0.11387280042E+04  0.11387280042E+04  0.25500000920E-02 0. -1.
       -2   -1    0    0    0  501  0.00000000000E+00  0.00000000000E+00 -0.17773596626E+03  0.17773596628E+03  0.25500000920E-02 0.  1.
    10030    2    1    2    0    0  0.00000000000E+00  0.00000000000E+00  0.96099203794E+03  0.13164639705E+04  0.89976201775E+03 0.  0.
        5    1    3    3  502    0 -0.40482457400E+03 -0.10519458641E+03  0.23820860831E+03  0.48136708217E+03  0.46999998093E+01 0.  1.
       -5    1    3    3    0  502  0.40482457400E+03  0.10519458641E+03  0.72278342963E+03  0.83509688831E+03  0.46999998093E+01 0. -1.
</event>
<event>
 5   0  0.1704416E-03  0.9007549E+03  0.7818609E-02  0.9424638E-01
       -2   -1    0    0    0  501  0.00000000000E+00  0.00000000000E+00  0.25041422207E+03  0.25041422208E+03  0.25500000920E-02 0.  1.
        2   -1    0    0  501    0  0.00000000000E+00  0.00000000000E+00 -0.81001726780E+03  0.81001726780E+03  0.25500000920E-02 0. -1.
    10030    2    1    2    0    0  0.00000000000E+00  0.00000000000E+00 -0.55960304573E+03  0.10604314899E+04  0.90075489227E+03 0.  0.
        3    1    3    3  502    0  0.35147277604E+03  0.78272894489E+02  0.38671325932E+02  0.36215361376E+03  0.10100000352E+00 0.  1.
       -3    1    3    3    0  502 -0.35147277604E+03 -0.78272894489E+02 -0.59827437166E+03  0.69827787613E+03  0.10100000352E+00 0. -1.
</event>
<event>
 5   0  0.9697941E-04  0.8996228E+03  0.7818609E-02  0.9426053E-01
       -1   -1    0    0    0  501  0.00000000000E+00  0.00000000000E+00  0.37204665356E+03  0.37204665360E+03  0.50400001928E-02 0. -1.
        1   -1    0    0  501    0  0.00000000000E+00  0.00000000000E+00 -0.54383045833E+03  0.54383045836E+03  0.50400001928E-02 0.  1.
    10030    2    1    2    0    0  0.00000000000E+00  0.00000000000E+00 -0.17178380477E+03  0.91587711195E+03  0.89962281464E+03 0.  0.
        5    1    3    3  502    0  0.72110558127E+02 -0.44652904187E+02  0.36380656155E+03  0.37359218229E+03  0.46999998093E+01 0. -1.
       -5    1    3    3    0  502 -0.72110558127E+02  0.44652904187E+02 -0.53559036632E+03  0.54228492966E+03  0.46999998093E+01 0.  1.
</event>
<event>
 5   0  0.9223454E-04  0.9002349E+03  0.7818609E-02  0.9425288E-01
       -1   -1    0    0    0  501  0.00000000000E+00  0.00000000000E+00  0.33710386529E+03  0.33710386533E+03  0.50400001928E-02 0. -1.
        1   -1    0    0  501    0  0.00000000000E+00  0.00000000000E+00 -0.60101873050E+03  0.60101873053E+03  0.50400001928E-02 0.  1.
    10030    2    1    2    0    0  0.00000000000E+00  0.00000000000E+00 -0.26391486521E+03  0.93812259586E+03  0.90023494088E+03 0.  0.
        1    1    3    3  502    0  0.43120317743E+03  0.98738287225E+02 -0.45267946200E+02  0.44467360679E+03  0.50400001928E-02 0. -1.
       -1    1    3    3    0  502 -0.43120317743E+03 -0.98738287225E+02 -0.21864691901E+03  0.49344898907E+03  0.50400001928E-02 0.  1.
</event>
<event>
 5   0  0.1704416E-03  0.8999256E+03  0.7818609E-02  0.9425674E-01
       -2   -1    0    0    0  501  0.00000000000E+00  0.00000000000E+00  0.79559903323E+03  0.79559903323E+03  0.25500000920E-02 0. -1.
        2   -1    0    0  501    0  0.00000000000E+00  0.00000000000E+00 -0.25448309116E+03  0.25448309118E+03  0.25500000920E-02 0.  1.
    10030    2    1    2    0    0  0.00000000000E+00  0.00000000000E+00  0.54111594206E+03  0.10500821244E+04  0.89992555539E+03 0.  0.
        3    1    3    3  502    0 -0.90689225846E+02  0.36640048279E+03 -0.15244298745E+02  0.37776480556E+03  0.10100000352E+00 0.  1.
       -3    1    3    3    0  502  0.90689225846E+02 -0.36640048279E+03  0.55636024081E+03  0.67231731885E+03  0.10100000352E+00 0. -1.
</event>
<event>
 5   0  0.6375625E-04  0.9006831E+03  0.7818609E-02  0.9424728E-01
       -4   -1    0    0    0  501  0.00000000000E+00  0.00000000000E+00  0.57052632501E+03  0.57052773853E+03  0.12699999809E+01 0.  1.
        4   -1    0    0  501    0  0.00000000000E+00  0.00000000000E+00 -0.35547145249E+03  0.35547372116E+03  0.12699999809E+01 0. -1.
    10030    2    1    2    0    0  0.00000000000E+00  0.00000000000E+00  0.21505487252E+03  0.92600145969E+03  0.90068313249E+03 0.  0.
        3    1    3    3  502    0  0.94493812069E+02  0.15524283397E+03  0.53115135538E+03  0.56138328310E+03  0.10100000352E+00 0.  1.
       -3    1    3    3    0  502 -0.94493812069E+02 -0.15524283397E+03 -0.31609648286E+03  0.36461817659E+03  0.10100000352E+00 0. -1.
</event>
<event>
 5   0  0.1630202E-03  0.8994110E+03  0.7818609E-02  0.9426318E-01
       -2   -1    0    0    0  501  0.00000000000E+00  0.00000000000E+00  0.19786101759E+03  0.19786101761E+03  0.25500000920E-02 0.  1.
        2   -1    0    0  501    0  0.00000000000E+00  0.00000000000E+00 -0.10221065681E+04  0.10221065681E+04  0.25500000920E-02 0. -1.
    10030    2    1    2    0    0  0.00000000000E+00  0.00000000000E+00 -0.82424555048E+03  0.12199675857E+04  0.89941101985E+03 0.  0.
        4    1    3    3  502    0 -0.28816959569E+03  0.32011729875E+03 -0.23674907018E+03  0.49149622173E+03  0.12699999809E+01 0.  1.
       -4    1    3    3    0  502  0.28816959569E+03 -0.32011729875E+03 -0.58749648029E+03  0.72847136395E+03  0.12699999809E+01 0. -1.
</event>
<event>
 5   0  0.6375625E-04  0.9011683E+03  0.7818609E-02  0.9424122E-01
        3   -1    0    0  501    0  0.00000000000E+00  0.00000000000E+00  0.82383101546E+03  0.82383102165E+03  0.10100000352E+00 0.  1.
       -3   -1    0    0    0  501  0.00000000000E+00  0.00000000000E+00 -0.24644136619E+03  0.24644138689E+03  0.10100000352E+00 0. -1.
    10030    2    1    2    0    0  0.00000000000E+00  0.00000000000E+00  0.57738964927E+03  0.10702724085E+04  0.90116825365E+03 0.  0.
        1    1    3    3  502    0  0.21454137794E+03  0.24806057259E+03 -0.78256339866E+02  0.33717370194E+03  0.50400001928E-02 0. -1.
       -1    1    3    3    0  502 -0.21454137794E+03 -0.24806057259E+03  0.65564598914E+03  0.73309870660E+03  0.50400001928E-02 0.  1.
</event>
<event>
 5   0  0.9981885E-04  0.9014537E+03  0.7818609E-02  0.9423766E-01
       -1   -1    0    0    0  501  0.00000000000E+00  0.00000000000E+00  0.25127734171E+03  0.25127734177E+03  0.50400001928E-02 0.  1.
        1   -1    0    0  501    0  0.00000000000E+00  0.00000000000E+00 -0.80848797365E+03  0.80848797367E+03  0.50400001928E-02 0. -1.
    10030    2    1    2    0    0  0.00000000000E+00  0.00000000000E+00 -0.55721063194E+03  0.10597653154E+04  0.90145373451E+03 0.  0.
        4    1    3    3  502    0  0.85122359127E+02  0.40424447502E+03 -0.66688344856E+02  0.41845950801E+03  0.12699999809E+01 0.  1.
       -4    1    3    3    0  502 -0.85122359127E+02 -0.40424447502E+03 -0.49052228708E+03  0.64130580742E+03  0.12699999809E+01 0. -1.
</event>
<event>
 5   0  0.1630202E-03  0.9008015E+03  0.7818609E-02  0.9424580E-01
       -2   -1    0    0    0  501  0.00000000000E+00  0.00000000000E+00  0.17140782186E+03  0.17140782188E+03  0.25500000920E-02 0. -1.
        2   -1    0    0  501    0  0.00000000000E+00  0.00000000000E+00 -0.11834980558E+04  0.11834980558E+04  0.25500000920E-02 0.  1.
    10030    2    1    2    0    0  0.00000000000E+00  0.00000000000E+00 -0.10120902339E+04  0.13549058777E+04  0.90080147409E+03 0.  0.
        4    1    3    3  502    0  0.13233054749E+03  0.34068684264E+03 -0.11014561308E+03  0.38172315561E+03  0.12699999809E+01 0. -1.
       -4    1    3    3    0  502 -0.13233054749E+03 -0.34068684264E+03 -0.90194462083E+03  0.97318272204E+03  0.12699999809E+01 0.  1.
</event>
<event>
 5   0  0.1641516E-03  0.9012132E+03  0.7818609E-02  0.9424066E-01
       -2   -1    0    0    0  501  0.00000000000E+00  0.00000000000E+00  0.16310854459E+03  0.16310854461E+03  0.25500000920E-02 0.  1.
        2   -1    0    0  501    0  0.00000000000E+00  0.00000000000E+00 -0.12448539048E+04  0.12448539048E+04  0.25500000920E-02 0. -1.
    10030    2    1    2    0    0  0.00000000000E+00  0.00000000000E+00 -0.10817453602E+04  0.14079624494E+04  0.90121320154E+03 0.  0.
        1    1    3    3  502    0 -0.26256484149E+03  0.30452201814E+03 -0.22309847669E+03  0.45983354145E+03  0.50400001928E-02 0.  1.
       -1    1    3    3    0  502  0.26256484149E+03 -0.30452201814E+03 -0.85864688356E+03  0.94812890800E+03  0.50400001928E-02 0. -1.
</event>
<event>
 5   0  0.1536020E-03  0.9033143E+03  0.7818609E-02  0.9421448E-01
        2   -1    0    0  501    0  0.00000000000E+00  0.00000000000E+00  0.53565668322E+03  0.53565668323E+03  0.25500000920E-02 0.  1.
       -2   -1    0    0    0  501  0.00000000000E+00  0.00000000000E+00 -0.38083006107E+03  0.38083006108E+03  0.25500000920E-02 0. -1.
    10030    2    1    2    0    0  0.00000000000E+00  0.00000000000E+00  0.15482662215E+03  0.91648674431E+03  0.90331426955E+03 0.  0.
        2    1    3    3  502    0  0.12390461687E+03 -0.36746882208E+02 -0.36166939065E+03  0.38406696756E+03  0.25500000920E-02 0. -1.
       -2    1    3    3    0  502 -0.12390461687E+03  0.36746882208E+02  0.51649601280E+03  0.53241977675E+03  0.25500000920E-02 0.  1.
</event>
<event>
 5   0  0.9321543E-04  0.9002984E+03  0.7818609E-02  0.9425208E-01
       -1   -1    0    0    0  501  0.00000000000E+00  0.00000000000E+00  0.25624999796E+03  0.25624999801E+03  0.50400001928E-02 0.  1.
        1   -1    0    0  501    0  0.00000000000E+00  0.00000000000E+00 -0.79076809790E+03  0.79076809792E+03  0.50400001928E-02 0. -1.
    10030    2    1    2    0    0  0.00000000000E+00  0.00000000000E+00 -0.53451809994E+03  0.10470180959E+04  0.90029844720E+03 0.  0.
        3    1    3    3  502    0  0.26776959026E+03 -0.19699204078E+03  0.85731649213E+02  0.34330211691E+03  0.10100000352E+00 0.  1.
       -3    1    3    3    0  502 -0.26776959026E+03  0.19699204078E+03 -0.62024974915E+03  0.70371597902E+03  0.10100000352E+00 0. -1.
</event>
<event>
 5   0  0.6375625E-04  0.9000692E+03  0.7818609E-02  0.9425495E-01
        3   -1    0    0  501    0  0.00000000000E+00  0.00000000000E+00  0.26047754320E+04  0.26047754340E+04  0.10100000352E+00 0. -1.
       -3   -1    0    0    0  501  0.00000000000E+00  0.00000000000E+00 -0.77753745009E+02  0.77753810607E+02  0.10100000352E+00 0.  1.
    10030    2    1    2    0    0  0.00000000000E+00  0.00000000000E+00  0.25270216870E+04  0.26825292446E+04  0.90006918702E+03 0.  0.
        4    1    3    3  502    0 -0.38892293751E+03  0.20146342202E+03  0.15715271650E+04  0.16314250841E+04  0.12699999809E+01 0.  1.
       -4    1    3    3    0  502  0.38892293751E+03 -0.20146342202E+03  0.95549452203E+03  0.10511041605E+04  0.12699999809E+01 0. -1.
</event>
<event>
 5   0  0.9223454E-04  0.9013051E+03  0.7818609E-02  0.9423951E-01
        1   -1    0    0  501    0  0.00000000000E+00  0.00000000000E+00  0.71458303723E+03  0.71458303725E+03  0.50400001928E-02 0.  1.
       -1   -1    0    0    0  501  0.00000000000E+00  0.00000000000E+00 -0.28420449999E+03  0.28420450003E+03  0.50400001928E-02 0. -1.
    10030    2    1    2    0    0  0.00000000000E+00  0.00000000000E+00  0.43037853724E+03  0.99878753728E+03  0.90130508670E+03 0.  0.
        1    1    3    3  502    0 -0.49259435443E+02  0.44793243466E+03  0.21985891142E+03  0.50140592234E+03  0.50400001928E-02 0.  1.
       -1    1    3    3    0  502  0.49259435443E+02 -0.44793243466E+03  0.21051962582E+03  0.49738161494E+03  0.50400001928E-02 0. -1.
</event>
<event>
 5   0  0.1007561E-03  0.9008900E+03  0.7818609E-02  0.9424470E-01
        1   -1    0    0  501    0  0.00000000000E+00  0.00000000000E+00  0.57589062869E+03  0.57589062872E+03  0.50400001928E-02 0. -1.
       -1   -1    0    0    0  501  0.00000000000E+00  0.00000000000E+00 -0.35232504713E+03  0.35232504717E+03  0.50400001928E-02 0.  1.
    10030    2    1    2    0    0  0.00000000000E+00  0.00000000000E+00  0.22356558156E+03  0.92821567589E+03  0.90088998868E+03 0.  0.
        2    1    3    3  502    0  0.47870840823E+02 -0.14212004008E+03 -0.32584874350E+03  0.35870200284E+03  0.25500000920E-02 0.  1.
       -2    1    3    3    0  502 -0.47870840823E+02  0.14212004008E+03  0.54941432507E+03  0.56951367305E+03  0.25500000920E-02 0. -1.
</event>
<event>
 5   0  0.1536020E-03  0.8996081E+03  0.7818609E-02  0.9426071E-01
        2   -1    0    0  501    0  0.00000000000E+00  0.00000000000E+00  0.42266833566E+03  0.42266833567E+03  0.25500000920E-02 0. -1.
       -2   -1    0    0    0  501  0.00000000000E+00  0.00000000000E+00 -0.47868194946E+03  0.47868194946E+03  0.25500000920E-02 0.  1.
    10030    2    1    2    0    0  0.00000000000E+00  0.00000000000E+00 -0.56013613799E+02  0.90135028513E+03  0.89960814335E+03 0.  0.
        2    1    3    3  502    0  0.19965549787E+03 -0.87795518654E+02  0.36614200940E+03  0.42618111406E+03  0.25500000920E-02 0. -1.
       -2    1    3    3    0  502 -0.19965549787E+03  0.87795518654E+02 -0.42215562320E+03  0.47516917107E+03  0.25500000920E-02 0.  1.
</event>
<event>
 5   0  0.1635686E-03  0.9002499E+03  0.7818609E-02  0.9425269E-01
       -2   -1    0    0    0  501  0.00000000000E+00  0.00000000000E+00  0.10724884858E+03  0.10724884861E+03  0.25500000920E-02 0. -1.
        2   -1    0    0  501    0  0.00000000000E+00  0.00000000000E+00 -0.18891809537E+04  0.18891809537E+04  0.25500000920E-02 0.  1.
    10030    2    1    2    0    0  0.00000000000E+00  0.00000000000E+00 -0.17819321051E+04  0.19964298023E+04  0.90024992546E+03 0.  0.
        5    1    3    3  502    0  0.39437756608E+03 -0.11522888360E+03 -0.48338447204E+03  0.63442414681E+03  0.46999998093E+01 0. -1.
       -5    1    3    3    0  502 -0.39437756608E+03  0.11522888360E+03 -0.12985476331E+04  0.13620056555E+04  0.46999998093E+01 0.  1.
</event>
<event>
 5   0  0.9223454E-04  0.8995070E+03  0.7818609E-02  0.9426198E-01
       -1   -1    0    0    0  501  0.00000000000E+00  0.00000000000E+00  0.19958020778E+03  0.19958020785E+03  0.50400001928E-02 0. -1.
        1   -1    0    0  501    0  0.00000000000E+00  0.00000000000E+00 -0.10135184180E+04  0.10135184180E+04  0.50400001928E-02 0.  1.
    10030    2    1    2    0    0  0.00000000000E+00  0.00000000000E+00 -0.81393821021E+03  0.12130986259E+04  0.89950701276E+03 0.  0.
        1    1    3    3  502    0 -0.25957792929E+03  0.36701844347E+03 -0.38813766497E+03  0.59391420779E+03  0.50400001928E-02 0.  1.
       -1    1    3    3    0  502  0.25957792929E+03 -0.36701844347E+03 -0.42580054524E+03  0.61918441807E+03  0.50400001928E-02 0. -1.
</event>
<event>
 5   0  0.1641516E-03  0.9002722E+03  0.7818609E-02  0.9425241E-01
        2   -1    0    0  501    0  0.00000000000E+00  0.00000000000E+00  0.10450245009E+04  0.10450245009E+04  0.25500000920E-02 0. -1.
       -2   -1    0    0    0  501  0.00000000000E+00  0.00000000000E+00 -0.19389257485E+03  0.19389257487E+03  0.25500000920E-02 0.  1.
    10030    2    1    2    0    0  0.00000000000E+00  0.00000000000E+00  0.85113192602E+03  0.12389170757E+04  0.90027216167E+03 0.  0.
        1    1    3    3  502    0 -0.96442379284E+02  0.24956882564E+03 -0.72589607219E+02  0.27722731171E+03  0.50400001928E-02 0.  1.
       -1    1    3    3    0  502  0.96442379284E+02 -0.24956882564E+03  0.92372153324E+03  0.96168976404E+03  0.50400001928E-02 0. -1.
</event>
<event>
 5   0  0.9223454E-04  0.9025314E+03  0.7818609E-02  0.9422423E-01
       -1   -1    0    0    0  501  0.00000000000E+00  0.00000000000E+00  0.95695296551E+02  0.95695296684E+02  0.50400001928E-02 0. -1.
        1   -1    0    0  501    0  0.00000000000E+00  0.00000000000E+00 -0.21280120155E+04  0.21280120155E+04  0.50400001928E-02 0.  1.
    10030    2    1    2    0    0  0.00000000000E+00  0.00000000000E+00 -0.20323167189E+04  0.22237073122E+04  0.90253142004E+03 0.  0.
        1    1    3    3  502    0 -0.56384324377E+02 -0.33672790775E+03 -0.17432082160E+04  0.17763276050E+04  0.50400001928E-02 0.  1.
       -1    1    3    3    0  502  0.56384324377E+02  0.33672790775E+03 -0.28910850290E+03  0.44737970715E+03  0.50400001928E-02 0. -1.
</event>
<event>
 5   0  0.1635686E-03  0.9015843E+03  0.7818609E-02  0.9423603E-01
        2   -1    0    0  501    0  0.00000000000E+00  0.00000000000E+00  0.42233347720E+03  0.42233347721E+03  0.25500000920E-02 0. -1.
       -2   -1    0    0    0  501  0.00000000000E+00  0.00000000000E+00 -0.48116851781E+03  0.48116851781E+03  0.25500000920E-02 0.  1.
    10030    2    1    2    0    0  0.00000000000E+00  0.00000000000E+00 -0.58835040602E+02  0.90350199502E+03  0.90158432385E+03 0.  0.
        5    1    3    3  502    0  0.50417370628E+02  0.71327514977E+02  0.41374696777E+03  0.42289262111E+03  0.46999998093E+01 0. -1.
       -5    1    3    3    0  502 -0.50417370628E+02 -0.71327514977E+02 -0.47258200837E+03  0.48060937391E+03  0.46999998093E+01 0.  1.
</event>
<event>
 5   0  0.1630202E-03  0.8997562E+03  0.7818609E-02  0.9425886E-01
        2   -1    0    0  501    0  0.00000000000E+00  0.00000000000E+00  0.22725126700E+04  0.22725126700E+04  0.25500000920E-02 0.  1.
       -2   -1    0    0    0  501  0.00000000000E+00  0.00000000000E+00 -0.89060148844E+02  0.89060148881E+02  0.25500000920E-02 0. -1.
    10030    2    1    2    0    0  0.00000000000E+00  0.00000000000E+00  0.21834525212E+04  0.23615728189E+04  0.89975622630E+03 0.  0.
        4    1    3    3  502    0  0.96420198381E+02 -0.42384234135E+03  0.78733662955E+03  0.89935519463E+03  0.12699999809E+01 0. -1.
       -4    1    3    3    0  502 -0.96420198381E+02  0.42384234135E+03  0.13961158916E+04  0.14622176243E+04  0.12699999809E+01 0.  1.
</event>
<event>
 5   0  0.1635686E-03  0.8991014E+03  0.7818609E-02  0.9426705E-01
       -2   -1    0    0    0  501  0.00000000000E+00  0.00000000000E+00  0.12999092256E+03  0.12999092259E+03  0.25500000920E-02 0.  1.
        2   -1    0    0  501    0  0.00000000000E+00  0.00000000000E+00 -0.15546917923E+04  0.15546917923E+04  0.25500000920E-02 0. -1.
    10030    2    1    2    0    0  0.00000000000E+00  0.00000000000E+00 -0.14247008697E+04  0.16846827149E+04  0.89910137448E+03 0.  0.
        5    1    3    3  502    0  0.32518837648E+03  0.82697934638E+02 -0.15183165863E+03  0.36832237395E+03  0.46999998093E+01 0.  1.
       -5    1    3    3    0  502 -0.32518837648E+03 -0.82697934638E+02 -0.12728692111E+04  0.13163603409E+04  0.46999998093E+01 0. -1.
</event>
<event>
 5   0  0.1635686E-03  0.9010233E+03  0.7818609E-02  0.9424303E-01
       -2   -1    0    0    0  501  0.00000000000E+00  0.00000000000E+00  0.10263707993E+04  0.10263707993E+04  0.25500000920E-02 0. -1.
        2   -1    0    0  501    0  0.00000000000E+00  0.00000000000E+00 -0.19774604563E+03  0.19774604564E+03  0.25500000920E-02 0.  1.
    10030    2    1    2    0    0  0.00000000000E+00  0.00000000000E+00  0.82862475368E+03  0.12241168450E+04  0.90102334470E+03 0.  0.
        5    1    3    3  502    0 -0.47522012130E+02 -0.27250840377E+03 -0.68739611389E+02  0.28507261519E+03  0.46999998093E+01 0.  1.
       -5    1    3    3    0  502  0.47522012130E+02  0.27250840377E+03  0.89736436507E+03  0.93904422977E+03  0.46999998093E+01 0. -1.
</event>
<event>
 5   0  0.6375625E-04  0.9005718E+03  0.7818609E-02  0.9424867E-01
       -4   -1    0    0    0  501  0.00000000000E+00  0.00000000000E+00  0.52627125797E+03  0.52627279035E+03  0.12699999809E+01 0. -1.
        4   -1    0    0  501    0  0.00000000000E+00  0.00000000000E+00 -0.38526854074E+03  0.38527063395E+03  0.12699999809E+01 0.  1.
    10030    2    1    2    0    0  0.00000000000E+00  0.00000000000E+00  0.14100271723E+03  0.91154342430E+03  0.90057184506E+03 0.  0.
        4    1    3    3  502    0 -0.66664699924E+02 -0.12020977206E+03 -0.36351297732E+03  0.38863590814E+03  0.12699999809E+01 0.  1.
       -4    1    3    3    0  502  0.66664699924E+02  0.12020977206E+03  0.50451569455E+03  0.52290751616E+03  0.12699999809E+01 0. -1.
</event>
<event>
 5   0  0.1641516E-03  0.8997992E+03  0.7818609E-02  0.9425832E-01
       -2   -1    0    0    0  501  0.00000000000E+00  0.00000000000E+00  0.14895680600E+03  0.14895680603E+03  0.25500000920E-02 0. -1.
        2   -1    0    0  501    0  0.00000000000E+00  0.00000000000E+00 -0.13588478759E+04  0.13588478759E+04  0.25500000920E-02 0.  1.
    10030    2    1    2    0    0  0.00000000000E+00  0.00000000000E+00 -0.12098910699E+04  0.15078046819E+04  0.89979917638E+03 0.  0.
        1    1    3    3  502    0 -0.33669990684E+03 -0.71874049276E+02 -0.10902572418E+04  0.11433256577E+04  0.50400001928E-02 0.  1.
       -1    1    3    3    0  502  0.33669990684E+03  0.71874049276E+02 -0.11963382804E+03  0.36447902417E+03  0.50400001928E-02 0. -1.
</event>
<event>
 5   0  0.1007561E-03  0.9035364E+03  0.7818609E-02  0.9421172E-01
       -1   -1    0    0    0  501  0.00000000000E+00  0.00000000000E+00  0.17368544418E+03  0.17368544425E+03  0.50400001928E-02 0. -1.
        1   -1    0    0  501    0  0.00000000000E+00  0.00000000000E+00 -0.11750811579E+04  0.11750811579E+04  0.50400001928E-02 0.  1.
    10030    2    1    2    0    0  0.00000000000E+00  0.00000000000E+00 -0.10013957137E+04  0.13487666021E+04  0.90353636984E+03 0.  0.
        2    1    3    3  502    0  0.42565367653E+03 -0.14917897221E+03 -0.46237494328E+03  0.64593034166E+03  0.25500000920E-02 0.  1.
       -2    1    3    3    0  502 -0.42565367653E+03  0.14917897221E+03 -0.53902077040E+03  0.70283626046E+03  0.25500000920E-02 0. -1.
</event>
<event>
 5   0  0.1630202E-03  0.9052611E+03  0.7818609E-02  0.9419029E-01
       -2   -1    0    0    0  501  0.00000000000E+00  0.00000000000E+00  0.85840782769E+02  0.85840782807E+02  0.25500000920E-02 0.  1.
        2   -1    0    0  501    0  0.00000000000E+00  0.00000000000E+00 -0.23866790939E+04  0.23866790939E+04  0.25500000920E-02 0. -1.
    10030    2    1    2    0    0  0.00000000000E+00  0.00000000000E+00 -0.23008383111E+04  0.24725198767E+04  0.90526107105E+03 0.  0.
        4    1    3    3  502    0 -0.35154168161E+03 -0.11138342906E+03 -0.43356934814E+03  0.56918522005E+03  0.12699999809E+01 0.  1.
       -4    1    3    3    0  502  0.35154168161E+03  0.11138342906E+03 -0.18672689630E+04  0.19033346567E+04  0.12699999809E+01 0. -1.
</event>
<event>
 5   0  0.9321543E-04  0.8982990E+03  0.7818609E-02  0.9427710E-01
        1   -1    0    0  501    0  0.00000000000E+00  0.00000000000E+00  0.79206588235E+03  0.79206588237E+03  0.50400001928E-02 0. -1.
       -1   -1    0    0    0  501  0.00000000000E+00  0.00000000000E+00 -0.25469505649E+03  0.25469505654E+03  0.50400001928E-02 0.  1.
    10030    2    1    2    0    0  0.00000000000E+00  0.00000000000E+00  0.53737082586E+03  0.10467609389E+04  0.89829898071E+03 0.  0.
        3    1    3    3  502    0 -0.24643570726E+03 -0.30888469794E+03  0.51750520664E+03  0.65111593709E+03  0.10100000352E+00 0. -1.
       -3    1    3    3    0  502  0.24643570726E+03  0.30888469794E+03  0.19865619216E+02  0.39564500181E+03  0.10100000352E+00 0.  1.
</event>
<event>
 5   0  0.1704416E-03  0.8998365E+03  0.7818609E-02  0.9425786E-01
        2   -1    0    0  501    0  0.00000000000E+00  0.00000000000E+00  0.60067918067E+03  0.60067918068E+03  0.25500000920E-02 0.  1.
       -2   -1    0    0    0  501  0.00000000000E+00  0.00000000000E+00 -0.33699590631E+03  0.33699590632E+03  0.25500000920E-02 0. -1.
    10030    2    1    2    0    0  0.00000000000E+00  0.00000000000E+00  0.26368327436E+03  0.93767508700E+03  0.89983648492E+03 0.  0.
        3    1    3    3  502    0 -0.33298126145E+03  0.29062823763E+02 -0.18199596949E+03  0.38058338287E+03  0.10100000352E+00 0. -1.
       -3    1    3    3    0  502  0.33298126145E+03 -0.29062823763E+02  0.44567924385E+03  0.55709170413E+03  0.10100000352E+00 0.  1.
</event>
<event>
 5   0  0.9981885E-04  0.8844155E+03  0.7818609E-02  0.9445275E-01
        1   -1    0    0  501    0  0.00000000000E+00  0.00000000000E+00  0.12727373845E+04  0.12727373845E+04  0.50400001928E-02 0. -1.
       -1   -1    0    0    0  501  0.00000000000E+00  0.00000000000E+00 -0.15364338328E+03  0.15364338336E+03  0.50400001928E-02 0.  1.
    10030    2    1    2    0    0  0.00000000000E+00  0.00000000000E+00  0.11190940012E+04  0.14263807678E+04  0.88441546309E+03 0.  0.
        4    1    3    3  502    0  0.13356769955E+03 -0.17032449371E+03  0.11814573300E+04  0.12011218919E+04  0.12699999809E+01 0. -1.
       -4    1    3    3    0  502 -0.13356769955E+03  0.17032449371E+03 -0.62363328847E+02  0.22525887597E+03  0.12699999809E+01 0.  1.
</event>
<event>
 5   0  0.1641516E-03  0.9010699E+03  0.7818609E-02  0.9424245E-01
       -2   -1    0    0    0  501  0.00000000000E+00  0.00000000000E+00  0.19326794159E+03  0.19326794161E+03  0.25500000920E-02 0. -1.
        2   -1    0    0  501    0  0.00000000000E+00  0.00000000000E+00 -0.10502607665E+04  0.10502607665E+04  0.25500000920E-02 0.  1.
    10030    2    1    2    0    0  0.00000000000E+00  0.00000000000E+00 -0.85699282492E+03  0.12435287081E+04  0.90106988960E+03 0.  0.
        1    1    3    3  502    0 -0.41473083539E+03  0.92640931851E+02 -0.63503410716E+03  0.76410230032E+03  0.50400001928E-02 0.  1.
       -1    1    3    3    0  502  0.41473083539E+03 -0.92640931851E+02 -0.22195871776E+03  0.47942640779E+03  0.50400001928E-02 0. -1.
</event>
<event>
 5   0  0.9697941E-04  0.9012980E+03  0.7818609E-02  0.9423960E-01
       -1   -1    0    0    0  501  0.00000000000E+00  0.00000000000E+00  0.21927403219E+03  0.21927403225E+03  0.50400001928E-02 0. -1.
        1   -1    0    0  501    0  0.00000000000E+00  0.00000000000E+00 -0.92616768634E+03  0.92616768636E+03  0.50400001928E-02 0.  1.
    10030    2    1    2    0    0  0.00000000000E+00  0.00000000000E+00 -0.70689365415E+03  0.11454417186E+04  0.90129800424E+03 0.  0.
        5    1    3    3  502    0  0.76363630144E+02 -0.61187782489E+02  0.20557733261E+03  0.22772676263E+03  0.46999998093E+01 0. -1.
       -5    1    3    3    0  502 -0.76363630144E+02  0.61187782489E+02 -0.91247098676E+03  0.91771495598E+03  0.46999998093E+01 0.  1.
</event>
<event>
 5   0  0.9981885E-04  0.9007272E+03  0.7818609E-02  0.9424673E-01
        1   -1    0    0  501    0  0.00000000000E+00  0.00000000000E+00  0.28478405456E+03  0.28478405460E+03  0.50400001928E-02 0.  1.
       -1   -1    0    0    0  501  0.00000000000E+00  0.00000000000E+00 -0.71221456227E+03  0.71221456229E+03  0.50400001928E-02 0. -1.
    10030    2    1    2    0    0  0.00000000000E+00  0.00000000000E+00 -0.42743050771E+03  0.99699861689E+03  0.90072715245E+03 0.  0.
        4    1    3    3  502    0  0.41107763819E+03  0.15988510874E+03 -0.31442122722E+03  0.54167369665E+03  0.12699999809E+01 0. -1.
       -4    1    3    3    0  502 -0.41107763819E+03 -0.15988510874E+03 -0.11300928050E+03  0.45532492024E+03  0.12699999809E+01 0.  1.
</event>
<event>
 5   0  0.1704416E-03  0.8997905E+03  0.7818609E-02  0.9425843E-01
       -2   -1    0    0    0  501  0.00000000000E+00  0.00000000000E+00  0.14835765457E+03  0.14835765459E+03  0.25500000920E-02 0. -1.
        2   -1    0    0  501    0  0.00000000000E+00  0.00000000000E+00 -0.13643092553E+04  0.13643092553E+04  0.25500000920E-02 0.  1.
    10030    2    1    2    0    0  0.00000000000E+00  0.00000000000E+00 -0.12159516007E+04  0.15126669099E+04  0.89979046724E+03 0.  0.
        3    1    3    3  502    0  0.38464084771E+03  0.21815634307E+03 -0.74726590642E+03  0.86830128230E+03  0.10100000352E+00 0. -1.
       -3    1    3    3    0  502 -0.38464084771E+03 -0.21815634307E+03 -0.46868569428E+03  0.64436562756E+03  0.10100000352E+00 0.  1.
</event>
<event>
 5   0  0.9697941E-04  0.8804748E+03  0.7818609E-02  0.9450323E-01
       -1   -1    0    0    0  501  0.00000000000E+00  0.00000000000E+00  0.18009980061E+03  0.18009980068E+03  0.50400001928E-02 0. -1.
        1   -1    0    0  501    0  0.00000000000E+00  0.00000000000E+00 -0.10761198566E+04  0.10761198566E+04  0.50400001928E-02 0.  1.
    10030    2    1    2    0    0  0.00000000000E+00  0.00000000000E+00 -0.89602005595E+03  0.12562196572E+04  0.88047480746E+03 0.  0.
        5    1    3    3  502    0 -0.12126802498E+03  0.87972574495E+02 -0.10385921284E+04  0.10493525656E+04  0.46999998093E+01 0.  1.
       -5    1    3    3    0  502  0.12126802498E+03 -0.87972574495E+02  0.14257207248E+03  0.20686709162E+03  0.46999998093E+01 0. -1.
</event>
<event>
 5   0  0.9321543E-04  0.9009523E+03  0.7818609E-02  0.9424392E-01
        1   -1    0    0  501    0  0.00000000000E+00  0.00000000000E+00  0.73578492196E+03  0.73578492197E+03  0.50400001928E-02 0. -1.
       -1   -1    0    0    0  501  0.00000000000E+00  0.00000000000E+00 -0.27579899426E+03  0.27579899431E+03  0.50400001928E-02 0.  1.
    10030    2    1    2    0    0  0.00000000000E+00  0.00000000000E+00  0.45998592769E+03  0.10115839163E+04  0.90095225512E+03 0.  0.
        3    1    3    3  502    0 -0.20014919511E+02 -0.19241424786E+03  0.68677136069E+03  0.71349754859E+03  0.10100000352E+00 0. -1.
       -3    1    3    3    0  502  0.20014919511E+02  0.19241424786E+03 -0.22678543300E+03  0.29808636769E+03  0.10100000352E+00 0.  1.
</event>
<event>
 5   0  0.1007561E-03  0.8994349E+03  0.7818609E-02  0.9426288E-01
       -1   -1    0    0    0  501  0.00000000000E+00  0.00000000000E+00  0.18914813703E+03  0.18914813710E+03  0.50400001928E-02 0. -1.
        1   -1    0    0  501    0  0.00000000000E+00  0.00000000000E+00 -0.10692454211E+04  0.10692454211E+04  0.50400001928E-02 0.  1.
    10030    2    1    2    0    0  0.00000000000E+00  0.00000000000E+00 -0.88009728403E+03  0.12583935582E+04  0.89943488807E+03 0.  0.
        2    1    3    3  502    0  0.21669325574E+03  0.25571420858E+03 -0.20553691095E+02  0.33580973449E+03  0.25500000920E-02 0. -1.
       -2    1    3    3    0  502 -0.21669325574E+03 -0.25571420858E+03 -0.85954359293E+03  0.92258382367E+03  0.25500000920E-02 0.  1.
</event>
<event>
 5   0  0.1536020E-03  0.8995666E+03  0.7818609E-02  0.9426123E-01
       -2   -1    0    0    0  501  0.00000000000E+00  0.00000000000E+00  0.15613787199E+03  0.15613787201E+03  0.25500000920E-02 0.  1.
        2   -1    0    0  501    0  0.00000000000E+00  0.00000000000E+00 -0.12956818323E+04  0.12956818323E+04  0.25500000920E-02 0. -1.
    10030    2    1    2    0    0  0.00000000000E+00  0.00000000000E+00 -0.11395439604E+04  0.14518197043E+04  0.89956657138E+03 0.  0.
        2    1    3    3  502    0  0.19286803035E+03  0.24300629855E+03 -0.44184904218E+02  0.31337269191E+03  0.25500000920E-02 0.  1.
       -2    1    3    3    0  502 -0.19286803035E+03 -0.24300629855E+03 -0.10953590561E+04  0.11384470124E+04  0.25500000920E-02 0. -1.
</event>
<event>
 5   0  0.1007561E-03  0.9001618E+03  0.7818609E-02  0.9425379E-01
        1   -1    0    0  501    0  0.00000000000E+00  0.00000000000E+00  0.56660551196E+03  0.56660551198E+03  0.50400001928E-02 0. -1.
       -1   -1    0    0    0  501  0.00000000000E+00  0.00000000000E+00 -0.35752000163E+03  0.35752000167E+03  0.50400001928E-02 0.  1.
    10030    2    1    2    0    0  0.00000000000E+00  0.00000000000E+00  0.20908551033E+03  0.92412551365E+03  0.90016177121E+03 0.  0.
        2    1    3    3  502    0  0.18980893193E+03  0.38661185774E+03  0.23869923771E+03  0.49241596773E+03  0.25500000920E-02 0. -1.
       -2    1    3    3    0  502 -0.18980893193E+03 -0.38661185774E+03 -0.29613727380E+02  0.43170954592E+03  0.25500000920E-02 0.  1.
</event>
<event>
 5   0  0.1007561E-03  0.9006991E+03  0.7818609E-02  0.9424708E-01
        1   -1    0    0  501    0  0.00000000000E+00  0.00000000000E+00  0.33929752755E+03  0.33929752758E+03  0.50400001928E-02 0.  1.
       -1   -1    0    0    0  501  0.00000000000E+00  0.00000000000E+00 -0.59774890446E+03  0.59774890448E+03  0.50400001928E-02 0. -1.
    10030    2    1    2    0    0  0.00000000000E+00  0.00000000000E+00 -0.25845137691E+03  0.93704643206E+03  0.90069911825E+03 0.  0.
        2    1    3    3  502    0 -0.17718640376E+03 -0.23359898152E+03  0.22640399113E+03  0.37043524812E+03  0.25500000920E-02 0.  1.
       -2    1    3    3    0  502  0.17718640376E+03  0.23359898152E+03 -0.48485536804E+03  0.56661118394E+03  0.25500000920E-02 0. -1.
</event>
<event>
 5   0  0.9321543E-04  0.8974317E+03  0.7818609E-02  0.9428798E-01
       -1   -1    0    0    0  501  0.00000000000E+00  0.00000000000E+00  0.15737716383E+04  0.15737716383E+04  0.50400001928E-02 0.  1.
        1   -1    0    0  501    0  0.00000000000E+00  0.00000000000E+00 -0.12793844298E+03  0.12793844308E+03  0.50400001928E-02 0. -1.
    10030    2    1    2    0    0  0.00000000000E+00  0.00000000000E+00  0.14458331953E+04  0.17017100814E+04  0.89743165332E+03 0.  0.
        3    1    3    3  502    0 -0.28386104532E+03  0.14666047168E+03  0.13203234791E+04  0.13584330998E+04  0.10100000352E+00 0.  1.
       -3    1    3    3    0  502  0.28386104532E+03 -0.14666047168E+03  0.12550971621E+03  0.34327698156E+03  0.10100000352E+00 0. -1.
</event>
<event>
 5   0  0.1641516E-03  0.8993856E+03  0.7818609E-02  0.9426350E-01
        2   -1    0    0  501    0  0.00000000000E+00  0.00000000000E+00  0.14533941535E+04  0.14533941535E+04  0.25500000920E-02 0.  1.
       -2   -1    0    0    0  501  0.00000000000E+00  0.00000000000E+00 -0.13913885431E+03  0.13913885433E+03  0.25500000920E-02 0. -1.
    10030    2    1    2    0    0  0.00000000000E+00  0.00000000000E+00  0.13142552991E+04  0.15925330078E+04  0.89938556223E+03 0.  0.
        1    1    3    3  502    0  0.27024341116E+03  0.30555681371E+02  0.22987109017E+02  0.27293508046E+03  0.50400001928E-02 0. -1.
       -1    1    3    3    0  502 -0.27024341116E+03 -0.30555681371E+02  0.12912681901E+04  0.13195979273E+04  0.50400001928E-02 0.  1.
</event>
<event>
 5   0  0.6375625E-04  0.8960780E+03  0.7818609E-02  0.9430497E-01
        3   -1    0    0  501    0  0.00000000000E+00  0.00000000000E+00  0.21884118729E+03  0.21884121060E+03  0.10100000352E+00 0.  1.
       -3   -1    0    0    0  501  0.00000000000E+00  0.00000000000E+00 -0.91728120399E+03  0.91728120955E+03  0.10100000352E+00 0. -1.
    10030    2    1    2    0    0  0.00000000000E+00  0.00000000000E+00 -0.69844001670E+03  0.11361224201E+04  0.89607795232E+03 0.  0.
        5    1    3    3  502    0  0.18105880893E+03  0.32809554451E+03 -0.37909158867E+02  0.37668046531E+03  0.46999998093E+01 0.  1.
       -5    1    3    3    0  502 -0.18105880893E+03 -0.32809554451E+03 -0.66053085783E+03  0.75944195484E+03  0.46999998093E+01 0. -1.
</event>
<event>
 5   0  0.1630202E-03  0.8987280E+03  0.7818609E-02  0.9427173E-01
       -2   -1    0    0    0  501  0.00000000000E+00  0.00000000000E+00  0.17659624671E+03  0.17659624673E+03  0.25500000920E-02 0.  1.
        2   -1    0    0  501    0  0.00000000000E+00  0.00000000000E+00 -0.11434443895E+04  0.11434443895E+04  0.25500000920E-02 0. -1.
    10030    2    1    2    0    0  0.00000000000E+00  0.00000000000E+00 -0.96684814275E+03  0.13200406362E+04  0.89872796221E+03 0.  0.
        4    1    3    3  502    0 -0.60445120628E+02 -0.43896939623E+03 -0.37371996818E+03  0.57966884594E+03  0.12699999809E+01 0.  1.
       -4    1    3    3    0  502  0.60445120628E+02  0.43896939623E+03 -0.59312817457E+03  0.74037179026E+03  0.12699999809E+01 0. -1.
</event>
<event>
 5   0  0.9223454E-04  0.8990876E+03  0.7818609E-02  0.9426723E-01
       -1   -1    0    0    0  501  0.00000000000E+00  0.00000000000E+00  0.31413243386E+03  0.31413243390E+03  0.50400001928E-02 0. -1.
        1   -1    0    0  501    0  0.00000000000E+00  0.00000000000E+00 -0.64332624182E+03  0.64332624184E+03  0.50400001928E-02 0.  1.
    10030    2    1    2    0    0  0.00000000000E+00  0.00000000000E+00 -0.32919380796E+03  0.95745867573E+03  0.89908762228E+03 0.  0.
        1    1    3    3  502    0  0.27370521872E+02  0.33337584338E+03 -0.48443028688E+03  0.58869457386E+03  0.50400001928E-02 0.  1.
       -1    1    3    3    0  502 -0.27370521872E+02 -0.33337584338E+03  0.15523647892E+03  0.36876410187E+03  0.50400001928E-02 0. -1.
</event>
<event>
 5   0  0.1641516E-03  0.8998880E+03  0.7818609E-02  0.9425721E-01
       -2   -1    0    0    0  501  0.00000000000E+00  0.00000000000E+00  0.44451007780E+03  0.44451007781E+03  0.25500000920E-02 0. -1.
        2   -1    0    0  501    0  0.00000000000E+00  0.00000000000E+00 -0.45544438918E+03  0.45544438919E+03  0.25500000920E-02 0.  1.
    10030    2    1    2    0    0  0.00000000000E+00  0.00000000000E+00 -0.10934311379E+02  0.89995446699E+03  0.89988803942E+03 0.  0.
        1    1    3    3  502    0  0.24076078639E+03  0.44894284965E+02  0.37201052827E+03  0.44539093643E+03  0.50400001928E-02 0. -1.
       -1    1    3    3    0  502 -0.24076078639E+03 -0.44894284965E+02 -0.38294483965E+03  0.45456353057E+03  0.50400001928E-02 0.  1.
</event>
<event>
 5   0  0.1630202E-03  0.8914091E+03  0.7818609E-02  0.9436385E-01
       -2   -1    0    0    0  501  0.00000000000E+00  0.00000000000E+00  0.50419179442E+03  0.50419179442E+03  0.25500000920E-02 0.  1.
        2   -1    0    0  501    0  0.00000000000E+00  0.00000000000E+00 -0.39400192116E+03  0.39400192117E+03  0.25500000920E-02 0. -1.
    10030    2    1    2    0    0  0.00000000000E+00  0.00000000000E+00  0.11018987325E+03  0.89819371560E+03  0.89140907701E+03 0.  0.
        4    1    3    3  502    0 -0.22062277530E+03  0.20180104727E+03  0.38814486885E+03  0.48995522630E+03  0.12699999809E+01 0.  1.
       -4    1    3    3    0  502  0.22062277530E+03 -0.20180104727E+03 -0.27795499560E+03  0.40823848929E+03  0.12699999809E+01 0. -1.
</event>
<event>
 5   0  0.1635686E-03  0.9017341E+03  0.7818609E-02  0.9423416E-01
       -2   -1    0    0    0  501  0.00000000000E+00  0.00000000000E+00  0.47082266413E+03  0.47082266414E+03  0.25500000920E-02 0. -1.
        2   -1    0    0  501    0  0.00000000000E+00  0.00000000000E+00 -0.43175724121E+03  0.43175724121E+03  0.25500000920E-02 0.  1.
    10030    2    1    2    0    0  0.00000000000E+00  0.00000000000E+00  0.39065422922E+02  0.90257990535E+03  0.90173409510E+03 0.  0.
        5    1    3    3  502    0  0.29030767767E+03  0.33757142194E+03 -0.51428016745E+02  0.44821863362E+03  0.46999998093E+01 0.  1.
       -5    1    3    3    0  502 -0.29030767767E+03 -0.33757142194E+03  0.90493439667E+02  0.45436127173E+03  0.46999998093E+01 0. -1.
</event>
<event>
 5   0  0.1641516E-03  0.8988669E+03  0.7818609E-02  0.9426999E-01
       -2   -1    0    0    0  501  0.00000000000E+00  0.00000000000E+00  0.27382356786E+03  0.27382356787E+03  0.25500000920E-02 0.  1.
        2   -1    0    0  501    0  0.00000000000E+00  0.00000000000E+00 -0.73766634506E+03  0.73766634507E+03  0.25500000920E-02 0. -1.
    10030    2    1    2    0    0  0.00000000000E+00  0.00000000000E+00 -0.46384277721E+03  0.10114899129E+04  0.89886691006E+03 0.  0.
        1    1    3    3  502    0  0.31529245000E+03 -0.22341520025E+03 -0.49016787520E+03  0.62417003023E+03  0.50400001928E-02 0. -1.
       -1    1    3    3    0  502 -0.31529245000E+03  0.22341520025E+03  0.26325097989E+02  0.38731988271E+03  0.50400001928E-02 0.  1.
</event>
<event>
 5   0  0.1635686E-03  0.8984660E+03  0.7818609E-02  0.9427501E-01
       -2   -1    0    0    0  501  0.00000000000E+00  0.00000000000E+00  0.35154218330E+03  0.35154218331E+03  0.25500000920E-02 0.  1.
        2   -1    0    0  501    0  0.00000000000E+00  0.00000000000E+00 -0.57407134428E+03  0.57407134428E+03  0.25500000920E-02 0. -1.
    10030    2    1    2    0    0  0.00000000000E+00  0.00000000000E+00 -0.22252916098E+03  0.92561352759E+03  0.89846601214E+03 0.  0.
        5    1    3    3  502    0  0.35543925501E+03  0.33972200278E+02  0.16954619245E+03  0.39529631388E+03  0.46999998093E+01 0.  1.
       -5    1    3    3    0  502 -0.35543925501E+03 -0.33972200278E+02 -0.39207535343E+03  0.53031721371E+03  0.46999998093E+01 0. -1.
</event>
<event>
 5   0  0.1641516E-03  0.8997053E+03  0.7818609E-02  0.9425950E-01
       -2   -1    0    0    0  501  0.00000000000E+00  0.00000000000E+00  0.93019022391E+02  0.93019022426E+02  0.25500000920E-02 0. -1.
        2   -1    0    0  501    0  0.00000000000E+00  0.00000000000E+00 -0.21755484657E+04  0.21755484657E+04  0.25500000920E-02 0.  1.
    10030    2    1    2    0    0  0.00000000000E+00  0.00000000000E+00 -0.20825294433E+04  0.22685674882E+04  0.89970526616E+03 0.  0.
        1    1    3    3  502    0  0.98763651782E+02 -0.91612871595E+02  0.40966559629E+02  0.14080282735E+03  0.50400001928E-02 0. -1.
       -1    1    3    3    0  502 -0.98763651782E+02  0.91612871595E+02 -0.21234960030E+04  0.21277646608E+04  0.50400001928E-02 0.  1.
</event>
<event>
 5   0  0.9981885E-04  0.9000439E+03  0.7818609E-02  0.9425527E-01
        1   -1    0    0  501    0  0.00000000000E+00  0.00000000000E+00  0.20606706534E+04  0.20606706534E+04  0.50400001928E-02 0. -1.
       -1   -1    0    0    0  501  0.00000000000E+00  0.00000000000E+00 -0.98278558551E+02  0.98278558680E+02  0.50400001928E-02 0.  1.
    10030    2    1    2    0    0  0.00000000000E+00  0.00000000000E+00  0.19623920948E+04  0.21589492121E+04  0.90004386917E+03 0.  0.
        4    1    3    3  502    0  0.12261053067E+03  0.34633692515E+03  0.16045645786E+04  0.16460898237E+04  0.12699999809E+01 0. -1.
       -4    1    3    3    0  502 -0.12261053067E+03 -0.34633692515E+03  0.35782751626E+03  0.51285938837E+03  0.12699999809E+01 0.  1.
</event>
<event>
 5   0  0.9321543E-04  0.8995810E+03  0.7818609E-02  0.9426105E-01
        1   -1    0    0  501    0  0.00000000000E+00  0.00000000000E+00  0.56432835015E+03  0.56432835017E+03  0.50400001928E-02 0. -1.
       -1   -1    0    0    0  501  0.00000000000E+00  0.00000000000E+00 -0.35849958773E+03  0.35849958776E+03  0.50400001928E-02 0.  1.
    10030    2    1    2    0    0  0.00000000000E+00  0.00000000000E+00  0.20582876242E+03  0.92282793794E+03  0.89958097112E+03 0.  0.
        3    1    3    3  502    0 -0.23815076369E+03  0.25495059123E+03  0.39414490806E+03  0.52637041042E+03  0.10100000352E+00 0. -1.
       -3    1    3    3    0  502  0.23815076369E+03 -0.25495059123E+03 -0.18831614563E+03  0.39645752752E+03  0.10100000352E+00 0.  1.
</event>
<event>
 5   0  0.1641516E-03  0.8998665E+03  0.7818609E-02  0.9425748E-01
       -2   -1    0    0    0  501  0.00000000000E+00  0.00000000000E+00  0.10264847314E+03  0.10264847317E+03  0.25500000920E-02 0.  1.
        2   -1    0    0  501    0  0.00000000000E+00  0.00000000000E+00 -0.19721667767E+04  0.19721667767E+04  0.25500000920E-02 0. -1.
    10030    2    1    2    0    0  0.00000000000E+00  0.00000000000E+00 -0.18695183035E+04  0.20748152498E+04  0.89986645328E+03 0.  0.
        1    1    3    3  502    0  0.10409911907E+02  0.13652933926E+03  0.53442650926E+02  0.14698552211E+03  0.50400001928E-02 0.  1.
       -1    1    3    3    0  502 -0.10409911907E+02 -0.13652933926E+03 -0.19229609545E+04  0.19278297277E+04  0.50400001928E-02 0. -1.
</event>
<event>
 5   0  0.1007561E-03  0.8999081E+03  0.7818609E-02  0.9425696E-01
        1   -1    0    0  501    0  0.00000000000E+00  0.00000000000E+00  0.13403940740E+04  0.13403940740E+04  0.50400001928E-02 0. -1.
       -1   -1    0    0    0  501  0.00000000000E+00  0.00000000000E+00 -0.15104413947E+03  0.15104413955E+03  0.50400001928E-02 0.  1.
    10030    2    1    2    0    0  0.00000000000E+00  0.00000000000E+00  0.11893499345E+04  0.14914382136E+04  0.89990814981E+03 0.  0.
        2    1    3    3  502    0  0.23173805980E+03  0.81675114060E+02 -0.30039669777E+02  0.24753935926E+03  0.25500000920E-02 0.  1.
       -2    1    3    3    0  502 -0.23173805980E+03 -0.81675114060E+02  0.12193896043E+04  0.12438988543E+04  0.25500000920E-02 0. -1.
</event>
<event>
 5   0  0.1536020E-03  0.9001147E+03  0.7818609E-02  0.9425438E-01
       -2   -1    0    0    0  501  0.00000000000E+00  0.00000000000E+00  0.10874057051E+04  0.10874057051E+04  0.25500000920E-02 0. -1.
        2   -1    0    0  501    0  0.00000000000E+00  0.00000000000E+00 -0.18627052884E+03  0.18627052886E+03  0.25500000920E-02 0.  1.
    10030    2    1    2    0    0  0.00000000000E+00  0.00000000000E+00  0.90113517622E+03  0.12736762339E+04  0.90011473883E+03 0.  0.
        2    1    3    3  502    0  0.40827830630E+03 -0.19791850754E+02  0.71705952353E+03  0.82538309471E+03  0.25500000920E-02 0. -1.
       -2    1    3    3    0  502 -0.40827830630E+03  0.19791850754E+02  0.18407565269E+03  0.44829313922E+03  0.25500000920E-02 0.  1.
</event>
<event>
 5   0  0.9981885E-04  0.9010166E+03  0.7818609E-02  0.9424311E-01
       -1   -1    0    0    0  501  0.00000000000E+00  0.00000000000E+00  0.14837355913E+03  0.14837355921E+03  0.50400001928E-02 0. -1.
        1   -1    0    0  501    0  0.00000000000E+00  0.00000000000E+00 -0.13678834579E+04  0.13678834579E+04  0.50400001928E-02 0.  1.
    10030    2    1    2    0    0  0.00000000000E+00  0.00000000000E+00 -0.12195098988E+04  0.15162570171E+04  0.90101661958E+03 0.  0.
        4    1    3    3  502    0 -0.18910642580E+03 -0.22038349063E+03 -0.11893570719E+04  0.12242965248E+04  0.12699999809E+01 0.  1.
       -4    1    3    3    0  502  0.18910642580E+03  0.22038349063E+03 -0.30152826882E+02  0.29196049235E+03  0.12699999809E+01 0. -1.
</event>
<event>
 5   0  0.1635686E-03  0.9002520E+03  0.7818609E-02  0.9425267E-01
       -2   -1    0    0    0  501  0.00000000000E+00  0.00000000000E+00  0.96491213876E+02  0.96491213909E+02  0.25500000920E-02 0.  1.
        2   -1    0    0  501    0  0.00000000000E+00  0.00000000000E+00 -0.20998119370E+04  0.20998119370E+04  0.25500000920E-02 0. -1.
    10030    2    1    2    0    0  0.00000000000E+00  0.00000000000E+00 -0.20033207231E+04  0.21963031509E+04  0.90025197084E+03 0.  0.
        5    1    3    3  502    0 -0.21051716015E+03 -0.17346564273E+03 -0.18751228963E+04  0.18948656338E+04  0.46999998093E+01 0. -1.
       -5    1    3    3    0  502  0.21051716015E+03  0.17346564273E+03 -0.12819782682E+03  0.30143751711E+03  0.46999998093E+01 0.  1.
</event>
<event>
 5   0  0.9981885E-04  0.9002807E+03  0.7818609E-02  0.9425231E-01
        1   -1    0    0  501    0  0.00000000000E+00  0.00000000000E+00  0.68479491885E+03  0.68479491887E+03  0.50400001928E-02 0.  1.
       -1   -1    0    0    0  501  0.00000000000E+00  0.00000000000E+00 -0.29589342881E+03  0.29589342885E+03  0.50400001928E-02 0. -1.
    10030    2    1    2    0    0  0.00000000000E+00  0.00000000000E+00  0.38890149004E+03  0.98068834772E+03  0.90028065979E+03 0.  0.
        4    1    3    3  502    0 -0.16976396030E+03 -0.32414349173E+03 -0.91140507314E+02  0.37709018870E+03  0.12699999809E+01 0. -1.
       -4    1    3    3    0  502  0.16976396030E+03  0.32414349173E+03  0.48004199735E+03  0.60359815901E+03  0.12699999809E+01 0.  1.
</event>
<event>
 5   0  0.1641516E-03  0.8976598E+03  0.7818609E-02  0.9428512E-01
       -2   -1    0    0    0  501  0.00000000000E+00  0.00000000000E+00  0.17907983634E+03  0.17907983635E+03  0.25500000920E-02 0. -1.
        2   -1    0    0  501    0  0.00000000000E+00  0.00000000000E+00 -0.11249076116E+04  0.11249076116E+04  0.25500000920E-02 0.  1.
    10030    2    1    2    0    0  0.00000000000E+00  0.00000000000E+00 -0.94582777523E+03  0.13039874479E+04  0.89765978185E+03 0.  0.
        1    1    3    3  502    0  0.20760174145E+03  0.39005556150E+03 -0.35847248724E+03  0.56898536734E+03  0.50400001928E-02 0. -1.
       -1    1    3    3    0  502 -0.20760174145E+03 -0.39005556150E+03 -0.58735528799E+03  0.73500208059E+03  0.50400001928E-02 0.  1.
</event>
<event>
 5   0  0.1007561E-03  0.9003752E+03  0.7818609E-02  0.9425113E-01
        1   -1    0    0  501    0  0.00000000000E+00  0.00000000000E+00  0.26069310560E+03  0.26069310565E+03  0.50400001928E-02 0.  1.
       -1   -1    0    0    0  501  0.00000000000E+00  0.00000000000E+00 -0.77742319932E+03  0.77742319934E+03  0.50400001928E-02 0. -1.
    10030    2    1    2    0    0  0.00000000000E+00  0.00000000000E+00 -0.51673009372E+03  0.10381163050E+04  0.90037518454E+03 0.  0.
        2    1    3    3  502    0 -0.31319336480E+03 -0.27634122812E+03 -0.64697338676E+02  0.42265861372E+03  0.25500000920E-02 0.  1.
       -2    1    3    3    0  502  0.31319336480E+03  0.27634122812E+03 -0.45203275504E+03  0.61545769127E+03  0.25500000920E-02 0. -1.
</event>
<event>
 5   0  0.1007561E-03  0.8995386E+03  0.7818609E-02  0.9426158E-01
        1   -1    0    0  501    0  0.00000000000E+00  0.00000000000E+00  0.74444928595E+03  0.74444928596E+03  0.50400001928E-02 0. -1.
       -1   -1    0    0    0  501  0.00000000000E+00  0.00000000000E+00 -0.27173433627E+03  0.27173433632E+03  0.50400001928E-02 0.  1.
    10030    2    1    2    0    0  0.00000000000E+00  0.00000000000E+00  0.47271494967E+03  0.10161836223E+04  0.89953862093E+03 0.  0.
        2    1    3    3  502    0  0.42691215023E+03  0.12292383747E+03  0.31566156831E+03  0.54498300849E+03  0.25500000920E-02 0.  1.
       -2    1    3    3    0  502 -0.42691215023E+03 -0.12292383747E+03  0.15705338136E+03  0.47120061379E+03  0.25500000920E-02 0. -1.
</event>
<event>
 5   0  0.9321543E-04  0.8990312E+03  0.7818609E-02  0.9426793E-01
        1   -1    0    0  501    0  0.00000000000E+00  0.00000000000E+00  0.37764694145E+03  0.37764694148E+03  0.50400001928E-02 0. -1.
       -1   -1    0    0    0  501  0.00000000000E+00  0.00000000000E+00 -0.53506133297E+03  0.53506133300E+03  0.50400001928E-02 0.  1.
    10030    2    1    2    0    0  0.00000000000E+00  0.00000000000E+00 -0.15741439152E+03  0.91270827448E+03  0.89903120282E+03 0.  0.
        3    1    3    3  502    0 -0.16315283363E+03  0.30590437960E+02  0.34539150167E+03  0.38321002289E+03  0.10100000352E+00 0. -1.
       -3    1    3    3    0  502  0.16315283363E+03 -0.30590437960E+02 -0.50280589319E+03  0.52949825159E+03  0.10100000352E+00 0.  1.
</event>
<event>
 5   0  0.9697941E-04  0.9016232E+03  0.7818609E-02  0.9423555E-01
        1   -1    0    0  501    0  0.00000000000E+00  0.00000000000E+00  0.19798495446E+04  0.19798495446E+04  0.50400001928E-02 0. -1.
       -1   -1    0    0    0  501  0.00000000000E+00  0.00000000000E+00 -0.10264976491E+03  0.10264976503E+03  0.50400001928E-02 0.  1.
    10030    2    1    2    0    0  0.00000000000E+00  0.00000000000E+00  0.18771997796E+04  0.20824993096E+04  0.90162318167E+03 0.  0.
        5    1    3    3  502    0 -0.70164850631E+02 -0.25445448708E+03  0.94558887249E+02  0.28041694923E+03  0.46999998093E+01 0.  1.
       -5    1    3    3    0  502  0.70164850631E+02  0.25445448708E+03  0.17826408924E+04  0.18020823604E+04  0.46999998093E+01 0. -1.
</event>
<event>
 5   0  0.9981885E-04  0.8968466E+03  0.7818609E-02  0.9429532E-01
        1   -1    0    0  501    0  0.00000000000E+00  0.00000000000E+00  0.87745393020E+03  0.87745393021E+03  0.50400001928E-02 0.  1.
       -1   -1    0    0    0  501  0.00000000000E+00  0.00000000000E+00 -0.22916697485E+03  0.22916697491E+03  0.50400001928E-02 0. -1.
    10030    2    1    2    0    0  0.00000000000E+00  0.00000000000E+00  0.64828695534E+03  0.11066209051E+04  0.89684661519E+03 0.  0.
        4    1    3    3  502    0  0.38497648320E+03  0.98265953126E+02  0.58066088786E+03  0.70358494139E+03  0.12699999809E+01 0.  1.
       -4    1    3    3    0  502 -0.38497648320E+03 -0.98265953126E+02  0.67626067485E+02  0.40303596373E+03  0.12699999809E+01 0. -1.
</event>
<event>
 5   0  0.1630202E-03  0.8998946E+03  0.7818609E-02  0.9425713E-01
       -2   -1    0    0    0  501  0.00000000000E+00  0.00000000000E+00  0.10688934275E+03  0.10688934278E+03  0.25500000920E-02 0. -1.
        2   -1    0    0  501    0  0.00000000000E+00  0.00000000000E+00 -0.18940388600E+04  0.18940388600E+04  0.25500000920E-02 0.  1.
    10030    2    1    2    0    0  0.00000000000E+00  0.00000000000E+00 -0.17871495173E+04  0.20009282028E+04  0.89989459144E+03 0.  0.
        4    1    3    3  502    0  0.40134236799E+02 -0.74295534037E+02 -0.18762581956E+04  0.18781578775E+04  0.12699999809E+01 0.  1.
       -4    1    3    3    0  502 -0.40134236799E+02  0.74295534037E+02  0.89108678286E+02  0.12277032535E+03  0.12699999809E+01 0. -1.
</event>
<event>
 5   0  0.1641516E-03  0.8986364E+03  0.7818609E-02  0.9427288E-01
       -2   -1    0    0    0  501  0.00000000000E+00  0.00000000000E+00  0.29391266001E+03  0.29391266003E+03  0.25500000920E-02 0.  1.
        2   -1    0    0  501    0  0.00000000000E+00  0.00000000000E+00 -0.68689407756E+03  0.68689407756E+03  0.25500000920E-02 0. -1.
    10030    2    1    2    0    0  0.00000000000E+00  0.00000000000E+00 -0.39298141754E+03  0.98080673759E+03  0.89863644594E+03 0.  0.
        1    1    3    3  502    0 -0.13595828485E+03  0.16964666589E+03  0.23268522732E+03  0.31844475424E+03  0.50400001928E-02 0.  1.
       -1    1    3    3    0  502  0.13595828485E+03 -0.16964666589E+03 -0.62566664486E+03  0.66236198335E+03  0.50400001928E-02 0. -1.
</event>
<event>
 5   0  0.1635686E-03  0.8991106E+03  0.7818609E-02  0.9426694E-01
       -2   -1    0    0    0  501  0.00000000000E+00  0.00000000000E+00  0.27644971277E+03  0.27644971278E+03  0.25500000920E-02 0.  1.
        2   -1    0    0  501    0  0.00000000000E+00  0.00000000000E+00 -0.73105505436E+03  0.73105505437E+03  0.25500000920E-02 0. -1.
    10030    2    1    2    0    0  0.00000000000E+00  0.00000000000E+00 -0.45460534159E+03  0.10075047671E+04  0.89911058231E+03 0.  0.
        5    1    3    3  502    0  0.37342471965E+03 -0.22325102762E+03 -0.35403380362E+03  0.56093588464E+03  0.46999998093E+01 0. -1.
       -5    1    3    3    0  502 -0.37342471965E+03  0.22325102762E+03 -0.10057153798E+03  0.44656888251E+03  0.46999998093E+01 0.  1.
</event>
<event>
 5   0  0.1536020E-03  0.9002093E+03  0.7818609E-02  0.9425320E-01
        2   -1    0    0  501    0  0.00000000000E+00  0.00000000000E+00  0.20417473543E+04  0.20417473543E+04  0.25500000920E-02 0. -1.
       -2   -1    0    0    0  501  0.00000000000E+00  0.00000000000E+00 -0.99225897265E+02  0.99225897298E+02  0.25500000920E-02 0.  1.
    10030    2    1    2    0    0  0.00000000000E+00  0.00000000000E+00  0.19425214571E+04  0.21409732516E+04  0.90020933845E+03 0.  0.
        2    1    3    3  502    0  0.85191609949E+02 -0.71767514068E+02  0.20084476465E+04  0.20115342740E+04  0.25500000920E-02 0. -1.
       -2    1    3    3    0  502 -0.85191609949E+02  0.71767514068E+02 -0.65926189449E+02  0.12943897768E+03  0.25500000920E-02 0.  1.
</event>
<event>
 5   0  0.1007561E-03  0.9012560E+03  0.7818609E-02  0.9424013E-01
        1   -1    0    0  501    0  0.00000000000E+00  0.00000000000E+00  0.12684041449E+04  0.12684041449E+04  0.50400001928E-02 0. -1.
       -1   -1    0    0    0  501  0.00000000000E+00  0.00000000000E+00 -0.16009534014E+03  0.16009534022E+03  0.50400001928E-02 0.  1.
    10030    2    1    2    0    0  0.00000000000E+00  0.00000000000E+00  0.11083088047E+04  0.14284994851E+04  0.90125599708E+03 0.  0.
        2    1    3    3  502    0  0.36010835020E+03  0.50782330171E+02  0.13238477194E+03  0.38701756652E+03  0.25500000920E-02 0.  1.
       -2    1    3    3    0  502 -0.36010835020E+03 -0.50782330171E+02  0.97592403279E+03  0.10414819186E+04  0.25500000920E-02 0. -1.
</event>
<event>
 5   0  0.9223454E-04  0.9011435E+03  0.7818609E-02  0.9424153E-01
       -1   -1    0    0    0  501  0.00000000000E+00  0.00000000000E+00  0.32566727472E+03  0.32566727476E+03  0.50400001928E-02 0.  1.
        1   -1    0    0  501    0  0.00000000000E+00  0.00000000000E+00 -0.62338135489E+03  0.62338135491E+03  0.50400001928E-02 0. -1.
    10030    2    1    2    0    0  0.00000000000E+00  0.00000000000E+00 -0.29771408017E+03  0.94904862967E+03  0.90114351129E+03 0.  0.
        1    1    3    3  502    0  0.15695552558E+03  0.40290491156E+03 -0.15444016024E+02  0.43267299710E+03  0.50400001928E-02 0.  1.
       -1    1    3    3    0  502 -0.15695552558E+03 -0.40290491156E+03 -0.28227006415E+03  0.51637563256E+03  0.50400001928E-02 0. -1.
</event>
<event>
 5   0  0.1635686E-03  0.9015458E+03  0.7818609E-02  0.9423651E-01
        2   -1    0    0  501    0  0.00000000000E+00  0.00000000000E+00  0.42617227295E+03  0.42617227296E+03  0.25500000920E-02 0.  1.
       -2   -1    0    0    0  501  0.00000000000E+00  0.00000000000E+00 -0.47679357404E+03  0.47679357404E+03  0.25500000920E-02 0. -1.
    10030    2    1    2    0    0  0.00000000000E+00  0.00000000000E+00 -0.50621301090E+02  0.90296584700E+03  0.90154578626E+03 0.  0.
        5    1    3    3  502    0 -0.31471384632E+03 -0.14204439363E+03 -0.31551295780E+03  0.46775199771E+03  0.46999998093E+01 0. -1.
       -5    1    3    3    0  502  0.31471384632E+03  0.14204439363E+03  0.26489165671E+03  0.43521384929E+03  0.46999998093E+01 0.  1.
</event>
<event>
 5   0  0.1641516E-03  0.8963413E+03  0.7818609E-02  0.9430167E-01
        2   -1    0    0  501    0  0.00000000000E+00  0.00000000000E+00  0.97344557125E+03  0.97344557126E+03  0.25500000920E-02 0. -1.
       -2   -1    0    0    0  501  0.00000000000E+00  0.00000000000E+00 -0.20633605248E+03  0.20633605250E+03  0.25500000920E-02 0.  1.
    10030    2    1    2    0    0  0.00000000000E+00  0.00000000000E+00  0.76710951877E+03  0.11797816238E+04  0.89634126646E+03 0.  0.
        1    1    3    3  502    0 -0.34250540956E+03 -0.27321746701E+03  0.50772089039E+03  0.67062526229E+03  0.50400001928E-02 0. -1.
       -1    1    3    3    0  502  0.34250540956E+03  0.27321746701E+03  0.25938862838E+03  0.50915636146E+03  0.50400001928E-02 0.  1.
</event>
<event>
 5   0  0.9697941E-04  0.8998634E+03  0.7818609E-02  0.9425752E-01
       -1   -1    0    0    0  501  0.00000000000E+00  0.00000000000E+00  0.17230931396E+03  0.17230931403E+03  0.50400001928E-02 0.  1.
        1   -1    0    0  501    0  0.00000000000E+00  0.00000000000E+00 -0.11748554259E+04  0.11748554259E+04  0.50400001928E-02 0. -1.
    10030    2    1    2    0    0  0.00000000000E+00  0.00000000000E+00 -0.10025461119E+04  0.13471647399E+04  0.89986339517E+03 0.  0.
        5    1    3    3  502    0  0.11844626553E+03  0.19574448044E+03  0.78679601791E+02  0.24198758062E+03  0.46999998093E+01 0.  1.
       -5    1    3    3    0  502 -0.11844626553E+03 -0.19574448044E+03 -0.10812257137E+04  0.11051771593E+04  0.46999998093E+01 0. -1.
</event>
<event>
 5   0  0.9321543E-04  0.8996290E+03  0.7818609E-02  0.9426045E-01
        1   -1    0    0  501    0  0.00000000000E+00  0.00000000000E+00  0.10215486898E+04  0.10215486899E+04  0.50400001928E-02 0.  1.
       -1   -1    0    0    0  501  0.00000000000E+00  0.00000000000E+00 -0.19806502727E+03  0.19806502733E+03  0.50400001928E-02 0. -1.
    10030    2    1    2    0    0  0.00000000000E+00  0.00000000000E+00  0.82348366258E+03  0.12196137172E+04  0.89962896609E+03 0.  0.
        3    1    3    3  502    0 -0.34830647089E+03 -0.21180058609E+03  0.15396130978E+03  0.43575334886E+03  0.10100000352E+00 0. -1.
       -3    1    3    3    0  502  0.34830647089E+03  0.21180058609E+03  0.66952235280E+03  0.78386036833E+03  0.10100000352E+00 0.  1.
</event>
<event>
 5   0  0.1635686E-03  0.9026162E+03  0.7818609E-02  0.9422317E-01
        2   -1    0    0  501    0  0.00000000000E+00  0.00000000000E+00  0.40607583908E+03  0.40607583909E+03  0.25500000920E-02 0.  1.
       -2   -1    0    0    0  501  0.00000000000E+00  0.00000000000E+00 -0.50157867086E+03  0.50157867087E+03  0.25500000920E-02 0. -1.
    10030    2    1    2    0    0  0.00000000000E+00  0.00000000000E+00 -0.95502831774E+02  0.90765450996E+03  0.90261615240E+03 0.  0.
        5    1    3    3  502    0 -0.12629127958E+03 -0.39540232276E+03  0.13033713457E+03  0.43508889067E+03  0.46999998093E+01 0.  1.
       -5    1    3    3    0  502  0.12629127958E+03  0.39540232276E+03 -0.22583996634E+03  0.47256561929E+03  0.46999998093E+01 0. -1.
</event>
<event>
 5   0  0.9321543E-04  0.9009423E+03  0.7818609E-02  0.9424404E-01
       -1   -1    0    0    0  501  0.00000000000E+00  0.00000000000E+00  0.24327874810E+03  0.24327874815E+03  0.50400001928E-02 0.  1.
        1   -1    0    0  501    0  0.00000000000E+00  0.00000000000E+00 -0.83412247681E+03  0.83412247682E+03  0.50400001928E-02 0. -1.
    10030    2    1    2    0    0  0.00000000000E+00  0.00000000000E+00 -0.59084372871E+03  0.10774012250E+04  0.90094233323E+03 0.  0.
        3    1    3    3  502    0 -0.33470373922E+03 -0.13192592208E+03 -0.61961521896E+03  0.71648731443E+03  0.10100000352E+00 0. -1.
       -3    1    3    3    0  502  0.33470373922E+03  0.13192592208E+03  0.28771490253E+02  0.36091391054E+03  0.10100000352E+00 0.  1.
</event>
<event>
 5   0  0.1635686E-03  0.8987351E+03  0.7818609E-02  0.9427164E-01
        2   -1    0    0  501    0  0.00000000000E+00  0.00000000000E+00  0.84136863654E+03  0.84136863654E+03  0.25500000920E-02 0.  1.
       -2   -1    0    0    0  501  0.00000000000E+00  0.00000000000E+00 -0.24000325464E+03  0.24000325465E+03  0.25500000920E-02 0. -1.
    10030    2    1    2    0    0  0.00000000000E+00  0.00000000000E+00  0.60136538190E+03  0.10813718912E+04  0.89873513592E+03 0.  0.
        5    1    3    3  502    0  0.11232446088E+03  0.27223153964E+02  0.82314870858E+03  0.83123629075E+03  0.46999998093E+01 0.  1.
       -5    1    3    3    0  502 -0.11232446088E+03 -0.27223153964E+02 -0.22178332668E+03  0.25013560045E+03  0.46999998093E+01 0. -1.
</event>
<event>
 5   0  0.1007561E-03  0.8983859E+03  0.7818609E-02  0.9427601E-01
        1   -1    0    0  501    0  0.00000000000E+00  0.00000000000E+00  0.51278823001E+03  0.51278823003E+03  0.50400001928E-02 0.  1.
       -1   -1    0    0    0  501  0.00000000000E+00  0.00000000000E+00 -0.39348464893E+03  0.39348464896E+03  0.50400001928E-02 0. -1.
    10030    2    1    2    0    0  0.00000000000E+00  0.00000000000E+00  0.11930358108E+03  0.90627287899E+03  0.89838587853E+03 0.  0.
        2    1    3    3  502    0 -0.16255969689E+02  0.51823594201E+02  0.50946360500E+03  0.51235056972E+03  0.25500000920E-02 0.  1.
       -2    1    3    3    0  502  0.16255969689E+02 -0.51823594201E+02 -0.39016002392E+03  0.39392230927E+03  0.25500000920E-02 0. -1.
</event>
<event>
 5   0  0.1641516E-03  0.8985886E+03  0.7818609E-02  0.9427347E-01
       -2   -1    0    0    0  501  0.00000000000E+00  0.00000000000E+00  0.85637067028E+03  0.85637067029E+03  0.25500000920E-02 0.  1.
        2   -1    0    0  501    0  0.00000000000E+00  0.00000000000E+00 -0.23572195323E+03  0.23572195324E+03  0.25500000920E-02 0. -1.
    10030    2    1    2    0    0  0.00000000000E+00  0.00000000000E+00  0.62064871705E+03  0.10920926235E+04  0.89858859796E+03 0.  0.
        1    1    3    3  502    0  0.12873006504E+03 -0.41793365805E+03  0.18504742625E+03  0.47484999964E+03  0.50400001928E-02 0. -1.
       -1    1    3    3    0  502 -0.12873006504E+03  0.41793365805E+03  0.43560129080E+03  0.61724262389E+03  0.50400001928E-02 0.  1.
</event>
<event>
 5   0  0.1007561E-03  0.9015662E+03  0.7818609E-02  0.9423626E-01
       -1   -1    0    0    0  501  0.00000000000E+00  0.00000000000E+00  0.13948844215E+03  0.13948844224E+03  0.50400001928E-02 0. -1.
        1   -1    0    0  501    0  0.00000000000E+00  0.00000000000E+00 -0.14567902219E+04  0.14567902219E+04  0.50400001928E-02 0.  1.
    10030    2    1    2    0    0  0.00000000000E+00  0.00000000000E+00 -0.13173017798E+04  0.15962786642E+04  0.90156618985E+03 0.  0.
        2    1    3    3  502    0 -0.23086067316E+03 -0.19832382377E+03 -0.69885417000E+02  0.31227065344E+03  0.25500000920E-02 0. -1.
       -2    1    3    3    0  502  0.23086067316E+03  0.19832382377E+03 -0.12474163628E+04  0.12840080107E+04  0.25500000920E-02 0.  1.
</event>
<event>
 5   0  0.1630202E-03  0.9002155E+03  0.7818609E-02  0.9425312E-01
        2   -1    0    0  501    0  0.00000000000E+00  0.00000000000E+00  0.21999198434E+04  0.21999198434E+04  0.25500000920E-02 0.  1.
       -2   -1    0    0    0  501  0.00000000000E+00  0.00000000000E+00 -0.92092885656E+02  0.92092885692E+02  0.25500000920E-02 0. -1.
    10030    2    1    2    0    0  0.00000000000E+00  0.00000000000E+00  0.21078269577E+04  0.22920127291E+04  0.90021545562E+03 0.  0.
        4    1    3    3  502    0  0.42131657572E+02 -0.78185056048E+01 -0.86883158438E+02  0.96883960075E+02  0.12699999809E+01 0. -1.
       -4    1    3    3    0  502 -0.42131657572E+02  0.78185056048E+01  0.21947101162E+04  0.21951287690E+04  0.12699999809E+01 0.  1.
</event>
<event>
 5   0  0.9981885E-04  0.9006399E+03  0.7818609E-02  0.9424782E-01
       -1   -1    0    0    0  501  0.00000000000E+00  0.00000000000E+00  0.21219208191E+03  0.21219208197E+03  0.50400001928E-02 0.  1.
        1   -1    0    0  501    0  0.00000000000E+00  0.00000000000E+00 -0.95568144768E+03  0.95568144769E+03  0.50400001928E-02 0. -1.
    10030    2    1    2    0    0  0.00000000000E+00  0.00000000000E+00 -0.74348936577E+03  0.11678735297E+04  0.90063985270E+03 0.  0.
        4    1    3    3  502    0  0.37632579982E+03  0.21517416277E+03 -0.52984505243E+03  0.68458631334E+03  0.12699999809E+01 0. -1.
       -4    1    3    3    0  502 -0.37632579982E+03 -0.21517416277E+03 -0.21364431334E+03  0.48328721632E+03  0.12699999809E+01 0.  1.
</event>
<event>
 5   0  0.6375625E-04  0.8999109E+03  0.7818609E-02  0.9425693E-01
        4   -1    0    0  501    0  0.00000000000E+00  0.00000000000E+00  0.76568239441E+03  0.76568344765E+03  0.12699999809E+01 0. -1.
       -4   -1    0    0    0  501  0.00000000000E+00  0.00000000000E+00 -0.26441485422E+03  0.26441790414E+03  0.12699999809E+01 0.  1.
    10030    2    1    2    0    0  0.00000000000E+00  0.00000000000E+00  0.50126754019E+03  0.10301013518E+04  0.89991091122E+03 0.  0.
        1    1    3    3  502    0 -0.40375283211E+02 -0.13440678422E+02 -0.26210840806E+03  0.26554026612E+03  0.50400001928E-02 0.  1.
       -1    1    3    3    0  502  0.40375283211E+02  0.13440678422E+02  0.76337594825E+03  0.76456108568E+03  0.50400001928E-02 0. -1.
</event>
<event>
 5   0  0.9321543E-04  0.8943742E+03  0.7818609E-02  0.9432641E-01
       -1   -1    0    0    0  501  0.00000000000E+00  0.00000000000E+00  0.10391449516E+04  0.10391449516E+04  0.50400001928E-02 0.  1.
        1   -1    0    0  501    0  0.00000000000E+00  0.00000000000E+00 -0.19244311068E+03  0.19244311075E+03  0.50400001928E-02 0. -1.
    10030    2    1    2    0    0  0.00000000000E+00  0.00000000000E+00  0.84670184088E+03  0.12315880623E+04  0.89437416550E+03 0.  0.
        3    1    3    3  502    0  0.42084266748E+03  0.82159310086E+02  0.59817290990E+03  0.73598202651E+03  0.10100000352E+00 0.  1.
       -3    1    3    3    0  502 -0.42084266748E+03 -0.82159310086E+02  0.24852893098E+03  0.49560603582E+03  0.10100000352E+00 0. -1.
</event>
<event>
 5   0  0.1007561E-03  0.8976097E+03  0.7818609E-02  0.9428574E-01
        1   -1    0    0  501    0  0.00000000000E+00  0.00000000000E+00  0.24863847035E+03  0.24863847040E+03  0.50400001928E-02 0. -1.
       -1   -1    0    0    0  501  0.00000000000E+00  0.00000000000E+00 -0.81011518933E+03  0.81011518934E+03  0.50400001928E-02 0.  1.
    10030    2    1    2    0    0  0.00000000000E+00  0.00000000000E+00 -0.56147671897E+03  0.10587536597E+04  0.89760971812E+03 0.  0.
        2    1    3    3  502    0  0.40335369166E+03  0.11688686833E+03 -0.46749515428E+03  0.62841742484E+03  0.25500000920E-02 0.  1.
       -2    1    3    3    0  502 -0.40335369166E+03 -0.11688686833E+03 -0.93981564697E+02  0.43033623490E+03  0.25500000920E-02 0. -1.
</event>
<event>
 5   0  0.9321543E-04  0.8851862E+03  0.7818609E-02  0.9444291E-01
       -1   -1    0    0    0  501  0.00000000000E+00  0.00000000000E+00  0.15333731619E+03  0.15333731628E+03  0.50400001928E-02 0.  1.
        1   -1    0    0  501    0  0.00000000000E+00  0.00000000000E+00 -0.12775016439E+04  0.12775016439E+04  0.50400001928E-02 0. -1.
    10030    2    1    2    0    0  0.00000000000E+00  0.00000000000E+00 -0.11241643277E+04  0.14308389602E+04  0.88518624837E+03 0.  0.
        3    1    3    3  502    0 -0.21101409758E+03  0.36165448487E+03 -0.79390139724E+03  0.89755242440E+03  0.10100000352E+00 0. -1.
       -3    1    3    3    0  502  0.21101409758E+03 -0.36165448487E+03 -0.33026293047E+03  0.53328653579E+03  0.10100000352E+00 0.  1.
</event>
<event>
 5   0  0.9697941E-04  0.9045096E+03  0.7818609E-02  0.9419962E-01
        1   -1    0    0  501    0  0.00000000000E+00  0.00000000000E+00  0.63037937122E+03  0.63037937124E+03  0.50400001928E-02 0.  1.
       -1   -1    0    0    0  501  0.00000000000E+00  0.00000000000E+00 -0.32446243403E+03  0.32446243407E+03  0.50400001928E-02 0. -1.
    10030    2    1    2    0    0  0.00000000000E+00  0.00000000000E+00  0.30591693718E+03  0.95484180531E+03  0.90450964656E+03 0.  0.
        5    1    3    3  502    0 -0.66188513610E+01  0.10859166082E+03  0.61633331833E+03  0.62587922739E+03  0.46999998093E+01 0.  1.
       -5    1    3    3    0  502  0.66188513610E+01 -0.10859166082E+03 -0.31041638115E+03  0.32896257792E+03  0.46999998093E+01 0. -1.
</event>
<event>
 5   0  0.9697941E-04  0.8976803E+03  0.7818609E-02  0.9428486E-01
       -1   -1    0    0    0  501  0.00000000000E+00  0.00000000000E+00  0.18159621882E+03  0.18159621889E+03  0.50400001928E-02 0. -1.
        1   -1    0    0  501    0  0.00000000000E+00  0.00000000000E+00 -0.11093704445E+04  0.11093704445E+04  0.50400001928E-02 0.  1.
    10030    2    1    2    0    0  0.00000000000E+00  0.00000000000E+00 -0.92777422567E+03  0.12909666634E+04  0.89768029508E+03 0.  0.
        5    1    3    3  502    0  0.15451845218E+03 -0.13123536114E+03 -0.10397377180E+04  0.10593277511E+04  0.46999998093E+01 0.  1.
       -5    1    3    3    0  502 -0.15451845218E+03  0.13123536114E+03  0.11196349231E+03  0.23163891229E+03  0.46999998093E+01 0. -1.
</event>
<event>
 5   0  0.9697941E-04  0.9026055E+03  0.7818609E-02  0.9422330E-01
        1   -1    0    0  501    0  0.00000000000E+00  0.00000000000E+00  0.24579611767E+04  0.24579611767E+04  0.50400001928E-02 0.  1.
       -1   -1    0    0    0  501  0.00000000000E+00  0.00000000000E+00 -0.82863054505E+02  0.82863054658E+02  0.50400001928E-02 0. -1.
    10030    2    1    2    0    0  0.00000000000E+00  0.00000000000E+00  0.23750981222E+04  0.25408242313E+04  0.90260549778E+03 0.  0.
        5    1    3    3  502    0  0.41098723621E+03  0.30531219730E+02  0.66994760196E+03  0.78657138460E+03  0.46999998093E+01 0. -1.
       -5    1    3    3    0  502 -0.41098723621E+03 -0.30531219730E+02  0.17051505202E+04  0.17542528467E+04  0.46999998093E+01 0.  1.
</event>
<event>
 5   0  0.1630202E-03  0.9006515E+03  0.7818609E-02  0.9424767E-01
       -2   -1    0    0    0  501  0.00000000000E+00  0.00000000000E+00  0.11485080480E+03  0.11485080483E+03  0.25500000920E-02 0. -1.
        2   -1    0    0  501    0  0.00000000000E+00  0.00000000000E+00 -0.17657104465E+04  0.17657104465E+04  0.25500000920E-02 0.  1.
    10030    2    1    2    0    0  0.00000000000E+00  0.00000000000E+00 -0.16508596417E+04  0.18805612514E+04  0.90065146611E+03 0.  0.
        4    1    3    3  502    0 -0.10513600074E+02 -0.44991482333E+03 -0.85895306162E+03  0.96970916207E+03  0.12699999809E+01 0. -1.
       -4    1    3    3    0  502  0.10513600074E+02  0.44991482333E+03 -0.79190658013E+03  0.91085208930E+03  0.12699999809E+01 0.  1.
</event>
<event>
 5   0  0.9981885E-04  0.8995077E+03  0.7818609E-02  0.9426197E-01
       -1   -1    0    0    0  501  0.00000000000E+00  0.00000000000E+00  0.15207923431E+03  0.15207923439E+03  0.50400001928E-02 0. -1.
        1   -1    0    0  501    0  0.00000000000E+00  0.00000000000E+00 -0.13300864855E+04  0.13300864855E+04  0.50400001928E-02 0.  1.
    10030    2    1    2    0    0  0.00000000000E+00  0.00000000000E+00 -0.11780072512E+04  0.14821657199E+04  0.89950771947E+03 0.  0.
        4    1    3    3  502    0  0.23528732453E+03  0.10335913775E+03  0.19179157712E+02  0.25770659563E+03  0.12699999809E+01 0. -1.
       -4    1    3    3    0  502 -0.23528732453E+03 -0.10335913775E+03 -0.11971864089E+04  0.12244591243E+04  0.12699999809E+01 0.  1.
</event>
<event>
 5   0  0.1704416E-03  0.8987080E+03  0.7818609E-02  0.9427198E-01
       -2   -1    0    0    0  501  0.00000000000E+00  0.00000000000E+00  0.10791742334E+04  0.10791742334E+04  0.25500000920E-02 0. -1.
        2   -1    0    0  501    0  0.00000000000E+00  0.00000000000E+00 -0.18710513204E+03  0.18710513206E+03  0.25500000920E-02 0.  1.
    10030    2    1    2    0    0  0.00000000000E+00  0.00000000000E+00  0.89206910136E+03  0.12662793655E+04  0.89870804479E+03 0.  0.
        3    1    3    3  502    0  0.12624113673E+03 -0.27481735908E+03  0.91431793117E+03  0.96303618567E+03  0.10100000352E+00 0. -1.
       -3    1    3    3    0  502 -0.12624113673E+03  0.27481735908E+03 -0.22248829814E+02  0.30324317978E+03  0.10100000352E+00 0.  1.
</event>
<event>
 5   0  0.1641516E-03  0.9000113E+03  0.7818609E-02  0.9425567E-01
        2   -1    0    0  501    0  0.00000000000E+00  0.00000000000E+00  0.10780022685E+04  0.10780022685E+04  0.25500000920E-02 0. -1.
       -2   -1    0    0    0  501  0.00000000000E+00  0.00000000000E+00 -0.18785218280E+03  0.18785218281E+03  0.25500000920E-02 0.  1.
    10030    2    1    2    0    0  0.00000000000E+00  0.00000000000E+00  0.89015008571E+03  0.12658544513E+04  0.90001128706E+03 0.  0.
        1    1    3    3  502    0  0.29422941806E+03  0.33079104560E+03  0.55856918185E+03  0.71273641498E+03  0.50400001928E-02 0.  1.
       -1    1    3    3    0  502 -0.29422941806E+03 -0.33079104560E+03  0.33158090385E+03  0.55311803634E+03  0.50400001928E-02 0. -1.
</event>
<event>
 5   0  0.9981885E-04  0.9081688E+03  0.7818609E-02  0.9415427E-01
       -1   -1    0    0    0  501  0.00000000000E+00  0.00000000000E+00  0.20843885856E+03  0.20843885862E+03  0.50400001928E-02 0. -1.
        1   -1    0    0  501    0  0.00000000000E+00  0.00000000000E+00 -0.98922360118E+03  0.98922360120E+03  0.50400001928E-02 0.  1.
    10030    2    1    2    0    0  0.00000000000E+00  0.00000000000E+00 -0.78078474262E+03  0.11976624598E+04  0.90816879121E+03 0.  0.
        4    1    3    3  502    0  0.39235581345E+03 -0.16936858632E+03 -0.18796184934E+03  0.46686194114E+03  0.12699999809E+01 0. -1.
       -4    1    3    3    0  502 -0.39235581345E+03  0.16936858632E+03 -0.59282289329E+03  0.73080051867E+03  0.12699999809E+01 0.  1.
</event>
<event>
 5   0  0.1641516E-03  0.8996045E+03  0.7818609E-02  0.9426076E-01
        2   -1    0    0  501    0  0.00000000000E+00  0.00000000000E+00  0.80777204306E+03  0.80777204306E+03  0.25500000920E-02 0.  1.
       -2   -1    0    0    0  501  0.00000000000E+00  0.00000000000E+00 -0.25046926881E+03  0.25046926883E+03  0.25500000920E-02 0. -1.
    10030    2    1    2    0    0  0.00000000000E+00  0.00000000000E+00  0.55730277424E+03  0.10582413119E+04  0.89960451978E+03 0.  0.
        1    1    3    3  502    0 -0.15760412450E+02  0.30989146376E+03 -0.10441135619E+03  0.32738790637E+03  0.50400001928E-02 0. -1.
       -1    1    3    3    0  502  0.15760412450E+02 -0.30989146376E+03  0.66171413043E+03  0.73085340551E+03  0.50400001928E-02 0.  1.
</event>
<event>
 5   0  0.1641516E-03  0.9011513E+03  0.7818609E-02  0.9424143E-01
       -2   -1    0    0    0  501  0.00000000000E+00  0.00000000000E+00  0.65100138302E+03  0.65100138303E+03  0.25500000920E-02 0. -1.
        2   -1    0    0  501    0  0.00000000000E+00  0.00000000000E+00 -0.31185555683E+03  0.31185555684E+03  0.25500000920E-02 0.  1.
    10030    2    1    2    0    0  0.00000000000E+00  0.00000000000E+00  0.33914582619E+03  0.96285693987E+03  0.90115126101E+03 0.  0.
        1    1    3    3  502    0 -0.38336892234E+03  0.22751786188E+03  0.99652796690E+02  0.45680059983E+03  0.50400001928E-02 0. -1.
       -1    1    3    3    0  502  0.38336892234E+03 -0.22751786188E+03  0.23949302950E+03  0.50605634004E+03  0.50400001928E-02 0.  1.
</event>
<event>
 5   0  0.1007561E-03  0.9018301E+03  0.7818609E-02  0.9423297E-01
       -1   -1    0    0    0  501  0.00000000000E+00  0.00000000000E+00  0.34355888706E+03  0.34355888710E+03  0.50400001928E-02 0.  1.
        1   -1    0    0  501    0  0.00000000000E+00  0.00000000000E+00 -0.59181814129E+03  0.59181814131E+03  0.50400001928E-02 0. -1.
    10030    2    1    2    0    0  0.00000000000E+00  0.00000000000E+00 -0.24825925423E+03  0.93537702841E+03  0.90183009928E+03 0.  0.
        2    1    3    3  502    0  0.39677463925E+02 -0.33645893251E+03 -0.43276460372E+03  0.54960359956E+03  0.25500000920E-02 0. -1.
       -2    1    3    3    0  502 -0.39677463925E+02  0.33645893251E+03  0.18450534949E+03  0.38577342885E+03  0.25500000920E-02 0.  1.
</event>
<event>
 5   0  0.1641516E-03  0.9018495E+03  0.7818609E-02  0.9423272E-01
        2   -1    0    0  501    0  0.00000000000E+00  0.00000000000E+00  0.22324864283E+04  0.22324864283E+04  0.25500000920E-02 0. -1.
       -2   -1    0    0    0  501  0.00000000000E+00  0.00000000000E+00 -0.91079221936E+02  0.91079221972E+02  0.25500000920E-02 0.  1.
    10030    2    1    2    0    0  0.00000000000E+00  0.00000000000E+00  0.21414072064E+04  0.23235656503E+04  0.90184949280E+03 0.  0.
        1    1    3    3  502    0 -0.14209323621E+03  0.33431600089E+03  0.17590314093E+04  0.17961484279E+04  0.50400001928E-02 0. -1.
       -1    1    3    3    0  502  0.14209323621E+03 -0.33431600089E+03  0.38237579710E+03  0.52741722238E+03  0.50400001928E-02 0.  1.
</event>
<event>
 5   0  0.9981885E-04  0.8988339E+03  0.7818609E-02  0.9427040E-01
       -1   -1    0    0    0  501  0.00000000000E+00  0.00000000000E+00  0.22789890453E+03  0.22789890459E+03  0.50400001928E-02 0. -1.
        1   -1    0    0  501    0  0.00000000000E+00  0.00000000000E+00 -0.88625089106E+03  0.88625089108E+03  0.50400001928E-02 0.  1.
    10030    2    1    2    0    0  0.00000000000E+00  0.00000000000E+00 -0.65835198653E+03  0.11141497957E+04  0.89883392738E+03 0.  0.
        4    1    3    3  502    0 -0.38637794807E+03 -0.20660404212E+03 -0.20521573159E+03  0.48382668216E+03  0.12699999809E+01 0.  1.
       -4    1    3    3    0  502  0.38637794807E+03  0.20660404212E+03 -0.45313625494E+03  0.63032311351E+03  0.12699999809E+01 0. -1.
</event>
<event>
 5   0  0.6375625E-04  0.9011550E+03  0.7818609E-02  0.9424139E-01
       -4   -1    0    0    0  501  0.00000000000E+00  0.00000000000E+00  0.31746300326E+03  0.31746554355E+03  0.12699999809E+01 0.  1.
        4   -1    0    0  501    0  0.00000000000E+00  0.00000000000E+00 -0.63950207483E+03  0.63950333589E+03  0.12699999809E+01 0. -1.
    10030    2    1    2    0    0  0.00000000000E+00  0.00000000000E+00 -0.32203907157E+03  0.95696887943E+03  0.90115496591E+03 0.  0.
        5    1    3    3  502    0 -0.23570240704E+03 -0.32274824514E+03 -0.38193265503E+03  0.55282610050E+03  0.46999998093E+01 0. -1.
       -5    1    3    3    0  502  0.23570240704E+03  0.32274824514E+03  0.59893583460E+02  0.40414277893E+03  0.46999998093E+01 0.  1.
</event>
<event>
 5   0  0.9981885E-04  0.9001878E+03  0.7818609E-02  0.9425347E-01
       -1   -1    0    0    0  501  0.00000000000E+00  0.00000000000E+00  0.21514840218E+03  0.21514840224E+03  0.50400001928E-02 0.  1.
        1   -1    0    0  501    0  0.00000000000E+00  0.00000000000E+00 -0.94160367868E+03  0.94160367870E+03  0.50400001928E-02 0. -1.
    10030    2    1    2    0    0  0.00000000000E+00  0.00000000000E+00 -0.72645527651E+03  0.11567520809E+04  0.90018781817E+03 0.  0.
        4    1    3    3  502    0 -0.55979816964E+02  0.37114138450E+02 -0.93512538939E+03  0.93753522918E+03  0.12699999809E+01 0. -1.
       -4    1    3    3    0  502  0.55979816964E+02 -0.37114138450E+02  0.20867011288E+03  0.21921685175E+03  0.12699999809E+01 0.  1.
</event>
<event>
 5   0  0.1641516E-03  0.8952710E+03  0.7818609E-02  0.9431512E-01
       -2   -1    0    0    0  501  0.00000000000E+00  0.00000000000E+00  0.28222769499E+03  0.28222769500E+03  0.25500000920E-02 0.  1.
        2   -1    0    0  501    0  0.00000000000E+00  0.00000000000E+00 -0.70998545899E+03  0.70998545899E+03  0.25500000920E-02 0. -1.
    10030    2    1    2    0    0  0.00000000000E+00  0.00000000000E+00 -0.42775776399E+03  0.99221315400E+03  0.89527104181E+03 0.  0.
        1    1    3    3  502    0 -0.10816433467E+03  0.22880892577E+03 -0.62308057191E+03  0.67251947698E+03  0.50400001928E-02 0. -1.
       -1    1    3    3    0  502  0.10816433467E+03 -0.22880892577E+03  0.19532280792E+03  0.31969367701E+03  0.50400001928E-02 0.  1.
</event>
<event>
 5   0  0.9223454E-04  0.9002492E+03  0.7818609E-02  0.9425270E-01
       -1   -1    0    0    0  501  0.00000000000E+00  0.00000000000E+00  0.10982300073E+03  0.10982300084E+03  0.50400001928E-02 0.  1.
        1   -1    0    0  501    0  0.00000000000E+00  0.00000000000E+00 -0.18448971469E+04  0.18448971469E+04  0.50400001928E-02 0. -1.
    10030    2    1    2    0    0  0.00000000000E+00  0.00000000000E+00 -0.17350741462E+04  0.19547201478E+04  0.90024916735E+03 0.  0.
        1    1    3    3  502    0 -0.29024864627E+03 -0.53213683928E+02 -0.16055786712E+04  0.16324701658E+04  0.50400001928E-02 0. -1.
       -1    1    3    3    0  502  0.29024864627E+03  0.53213683928E+02 -0.12949547502E+03  0.32224998199E+03  0.50400001928E-02 0.  1.
</event>
<event>
 5   0  0.1007561E-03  0.8996054E+03  0.7818609E-02  0.9426075E-01
        1   -1    0    0  501    0  0.00000000000E+00  0.00000000000E+00  0.14424148354E+03  0.14424148363E+03  0.50400001928E-02 0. -1.
       -1   -1    0    0    0  501  0.00000000000E+00  0.00000000000E+00 -0.14026650184E+04  0.14026650184E+04  0.50400001928E-02 0.  1.
    10030    2    1    2    0    0  0.00000000000E+00  0.00000000000E+00 -0.12584235348E+04  0.15469065020E+04  0.89960543180E+03 0.  0.
        2    1    3    3  502    0  0.41361194374E+03  0.63575048700E+02 -0.34558762443E+03  0.54272224294E+03  0.25500000920E-02 0. -1.
       -2    1    3    3    0  502 -0.41361194374E+03 -0.63575048700E+02 -0.91283591040E+03  0.10041842591E+04  0.25500000920E-02 0.  1.
</event>
<event>
 5   0  0.1536020E-03  0.9007482E+03  0.7818609E-02  0.9424647E-01
       -2   -1    0    0    0  501  0.00000000000E+00  0.00000000000E+00  0.57508766861E+03  0.57508766861E+03  0.25500000920E-02 0. -1.
        2   -1    0    0  501    0  0.00000000000E+00  0.00000000000E+00 -0.35270589065E+03  0.35270589066E+03  0.25500000920E-02 0.  1.
    10030    2    1    2    0    0  0.00000000000E+00  0.00000000000E+00  0.22238177795E+03  0.92779355928E+03  0.90074815208E+03 0.  0.
        2    1    3    3  502    0  0.22404944671E+03  0.37976795836E+03  0.16703513813E+02  0.44124920866E+03  0.25500000920E-02 0. -1.
       -2    1    3    3    0  502 -0.22404944671E+03 -0.37976795836E+03  0.20567826414E+03  0.48654435061E+03  0.25500000920E-02 0.  1.
</event>
<event>
 5   0  0.1536020E-03  0.8992542E+03  0.7818609E-02  0.9426514E-01
       -2   -1    0    0    0  501  0.00000000000E+00  0.00000000000E+00  0.32580314606E+03  0.32580314607E+03  0.25500000920E-02 0.  1.
        2   -1    0    0  501    0  0.00000000000E+00  0.00000000000E+00 -0.62051134974E+03  0.62051134975E+03  0.25500000920E-02 0. -1.
    10030    2    1    2    0    0  0.00000000000E+00  0.00000000000E+00 -0.29470820368E+03  0.94631449582E+03  0.89925424641E+03 0.  0.
        2    1    3    3  502    0  0.29225010350E+03 -0.18169739063E+03 -0.45187754514E+03  0.56799417300E+03  0.25500000920E-02 0. -1.
       -2    1    3    3    0  502 -0.29225010350E+03  0.18169739063E+03  0.15716934146E+03  0.37832032282E+03  0.25500000920E-02 0.  1.
</event>
<event>
 5   0  0.6375625E-04  0.8975397E+03  0.7818609E-02  0.9428662E-01
        4   -1    0    0  501    0  0.00000000000E+00  0.00000000000E+00  0.56233668048E+03  0.56233811458E+03  0.12699999809E+01 0. -1.
       -4   -1    0    0    0  501  0.00000000000E+00  0.00000000000E+00 -0.35813543878E+03  0.35813769057E+03  0.12699999809E+01 0.  1.
    10030    2    1    2    0    0  0.00000000000E+00  0.00000000000E+00  0.20420124171E+03  0.92047580515E+03  0.89753972656E+03 0.  0.
        2    1    3    3  502    0  0.31194532780E+03  0.26432770794E+03  0.29180147609E+03  0.50232173571E+03  0.25500000920E-02 0. -1.
       -2    1    3    3    0  502 -0.31194532780E+03 -0.26432770794E+03 -0.87600234380E+02  0.41815406944E+03  0.25500000920E-02 0.  1.
</event>
<event>
 5   0  0.1641516E-03  0.8963135E+03  0.7818609E-02  0.9430202E-01
        2   -1    0    0  501    0  0.00000000000E+00  0.00000000000E+00  0.33516542052E+03  0.33516542053E+03  0.25500000920E-02 0.  1.
       -2   -1    0    0    0  501  0.00000000000E+00  0.00000000000E+00 -0.59923977685E+03  0.59923977686E+03  0.25500000920E-02 0. -1.
    10030    2    1    2    0    0  0.00000000000E+00  0.00000000000E+00 -0.26407435633E+03  0.93440519738E+03  0.89631345367E+03 0.  0.
        1    1    3    3  502    0  0.21567063436E+03  0.25114380346E+03 -0.44696383406E+03  0.55620472987E+03  0.50400001928E-02 0. -1.
       -1    1    3    3    0  502 -0.21567063436E+03 -0.25114380346E+03  0.18288947772E+03  0.37820046752E+03  0.50400001928E-02 0.  1.
</event>
<event>
 5   0  0.9321543E-04  0.8984946E+03  0.7818609E-02  0.9427465E-01
        1   -1    0    0  501    0  0.00000000000E+00  0.00000000000E+00  0.11415246693E+04  0.11415246693E+04  0.50400001928E-02 0. -1.
       -1   -1    0    0    0  501  0.00000000000E+00  0.00000000000E+00 -0.17680136624E+03  0.17680136631E+03  0.50400001928E-02 0.  1.
    10030    2    1    2    0    0  0.00000000000E+00  0.00000000000E+00  0.96472330303E+03  0.13183260356E+04  0.89849456576E+03 0.  0.
        3    1    3    3  502    0 -0.15702436619E+03 -0.37774511323E+03  0.20992842672E+03  0.45980210601E+03  0.10100000352E+00 0.  1.
       -3    1    3    3    0  502  0.15702436619E+03  0.37774511323E+03  0.75479487631E+03  0.85852392957E+03  0.10100000352E+00 0. -1.
</event>
<event>
 5   0  0.1630202E-03  0.9015319E+03  0.7818609E-02  0.9423668E-01
       -2   -1    0    0    0  501  0.00000000000E+00  0.00000000000E+00  0.55690176984E+03  0.55690176984E+03  0.25500000920E-02 0. -1.
        2   -1    0    0  501    0  0.00000000000E+00  0.00000000000E+00 -0.36485781515E+03  0.36485781516E+03  0.25500000920E-02 0.  1.
    10030    2    1    2    0    0  0.00000000000E+00  0.00000000000E+00  0.19204395469E+03  0.92175958500E+03  0.90153194731E+03 0.  0.
        4    1    3    3  502    0 -0.38695378476E+03 -0.17694831295E+03 -0.56126856620E+02  0.42918035129E+03  0.12699999809E+01 0.  1.
       -4    1    3    3    0  502  0.38695378476E+03  0.17694831295E+03  0.24817081131E+03  0.49257923371E+03  0.12699999809E+01 0. -1.
</event>
<event>
 5   0  0.1635686E-03  0.8974553E+03  0.7818609E-02  0.9428768E-01
        2   -1    0    0  501    0  0.00000000000E+00  0.00000000000E+00  0.10472169230E+04  0.10472169230E+04  0.25500000920E-02 0. -1.
       -2   -1    0    0    0  501  0.00000000000E+00  0.00000000000E+00 -0.19227772800E+03  0.19227772801E+03  0.25500000920E-02 0.  1.
    10030    2    1    2    0    0  0.00000000000E+00  0.00000000000E+00  0.85493919497E+03  0.12394946510E+04  0.89745527059E+03 0.  0.
        5    1    3    3  502    0 -0.42195457698E+03  0.86594110401E+02  0.25391920483E+03  0.50004125587E+03  0.46999998093E+01 0.  1.
       -5    1    3    3    0  502  0.42195457698E+03 -0.86594110401E+02  0.60101999014E+03  0.73945339511E+03  0.46999998093E+01 0. -1.
</event>
<event>
 5   0  0.1641516E-03  0.8994216E+03  0.7818609E-02  0.9426305E-01
        2   -1    0    0  501    0  0.00000000000E+00  0.00000000000E+00  0.17515728586E+04  0.17515728586E+04  0.25500000920E-02 0.  1.
       -2   -1    0    0    0  501  0.00000000000E+00  0.00000000000E+00 -0.11546183559E+03  0.11546183562E+03  0.25500000920E-02 0. -1.
    10030    2    1    2    0    0  0.00000000000E+00  0.00000000000E+00  0.16361110230E+04  0.18670346942E+04  0.89942163071E+03 0.  0.
        1    1    3    3  502    0  0.23348482774E+03 -0.25303418343E+03  0.14186032290E+04  0.14597864858E+04  0.50400001928E-02 0.  1.
       -1    1    3    3    0  502 -0.23348482774E+03  0.25303418343E+03  0.21750779397E+03  0.40724820839E+03  0.50400001928E-02 0. -1.
</event>
<event>
 5   0  0.9223454E-04  0.9020993E+03  0.7818609E-02  0.9422961E-01
       -1   -1    0    0    0  501  0.00000000000E+00  0.00000000000E+00  0.34961529858E+03  0.34961529862E+03  0.50400001928E-02 0.  1.
        1   -1    0    0  501    0  0.00000000000E+00  0.00000000000E+00 -0.58191328778E+03  0.58191328780E+03  0.50400001928E-02 0. -1.
    10030    2    1    2    0    0  0.00000000000E+00  0.00000000000E+00 -0.23229798920E+03  0.93152858642E+03  0.90209930248E+03 0.  0.
        1    1    3    3  502    0 -0.33059655557E+03  0.25608547510E+03  0.58397714351E+02  0.42223707343E+03  0.50400001928E-02 0.  1.
       -1    1    3    3    0  502  0.33059655557E+03 -0.25608547510E+03 -0.29069570355E+03  0.50929151299E+03  0.50400001928E-02 0. -1.
</event>
<event>
 5   0  0.6375625E-04  0.9072784E+03  0.7818609E-02  0.9416529E-01
        4   -1    0    0  501    0  0.00000000000E+00  0.00000000000E+00  0.57555516850E+03  0.57555656967E+03  0.12699999809E+01 0. -1.
       -4   -1    0    0    0  501  0.00000000000E+00  0.00000000000E+00 -0.35754491657E+03  0.35754717209E+03  0.12699999809E+01 0.  1.
    10030    2    1    2    0    0  0.00000000000E+00  0.00000000000E+00  0.21801025193E+03  0.93310374175E+03  0.90727841533E+03 0.  0.
        1    1    3    3  502    0  0.23520816925E+03  0.25574594077E+03  0.40895672216E+03  0.53663252764E+03  0.50400001928E-02 0. -1.
       -1    1    3    3    0  502 -0.23520816925E+03 -0.25574594077E+03 -0.19094647023E+03  0.39647121411E+03  0.50400001928E-02 0.  1.
</event>
<event>
 5   0  0.1007561E-03  0.9007167E+03  0.7818609E-02  0.9424686E-01
       -1   -1    0    0    0  501  0.00000000000E+00  0.00000000000E+00  0.24428877729E+03  0.24428877734E+03  0.50400001928E-02 0.  1.
        1   -1    0    0  501    0  0.00000000000E+00  0.00000000000E+00 -0.83025779061E+03  0.83025779063E+03  0.50400001928E-02 0. -1.
    10030    2    1    2    0    0  0.00000000000E+00  0.00000000000E+00 -0.58596901332E+03  0.10745465680E+04  0.90071673803E+03 0.  0.
        2    1    3    3  502    0 -0.31250040290E+02  0.31954543364E+03 -0.66974447160E+03  0.74272707398E+03  0.25500000920E-02 0. -1.
       -2    1    3    3    0  502  0.31250040290E+02 -0.31954543364E+03  0.83775458278E+02  0.33181949399E+03  0.25500000920E-02 0.  1.
</event>
<event>
 5   0  0.1536020E-03  0.9055418E+03  0.7818609E-02  0.9418680E-01
       -2   -1    0    0    0  501  0.00000000000E+00  0.00000000000E+00  0.22197940347E+04  0.22197940347E+04  0.25500000920E-02 0. -1.
        2   -1    0    0  501    0  0.00000000000E+00  0.00000000000E+00 -0.92351581920E+02  0.92351581955E+02  0.25500000920E-02 0.  1.
    10030    2    1    2    0    0  0.00000000000E+00  0.00000000000E+00  0.21274424527E+04  0.23121456166E+04  0.90554180617E+03 0.  0.
        2    1    3    3  502    0 -0.40608515171E+03 -0.16146131822E+03  0.76132064686E+03  0.87782916052E+03  0.25500000920E-02 0.  1.
       -2    1    3    3    0  502  0.40608515171E+03  0.16146131822E+03  0.13661218059E+04  0.14343164561E+04  0.25500000920E-02 0. -1.
</event>
<event>
 5   0  0.1630202E-03  0.9029936E+03  0.7818609E-02  0.9421847E-01
       -2   -1    0    0    0  501  0.00000000000E+00  0.00000000000E+00  0.52256467652E+03  0.52256467653E+03  0.25500000920E-02 0. -1.
        2   -1    0    0  501    0  0.00000000000E+00  0.00000000000E+00 -0.39009404690E+03  0.39009404691E+03  0.25500000920E-02 0.  1.
    10030    2    1    2    0    0  0.00000000000E+00  0.00000000000E+00  0.13247062962E+03  0.91265872343E+03  0.90299361999E+03 0.  0.
        4    1    3    3  502    0 -0.76217107375E+02 -0.23613267889E+03 -0.31500231248E+03  0.40099346537E+03  0.12699999809E+01 0.  1.
       -4    1    3    3    0  502  0.76217107375E+02  0.23613267889E+03  0.44747294211E+03  0.51166525807E+03  0.12699999809E+01 0. -1.
</event>
<event>
 5   0  0.1635686E-03  0.9032473E+03  0.7818609E-02  0.9421531E-01
        2   -1    0    0  501    0  0.00000000000E+00  0.00000000000E+00  0.62927048774E+03  0.62927048775E+03  0.25500000920E-02 0.  1.
       -2   -1    0    0    0  501  0.00000000000E+00  0.00000000000E+00 -0.32412759674E+03  0.32412759675E+03  0.25500000920E-02 0. -1.
    10030    2    1    2    0    0  0.00000000000E+00  0.00000000000E+00  0.30514289100E+03  0.95339808450E+03  0.90324732139E+03 0.  0.
        5    1    3    3  502    0  0.17472974020E+03 -0.18602503780E+03  0.54582420729E+03  0.60256282001E+03  0.46999998093E+01 0.  1.
       -5    1    3    3    0  502 -0.17472974020E+03  0.18602503780E+03 -0.24068131629E+03  0.35083526449E+03  0.46999998093E+01 0. -1.
</event>
<event>
 5   0  0.9981885E-04  0.8997641E+03  0.7818609E-02  0.9425876E-01
        1   -1    0    0  501    0  0.00000000000E+00  0.00000000000E+00  0.35059589918E+03  0.35059589922E+03  0.50400001928E-02 0. -1.
       -1   -1    0    0    0  501  0.00000000000E+00  0.00000000000E+00 -0.57728528780E+03  0.57728528782E+03  0.50400001928E-02 0.  1.
    10030    2    1    2    0    0  0.00000000000E+00  0.00000000000E+00 -0.22668938862E+03  0.92788118704E+03  0.89976409039E+03 0.  0.
        4    1    3    3  502    0 -0.35151254685E+03 -0.70790026621E+02 -0.39353336214E+03  0.53239310522E+03  0.12699999809E+01 0.  1.
       -4    1    3    3    0  502  0.35151254685E+03  0.70790026621E+02  0.16684397353E+03  0.39548808182E+03  0.12699999809E+01 0. -1.
</event>
<event>
 5   0  0.9981885E-04  0.9091479E+03  0.7818609E-02  0.9414218E-01
        1   -1    0    0  501    0  0.00000000000E+00  0.00000000000E+00  0.36722534351E+03  0.36722534354E+03  0.50400001928E-02 0. -1.
       -1   -1    0    0    0  501  0.00000000000E+00  0.00000000000E+00 -0.56269936686E+03  0.56269936688E+03  0.50400001928E-02 0.  1.
    10030    2    1    2    0    0  0.00000000000E+00  0.00000000000E+00 -0.19547402335E+03  0.92992471043E+03  0.90914788305E+03 0.  0.
        4    1    3    3  502    0  0.93257693032E+02  0.16458789197E+03  0.32504874338E+03  0.37609103947E+03  0.12699999809E+01 0. -1.
       -4    1    3    3    0  502 -0.93257693032E+02 -0.16458789197E+03 -0.52052276674E+03  0.55383367096E+03  0.12699999809E+01 0.  1.
</event>
<event>
 5   0  0.1536020E-03  0.8996789E+03  0.7818609E-02  0.9425983E-01
       -2   -1    0    0    0  501  0.00000000000E+00  0.00000000000E+00  0.54952103376E+03  0.54952103377E+03  0.25500000920E-02 0.  1.
        2   -1    0    0  501    0  0.00000000000E+00  0.00000000000E+00 -0.36823982416E+03  0.36823982417E+03  0.25500000920E-02 0. -1.
    10030    2    1    2    0    0  0.00000000000E+00  0.00000000000E+00  0.18128120960E+03  0.91776085794E+03  0.89967889573E+03 0.  0.
        2    1    3    3  502    0 -0.26657473015E+03  0.29281992626E+03 -0.12707315046E+03  0.41587640177E+03  0.25500000920E-02 0. -1.
       -2    1    3    3    0  502  0.26657473015E+03 -0.29281992626E+03  0.30835436007E+03  0.50188445617E+03  0.25500000920E-02 0.  1.
</event>
<event>
 5   0  0.1641516E-03  0.8993228E+03  0.7818609E-02  0.9426428E-01
       -2   -1    0    0    0  501  0.00000000000E+00  0.00000000000E+00  0.74343132981E+03  0.74343132982E+03  0.25500000920E-02 0. -1.
        2   -1    0    0  501    0  0.00000000000E+00  0.00000000000E+00 -0.27197588121E+03  0.27197588122E+03  0.25500000920E-02 0.  1.
    10030    2    1    2    0    0  0.00000000000E+00  0.00000000000E+00  0.47145544861E+03  0.10154072110E+04  0.89932283647E+03 0.  0.
        1    1    3    3  502    0 -0.64881671401E+02 -0.23479710455E+03 -0.19102272325E+03  0.30956258238E+03  0.50400001928E-02 0.  1.
       -1    1    3    3    0  502  0.64881671401E+02  0.23479710455E+03  0.66247817185E+03  0.70584462865E+03  0.50400001928E-02 0. -1.
</event>
<event>
 5   0  0.1630202E-03  0.8969906E+03  0.7818609E-02  0.9429351E-01
        2   -1    0    0  501    0  0.00000000000E+00  0.00000000000E+00  0.58278715721E+03  0.58278715721E+03  0.25500000920E-02 0.  1.
       -2   -1    0    0    0  501  0.00000000000E+00  0.00000000000E+00 -0.34514835275E+03  0.34514835276E+03  0.25500000920E-02 0. -1.
    10030    2    1    2    0    0  0.00000000000E+00  0.00000000000E+00  0.23763880445E+03  0.92793550997E+03  0.89699058484E+03 0.  0.
        4    1    3    3  502    0  0.10960705369E+03 -0.16528872976E+03 -0.29731702533E+03  0.35739767326E+03  0.12699999809E+01 0. -1.
       -4    1    3    3    0  502 -0.10960705369E+03  0.16528872976E+03  0.53495582978E+03  0.57053783671E+03  0.12699999809E+01 0.  1.
</event>
<event>
 5   0  0.1007561E-03  0.9003115E+03  0.7818609E-02  0.9425192E-01
       -1   -1    0    0    0  501  0.00000000000E+00  0.00000000000E+00  0.55704224097E+03  0.55704224099E+03  0.50400001928E-02 0. -1.
        1   -1    0    0  501    0  0.00000000000E+00  0.00000000000E+00 -0.36377888969E+03  0.36377888973E+03  0.50400001928E-02 0.  1.
    10030    2    1    2    0    0  0.00000000000E+00  0.00000000000E+00  0.19326335128E+03  0.92082113072E+03  0.90031151933E+03 0.  0.
        2    1    3    3  502    0 -0.28962512747E+03 -0.83712918315E+02 -0.24527339196E+03  0.38865100536E+03  0.25500000920E-02 0.  1.
       -2    1    3    3    0  502  0.28962512747E+03  0.83712918315E+02  0.43853674324E+03  0.53217012536E+03  0.25500000920E-02 0. -1.
</event>
<event>
 5   0  0.1635686E-03  0.9039560E+03  0.7818609E-02  0.9420650E-01
       -2   -1    0    0    0  501  0.00000000000E+00  0.00000000000E+00  0.27860132046E+03  0.27860132047E+03  0.25500000920E-02 0.  1.
        2   -1    0    0  501    0  0.00000000000E+00  0.00000000000E+00 -0.73324897590E+03  0.73324897590E+03  0.25500000920E-02 0. -1.
    10030    2    1    2    0    0  0.00000000000E+00  0.00000000000E+00 -0.45464765544E+03  0.10118502964E+04  0.90395604522E+03 0.  0.
        5    1    3    3  502    0 -0.54504623492E+02  0.31162044983E+03  0.13397739440E+03  0.34358418320E+03  0.46999998093E+01 0.  1.
       -5    1    3    3    0  502  0.54504623492E+02 -0.31162044983E+03 -0.58862504984E+03  0.66826611318E+03  0.46999998093E+01 0. -1.
</event>
<event>
 5   0  0.9981885E-04  0.9012504E+03  0.7818609E-02  0.9424020E-01
       -1   -1    0    0    0  501  0.00000000000E+00  0.00000000000E+00  0.50297650990E+03  0.50297650992E+03  0.50400001928E-02 0. -1.
        1   -1    0    0  501    0  0.00000000000E+00  0.00000000000E+00 -0.40372273361E+03  0.40372273364E+03  0.50400001928E-02 0.  1.
    10030    2    1    2    0    0  0.00000000000E+00  0.00000000000E+00  0.99253776293E+02  0.90669924356E+03  0.90125035710E+03 0.  0.
        4    1    3    3  502    0 -0.58299527306E+02 -0.37396903544E+02  0.49758748857E+03  0.50238658915E+03  0.12699999809E+01 0. -1.
       -4    1    3    3    0  502  0.58299527306E+02  0.37396903544E+02 -0.39833371228E+03  0.40431265441E+03  0.12699999809E+01 0.  1.
</event>
<event>
 5   0  0.9223454E-04  0.8988587E+03  0.7818609E-02  0.9427009E-01
        1   -1    0    0  501    0  0.00000000000E+00  0.00000000000E+00  0.23044367424E+03  0.23044367430E+03  0.50400001928E-02 0.  1.
       -1   -1    0    0    0  501  0.00000000000E+00  0.00000000000E+00 -0.87651234322E+03  0.87651234323E+03  0.50400001928E-02 0. -1.
    10030    2    1    2    0    0  0.00000000000E+00  0.00000000000E+00 -0.64606866898E+03  0.11069560175E+04  0.89885866503E+03 0.  0.
        1    1    3    3  502    0  0.28266779814E+03 -0.73049713792E+02 -0.74382514587E+03  0.79907020495E+03  0.50400001928E-02 0. -1.
       -1    1    3    3    0  502 -0.28266779814E+03  0.73049713792E+02  0.97756476888E+02  0.30788581258E+03  0.50400001928E-02 0.  1.
</event>
<event>
 5   0  0.9223454E-04  0.8991926E+03  0.7818609E-02  0.9426591E-01
        1   -1    0    0  501    0  0.00000000000E+00  0.00000000000E+00  0.18577219242E+04  0.18577219242E+04  0.50400001928E-02 0. -1.
       -1   -1    0    0    0  501  0.00000000000E+00  0.00000000000E+00 -0.10880898624E+03  0.10880898636E+03  0.50400001928E-02 0.  1.
    10030    2    1    2    0    0  0.00000000000E+00  0.00000000000E+00  0.17489129380E+04  0.19665309106E+04  0.89919261434E+03 0.  0.
        1    1    3    3  502    0  0.37819218546E+03 -0.23897761401E+03  0.77671925851E+03  0.89634392713E+03  0.50400001928E-02 0. -1.
       -1    1    3    3    0  502 -0.37819218546E+03  0.23897761401E+03  0.97219367948E+03  0.10701869835E+04  0.50400001928E-02 0.  1.
</event>
<event>
 5   0  0.1007561E-03  0.9004543E+03  0.7818609E-02  0.9425014E-01
       -1   -1    0    0    0  501  0.00000000000E+00  0.00000000000E+00  0.79466043657E+03  0.79466043659E+03  0.50400001928E-02 0.  1.
        1   -1    0    0  501    0  0.00000000000E+00  0.00000000000E+00 -0.25508317596E+03  0.25508317601E+03  0.50400001928E-02 0. -1.
    10030    2    1    2    0    0  0.00000000000E+00  0.00000000000E+00  0.53957726061E+03  0.10497436126E+04  0.90045434755E+03 0.  0.
        2    1    3    3  502    0 -0.11698423171E+03 -0.10712487356E+03 -0.22142892556E+03  0.27238175065E+03  0.25500000920E-02 0. -1.
       -2    1    3    3    0  502  0.11698423171E+03  0.10712487356E+03  0.76100618618E+03  0.77736186195E+03  0.25500000920E-02 0.  1.
</event>
<event>
 5   0  0.6375625E-04  0.9001076E+03  0.7818609E-02  0.9425447E-01
        3   -1    0    0  501    0  0.00000000000E+00  0.00000000000E+00  0.15669075358E+03  0.15669078613E+03  0.10100000352E+00 0.  1.
       -3   -1    0    0    0  501  0.00000000000E+00  0.00000000000E+00 -0.12926634789E+04  0.12926634829E+04  0.10100000352E+00 0. -1.
    10030    2    1    2    0    0  0.00000000000E+00  0.00000000000E+00 -0.11359727253E+04  0.14493542690E+04  0.90010764043E+03 0.  0.
        3    1    3    3  502    0 -0.80047010261E+02 -0.43894745593E+03 -0.66278383634E+03  0.79897735690E+03  0.10100000352E+00 0. -1.
       -3    1    3    3    0  502  0.80047010261E+02  0.43894745593E+03 -0.47318888899E+03  0.65037691210E+03  0.10100000352E+00 0.  1.
</event>
<event>
 5   0  0.9223454E-04  0.8996278E+03  0.7818609E-02  0.9426047E-01
       -1   -1    0    0    0  501  0.00000000000E+00  0.00000000000E+00  0.15704372818E+03  0.15704372826E+03  0.50400001928E-02 0. -1.
        1   -1    0    0  501    0  0.00000000000E+00  0.00000000000E+00 -0.12883834004E+04  0.12883834004E+04  0.50400001928E-02 0.  1.
    10030    2    1    2    0    0  0.00000000000E+00  0.00000000000E+00 -0.11313396722E+04  0.14454271287E+04  0.89962777323E+03 0.  0.
        1    1    3    3  502    0  0.37199427084E+03 -0.25241609114E+03 -0.59050415737E+03  0.74215145388E+03  0.50400001928E-02 0. -1.
       -1    1    3    3    0  502 -0.37199427084E+03  0.25241609114E+03 -0.54083551488E+03  0.70327567481E+03  0.50400001928E-02 0.  1.
</event>
<event>
 5   0  0.1704416E-03  0.9004217E+03  0.7818609E-02  0.9425054E-01
        2   -1    0    0  501    0  0.00000000000E+00  0.00000000000E+00  0.51114531886E+03  0.51114531887E+03  0.25500000920E-02 0. -1.
       -2   -1    0    0    0  501  0.00000000000E+00  0.00000000000E+00 -0.39654051703E+03  0.39654051704E+03  0.25500000920E-02 0.  1.
    10030    2    1    2    0    0  0.00000000000E+00  0.00000000000E+00  0.11460480183E+03  0.90768583590E+03  0.90042174346E+03 0.  0.
        3    1    3    3  502    0 -0.34267039794E+02  0.29357290802E+03 -0.28504082662E+03  0.41061851563E+03  0.10100000352E+00 0.  1.
       -3    1    3    3    0  502  0.34267039794E+02 -0.29357290802E+03  0.39964562845E+03  0.49706732027E+03  0.10100000352E+00 0. -1.
</event>
<event>
 5   0  0.9321543E-04  0.9003261E+03  0.7818609E-02  0.9425174E-01
       -1   -1    0    0    0  501  0.00000000000E+00  0.00000000000E+00  0.47350157851E+03  0.47350157854E+03  0.50400001928E-02 0.  1.
        1   -1    0    0  501    0  0.00000000000E+00  0.00000000000E+00 -0.42797481885E+03  0.42797481888E+03  0.50400001928E-02 0. -1.
    10030    2    1    2    0    0  0.00000000000E+00  0.00000000000E+00  0.45526759659E+02  0.90147639742E+03  0.90032605719E+03 0.  0.
        3    1    3    3  502    0  0.35277879200E+02 -0.97796286419E+02  0.46131626518E+03  0.47288619045E+03  0.10100000352E+00 0.  1.
       -3    1    3    3    0  502 -0.35277879200E+02  0.97796286419E+02 -0.41578950553E+03  0.42859020696E+03  0.10100000352E+00 0. -1.
</event>
<event>
 5   0  0.1630202E-03  0.9002168E+03  0.7818609E-02  0.9425310E-01
       -2   -1    0    0    0  501  0.00000000000E+00  0.00000000000E+00  0.10258204829E+03  0.10258204832E+03  0.25500000920E-02 0.  1.
        2   -1    0    0  501    0  0.00000000000E+00  0.00000000000E+00 -0.19749809715E+04  0.19749809715E+04  0.25500000920E-02 0. -1.
    10030    2    1    2    0    0  0.00000000000E+00  0.00000000000E+00 -0.18723989232E+04  0.20775630198E+04  0.90021684814E+03 0.  0.
        4    1    3    3  502    0 -0.30819052846E+03 -0.27603052494E+03 -0.52710641118E+03  0.67008733322E+03  0.12699999809E+01 0.  1.
       -4    1    3    3    0  502  0.30819052846E+03  0.27603052494E+03 -0.13452925120E+04  0.14074756866E+04  0.12699999809E+01 0. -1.
</event>
<event>
 5   0  0.1704416E-03  0.8979970E+03  0.7818609E-02  0.9428089E-01
        2   -1    0    0  501    0  0.00000000000E+00  0.00000000000E+00  0.17252221224E+04  0.17252221224E+04  0.25500000920E-02 0. -1.
       -2   -1    0    0    0  501  0.00000000000E+00  0.00000000000E+00 -0.11685431103E+03  0.11685431105E+03  0.25500000920E-02 0.  1.
    10030    2    1    2    0    0  0.00000000000E+00  0.00000000000E+00  0.16083678114E+04  0.18420764335E+04  0.89799697664E+03 0.  0.
        3    1    3    3  502    0  0.33500380987E+02 -0.63860333550E+02 -0.10489722890E+03  0.12729436971E+03  0.10100000352E+00 0.  1.
       -3    1    3    3    0  502 -0.33500380987E+02  0.63860333550E+02  0.17132650403E+04  0.17147820638E+04  0.10100000352E+00 0. -1.
</event>
<event>
 5   0  0.1536020E-03  0.8935641E+03  0.7818609E-02  0.9433663E-01
       -2   -1    0    0    0  501  0.00000000000E+00  0.00000000000E+00  0.52910274678E+03  0.52910274679E+03  0.25500000920E-02 0. -1.
        2   -1    0    0  501    0  0.00000000000E+00  0.00000000000E+00 -0.37726923202E+03  0.37726923203E+03  0.25500000920E-02 0.  1.
    10030    2    1    2    0    0  0.00000000000E+00  0.00000000000E+00  0.15183351476E+03  0.90637197882E+03  0.89356407033E+03 0.  0.
        2    1    3    3  502    0 -0.12925561995E+03  0.16352734487E+03  0.47675946497E+03  0.52033431105E+03  0.25500000920E-02 0. -1.
       -2    1    3    3    0  502  0.12925561995E+03 -0.16352734487E+03 -0.32492595021E+03  0.38603766777E+03  0.25500000920E-02 0.  1.
</event>
<event>
 5   0  0.9697941E-04  0.9027585E+03  0.7818609E-02  0.9422140E-01
       -1   -1    0    0    0  501  0.00000000000E+00  0.00000000000E+00  0.48499868485E+03  0.48499868487E+03  0.50400001928E-02 0.  1.
        1   -1    0    0  501    0  0.00000000000E+00  0.00000000000E+00 -0.42009022865E+03  0.42009022868E+03  0.50400001928E-02 0. -1.
    10030    2    1    2    0    0  0.00000000000E+00  0.00000000000E+00  0.64908456198E+02  0.90508891355E+03  0.90275845815E+03 0.  0.
        5    1    3    3  502    0  0.25139533816E+03 -0.28078011119E+03 -0.21654961754E+03  0.43468714468E+03  0.46999998093E+01 0. -1.
       -5    1    3    3    0  502 -0.25139533816E+03  0.28078011119E+03  0.28145807374E+03  0.47040176888E+03  0.46999998093E+01 0.  1.
</event>
<event>
 5   0  0.9223454E-04  0.8997439E+03  0.7818609E-02  0.9425902E-01
       -1   -1    0    0    0  501  0.00000000000E+00  0.00000000000E+00  0.14653797883E+03  0.14653797891E+03  0.50400001928E-02 0. -1.
        1   -1    0    0  501    0  0.00000000000E+00  0.00000000000E+00 -0.13811080779E+04  0.13811080779E+04  0.50400001928E-02 0.  1.
    10030    2    1    2    0    0  0.00000000000E+00  0.00000000000E+00 -0.12345700991E+04  0.15276460568E+04  0.89974393324E+03 0.  0.
        1    1    3    3  502    0 -0.97548622780E+02  0.71923197330E+02  0.11829755118E+03  0.16936053484E+03  0.50400001928E-02 0. -1.
       -1    1    3    3    0  502  0.97548622780E+02 -0.71923197330E+02 -0.13528676502E+04  0.13582855220E+04  0.50400001928E-02 0.  1.
</event>
<event>
 5   0  0.1630202E-03  0.8990654E+03  0.7818609E-02  0.9426750E-01
        2   -1    0    0  501    0  0.00000000000E+00  0.00000000000E+00  0.52859732573E+03  0.52859732573E+03  0.25500000920E-02 0.  1.
       -2   -1    0    0    0  501  0.00000000000E+00  0.00000000000E+00 -0.38229415046E+03  0.38229415047E+03  0.25500000920E-02 0. -1.
    10030    2    1    2    0    0  0.00000000000E+00  0.00000000000E+00  0.14630317527E+03  0.91089147621E+03  0.89906543829E+03 0.  0.
        4    1    3    3  502    0 -0.15527961478E+02  0.43078480772E+03 -0.56045907906E+02  0.43469463402E+03  0.12699999809E+01 0. -1.
       -4    1    3    3    0  502  0.15527961478E+02 -0.43078480772E+03  0.20234908317E+03  0.47619684219E+03  0.12699999809E+01 0.  1.
</event>
<event>
 5   0  0.1630202E-03  0.9000386E+03  0.7818609E-02  0.9425533E-01
       -2   -1    0    0    0  501  0.00000000000E+00  0.00000000000E+00  0.26751440103E+03  0.26751440104E+03  0.25500000920E-02 0. -1.
        2   -1    0    0  501    0  0.00000000000E+00  0.00000000000E+00 -0.75703353577E+03  0.75703353577E+03  0.25500000920E-02 0.  1.
    10030    2    1    2    0    0  0.00000000000E+00  0.00000000000E+00 -0.48951913474E+03  0.10245479368E+04  0.90003860559E+03 0.  0.
        4    1    3    3  502    0 -0.37122808493E+03 -0.10318960569E+03  0.19906715668E+02  0.38581896790E+03  0.12699999809E+01 0. -1.
       -4    1    3    3    0  502  0.37122808493E+03  0.10318960569E+03 -0.50942585041E+03  0.63872896891E+03  0.12699999809E+01 0.  1.
</event>
<event>
 5   0  0.1635686E-03  0.9001768E+03  0.7818609E-02  0.9425360E-01
       -2   -1    0    0    0  501  0.00000000000E+00  0.00000000000E+00  0.30741865584E+03  0.30741865585E+03  0.25500000920E-02 0. -1.
        2   -1    0    0  501    0  0.00000000000E+00  0.00000000000E+00 -0.65896970335E+03  0.65896970335E+03  0.25500000920E-02 0.  1.
    10030    2    1    2    0    0  0.00000000000E+00  0.00000000000E+00 -0.35155104751E+03  0.96638835920E+03  0.90017682807E+03 0.  0.
        5    1    3    3  502    0  0.25971332264E+03 -0.26443084548E+03  0.98312711630E+02  0.38348684627E+03  0.46999998093E+01 0. -1.
       -5    1    3    3    0  502 -0.25971332264E+03  0.26443084548E+03 -0.44986375914E+03  0.58290151293E+03  0.46999998093E+01 0.  1.
</event>
<event>
 5   0  0.1704416E-03  0.9003339E+03  0.7818609E-02  0.9425164E-01
        2   -1    0    0  501    0  0.00000000000E+00  0.00000000000E+00  0.98295487906E+03  0.98295487907E+03  0.25500000920E-02 0.  1.
       -2   -1    0    0    0  501  0.00000000000E+00  0.00000000000E+00 -0.20616439830E+03  0.20616439832E+03  0.25500000920E-02 0. -1.
    10030    2    1    2    0    0  0.00000000000E+00  0.00000000000E+00  0.77679048076E+03  0.11891192774E+04  0.90033394074E+03 0.  0.
        3    1    3    3  502    0 -0.48489916722E+02 -0.44753520878E+03  0.38396413902E+03  0.59166502802E+03  0.10100000352E+00 0. -1.
       -3    1    3    3    0  502  0.48489916722E+02  0.44753520878E+03  0.39282634174E+03  0.59745424937E+03  0.10100000352E+00 0.  1.
</event>
<event>
 5   0  0.1630202E-03  0.8999674E+03  0.7818609E-02  0.9425622E-01
        2   -1    0    0  501    0  0.00000000000E+00  0.00000000000E+00  0.16861419246E+04  0.16861419246E+04  0.25500000920E-02 0. -1.
       -2   -1    0    0    0  501  0.00000000000E+00  0.00000000000E+00 -0.12008794372E+03  0.12008794375E+03  0.25500000920E-02 0.  1.
    10030    2    1    2    0    0  0.00000000000E+00  0.00000000000E+00  0.15660539809E+04  0.18062298684E+04  0.89996736959E+03 0.  0.
        4    1    3    3  502    0 -0.17760510818E+03 -0.41338766520E+03  0.79732709138E+03  0.91551353881E+03  0.12699999809E+01 0. -1.
       -4    1    3    3    0  502  0.17760510818E+03  0.41338766520E+03  0.76872688953E+03  0.89071632958E+03  0.12699999809E+01 0.  1.
</event>
<event>
 5   0  0.6375625E-04  0.9015000E+03  0.7818609E-02  0.9423708E-01
        3   -1    0    0  501    0  0.00000000000E+00  0.00000000000E+00  0.67802409400E+03  0.67802410153E+03  0.10100000352E+00 0.  1.
       -3   -1    0    0    0  501  0.00000000000E+00  0.00000000000E+00 -0.29965827951E+03  0.29965829653E+03  0.10100000352E+00 0. -1.
    10030    2    1    2    0    0  0.00000000000E+00  0.00000000000E+00  0.37836581450E+03  0.97768239806E+03  0.90149996222E+03 0.  0.
        5    1    3    3  502    0  0.98426209445E+02  0.34379319593E+03 -0.10835940913E+03  0.37369149284E+03  0.46999998093E+01 0. -1.
       -5    1    3    3    0  502 -0.98426209445E+02 -0.34379319593E+03  0.48672522362E+03  0.60399090522E+03  0.46999998093E+01 0.  1.
</event>
<event>
 5   0  0.9697941E-04  0.8986107E+03  0.7818609E-02  0.9427320E-01
        1   -1    0    0  501    0  0.00000000000E+00  0.00000000000E+00  0.27632474510E+03  0.27632474515E+03  0.50400001928E-02 0. -1.
       -1   -1    0    0    0  501  0.00000000000E+00  0.00000000000E+00 -0.73057259379E+03  0.73057259381E+03  0.50400001928E-02 0.  1.
    10030    2    1    2    0    0  0.00000000000E+00  0.00000000000E+00 -0.45424784869E+03  0.10068973390E+04  0.89861067385E+03 0.  0.
        5    1    3    3  502    0  0.39876661376E+03  0.16546078331E+03 -0.87797338968E+02  0.44059340189E+03  0.46999998093E+01 0. -1.
       -5    1    3    3    0  502 -0.39876661376E+03 -0.16546078331E+03 -0.36645050972E+03  0.56630393706E+03  0.46999998093E+01 0.  1.
</event>
<event>
 5   0  0.1007561E-03  0.8996185E+03  0.7818609E-02  0.9426058E-01
        1   -1    0    0  501    0  0.00000000000E+00  0.00000000000E+00  0.30451302365E+03  0.30451302369E+03  0.50400001928E-02 0. -1.
       -1   -1    0    0    0  501  0.00000000000E+00  0.00000000000E+00 -0.66443247496E+03  0.66443247498E+03  0.50400001928E-02 0.  1.
    10030    2    1    2    0    0  0.00000000000E+00  0.00000000000E+00 -0.35991945132E+03  0.96894549867E+03  0.89961845688E+03 0.  0.
        2    1    3    3  502    0 -0.27398720126E+03  0.25506392456E+03 -0.44858216832E+03  0.58425384363E+03  0.25500000920E-02 0.  1.
       -2    1    3    3    0  502  0.27398720126E+03 -0.25506392456E+03  0.88662717000E+02  0.38469165504E+03  0.25500000920E-02 0. -1.
</event>
<event>
 5   0  0.6375625E-04  0.8997055E+03  0.7818609E-02  0.9425950E-01
        3   -1    0    0  501    0  0.00000000000E+00  0.00000000000E+00  0.12196836785E+03  0.12196840967E+03  0.10100000352E+00 0.  1.
       -3   -1    0    0    0  501  0.00000000000E+00  0.00000000000E+00 -0.16591796677E+04  0.16591796707E+04  0.10100000352E+00 0. -1.
    10030    2    1    2    0    0  0.00000000000E+00  0.00000000000E+00 -0.15372112998E+04  0.17811480804E+04  0.89970545407E+03 0.  0.
        3    1    3    3  502    0 -0.36557997772E+03  0.23929154376E+03 -0.98051973389E+03  0.10734654730E+04  0.10100000352E+00 0. -1.
       -3    1    3    3    0  502  0.36557997772E+03 -0.23929154376E+03 -0.55669156592E+03  0.70768260739E+03  0.10100000352E+00 0.  1.
</event>
<event>
 5   0  0.1630202E-03  0.9003612E+03  0.7818609E-02  0.9425130E-01
        2   -1    0    0  501    0  0.00000000000E+00  0.00000000000E+00  0.42059995089E+03  0.42059995090E+03  0.25500000920E-02 0. -1.
       -2   -1    0    0    0  501  0.00000000000E+00  0.00000000000E+00 -0.48184160169E+03  0.48184160170E+03  0.25500000920E-02 0.  1.
    10030    2    1    2    0    0  0.00000000000E+00  0.00000000000E+00 -0.61241650802E+02  0.90244155259E+03  0.90036115868E+03 0.  0.
        4    1    3    3  502    0  0.32321426366E+03 -0.19190840407E+03 -0.27891209366E+03  0.46807036296E+03  0.12699999809E+01 0.  1.
       -4    1    3    3    0  502 -0.32321426366E+03  0.19190840407E+03  0.21767044286E+03  0.43437118963E+03  0.12699999809E+01 0. -1.
</event>
<event>
 5   0  0.1704416E-03  0.8973568E+03  0.7818609E-02  0.9428892E-01
        2   -1    0    0  501    0  0.00000000000E+00  0.00000000000E+00  0.65497599326E+03  0.65497599327E+03  0.25500000920E-02 0. -1.
       -2   -1    0    0    0  501  0.00000000000E+00  0.00000000000E+00 -0.30735830628E+03  0.30735830629E+03  0.25500000920E-02 0.  1.
    10030    2    1    2    0    0  0.00000000000E+00  0.00000000000E+00  0.34761768698E+03  0.96233429956E+03  0.89735681187E+03 0.  0.
        3    1    3    3  502    0  0.69454211769E+02  0.49685880088E+02  0.64618040812E+03  0.65179882192E+03  0.10100000352E+00 0. -1.
       -3    1    3    3    0  502 -0.69454211769E+02 -0.49685880088E+02 -0.29856272114E+03  0.31053547764E+03  0.10100000352E+00 0.  1.
</event>
<event>
 5   0  0.9697941E-04  0.8994462E+03  0.7818609E-02  0.9426274E-01
       -1   -1    0    0    0  501  0.00000000000E+00  0.00000000000E+00  0.26236100594E+03  0.26236100599E+03  0.50400001928E-02 0.  1.
        1   -1    0    0  501    0  0.00000000000E+00  0.00000000000E+00 -0.77088762769E+03  0.77088762771E+03  0.50400001928E-02 0. -1.
    10030    2    1    2    0    0  0.00000000000E+00  0.00000000000E+00 -0.50852662175E+03  0.10332486337E+04  0.89944617071E+03 0.  0.
        5    1    3    3  502    0 -0.26247976768E+03  0.66549693617E+02  0.15817910304E+03  0.31363547121E+03  0.46999998093E+01 0.  1.
       -5    1    3    3    0  502  0.26247976768E+03 -0.66549693617E+02 -0.66670572478E+03  0.71961316249E+03  0.46999998093E+01 0. -1.
</event>
<event>
 5   0  0.1536020E-03  0.9041898E+03  0.7818609E-02  0.9420359E-01
       -2   -1    0    0    0  501  0.00000000000E+00  0.00000000000E+00  0.41018965986E+03  0.41018965987E+03  0.25500000920E-02 0. -1.
        2   -1    0    0  501    0  0.00000000000E+00  0.00000000000E+00 -0.49828122640E+03  0.49828122641E+03  0.25500000920E-02 0.  1.
    10030    2    1    2    0    0  0.00000000000E+00  0.00000000000E+00 -0.88091566537E+02  0.90847088628E+03  0.90418981808E+03 0.  0.
        2    1    3    3  502    0  0.31321170738E+03  0.29148830159E+03  0.10266889002E+03  0.44000898239E+03  0.25500000920E-02 0. -1.
       -2    1    3    3    0  502 -0.31321170738E+03 -0.29148830159E+03 -0.19076045655E+03  0.46846190389E+03  0.25500000920E-02 0.  1.
</event>
<event>
 5   0  0.1630202E-03  0.9016435E+03  0.7818609E-02  0.9423529E-01
        2   -1    0    0  501    0  0.00000000000E+00  0.00000000000E+00  0.15392008573E+04  0.15392008573E+04  0.25500000920E-02 0. -1.
       -2   -1    0    0    0  501  0.00000000000E+00  0.00000000000E+00 -0.13204271028E+03  0.13204271030E+03  0.25500000920E-02 0.  1.
    10030    2    1    2    0    0  0.00000000000E+00  0.00000000000E+00  0.14071581470E+04  0.16712435676E+04  0.90164350578E+03 0.  0.
        4    1    3    3  502    0  0.35682283949E+03  0.17678929397E+02  0.12132337377E+04  0.12647421866E+04  0.12699999809E+01 0. -1.
       -4    1    3    3    0  502 -0.35682283949E+03 -0.17678929397E+02  0.19392440929E+03  0.40650138099E+03  0.12699999809E+01 0.  1.
</event>
<event>
 5   0  0.9223454E-04  0.8999020E+03  0.7818609E-02  0.9425704E-01
       -1   -1    0    0    0  501  0.00000000000E+00  0.00000000000E+00  0.57463845535E+03  0.57463845537E+03  0.50400001928E-02 0. -1.
        1   -1    0    0  501    0  0.00000000000E+00  0.00000000000E+00 -0.35231876316E+03  0.35231876320E+03  0.50400001928E-02 0.  1.
    10030    2    1    2    0    0  0.00000000000E+00  0.00000000000E+00  0.22231969219E+03  0.92695721857E+03  0.89990201663E+03 0.  0.
        1    1    3    3  502    0 -0.40028516091E+03 -0.15277538542E+03  0.25272303629E+03  0.49743086106E+03  0.50400001928E-02 0.  1.
       -1    1    3    3    0  502  0.40028516091E+03  0.15277538542E+03 -0.30403344107E+02  0.42952635751E+03  0.50400001928E-02 0. -1.
</event>
<event>
 5   0  0.1536020E-03  0.9009935E+03  0.7818609E-02  0.9424340E-01
       -2   -1    0    0    0  501  0.00000000000E+00  0.00000000000E+00  0.14846268485E+03  0.14846268487E+03  0.25500000920E-02 0. -1.
        2   -1    0    0  501    0  0.00000000000E+00  0.00000000000E+00 -0.13669920515E+04  0.13669920515E+04  0.25500000920E-02 0.  1.
    10030    2    1    2    0    0  0.00000000000E+00  0.00000000000E+00 -0.12185293667E+04  0.15154547364E+04  0.90099347423E+03 0.  0.
        2    1    3    3  502    0  0.10385087095E+03  0.16733651011E+02  0.12751691798E+03  0.16530451552E+03  0.25500000920E-02 0. -1.
       -2    1    3    3    0  502 -0.10385087095E+03 -0.16733651011E+02 -0.13460462846E+04  0.13501502209E+04  0.25500000920E-02 0.  1.
</event>
<event>
 5   0  0.9697941E-04  0.8988572E+03  0.7818609E-02  0.9427011E-01
        1   -1    0    0  501    0  0.00000000000E+00  0.00000000000E+00  0.66404351729E+03  0.66404351731E+03  0.50400001928E-02 0. -1.
       -1   -1    0    0    0  501  0.00000000000E+00  0.00000000000E+00 -0.30417594151E+03  0.30417594155E+03  0.50400001928E-02 0.  1.
    10030    2    1    2    0    0  0.00000000000E+00  0.00000000000E+00  0.35986757578E+03  0.96821945886E+03  0.89885719022E+03 0.  0.
        5    1    3    3  502    0 -0.11547645042E+03 -0.18056032490E+03 -0.24555015063E+03  0.32596596142E+03  0.46999998093E+01 0.  1.
       -5    1    3    3    0  502  0.11547645042E+03  0.18056032490E+03  0.60541772641E+03  0.64225349744E+03  0.46999998093E+01 0. -1.
</event>
<event>
 5   0  0.6375625E-04  0.9026172E+03  0.7818609E-02  0.9422316E-01
       -3   -1    0    0    0  501  0.00000000000E+00  0.00000000000E+00  0.68367722536E+03  0.68367723282E+03  0.10100000352E+00 0. -1.
        3   -1    0    0  501    0  0.00000000000E+00  0.00000000000E+00 -0.29791756184E+03  0.29791757896E+03  0.10100000352E+00 0.  1.
    10030    2    1    2    0    0  0.00000000000E+00  0.00000000000E+00  0.38575966352E+03  0.98159481178E+03  0.90261722591E+03 0.  0.
        1    1    3    3  502    0 -0.54196235247E+02 -0.44325423093E+03  0.26392535524E+03  0.51871778291E+03  0.50400001928E-02 0. -1.
       -1    1    3    3    0  502  0.54196235247E+02  0.44325423093E+03  0.12183430828E+03  0.46287702886E+03  0.50400001928E-02 0.  1.
</event>
<event>
 5   0  0.9223454E-04  0.9000363E+03  0.7818609E-02  0.9425536E-01
       -1   -1    0    0    0  501  0.00000000000E+00  0.00000000000E+00  0.72675019876E+03  0.72675019878E+03  0.50400001928E-02 0. -1.
        1   -1    0    0  501    0  0.00000000000E+00  0.00000000000E+00 -0.27866016647E+03  0.27866016651E+03  0.50400001928E-02 0.  1.
    10030    2    1    2    0    0  0.00000000000E+00  0.00000000000E+00  0.44809003229E+03  0.10054103653E+04  0.90003629126E+03 0.  0.
        1    1    3    3  502    0  0.14599527557E+03 -0.24087385297E+03 -0.16801818105E+03  0.32797094799E+03  0.50400001928E-02 0.  1.
       -1    1    3    3    0  502 -0.14599527557E+03  0.24087385297E+03  0.61610821335E+03  0.67743941730E+03  0.50400001928E-02 0. -1.
</event>
<event>
 5   0  0.1635686E-03  0.8996144E+03  0.7818609E-02  0.9426064E-01
       -2   -1    0    0    0  501  0.00000000000E+00  0.00000000000E+00  0.13697156821E+04  0.13697156821E+04  0.25500000920E-02 0.  1.
        2   -1    0    0  501    0  0.00000000000E+00  0.00000000000E+00 -0.14771425387E+03  0.14771425389E+03  0.25500000920E-02 0. -1.
    10030    2    1    2    0    0  0.00000000000E+00  0.00000000000E+00  0.12220014282E+04  0.15174299360E+04  0.89961442854E+03 0.  0.
        5    1    3    3  502    0  0.43790009519E+02 -0.34306467267E+03  0.10960523085E+04  0.11493318440E+04  0.46999998093E+01 0.  1.
       -5    1    3    3    0  502 -0.43790009519E+02  0.34306467267E+03  0.12594911965E+03  0.36809809196E+03  0.46999998093E+01 0. -1.
</event>
<event>
 5   0  0.9697941E-04  0.8981117E+03  0.7818609E-02  0.9427945E-01
       -1   -1    0    0    0  501  0.00000000000E+00  0.00000000000E+00  0.28442898630E+03  0.28442898634E+03  0.50400001928E-02 0. -1.
        1   -1    0    0  501    0  0.00000000000E+00  0.00000000000E+00 -0.70896834438E+03  0.70896834439E+03  0.50400001928E-02 0.  1.
    10030    2    1    2    0    0  0.00000000000E+00  0.00000000000E+00 -0.42453935808E+03  0.99339733074E+03  0.89811168023E+03 0.  0.
        5    1    3    3  502    0  0.15444245802E+02 -0.44370229293E+03 -0.13791563548E+03  0.46492264087E+03  0.46999998093E+01 0.  1.
       -5    1    3    3    0  502 -0.15444245802E+02  0.44370229293E+03 -0.28662372260E+03  0.52847468987E+03  0.46999998093E+01 0. -1.
</event>
<event>
 5   0  0.1704416E-03  0.8969225E+03  0.7818609E-02  0.9429437E-01
       -2   -1    0    0    0  501  0.00000000000E+00  0.00000000000E+00  0.35872813157E+03  0.35872813158E+03  0.25500000920E-02 0. -1.
        2   -1    0    0  501    0  0.00000000000E+00  0.00000000000E+00 -0.56064048150E+03  0.56064048150E+03  0.25500000920E-02 0.  1.
    10030    2    1    2    0    0  0.00000000000E+00  0.00000000000E+00 -0.20191234993E+03  0.91936861308E+03  0.89692254385E+03 0.  0.
        3    1    3    3  502    0  0.92913211026E+01  0.38593513347E+03  0.13297715031E+03  0.40830771312E+03  0.10100000352E+00 0. -1.
       -3    1    3    3    0  502 -0.92913211026E+01 -0.38593513347E+03 -0.33488950024E+03  0.51106089996E+03  0.10100000352E+00 0.  1.
</event>
<event>
 5   0  0.9223454E-04  0.8996756E+03  0.7818609E-02  0.9425987E-01
        1   -1    0    0  501    0  0.00000000000E+00  0.00000000000E+00  0.20141927104E+04  0.20141927104E+04  0.50400001928E-02 0. -1.
       -1   -1    0    0    0  501  0.00000000000E+00  0.00000000000E+00 -0.10046408692E+03  0.10046408705E+03  0.50400001928E-02 0.  1.
    10030    2    1    2    0    0  0.00000000000E+00  0.00000000000E+00  0.19137286235E+04  0.21146567975E+04  0.89967556747E+03 0.  0.
        1    1    3    3  502    0  0.16539631850E+03 -0.34132123379E+03  0.38837261996E+03  0.54285303607E+03  0.50400001928E-02 0.  1.
       -1    1    3    3    0  502 -0.16539631850E+03  0.34132123379E+03  0.15253560036E+04  0.15718037614E+04  0.50400001928E-02 0. -1.
</event>
<event>
 5   0  0.9321543E-04  0.8996461E+03  0.7818609E-02  0.9426024E-01
        1   -1    0    0  501    0  0.00000000000E+00  0.00000000000E+00  0.91496237437E+03  0.91496237439E+03  0.50400001928E-02 0.  1.
       -1   -1    0    0    0  501  0.00000000000E+00  0.00000000000E+00 -0.22114653904E+03  0.22114653910E+03  0.50400001928E-02 0. -1.
    10030    2    1    2    0    0  0.00000000000E+00  0.00000000000E+00  0.69381583533E+03  0.11361089135E+04  0.89964606926E+03 0.  0.
        3    1    3    3  502    0  0.21957732521E+03 -0.33175699969E+03  0.61199555194E+03  0.72994210345E+03  0.10100000352E+00 0.  1.
       -3    1    3    3    0  502 -0.21957732521E+03  0.33175699969E+03  0.81820283390E+02  0.40616681003E+03  0.10100000352E+00 0. -1.
</event>
<event>
 5   0  0.1704416E-03  0.9008974E+03  0.7818609E-02  0.9424460E-01
        2   -1    0    0  501    0  0.00000000000E+00  0.00000000000E+00  0.20859371514E+03  0.20859371515E+03  0.25500000920E-02 0.  1.
       -2   -1    0    0    0  501  0.00000000000E+00  0.00000000000E+00 -0.97272365067E+03  0.97272365068E+03  0.25500000920E-02 0. -1.
    10030    2    1    2    0    0  0.00000000000E+00  0.00000000000E+00 -0.76412993554E+03  0.11813173658E+04  0.90089741948E+03 0.  0.
        3    1    3    3  502    0 -0.35167146366E+03  0.13520090960E+03 -0.70579646853E+03  0.80006297846E+03  0.10100000352E+00 0. -1.
       -3    1    3    3    0  502  0.35167146366E+03 -0.13520090960E+03 -0.58333467006E+02  0.38125438737E+03  0.10100000352E+00 0.  1.
</event>
<event>
 5   0  0.1635686E-03  0.9007015E+03  0.7818609E-02  0.9424705E-01
        2   -1    0    0  501    0  0.00000000000E+00  0.00000000000E+00  0.10437498004E+04  0.10437498004E+04  0.25500000920E-02 0. -1.
       -2   -1    0    0    0  501  0.00000000000E+00  0.00000000000E+00 -0.19431459198E+03  0.19431459200E+03  0.25500000920E-02 0.  1.
    10030    2    1    2    0    0  0.00000000000E+00  0.00000000000E+00  0.84943520840E+03  0.12380643924E+04  0.90070154126E+03 0.  0.
        5    1    3    3  502    0 -0.13495652220E+02  0.30461133465E+03 -0.30805096134E+02  0.30649835525E+03  0.46999998093E+01 0.  1.
       -5    1    3    3    0  502  0.13495652220E+02 -0.30461133465E+03  0.88024030453E+03  0.93156603714E+03  0.46999998093E+01 0. -1.
</event>
<event>
 5   0  0.1635686E-03  0.9034370E+03  0.7818609E-02  0.9421295E-01
        2   -1    0    0  501    0  0.00000000000E+00  0.00000000000E+00  0.40345374883E+03  0.40345374884E+03  0.25500000920E-02 0.  1.
       -2   -1    0    0    0  501  0.00000000000E+00  0.00000000000E+00 -0.50575715990E+03  0.50575715991E+03  0.25500000920E-02 0. -1.
    10030    2    1    2    0    0  0.00000000000E+00  0.00000000000E+00 -0.10230341107E+03  0.90921090875E+03  0.90343704190E+03 0.  0.
        5    1    3    3  502    0 -0.24143314147E+03  0.17002793645E+02 -0.43496616442E+03  0.49779183499E+03  0.46999998093E+01 0. -1.
       -5    1    3    3    0  502  0.24143314147E+03 -0.17002793645E+02  0.33266275335E+03  0.41141907376E+03  0.46999998093E+01 0.  1.
</event>
<event>
 5   0  0.9981885E-04  0.8971575E+03  0.7818609E-02  0.9429142E-01
       -1   -1    0    0    0  501  0.00000000000E+00  0.00000000000E+00  0.57776320098E+03  0.57776320100E+03  0.50400001928E-02 0.  1.
        1   -1    0    0  501    0  0.00000000000E+00  0.00000000000E+00 -0.34827920000E+03  0.34827920004E+03  0.50400001928E-02 0. -1.
    10030    2    1    2    0    0  0.00000000000E+00  0.00000000000E+00  0.22948400097E+03  0.92604240104E+03  0.89715752342E+03 0.  0.
        4    1    3    3  502    0  0.22843247831E+03 -0.15058920832E+03  0.48166232146E+03  0.55394829328E+03  0.12699999809E+01 0.  1.
       -4    1    3    3    0  502 -0.22843247831E+03  0.15058920832E+03 -0.25217832049E+03  0.37209410776E+03  0.12699999809E+01 0. -1.
</event>
<event>
 5   0  0.9697941E-04  0.8991550E+03  0.7818609E-02  0.9426638E-01
       -1   -1    0    0    0  501  0.00000000000E+00  0.00000000000E+00  0.16966469254E+03  0.16966469261E+03  0.50400001928E-02 0.  1.
        1   -1    0    0  501    0  0.00000000000E+00  0.00000000000E+00 -0.11912903868E+04  0.11912903868E+04  0.50400001928E-02 0. -1.
    10030    2    1    2    0    0  0.00000000000E+00  0.00000000000E+00 -0.10216256943E+04  0.13609550795E+04  0.89915497500E+03 0.  0.
        5    1    3    3  502    0 -0.32252041533E+02 -0.38948102802E+03 -0.17452875366E+03  0.42803976594E+03  0.46999998093E+01 0.  1.
       -5    1    3    3    0  502  0.32252041533E+02  0.38948102802E+03 -0.84709694063E+03  0.93291531352E+03  0.46999998093E+01 0. -1.
</event>
<event>
 5   0  0.9981885E-04  0.9002393E+03  0.7818609E-02  0.9425282E-01
       -1   -1    0    0    0  501  0.00000000000E+00  0.00000000000E+00  0.13247418119E+04  0.13247418119E+04  0.50400001928E-02 0. -1.
        1   -1    0    0  501    0  0.00000000000E+00  0.00000000000E+00 -0.15294125777E+03  0.15294125785E+03  0.50400001928E-02 0.  1.
    10030    2    1    2    0    0  0.00000000000E+00  0.00000000000E+00  0.11718005541E+04  0.14776830698E+04  0.90023925487E+03 0.  0.
        4    1    3    3  502    0 -0.75161173260E+02 -0.28598774024E+03  0.11429436744E+04  0.11805761497E+04  0.12699999809E+01 0. -1.
       -4    1    3    3    0  502  0.75161173260E+02  0.28598774024E+03  0.28856879743E+02  0.29710692005E+03  0.12699999809E+01 0.  1.
</event>
<event>
 5   0  0.9223454E-04  0.9007785E+03  0.7818609E-02  0.9424609E-01
        1   -1    0    0  501    0  0.00000000000E+00  0.00000000000E+00  0.51101758085E+03  0.51101758087E+03  0.50400001928E-02 0. -1.
       -1   -1    0    0    0  501  0.00000000000E+00  0.00000000000E+00 -0.39695398651E+03  0.39695398654E+03  0.50400001928E-02 0.  1.
    10030    2    1    2    0    0  0.00000000000E+00  0.00000000000E+00  0.11406359434E+03  0.90797156741E+03  0.90077847647E+03 0.  0.
        1    1    3    3  502    0  0.22528303316E+03  0.35377818428E+02 -0.33445918978E+03  0.40480487240E+03  0.50400001928E-02 0.  1.
       -1    1    3    3    0  502 -0.22528303316E+03 -0.35377818428E+02  0.44852278412E+03  0.50316669501E+03  0.50400001928E-02 0. -1.
</event>
<event>
 5   0  0.6375625E-04  0.8992477E+03  0.7818609E-02  0.9426522E-01
       -3   -1    0    0    0  501  0.00000000000E+00  0.00000000000E+00  0.36997214564E+03  0.36997215943E+03  0.10100000352E+00 0.  1.
        3   -1    0    0  501    0  0.00000000000E+00  0.00000000000E+00 -0.54642383061E+03  0.54642383995E+03  0.10100000352E+00 0. -1.
    10030    2    1    2    0    0  0.00000000000E+00  0.00000000000E+00 -0.17645168497E+03  0.91639599937E+03  0.89924770255E+03 0.  0.
        3    1    3    3  502    0  0.27117852177E+03  0.31007819421E+03 -0.27187145997E+03  0.49355889025E+03  0.10100000352E+00 0. -1.
       -3    1    3    3    0  502 -0.27117852177E+03 -0.31007819421E+03  0.95419775002E+02  0.42283710913E+03  0.10100000352E+00 0.  1.
</event>
<event>
 5   0  0.9981885E-04  0.8984114E+03  0.7818609E-02  0.9427569E-01
       -1   -1    0    0    0  501  0.00000000000E+00  0.00000000000E+00  0.20816193862E+03  0.20816193868E+03  0.50400001928E-02 0. -1.
        1   -1    0    0  501    0  0.00000000000E+00  0.00000000000E+00 -0.96936907478E+03  0.96936907479E+03  0.50400001928E-02 0.  1.
    10030    2    1    2    0    0  0.00000000000E+00  0.00000000000E+00 -0.76120713616E+03  0.11775310135E+04  0.89841136655E+03 0.  0.
        4    1    3    3  502    0  0.42491972724E+03  0.10558715244E+03 -0.51218652028E+03  0.67382643598E+03  0.12699999809E+01 0. -1.
       -4    1    3    3    0  502 -0.42491972724E+03 -0.10558715244E+03 -0.24902061588E+03  0.50370457750E+03  0.12699999809E+01 0.  1.
</event>
<event>
 5   0  0.1704416E-03  0.9001242E+03  0.7818609E-02  0.9425426E-01
        2   -1    0    0  501    0  0.00000000000E+00  0.00000000000E+00  0.75026638454E+03  0.75026638454E+03  0.25500000920E-02 0.  1.
       -2   -1    0    0    0  501  0.00000000000E+00  0.00000000000E+00 -0.26997862430E+03  0.26997862431E+03  0.25500000920E-02 0. -1.
    10030    2    1    2    0    0  0.00000000000E+00  0.00000000000E+00  0.48028776024E+03  0.10202450089E+04  0.90012418336E+03 0.  0.
        3    1    3    3  502    0 -0.19438935589E+03 -0.33772801603E+03 -0.15092267548E+02  0.38996823106E+03  0.10100000352E+00 0. -1.
       -3    1    3    3    0  502  0.19438935589E+03  0.33772801603E+03  0.49538002779E+03  0.63027677779E+03  0.10100000352E+00 0.  1.
</event>
<event>
 5   0  0.1635686E-03  0.8999534E+03  0.7818609E-02  0.9425640E-01
        2   -1    0    0  501    0  0.00000000000E+00  0.00000000000E+00  0.17064154363E+04  0.17064154363E+04  0.25500000920E-02 0. -1.
       -2   -1    0    0    0  501  0.00000000000E+00  0.00000000000E+00 -0.11865753519E+03  0.11865753521E+03  0.25500000920E-02 0.  1.
    10030    2    1    2    0    0  0.00000000000E+00  0.00000000000E+00  0.15877579011E+04  0.18250729715E+04  0.89995344258E+03 0.  0.
        5    1    3    3  502    0 -0.89244407254E+02 -0.15526805728E+03  0.16309742120E+04  0.16407838688E+04  0.46999998093E+01 0. -1.
       -5    1    3    3    0  502  0.89244407254E+02  0.15526805728E+03 -0.43216310947E+02  0.18428910268E+03  0.46999998093E+01 0.  1.
</event>
<event>
 5   0  0.1635686E-03  0.8976427E+03  0.7818609E-02  0.9428533E-01
       -2   -1    0    0    0  501  0.00000000000E+00  0.00000000000E+00  0.83430790808E+03  0.83430790808E+03  0.25500000920E-02 0. -1.
        2   -1    0    0  501    0  0.00000000000E+00  0.00000000000E+00 -0.24144634257E+03  0.24144634258E+03  0.25500000920E-02 0.  1.
    10030    2    1    2    0    0  0.00000000000E+00  0.00000000000E+00  0.59286156551E+03  0.10757542507E+04  0.89764267500E+03 0.  0.
        5    1    3    3  502    0  0.29022034409E+03 -0.16203914632E+03  0.65781789052E+03  0.73704206131E+03  0.46999998093E+01 0. -1.
       -5    1    3    3    0  502 -0.29022034409E+03  0.16203914632E+03 -0.64956325006E+02  0.33871218936E+03  0.46999998093E+01 0.  1.
</event>
<event>
 5   0  0.9223454E-04  0.9001509E+03  0.7818609E-02  0.9425393E-01
       -1   -1    0    0    0  501  0.00000000000E+00  0.00000000000E+00  0.22080464303E+03  0.22080464309E+03  0.50400001928E-02 0.  1.
        1   -1    0    0  501    0  0.00000000000E+00  0.00000000000E+00 -0.91740775081E+03  0.91740775083E+03  0.50400001928E-02 0. -1.
    10030    2    1    2    0    0  0.00000000000E+00  0.00000000000E+00 -0.69660310778E+03  0.11382123939E+04  0.90015085619E+03 0.  0.
        1    1    3    3  502    0 -0.29417528425E+03  0.38833640569E+02 -0.77620923958E+03  0.83099213783E+03  0.50400001928E-02 0. -1.
       -1    1    3    3    0  502  0.29417528425E+03 -0.38833640569E+02  0.79606131802E+02  0.30722025609E+03  0.50400001928E-02 0.  1.
</event>
<event>
 5   0  0.1641516E-03  0.8994551E+03  0.7818609E-02  0.9426263E-01
        2   -1    0    0  501    0  0.00000000000E+00  0.00000000000E+00  0.10913306705E+04  0.10913306705E+04  0.25500000920E-02 0.  1.
       -2   -1    0    0    0  501  0.00000000000E+00  0.00000000000E+00 -0.18532867725E+03  0.18532867726E+03  0.25500000920E-02 0. -1.
    10030    2    1    2    0    0  0.00000000000E+00  0.00000000000E+00  0.90600199322E+03  0.12766593477E+04  0.89945510084E+03 0.  0.
        1    1    3    3  502    0 -0.25848681651E+03  0.19589384159E+03  0.10792630066E+02  0.32450934097E+03  0.50400001928E-02 0. -1.
       -1    1    3    3    0  502  0.25848681651E+03 -0.19589384159E+03  0.89520936315E+03  0.95215000676E+03  0.50400001928E-02 0.  1.
</event>
<event>
 5   0  0.1641516E-03  0.9006973E+03  0.7818609E-02  0.9424710E-01
        2   -1    0    0  501    0  0.00000000000E+00  0.00000000000E+00  0.86027606787E+03  0.86027606788E+03  0.25500000920E-02 0. -1.
       -2   -1    0    0    0  501  0.00000000000E+00  0.00000000000E+00 -0.23575444098E+03  0.23575444100E+03  0.25500000920E-02 0.  1.
    10030    2    1    2    0    0  0.00000000000E+00  0.00000000000E+00  0.62452162689E+03  0.10960305089E+04  0.90069729317E+03 0.  0.
        1    1    3    3  502    0  0.37731090676E+03  0.24070844700E+03  0.25129790931E+03  0.51327840016E+03  0.50400001928E-02 0.  1.
       -1    1    3    3    0  502 -0.37731090676E+03 -0.24070844700E+03  0.37322371758E+03  0.58275210872E+03  0.50400001928E-02 0. -1.
</event>
<event>
 5   0  0.9321543E-04  0.9005717E+03  0.7818609E-02  0.9424867E-01
       -1   -1    0    0    0  501  0.00000000000E+00  0.00000000000E+00  0.50469253587E+03  0.50469253590E+03  0.50400001928E-02 0. -1.
        1   -1    0    0  501    0  0.00000000000E+00  0.00000000000E+00 -0.40174431943E+03  0.40174431946E+03  0.50400001928E-02 0.  1.
    10030    2    1    2    0    0  0.00000000000E+00  0.00000000000E+00  0.10294821644E+03  0.90643685536E+03  0.90057172812E+03 0.  0.
        3    1    3    3  502    0 -0.25502738004E+03  0.29384413649E+03 -0.17666039395E+03  0.42730813953E+03  0.10100000352E+00 0.  1.
       -3    1    3    3    0  502  0.25502738004E+03 -0.29384413649E+03  0.27960861040E+03  0.47912871582E+03  0.10100000352E+00 0. -1.
</event>
<event>
 5   0  0.1630202E-03  0.8998517E+03  0.7818609E-02  0.9425767E-01
       -2   -1    0    0    0  501  0.00000000000E+00  0.00000000000E+00  0.39967381819E+03  0.39967381820E+03  0.25500000920E-02 0.  1.
        2   -1    0    0  501    0  0.00000000000E+00  0.00000000000E+00 -0.50649620507E+03  0.50649620507E+03  0.25500000920E-02 0. -1.
    10030    2    1    2    0    0  0.00000000000E+00  0.00000000000E+00 -0.10682238687E+03  0.90617002327E+03  0.89985170375E+03 0.  0.
        4    1    3    3  502    0  0.27813500621E+03  0.96565956028E+02  0.28919462456E+03  0.41269747917E+03  0.12699999809E+01 0.  1.
       -4    1    3    3    0  502 -0.27813500621E+03 -0.96565956028E+02 -0.39601701143E+03  0.49347254410E+03  0.12699999809E+01 0. -1.
</event>
<event>
 5   0  0.1007561E-03  0.8983443E+03  0.7818609E-02  0.9427653E-01
       -1   -1    0    0    0  501  0.00000000000E+00  0.00000000000E+00  0.78288120181E+02  0.78288120344E+02  0.50400001928E-02 0.  1.
        1   -1    0    0  501    0  0.00000000000E+00  0.00000000000E+00 -0.25770913246E+04  0.25770913247E+04  0.50400001928E-02 0. -1.
    10030    2    1    2    0    0  0.00000000000E+00  0.00000000000E+00 -0.24988032045E+04  0.26553794450E+04  0.89834433390E+03 0.  0.
        2    1    3    3  502    0  0.36807719068E+03 -0.11184887361E+03 -0.56402045451E+03  0.68272253657E+03  0.25500000920E-02 0.  1.
       -2    1    3    3    0  502 -0.36807719068E+03  0.11184887361E+03 -0.19347827500E+04  0.19726569084E+04  0.25500000920E-02 0. -1.
</event>
<event>
 5   0  0.1536020E-03  0.8997999E+03  0.7818609E-02  0.9425832E-01
       -2   -1    0    0    0  501  0.00000000000E+00  0.00000000000E+00  0.19018537787E+03  0.19018537789E+03  0.25500000920E-02 0.  1.
        2   -1    0    0  501    0  0.00000000000E+00  0.00000000000E+00 -0.10642771545E+04  0.10642771545E+04  0.25500000920E-02 0. -1.
    10030    2    1    2    0    0  0.00000000000E+00  0.00000000000E+00 -0.87409177660E+03  0.12544625324E+04  0.89979987286E+03 0.  0.
        2    1    3    3  502    0 -0.23764661376E+03  0.11205231007E+03 -0.94620601727E+03  0.98200685351E+03  0.25500000920E-02 0. -1.
       -2    1    3    3    0  502  0.23764661376E+03 -0.11205231007E+03  0.72114240672E+02  0.27245567885E+03  0.25500000920E-02 0.  1.
</event>
<event>
 5   0  0.9223454E-04  0.9084843E+03  0.7818609E-02  0.9415037E-01
        1   -1    0    0  501    0  0.00000000000E+00  0.00000000000E+00  0.51169970766E+03  0.51169970768E+03  0.50400001928E-02 0.  1.
       -1   -1    0    0    0  501  0.00000000000E+00  0.00000000000E+00 -0.40323638336E+03  0.40323638339E+03  0.50400001928E-02 0. -1.
    10030    2    1    2    0    0  0.00000000000E+00  0.00000000000E+00  0.10846332430E+03  0.91493609108E+03  0.90848431909E+03 0.  0.
        1    1    3    3  502    0 -0.43853665391E+03  0.34072144600E+02  0.16844175196E+03  0.47100735843E+03  0.50400001928E-02 0.  1.
       -1    1    3    3    0  502  0.43853665391E+03 -0.34072144600E+02 -0.59978427667E+02  0.44392873265E+03  0.50400001928E-02 0. -1.
</event>
<event>
 5   0  0.1536020E-03  0.8999835E+03  0.7818609E-02  0.9425602E-01
        2   -1    0    0  501    0  0.00000000000E+00  0.00000000000E+00  0.71328206475E+03  0.71328206476E+03  0.25500000920E-02 0.  1.
       -2   -1    0    0    0  501  0.00000000000E+00  0.00000000000E+00 -0.28388852578E+03  0.28388852579E+03  0.25500000920E-02 0. -1.
    10030    2    1    2    0    0  0.00000000000E+00  0.00000000000E+00  0.42939353898E+03  0.99717059055E+03  0.89998354170E+03 0.  0.
        2    1    3    3  502    0  0.29984051999E+03  0.11668171118E+03 -0.13387696050E+03  0.34848529339E+03  0.25500000920E-02 0. -1.
       -2    1    3    3    0  502 -0.29984051999E+03 -0.11668171118E+03  0.56327049948E+03  0.64868529715E+03  0.25500000920E-02 0.  1.
</event>
<event>
 5   0  0.1635686E-03  0.8970158E+03  0.7818609E-02  0.9429319E-01
        2   -1    0    0  501    0  0.00000000000E+00  0.00000000000E+00  0.46573264523E+03  0.46573264523E+03  0.25500000920E-02 0. -1.
       -2   -1    0    0    0  501  0.00000000000E+00  0.00000000000E+00 -0.43192021906E+03  0.43192021907E+03  0.25500000920E-02 0.  1.
    10030    2    1    2    0    0  0.00000000000E+00  0.00000000000E+00  0.33812426169E+02  0.89765286430E+03  0.89701582184E+03 0.  0.
        5    1    3    3  502    0 -0.11597881628E+03 -0.17317863931E+03 -0.38048451757E+03  0.43385767833E+03  0.46999998093E+01 0.  1.
       -5    1    3    3    0  502  0.11597881628E+03  0.17317863931E+03  0.41429694374E+03  0.46379518597E+03  0.46999998093E+01 0. -1.
</event>
<event>
 5   0  0.1635686E-03  0.9029650E+03  0.7818609E-02  0.9421883E-01
        2   -1    0    0  501    0  0.00000000000E+00  0.00000000000E+00  0.21445832413E+03  0.21445832415E+03  0.25500000920E-02 0.  1.
       -2   -1    0    0    0  501  0.00000000000E+00  0.00000000000E+00 -0.95047108968E+03  0.95047108968E+03  0.25500000920E-02 0. -1.
    10030    2    1    2    0    0  0.00000000000E+00  0.00000000000E+00 -0.73601276555E+03  0.11649294138E+04  0.90296497615E+03 0.  0.
        5    1    3    3  502    0 -0.15971637063E+03 -0.26616271248E+03  0.54912475661E+02  0.31526081035E+03  0.46999998093E+01 0.  1.
       -5    1    3    3    0  502  0.15971637063E+03  0.26616271248E+03 -0.79092524121E+03  0.84966860348E+03  0.46999998093E+01 0. -1.
</event>
<event>
 5   0  0.6375625E-04  0.9020902E+03  0.7818609E-02  0.9422972E-01
       -4   -1    0    0    0  501  0.00000000000E+00  0.00000000000E+00  0.17253176983E+03  0.17253644398E+03  0.12699999809E+01 0.  1.
        4   -1    0    0  501    0  0.00000000000E+00  0.00000000000E+00 -0.11791338154E+04  0.11791344993E+04  0.12699999809E+01 0. -1.
    10030    2    1    2    0    0  0.00000000000E+00  0.00000000000E+00 -0.10066020455E+04  0.13516709433E+04  0.90209016225E+03 0.  0.
        2    1    3    3  502    0 -0.35744176196E+03  0.21722821214E+03 -0.25039492688E+03  0.48749392689E+03  0.25500000920E-02 0.  1.
       -2    1    3    3    0  502  0.35744176196E+03 -0.21722821214E+03 -0.75620711864E+03  0.86417701638E+03  0.25500000920E-02 0. -1.
</event>
<event>
 5   0  0.9223454E-04  0.9016505E+03  0.7818609E-02  0.9423521E-01
       -1   -1    0    0    0  501  0.00000000000E+00  0.00000000000E+00  0.16157062014E+03  0.16157062022E+03  0.50400001928E-02 0. -1.
        1   -1    0    0  501    0  0.00000000000E+00  0.00000000000E+00 -0.12579229870E+04  0.12579229870E+04  0.50400001928E-02 0.  1.
    10030    2    1    2    0    0  0.00000000000E+00  0.00000000000E+00 -0.10963523669E+04  0.14194936073E+04  0.90165048032E+03 0.  0.
        1    1    3    3  502    0 -0.19784095212E+03 -0.81312908265E+02 -0.11729495305E+04  0.11922933500E+04  0.50400001928E-02 0.  1.
       -1    1    3    3    0  502  0.19784095212E+03  0.81312908265E+02  0.76597163615E+02  0.22720025723E+03  0.50400001928E-02 0. -1.
</event>
<event>
 5   0  0.9223454E-04  0.9001004E+03  0.7818609E-02  0.9425456E-01
       -1   -1    0    0    0  501  0.00000000000E+00  0.00000000000E+00  0.38093909517E+03  0.38093909520E+03  0.50400001928E-02 0.  1.
        1   -1    0    0  501    0  0.00000000000E+00  0.00000000000E+00 -0.53169967721E+03  0.53169967724E+03  0.50400001928E-02 0. -1.
    10030    2    1    2    0    0  0.00000000000E+00  0.00000000000E+00 -0.15076058204E+03  0.91263877244E+03  0.90010042543E+03 0.  0.
        1    1    3    3  502    0 -0.16860280521E+03  0.38318952341E+03 -0.24286014862E+03  0.48398571114E+03  0.50400001928E-02 0. -1.
       -1    1    3    3    0  502  0.16860280521E+03 -0.38318952341E+03  0.92099566578E+02  0.42865306130E+03  0.50400001928E-02 0.  1.
</event>
<event>
 5   0  0.9321543E-04  0.9000828E+03  0.7818609E-02  0.9425478E-01
        1   -1    0    0  501    0  0.00000000000E+00  0.00000000000E+00  0.65377567504E+03  0.65377567506E+03  0.50400001928E-02 0.  1.
       -1   -1    0    0    0  501  0.00000000000E+00  0.00000000000E+00 -0.30979627922E+03  0.30979627926E+03  0.50400001928E-02 0. -1.
    10030    2    1    2    0    0  0.00000000000E+00  0.00000000000E+00  0.34397939582E+03  0.96357195433E+03  0.90008282197E+03 0.  0.
        3    1    3    3  502    0  0.11904461980E+03  0.43214969848E+03  0.21497516420E+03  0.49713108415E+03  0.10100000352E+00 0. -1.
       -3    1    3    3    0  502 -0.11904461980E+03 -0.43214969848E+03  0.12900423162E+03  0.46644087018E+03  0.10100000352E+00 0.  1.
</event>
<event>
 5   0  0.1641516E-03  0.8987206E+03  0.7818609E-02  0.9427182E-01
        2   -1    0    0  501    0  0.00000000000E+00  0.00000000000E+00  0.11966884378E+04  0.11966884378E+04  0.25500000920E-02 0.  1.
       -2   -1    0    0    0  501  0.00000000000E+00  0.00000000000E+00 -0.16873623431E+03  0.16873623433E+03  0.25500000920E-02 0. -1.
    10030    2    1    2    0    0  0.00000000000E+00  0.00000000000E+00  0.10279522035E+04  0.13654246722E+04  0.89872064772E+03 0.  0.
        1    1    3    3  502    0 -0.38082146292E+03 -0.70644069598E+02  0.16782565286E+03  0.42211493811E+03  0.50400001928E-02 0. -1.
       -1    1    3    3    0  502  0.38082146292E+03  0.70644069598E+02  0.86012655065E+03  0.94330973405E+03  0.50400001928E-02 0.  1.
</event>
<event>
 5   0  0.9697941E-04  0.8956646E+03  0.7818609E-02  0.9431017E-01
       -1   -1    0    0    0  501  0.00000000000E+00  0.00000000000E+00  0.13393525865E+03  0.13393525874E+03  0.50400001928E-02 0.  1.
        1   -1    0    0  501    0  0.00000000000E+00  0.00000000000E+00 -0.14973934172E+04  0.14973934172E+04  0.50400001928E-02 0. -1.
    10030    2    1    2    0    0  0.00000000000E+00  0.00000000000E+00 -0.13634581585E+04  0.16313286759E+04  0.89566461292E+03 0.  0.
        5    1    3    3  502    0 -0.23851232097E+02 -0.32074716499E+02 -0.14940929113E+04  0.14946348672E+04  0.46999998093E+01 0. -1.
       -5    1    3    3    0  502  0.23851232097E+02  0.32074716499E+02  0.13063475277E+03  0.13669380871E+03  0.46999998093E+01 0.  1.
</event>
<event>
 5   0  0.1641516E-03  0.9003214E+03  0.7818609E-02  0.9425180E-01
       -2   -1    0    0    0  501  0.00000000000E+00  0.00000000000E+00  0.38302183218E+03  0.38302183219E+03  0.25500000920E-02 0.  1.
        2   -1    0    0  501    0  0.00000000000E+00  0.00000000000E+00 -0.52906820275E+03  0.52906820276E+03  0.25500000920E-02 0. -1.
    10030    2    1    2    0    0  0.00000000000E+00  0.00000000000E+00 -0.14604637057E+03  0.91209003495E+03  0.90032143676E+03 0.  0.
        1    1    3    3  502    0 -0.13656836618E+01  0.76717861129E+02 -0.52239456762E+03  0.52799960190E+03  0.50400001928E-02 0. -1.
       -1    1    3    3    0  502  0.13656836618E+01 -0.76717861129E+02  0.37634819705E+03  0.38409043304E+03  0.50400001928E-02 0.  1.
</event>
<event>
 5   0  0.1704416E-03  0.8991936E+03  0.7818609E-02  0.9426590E-01
        2   -1    0    0  501    0  0.00000000000E+00  0.00000000000E+00  0.12378451575E+04  0.12378451575E+04  0.25500000920E-02 0. -1.
       -2   -1    0    0    0  501  0.00000000000E+00  0.00000000000E+00 -0.16329771566E+03  0.16329771568E+03  0.25500000920E-02 0.  1.
    10030    2    1    2    0    0  0.00000000000E+00  0.00000000000E+00  0.10745474419E+04  0.14011428732E+04  0.89919360891E+03 0.  0.
        3    1    3    3  502    0  0.44525216537E+03  0.61234927688E+02  0.55558327111E+03  0.71461317402E+03  0.10100000352E+00 0. -1.
       -3    1    3    3    0  502 -0.44525216537E+03 -0.61234927688E+02  0.51896417076E+03  0.68652969919E+03  0.10100000352E+00 0.  1.
</event>
<event>
 5   0  0.1536020E-03  0.8984091E+03  0.7818609E-02  0.9427572E-01
        2   -1    0    0  501    0  0.00000000000E+00  0.00000000000E+00  0.27373018681E+04  0.27373018681E+04  0.25500000920E-02 0.  1.
       -2   -1    0    0    0  501  0.00000000000E+00  0.00000000000E+00 -0.73716644445E+02  0.73716644489E+02  0.25500000920E-02 0. -1.
    10030    2    1    2    0    0  0.00000000000E+00  0.00000000000E+00  0.26635852237E+04  0.28110185126E+04  0.89840905742E+03 0.  0.
        2    1    3    3  502    0 -0.14641417936E+03 -0.22236933612E+03  0.24638241765E+04  0.24781676307E+04  0.25500000920E-02 0.  1.
       -2    1    3    3    0  502  0.14641417936E+03  0.22236933612E+03  0.19976104721E+03  0.33285088186E+03  0.25500000920E-02 0. -1.
</event>
<event>
 5   0  0.1007561E-03  0.9002381E+03  0.7818609E-02  0.9425284E-01
        1   -1    0    0  501    0  0.00000000000E+00  0.00000000000E+00  0.76278628093E+03  0.76278628094E+03  0.50400001928E-02 0.  1.
       -1   -1    0    0    0  501  0.00000000000E+00  0.00000000000E+00 -0.26561461092E+03  0.26561461097E+03  0.50400001928E-02 0. -1.
    10030    2    1    2    0    0  0.00000000000E+00  0.00000000000E+00  0.49717167001E+03  0.10284008919E+04  0.90023814906E+03 0.  0.
        2    1    3    3  502    0  0.35912124085E+03  0.10078364953E+03  0.53641152259E+03  0.65334732816E+03  0.25500000920E-02 0.  1.
       -2    1    3    3    0  502 -0.35912124085E+03 -0.10078364953E+03 -0.39239852586E+02  0.37505356375E+03  0.25500000920E-02 0. -1.
</event>
<event>
 5   0  0.1635686E-03  0.9000679E+03  0.7818609E-02  0.9425497E-01
        2   -1    0    0  501    0  0.00000000000E+00  0.00000000000E+00  0.67155307086E+03  0.67155307086E+03  0.25500000920E-02 0.  1.
       -2   -1    0    0    0  501  0.00000000000E+00  0.00000000000E+00 -0.30158532336E+03  0.30158532337E+03  0.25500000920E-02 0. -1.
    10030    2    1    2    0    0  0.00000000000E+00  0.00000000000E+00  0.36996774750E+03  0.97313839423E+03  0.90006788640E+03 0.  0.
        5    1    3    3  502    0 -0.40781658695E+03  0.12550333957E+03  0.33957041814E+03  0.54533990841E+03  0.46999998093E+01 0.  1.
       -5    1    3    3    0  502  0.40781658695E+03 -0.12550333957E+03  0.30397329362E+02  0.42779848582E+03  0.46999998093E+01 0. -1.
</event>
<event>
 5   0  0.6375625E-04  0.9064850E+03  0.7818609E-02  0.9417511E-01
        3   -1    0    0  501    0  0.00000000000E+00  0.00000000000E+00  0.68609618601E+03  0.68609619345E+03  0.10100000352E+00 0. -1.
       -3   -1    0    0    0  501  0.00000000000E+00  0.00000000000E+00 -0.29941682374E+03  0.29941684078E+03  0.10100000352E+00 0.  1.
    10030    2    1    2    0    0  0.00000000000E+00  0.00000000000E+00  0.38667936227E+03  0.98551303422E+03  0.90648497584E+03 0.  0.
        2    1    3    3  502    0 -0.21117425172E+03 -0.22433111552E+03  0.55475124013E+03  0.63456122826E+03  0.25500000920E-02 0. -1.
       -2    1    3    3    0  502  0.21117425172E+03  0.22433111552E+03 -0.16807187786E+03  0.35095180597E+03  0.25500000920E-02 0.  1.
</event>
<event>
 5   0  0.1635686E-03  0.8995698E+03  0.7818609E-02  0.9426119E-01
        2   -1    0    0  501    0  0.00000000000E+00  0.00000000000E+00  0.14518097008E+04  0.14518097008E+04  0.25500000920E-02 0. -1.
       -2   -1    0    0    0  501  0.00000000000E+00  0.00000000000E+00 -0.13934776826E+03  0.13934776829E+03  0.25500000920E-02 0.  1.
    10030    2    1    2    0    0  0.00000000000E+00  0.00000000000E+00  0.13124619326E+04  0.15911574691E+04  0.89956976777E+03 0.  0.
        5    1    3    3  502    0 -0.17405681720E+03 -0.36980322806E+03  0.32421405764E+03  0.52171548593E+03  0.46999998093E+01 0. -1.
       -5    1    3    3    0  502  0.17405681720E+03  0.36980322806E+03  0.98824787492E+03  0.10694419832E+04  0.46999998093E+01 0.  1.
</event>
<event>
 5   0  0.1641516E-03  0.9004202E+03  0.7818609E-02  0.9425056E-01
        2   -1    0    0  501    0  0.00000000000E+00  0.00000000000E+00  0.20977081863E+04  0.20977081863E+04  0.25500000920E-02 0. -1.
       -2   -1    0    0    0  501  0.00000000000E+00  0.00000000000E+00 -0.96624082615E+02  0.96624082649E+02  0.25500000920E-02 0.  1.
    10030    2    1    2    0    0  0.00000000000E+00  0.00000000000E+00  0.20010841037E+04  0.21943322690E+04  0.90042018888E+03 0.  0.
        1    1    3    3  502    0  0.13484815458E+03 -0.77004606145E+02 -0.29293725129E+02  0.15802486045E+03  0.50400001928E-02 0.  1.
       -1    1    3    3    0  502 -0.13484815458E+03  0.77004606145E+02  0.20303778288E+04  0.20363074085E+04  0.50400001928E-02 0. -1.
</event>
<event>
 5   0  0.1630202E-03  0.9001570E+03  0.7818609E-02  0.9425385E-01
        2   -1    0    0  501    0  0.00000000000E+00  0.00000000000E+00  0.34771583607E+03  0.34771583608E+03  0.25500000920E-02 0. -1.
       -2   -1    0    0    0  501  0.00000000000E+00  0.00000000000E+00 -0.58257534187E+03  0.58257534188E+03  0.25500000920E-02 0.  1.
    10030    2    1    2    0    0  0.00000000000E+00  0.00000000000E+00 -0.23485950580E+03  0.93029117796E+03  0.90015703537E+03 0.  0.
        4    1    3    3  502    0 -0.10796849333E+02 -0.41862860144E+03 -0.28788315772E+03  0.50817792484E+03  0.12699999809E+01 0. -1.
       -4    1    3    3    0  502  0.10796849333E+02  0.41862860144E+03  0.53023651921E+02  0.42211325312E+03  0.12699999809E+01 0.  1.
</event>
<event>
 5   0  0.1007561E-03  0.9025903E+03  0.7818609E-02  0.9422349E-01
       -1   -1    0    0    0  501  0.00000000000E+00  0.00000000000E+00  0.25169493204E+03  0.25169493209E+03  0.50400001928E-02 0. -1.
        1   -1    0    0  501    0  0.00000000000E+00  0.00000000000E+00 -0.80918320350E+03  0.80918320352E+03  0.50400001928E-02 0.  1.
    10030    2    1    2    0    0  0.00000000000E+00  0.00000000000E+00 -0.55748827147E+03  0.10608781356E+04  0.90259029786E+03 0.  0.
        2    1    3    3  502    0  0.44036028832E+03  0.23383246589E+02 -0.39150226111E+03  0.58969312376E+03  0.25500000920E-02 0. -1.
       -2    1    3    3    0  502 -0.44036028832E+03 -0.23383246589E+02 -0.16598601036E+03  0.47118501185E+03  0.25500000920E-02 0.  1.
</event>
<event>
 5   0  0.1007561E-03  0.9005089E+03  0.7818609E-02  0.9424945E-01
       -1   -1    0    0    0  501  0.00000000000E+00  0.00000000000E+00  0.12459805108E+04  0.12459805108E+04  0.50400001928E-02 0. -1.
        1   -1    0    0  501    0  0.00000000000E+00  0.00000000000E+00 -0.16270645800E+03  0.16270645808E+03  0.50400001928E-02 0.  1.
    10030    2    1    2    0    0  0.00000000000E+00  0.00000000000E+00  0.10832740528E+04  0.14086869689E+04  0.90050891324E+03 0.  0.
        2    1    3    3  502    0 -0.12813362126E+02  0.28925367426E+03  0.22353339613E+01  0.28954596707E+03  0.25500000920E-02 0.  1.
       -2    1    3    3    0  502  0.12813362126E+02 -0.28925367426E+03  0.10810387188E+04  0.11191410018E+04  0.25500000920E-02 0. -1.
</event>
<event>
 5   0  0.1635686E-03  0.9010112E+03  0.7818609E-02  0.9424318E-01
        2   -1    0    0  501    0  0.00000000000E+00  0.00000000000E+00  0.15837080429E+04  0.15837080429E+04  0.25500000920E-02 0.  1.
       -2   -1    0    0    0  501  0.00000000000E+00  0.00000000000E+00 -0.12815197719E+03  0.12815197722E+03  0.25500000920E-02 0. -1.
    10030    2    1    2    0    0  0.00000000000E+00  0.00000000000E+00  0.14555560657E+04  0.17118600201E+04  0.90101124748E+03 0.  0.
        5    1    3    3  502    0 -0.25571141679E+03 -0.15253734460E+03  0.13700484816E+04  0.14020381243E+04  0.46999998093E+01 0.  1.
       -5    1    3    3    0  502  0.25571141679E+03  0.15253734460E+03  0.85507584123E+02  0.30982189580E+03  0.46999998093E+01 0. -1.
</event>
<event>
 5   0  0.1704416E-03  0.9015226E+03  0.7818609E-02  0.9423680E-01
       -2   -1    0    0    0  501  0.00000000000E+00  0.00000000000E+00  0.30140621029E+03  0.30140621030E+03  0.25500000920E-02 0. -1.
        2   -1    0    0  501    0  0.00000000000E+00  0.00000000000E+00 -0.67412602043E+03  0.67412602044E+03  0.25500000920E-02 0.  1.
    10030    2    1    2    0    0  0.00000000000E+00  0.00000000000E+00 -0.37271981014E+03  0.97553223074E+03  0.90152264328E+03 0.  0.
        3    1    3    3  502    0  0.40068866988E+03 -0.94507700300E+02  0.12293935381E+02  0.41186680691E+03  0.10100000352E+00 0. -1.
       -3    1    3    3    0  502 -0.40068866988E+03  0.94507700300E+02 -0.38501374552E+03  0.56366542383E+03  0.10100000352E+00 0.  1.
</event>
<event>
 5   0  0.1007561E-03  0.8995172E+03  0.7818609E-02  0.9426185E-01
        1   -1    0    0  501    0  0.00000000000E+00  0.00000000000E+00  0.62003057908E+03  0.62003057910E+03  0.50400001928E-02 0. -1.
       -1   -1    0    0    0  501  0.00000000000E+00  0.00000000000E+00 -0.32624650957E+03  0.32624650961E+03  0.50400001928E-02 0.  1.
    10030    2    1    2    0    0  0.00000000000E+00  0.00000000000E+00  0.29378406951E+03  0.94627708871E+03  0.89951723114E+03 0.  0.
        2    1    3    3  502    0  0.22798898595E+03 -0.33571402500E+03 -0.57094896458E+02  0.40980813987E+03  0.25500000920E-02 0.  1.
       -2    1    3    3    0  502 -0.22798898595E+03  0.33571402500E+03  0.35087896597E+03  0.53646894883E+03  0.25500000920E-02 0. -1.
</event>
<event>
 5   0  0.1536020E-03  0.9035222E+03  0.7818609E-02  0.9421189E-01
       -2   -1    0    0    0  501  0.00000000000E+00  0.00000000000E+00  0.37087703898E+03  0.37087703899E+03  0.25500000920E-02 0.  1.
        2   -1    0    0  501    0  0.00000000000E+00  0.00000000000E+00 -0.55028501414E+03  0.55028501415E+03  0.25500000920E-02 0. -1.
    10030    2    1    2    0    0  0.00000000000E+00  0.00000000000E+00 -0.17940797516E+03  0.92116205314E+03  0.90352216718E+03 0.  0.
        2    1    3    3  502    0  0.20256913011E+03  0.28861613704E+03  0.19821808534E+03  0.40450455671E+03  0.25500000920E-02 0.  1.
       -2    1    3    3    0  502 -0.20256913011E+03 -0.28861613704E+03 -0.37762606050E+03  0.51665749643E+03  0.25500000920E-02 0. -1.
</event>
<event>
 5   0  0.1007561E-03  0.8994284E+03  0.7818609E-02  0.9426296E-01
       -1   -1    0    0    0  501  0.00000000000E+00  0.00000000000E+00  0.39173611172E+03  0.39173611176E+03  0.50400001928E-02 0.  1.
        1   -1    0    0  501    0  0.00000000000E+00  0.00000000000E+00 -0.51627319839E+03  0.51627319841E+03  0.50400001928E-02 0. -1.
    10030    2    1    2    0    0  0.00000000000E+00  0.00000000000E+00 -0.12453708666E+03  0.90800931017E+03  0.89942838592E+03 0.  0.
        2    1    3    3  502    0  0.23507288137E+03  0.74268749703E+02  0.31744180459E+03  0.40192587134E+03  0.25500000920E-02 0.  1.
       -2    1    3    3    0  502 -0.23507288137E+03 -0.74268749703E+02 -0.44197889126E+03  0.50608343883E+03  0.25500000920E-02 0. -1.
</event>
<event>
 5   0  0.9321543E-04  0.9003742E+03  0.7818609E-02  0.9425114E-01
       -1   -1    0    0    0  501  0.00000000000E+00  0.00000000000E+00  0.43652842007E+03  0.43652842010E+03  0.50400001928E-02 0. -1.
        1   -1    0    0  501    0  0.00000000000E+00  0.00000000000E+00 -0.46427311517E+03  0.46427311520E+03  0.50400001928E-02 0.  1.
    10030    2    1    2    0    0  0.00000000000E+00  0.00000000000E+00 -0.27744695096E+02  0.90080153530E+03  0.90037416549E+03 0.  0.
        3    1    3    3  502    0  0.34830700650E+03 -0.22139075558E+03  0.16603726011E+03  0.44485955017E+03  0.10100000352E+00 0. -1.
       -3    1    3    3    0  502 -0.34830700650E+03  0.22139075558E+03 -0.19378195520E+03  0.45594198512E+03  0.10100000352E+00 0.  1.
</event>
<event>
 5   0  0.1641516E-03  0.8998761E+03  0.7818609E-02  0.9425736E-01
       -2   -1    0    0    0  501  0.00000000000E+00  0.00000000000E+00  0.21887227933E+03  0.21887227934E+03  0.25500000920E-02 0.  1.
        2   -1    0    0  501    0  0.00000000000E+00  0.00000000000E+00 -0.92494231712E+03  0.92494231712E+03  0.25500000920E-02 0. -1.
    10030    2    1    2    0    0  0.00000000000E+00  0.00000000000E+00 -0.70607003779E+03  0.11438145965E+04  0.89987606526E+03 0.  0.
        1    1    3    3  502    0  0.10897097526E+03 -0.21642490399E+03  0.12885327395E+03  0.27444048308E+03  0.50400001928E-02 0.  1.
       -1    1    3    3    0  502 -0.10897097526E+03  0.21642490399E+03 -0.83492331175E+03  0.86937411339E+03  0.50400001928E-02 0. -1.
</event>
<event>
 5   0  0.1007561E-03  0.9002864E+03  0.7818609E-02  0.9425224E-01
        1   -1    0    0  501    0  0.00000000000E+00  0.00000000000E+00  0.64291003859E+03  0.64291003861E+03  0.50400001928E-02 0.  1.
       -1   -1    0    0    0  501  0.00000000000E+00  0.00000000000E+00 -0.31517456426E+03  0.31517456430E+03  0.50400001928E-02 0. -1.
    10030    2    1    2    0    0  0.00000000000E+00  0.00000000000E+00  0.32773547433E+03  0.95808460291E+03  0.90028637955E+03 0.  0.
        2    1    3    3  502    0  0.32309813310E+03  0.83186140775E+02  0.48545433218E+03  0.58904859415E+03  0.25500000920E-02 0.  1.
       -2    1    3    3    0  502 -0.32309813310E+03 -0.83186140775E+02 -0.15771885785E+03  0.36903600876E+03  0.25500000920E-02 0. -1.
</event>
<event>
 5   0  0.1641516E-03  0.8993512E+03  0.7818609E-02  0.9426393E-01
        2   -1    0    0  501    0  0.00000000000E+00  0.00000000000E+00  0.83742667800E+03  0.83742667800E+03  0.25500000920E-02 0.  1.
       -2   -1    0    0    0  501  0.00000000000E+00  0.00000000000E+00 -0.24146370590E+03  0.24146370591E+03  0.25500000920E-02 0. -1.
    10030    2    1    2    0    0  0.00000000000E+00  0.00000000000E+00  0.59596297210E+03  0.10788903839E+04  0.89935120858E+03 0.  0.
        1    1    3    3  502    0 -0.20093021784E+03  0.39245449506E+03  0.19193330879E+03  0.48086575900E+03  0.50400001928E-02 0. -1.
       -1    1    3    3    0  502  0.20093021784E+03 -0.39245449506E+03  0.40402966332E+03  0.59802462491E+03  0.50400001928E-02 0.  1.
</event>
<event>
 5   0  0.1704416E-03  0.8997885E+03  0.7818609E-02  0.9425846E-01
        2   -1    0    0  501    0  0.00000000000E+00  0.00000000000E+00  0.46464086742E+03  0.46464086743E+03  0.25500000920E-02 0.  1.
       -2   -1    0    0    0  501  0.00000000000E+00  0.00000000000E+00 -0.43561565840E+03  0.43561565841E+03  0.25500000920E-02 0. -1.
    10030    2    1    2    0    0  0.00000000000E+00  0.00000000000E+00  0.29025209023E+02  0.90025652583E+03  0.89978850268E+03 0.  0.
        3    1    3    3  502    0 -0.72264802571E+01  0.18767995316E+03  0.42353919169E+03  0.46331570655E+03  0.10100000352E+00 0.  1.
       -3    1    3    3    0  502  0.72264802571E+01 -0.18767995316E+03 -0.39451398267E+03  0.43694081928E+03  0.10100000352E+00 0. -1.
</event>
<event>
 5   0  0.9223454E-04  0.9005973E+03  0.7818609E-02  0.9424835E-01
        1   -1    0    0  501    0  0.00000000000E+00  0.00000000000E+00  0.12423800193E+04  0.12423800193E+04  0.50400001928E-02 0. -1.
       -1   -1    0    0    0  501  0.00000000000E+00  0.00000000000E+00 -0.16321003974E+03  0.16321003982E+03  0.50400001928E-02 0.  1.
    10030    2    1    2    0    0  0.00000000000E+00  0.00000000000E+00  0.10791699795E+04  0.14055900591E+04  0.90059734039E+03 0.  0.
        1    1    3    3  502    0  0.25140123149E+01  0.14728107468E+03  0.12037137619E+04  0.12126932241E+04  0.50400001928E-02 0. -1.
       -1    1    3    3    0  502 -0.25140123149E+01 -0.14728107468E+03 -0.12454378233E+03  0.19289683501E+03  0.50400001928E-02 0.  1.
</event>
<event>
 5   0  0.9223454E-04  0.9072212E+03  0.7818609E-02  0.9416599E-01
       -1   -1    0    0    0  501  0.00000000000E+00  0.00000000000E+00  0.12244515879E+04  0.12244515879E+04  0.50400001928E-02 0.  1.
        1   -1    0    0  501    0  0.00000000000E+00  0.00000000000E+00 -0.16804467643E+03  0.16804467651E+03  0.50400001928E-02 0. -1.
    10030    2    1    2    0    0  0.00000000000E+00  0.00000000000E+00  0.10564069115E+04  0.13924962644E+04  0.90722118793E+03 0.  0.
        1    1    3    3  502    0  0.22140371542E+03 -0.19574511900E+03 -0.56423075409E-02  0.29552623720E+03  0.50400001928E-02 0. -1.
       -1    1    3    3    0  502 -0.22140371542E+03  0.19574511900E+03  0.10564125538E+04  0.10969700272E+04  0.50400001928E-02 0.  1.
</event>
<event>
 5   0  0.1641516E-03  0.8970746E+03  0.7818609E-02  0.9429246E-01
        2   -1    0    0  501    0  0.00000000000E+00  0.00000000000E+00  0.82116250803E+03  0.82116250804E+03  0.25500000920E-02 0. -1.
       -2   -1    0    0    0  501  0.00000000000E+00  0.00000000000E+00 -0.24500110681E+03  0.24500110682E+03  0.25500000920E-02 0.  1.
    10030    2    1    2    0    0  0.00000000000E+00  0.00000000000E+00  0.57616140123E+03  0.10661636149E+04  0.89707463089E+03 0.  0.
        1    1    3    3  502    0 -0.26630461415E+01 -0.15131828383E+03 -0.21373969719E+03  0.26189496562E+03  0.50400001928E-02 0.  1.
       -1    1    3    3    0  502  0.26630461415E+01  0.15131828383E+03  0.78990109842E+03  0.80426864924E+03  0.50400001928E-02 0. -1.
</event>
<event>
 5   0  0.1007561E-03  0.9000908E+03  0.7818609E-02  0.9425468E-01
        1   -1    0    0  501    0  0.00000000000E+00  0.00000000000E+00  0.73483240101E+03  0.73483240102E+03  0.50400001928E-02 0. -1.
       -1   -1    0    0    0  501  0.00000000000E+00  0.00000000000E+00 -0.27562862784E+03  0.27562862789E+03  0.50400001928E-02 0.  1.
    10030    2    1    2    0    0  0.00000000000E+00  0.00000000000E+00  0.45920377316E+03  0.10104610289E+04  0.90009076524E+03 0.  0.
        2    1    3    3  502    0 -0.41502572862E+03 -0.82517761606E+02  0.57561103300E+02  0.42704662160E+03  0.25500000920E-02 0.  1.
       -2    1    3    3    0  502  0.41502572862E+03  0.82517761606E+02  0.40164266987E+03  0.58341440731E+03  0.25500000920E-02 0. -1.
</event>
<event>
 5   0  0.9223454E-04  0.9001926E+03  0.7818609E-02  0.9425341E-01
        1   -1    0    0  501    0  0.00000000000E+00  0.00000000000E+00  0.96392194837E+03  0.96392194838E+03  0.50400001928E-02 0.  1.
       -1   -1    0    0    0  501  0.00000000000E+00  0.00000000000E+00 -0.21016918559E+03  0.21016918565E+03  0.50400001928E-02 0. -1.
    10030    2    1    2    0    0  0.00000000000E+00  0.00000000000E+00  0.75375276278E+03  0.11740911340E+04  0.90019262585E+03 0.  0.
        1    1    3    3  502    0  0.15772047142E+03 -0.21581061492E+03 -0.95435118286E+02  0.28382711366E+03  0.50400001928E-02 0. -1.
       -1    1    3    3    0  502 -0.15772047142E+03  0.21581061492E+03  0.84918788106E+03  0.89026402038E+03  0.50400001928E-02 0.  1.
</event>
<event>
 5   0  0.1704416E-03  0.8992262E+03  0.7818609E-02  0.9426549E-01
       -2   -1    0    0    0  501  0.00000000000E+00  0.00000000000E+00  0.15279754896E+04  0.15279754896E+04  0.25500000920E-02 0. -1.
        2   -1    0    0  501    0  0.00000000000E+00  0.00000000000E+00 -0.13230050202E+03  0.13230050205E+03  0.25500000920E-02 0.  1.
    10030    2    1    2    0    0  0.00000000000E+00  0.00000000000E+00  0.13956749875E+04  0.16602759916E+04  0.89922616592E+03 0.  0.
        3    1    3    3  502    0 -0.35517778824E+03 -0.23369314426E+03  0.96785886460E+03  0.10571256022E+04  0.10100000352E+00 0.  1.
       -3    1    3    3    0  502  0.35517778824E+03  0.23369314426E+03  0.42781612293E+03  0.60315038935E+03  0.10100000352E+00 0. -1.
</event>
<event>
 5   0  0.9981885E-04  0.8928532E+03  0.7818609E-02  0.9434560E-01
        1   -1    0    0  501    0  0.00000000000E+00  0.00000000000E+00  0.38104558127E+03  0.38104558130E+03  0.50400001928E-02 0. -1.
       -1   -1    0    0    0  501  0.00000000000E+00  0.00000000000E+00 -0.52302590715E+03  0.52302590718E+03  0.50400001928E-02 0.  1.
    10030    2    1    2    0    0  0.00000000000E+00  0.00000000000E+00 -0.14198032588E+03  0.90407148848E+03  0.89285320370E+03 0.  0.
        4    1    3    3  502    0 -0.87238471686E+02 -0.35926570428E+03  0.18237910137E+03  0.41224525071E+03  0.12699999809E+01 0. -1.
       -4    1    3    3    0  502  0.87238471686E+02  0.35926570428E+03 -0.32435942725E+03  0.49182623777E+03  0.12699999809E+01 0.  1.
</event>
<event>
 5   0  0.9981885E-04  0.9036243E+03  0.7818609E-02  0.9421062E-01
        1   -1    0    0  501    0  0.00000000000E+00  0.00000000000E+00  0.75668775372E+03  0.75668775374E+03  0.50400001928E-02 0.  1.
       -1   -1    0    0    0  501  0.00000000000E+00  0.00000000000E+00 -0.26977336621E+03  0.26977336626E+03  0.50400001928E-02 0. -1.
    10030    2    1    2    0    0  0.00000000000E+00  0.00000000000E+00  0.48691438751E+03  0.10264611200E+04  0.90362426379E+03 0.  0.
        4    1    3    3  502    0 -0.20005242654E+03  0.40360059468E+03  0.20381025304E+03  0.49442354873E+03  0.12699999809E+01 0.  1.
       -4    1    3    3    0  502  0.20005242654E+03 -0.40360059468E+03  0.28310413447E+03  0.53203757127E+03  0.12699999809E+01 0. -1.
</event>
<event>
 5   0  0.9981885E-04  0.9006679E+03  0.7818609E-02  0.9424747E-01
        1   -1    0    0  501    0  0.00000000000E+00  0.00000000000E+00  0.22869434637E+03  0.22869434642E+03  0.50400001928E-02 0.  1.
       -1   -1    0    0    0  501  0.00000000000E+00  0.00000000000E+00 -0.88677600360E+03  0.88677600361E+03  0.50400001928E-02 0. -1.
    10030    2    1    2    0    0  0.00000000000E+00  0.00000000000E+00 -0.65808165723E+03  0.11154703500E+04  0.90066788231E+03 0.  0.
        4    1    3    3  502    0 -0.18720276452E+02 -0.34821095008E+03 -0.68195191529E+03  0.76593821042E+03  0.12699999809E+01 0. -1.
       -4    1    3    3    0  502  0.18720276452E+02  0.34821095008E+03  0.23870258065E+02  0.34953213962E+03  0.12699999809E+01 0.  1.
</event>
<event>
 5   0  0.1536020E-03  0.8998858E+03  0.7818609E-02  0.9425724E-01
        2   -1    0    0  501    0  0.00000000000E+00  0.00000000000E+00  0.50279955408E+03  0.50279955408E+03  0.25500000920E-02 0.  1.
       -2   -1    0    0    0  501  0.00000000000E+00  0.00000000000E+00 -0.40264278349E+03  0.40264278350E+03  0.25500000920E-02 0. -1.
    10030    2    1    2    0    0  0.00000000000E+00  0.00000000000E+00  0.10015677058E+03  0.90544233758E+03  0.89988579720E+03 0.  0.
        2    1    3    3  502    0  0.84227710023E+02  0.42138232934E+03 -0.84129019234E+02  0.43787562903E+03  0.25500000920E-02 0. -1.
       -2    1    3    3    0  502 -0.84227710023E+02 -0.42138232934E+03  0.18428578982E+03  0.46756670856E+03  0.25500000920E-02 0.  1.
</event>
<event>
 5   0  0.1630202E-03  0.9011039E+03  0.7818609E-02  0.9424203E-01
        2   -1    0    0  501    0  0.00000000000E+00  0.00000000000E+00  0.10405134637E+04  0.10405134637E+04  0.25500000920E-02 0. -1.
       -2   -1    0    0    0  501  0.00000000000E+00  0.00000000000E+00 -0.19509315476E+03  0.19509315478E+03  0.25500000920E-02 0.  1.
    10030    2    1    2    0    0  0.00000000000E+00  0.00000000000E+00  0.84542030890E+03  0.12356066184E+04  0.90110388793E+03 0.  0.
        4    1    3    3  502    0 -0.20678356145E+03  0.21919837401E+02  0.97077670862E+03  0.99279854525E+03  0.12699999809E+01 0. -1.
       -4    1    3    3    0  502  0.20678356145E+03 -0.21919837401E+02 -0.12535639972E+03  0.24280807319E+03  0.12699999809E+01 0.  1.
</event>
<event>
 5   0  0.1704416E-03  0.9007306E+03  0.7818609E-02  0.9424669E-01
       -2   -1    0    0    0  501  0.00000000000E+00  0.00000000000E+00  0.10738838109E+03  0.10738838112E+03  0.25500000920E-02 0.  1.
        2   -1    0    0  501    0  0.00000000000E+00  0.00000000000E+00 -0.18887417721E+04  0.18887417721E+04  0.25500000920E-02 0. -1.
    10030    2    1    2    0    0  0.00000000000E+00  0.00000000000E+00 -0.17813533910E+04  0.19961301532E+04  0.90073063951E+03 0.  0.
        3    1    3    3  502    0 -0.32563969492E+03  0.30976941539E+03 -0.82680736787E+03  0.94106786970E+03  0.10100000352E+00 0. -1.
       -3    1    3    3    0  502  0.32563969492E+03 -0.30976941539E+03 -0.95454602314E+03  0.10550622835E+04  0.10100000352E+00 0.  1.
</event>
<event>
 5   0  0.9321543E-04  0.8991684E+03  0.7818609E-02  0.9426622E-01
        1   -1    0    0  501    0  0.00000000000E+00  0.00000000000E+00  0.24040561442E+03  0.24040561447E+03  0.50400001928E-02 0.  1.
       -1   -1    0    0    0  501  0.00000000000E+00  0.00000000000E+00 -0.84077047999E+03  0.84077048001E+03  0.50400001928E-02 0. -1.
    10030    2    1    2    0    0  0.00000000000E+00  0.00000000000E+00 -0.60036486557E+03  0.10811760945E+04  0.89916837992E+03 0.  0.
        3    1    3    3  502    0 -0.32163133972E+03 -0.11867971953E+03 -0.64990693404E+03  0.73478611012E+03  0.10100000352E+00 0. -1.
       -3    1    3    3    0  502  0.32163133972E+03  0.11867971953E+03  0.49542068463E+02  0.34638998436E+03  0.10100000352E+00 0.  1.
</event>
<event>
 5   0  0.1635686E-03  0.8980289E+03  0.7818609E-02  0.9428049E-01
       -2   -1    0    0    0  501  0.00000000000E+00  0.00000000000E+00  0.16908873270E+03  0.16908873272E+03  0.25500000920E-02 0.  1.
        2   -1    0    0  501    0  0.00000000000E+00  0.00000000000E+00 -0.11923560074E+04  0.11923560074E+04  0.25500000920E-02 0. -1.
    10030    2    1    2    0    0  0.00000000000E+00  0.00000000000E+00 -0.10232672747E+04  0.13614447401E+04  0.89802887756E+03 0.  0.
        5    1    3    3  502    0  0.44642076044E+03 -0.47567906962E+02 -0.50232819615E+03  0.67372836349E+03  0.46999998093E+01 0. -1.
       -5    1    3    3    0  502 -0.44642076044E+03  0.47567906962E+02 -0.52093907853E+03  0.68771637661E+03  0.46999998093E+01 0.  1.
</event>
<event>
 5   0  0.6375625E-04  0.8999782E+03  0.7818609E-02  0.9425609E-01
       -3   -1    0    0    0  501  0.00000000000E+00  0.00000000000E+00  0.33190552601E+03  0.33190554138E+03  0.10100000352E+00 0.  1.
        3   -1    0    0  501    0  0.00000000000E+00  0.00000000000E+00 -0.61008384425E+03  0.61008385261E+03  0.10100000352E+00 0. -1.
    10030    2    1    2    0    0  0.00000000000E+00  0.00000000000E+00 -0.27817831824E+03  0.94198939399E+03  0.89997824509E+03 0.  0.
        3    1    3    3  502    0  0.61789196168E+02  0.29768149184E+03  0.20814693211E+03  0.36845261689E+03  0.10100000352E+00 0.  1.
       -3    1    3    3    0  502 -0.61789196168E+02 -0.29768149184E+03 -0.48632525035E+03  0.57353677709E+03  0.10100000352E+00 0. -1.
</event>
<event>
 5   0  0.1536020E-03  0.9004776E+03  0.7818609E-02  0.9424985E-01
        2   -1    0    0  501    0  0.00000000000E+00  0.00000000000E+00  0.10379042562E+04  0.10379042562E+04  0.25500000920E-02 0.  1.
       -2   -1    0    0    0  501  0.00000000000E+00  0.00000000000E+00 -0.19531184276E+03  0.19531184277E+03  0.25500000920E-02 0. -1.
    10030    2    1    2    0    0  0.00000000000E+00  0.00000000000E+00  0.84259241342E+03  0.12332160990E+04  0.90047763524E+03 0.  0.
        2    1    3    3  502    0 -0.11731636698E+03 -0.43055471909E+03  0.33941698415E+03  0.56066423573E+03  0.25500000920E-02 0.  1.
       -2    1    3    3    0  502  0.11731636698E+03  0.43055471909E+03  0.50317542927E+03  0.67255186322E+03  0.25500000920E-02 0. -1.
</event>
<event>
 5   0  0.9321543E-04  0.8951352E+03  0.7818609E-02  0.9431683E-01
        1   -1    0    0  501    0  0.00000000000E+00  0.00000000000E+00  0.68060781455E+03  0.68060781457E+03  0.50400001928E-02 0.  1.
       -1   -1    0    0    0  501  0.00000000000E+00  0.00000000000E+00 -0.29432035986E+03  0.29432035990E+03  0.50400001928E-02 0. -1.
    10030    2    1    2    0    0  0.00000000000E+00  0.00000000000E+00  0.38628745469E+03  0.97492817447E+03  0.89513515612E+03 0.  0.
        3    1    3    3  502    0  0.77633478988E+02 -0.21857299652E+03 -0.22375057818E+03  0.32228162111E+03  0.10100000352E+00 0. -1.
       -3    1    3    3    0  502 -0.77633478988E+02  0.21857299652E+03  0.61003803287E+03  0.65264655336E+03  0.10100000352E+00 0.  1.
</event>
<event>
 5   0  0.1635686E-03  0.9014758E+03  0.7818609E-02  0.9423738E-01
       -2   -1    0    0    0  501  0.00000000000E+00  0.00000000000E+00  0.25690119275E+03  0.25690119276E+03  0.25500000920E-02 0.  1.
        2   -1    0    0  501    0  0.00000000000E+00  0.00000000000E+00 -0.79082806644E+03  0.79082806644E+03  0.25500000920E-02 0. -1.
    10030    2    1    2    0    0  0.00000000000E+00  0.00000000000E+00 -0.53392687369E+03  0.10477292592E+04  0.90147584224E+03 0.  0.
        5    1    3    3  502    0 -0.17740144764E+03 -0.31226021116E+03  0.49551420296E+02  0.36256743697E+03  0.46999998093E+01 0.  1.
       -5    1    3    3    0  502  0.17740144764E+03  0.31226021116E+03 -0.58347829398E+03  0.68516182223E+03  0.46999998093E+01 0. -1.
</event>
<event>
 5   0  0.9697941E-04  0.8997150E+03  0.7818609E-02  0.9425938E-01
        1   -1    0    0  501    0  0.00000000000E+00  0.00000000000E+00  0.18573005425E+03  0.18573005432E+03  0.50400001928E-02 0. -1.
       -1   -1    0    0    0  501  0.00000000000E+00  0.00000000000E+00 -0.10896016985E+04  0.10896016986E+04  0.50400001928E-02 0.  1.
    10030    2    1    2    0    0  0.00000000000E+00  0.00000000000E+00 -0.90387164430E+03  0.12753317529E+04  0.89971502739E+03 0.  0.
        5    1    3    3  502    0 -0.33792839421E+03  0.11076097503E+03 -0.61455355424E+02  0.36091888827E+03  0.46999998093E+01 0. -1.
       -5    1    3    3    0  502  0.33792839421E+03 -0.11076097503E+03 -0.84241628887E+03  0.91441286460E+03  0.46999998093E+01 0.  1.
</event>
<event>
 5   0  0.1635686E-03  0.9011411E+03  0.7818609E-02  0.9424156E-01
        2   -1    0    0  501    0  0.00000000000E+00  0.00000000000E+00  0.42316549754E+03  0.42316549755E+03  0.25500000920E-02 0.  1.
       -2   -1    0    0    0  501  0.00000000000E+00  0.00000000000E+00 -0.47975043325E+03  0.47975043326E+03  0.25500000920E-02 0. -1.
    10030    2    1    2    0    0  0.00000000000E+00  0.00000000000E+00 -0.56584935709E+02  0.90291593080E+03  0.90114112277E+03 0.  0.
        5    1    3    3  502    0 -0.25152978010E+03 -0.21437528646E+03  0.27852582389E+03  0.43222993683E+03  0.46999998093E+01 0.  1.
       -5    1    3    3    0  502  0.25152978010E+03  0.21437528646E+03 -0.33511075960E+03  0.47068599397E+03  0.46999998093E+01 0. -1.
</event>
<event>
 5   0  0.1641516E-03  0.8996239E+03  0.7818609E-02  0.9426052E-01
       -2   -1    0    0    0  501  0.00000000000E+00  0.00000000000E+00  0.10098719074E+03  0.10098719078E+03  0.25500000920E-02 0. -1.
        2   -1    0    0  501    0  0.00000000000E+00  0.00000000000E+00 -0.20035294138E+04  0.20035294138E+04  0.25500000920E-02 0.  1.
    10030    2    1    2    0    0  0.00000000000E+00  0.00000000000E+00 -0.19025422231E+04  0.21045166046E+04  0.89962393723E+03 0.  0.
        1    1    3    3  502    0  0.35810180662E+03  0.42867383839E+02 -0.15800952222E+04  0.16207329909E+04  0.50400001928E-02 0.  1.
       -1    1    3    3    0  502 -0.35810180662E+03 -0.42867383839E+02 -0.32244700089E+03  0.48378361373E+03  0.50400001928E-02 0. -1.
</event>
<event>
 5   0  0.1630202E-03  0.8992064E+03  0.7818609E-02  0.9426574E-01
       -2   -1    0    0    0  501  0.00000000000E+00  0.00000000000E+00  0.59085335087E+03  0.59085335087E+03  0.25500000920E-02 0.  1.
        2   -1    0    0  501    0  0.00000000000E+00  0.00000000000E+00 -0.34212050045E+03  0.34212050046E+03  0.25500000920E-02 0. -1.
    10030    2    1    2    0    0  0.00000000000E+00  0.00000000000E+00  0.24873285042E+03  0.93297385133E+03  0.89920641478E+03 0.  0.
        4    1    3    3  502    0 -0.23756766766E+03  0.18604520707E+03 -0.22145188143E+03  0.37429101576E+03  0.12699999809E+01 0. -1.
       -4    1    3    3    0  502  0.23756766766E+03 -0.18604520707E+03  0.47018473185E+03  0.55868283557E+03  0.12699999809E+01 0.  1.
</event>
<event>
 5   0  0.9321543E-04  0.8993413E+03  0.7818609E-02  0.9426405E-01
       -1   -1    0    0    0  501  0.00000000000E+00  0.00000000000E+00  0.29086741833E+03  0.29086741837E+03  0.50400001928E-02 0.  1.
        1   -1    0    0  501    0  0.00000000000E+00  0.00000000000E+00 -0.69517473992E+03  0.69517473993E+03  0.50400001928E-02 0. -1.
    10030    2    1    2    0    0  0.00000000000E+00  0.00000000000E+00 -0.40430732159E+03  0.98604215831E+03  0.89934127431E+03 0.  0.
        3    1    3    3  502    0 -0.32713257685E+03  0.15826040749E+03 -0.49252835712E+03  0.61208355000E+03  0.10100000352E+00 0. -1.
       -3    1    3    3    0  502  0.32713257685E+03 -0.15826040749E+03  0.88221035538E+02  0.37395860830E+03  0.10100000352E+00 0.  1.
</event>
<event>
 5   0  0.9981885E-04  0.9007606E+03  0.7818609E-02  0.9424631E-01
        1   -1    0    0  501    0  0.00000000000E+00  0.00000000000E+00  0.47918569560E+03  0.47918569562E+03  0.50400001928E-02 0. -1.
       -1   -1    0    0    0  501  0.00000000000E+00  0.00000000000E+00 -0.42330647947E+03  0.42330647950E+03  0.50400001928E-02 0.  1.
    10030    2    1    2    0    0  0.00000000000E+00  0.00000000000E+00  0.55879216129E+02  0.90249217512E+03  0.90076058937E+03 0.  0.
        4    1    3    3  502    0 -0.16568748846E+03  0.14330740183E+03 -0.36632854211E+03  0.42683435771E+03  0.12699999809E+01 0.  1.
       -4    1    3    3    0  502  0.16568748846E+03 -0.14330740183E+03  0.42220775824E+03  0.47565781742E+03  0.12699999809E+01 0. -1.
</event>
<event>
 5   0  0.1641516E-03  0.8992628E+03  0.7818609E-02  0.9426503E-01
        2   -1    0    0  501    0  0.00000000000E+00  0.00000000000E+00  0.24486813014E+04  0.24486813014E+04  0.25500000920E-02 0.  1.
       -2   -1    0    0    0  501  0.00000000000E+00  0.00000000000E+00 -0.82562152182E+02  0.82562152222E+02  0.25500000920E-02 0. -1.
    10030    2    1    2    0    0  0.00000000000E+00  0.00000000000E+00  0.23661191492E+04  0.25312434536E+04  0.89926280543E+03 0.  0.
        1    1    3    3  502    0  0.47973118567E+02  0.44699425558E+03  0.12054214876E+04  0.12865248724E+04  0.50400001928E-02 0.  1.
       -1    1    3    3    0  502 -0.47973118567E+02 -0.44699425558E+03  0.11606976617E+04  0.12447185812E+04  0.50400001928E-02 0. -1.
</event>
<event>
 5   0  0.9223454E-04  0.9000959E+03  0.7818609E-02  0.9425462E-01
       -1   -1    0    0    0  501  0.00000000000E+00  0.00000000000E+00  0.29879956247E+03  0.29879956251E+03  0.50400001928E-02 0.  1.
        1   -1    0    0  501    0  0.00000000000E+00  0.00000000000E+00 -0.67785628495E+03  0.67785628497E+03  0.50400001928E-02 0. -1.
    10030    2    1    2    0    0  0.00000000000E+00  0.00000000000E+00 -0.37905672248E+03  0.97665584748E+03  0.90009590909E+03 0.  0.
        1    1    3    3  502    0 -0.12444186893E+03  0.26103362030E+03 -0.56370621856E+03  0.63355270541E+03  0.50400001928E-02 0. -1.
       -1    1    3    3    0  502  0.12444186893E+03 -0.26103362030E+03  0.18464949608E+03  0.34310314207E+03  0.50400001928E-02 0.  1.
</event>
<event>
 5   0  0.1630202E-03  0.8999226E+03  0.7818609E-02  0.9425678E-01
        2   -1    0    0  501    0  0.00000000000E+00  0.00000000000E+00  0.99032546037E+03  0.99032546037E+03  0.25500000920E-02 0.  1.
       -2   -1    0    0    0  501  0.00000000000E+00  0.00000000000E+00 -0.20444308313E+03  0.20444308314E+03  0.25500000920E-02 0. -1.
    10030    2    1    2    0    0  0.00000000000E+00  0.00000000000E+00  0.78588237724E+03  0.11947685435E+04  0.89992264208E+03 0.  0.
        4    1    3    3  502    0 -0.35900108547E+02 -0.86486401372E+01 -0.20242558513E+03  0.20577013191E+03  0.12699999809E+01 0. -1.
       -4    1    3    3    0  502  0.35900108547E+02  0.86486401372E+01  0.98830796237E+03  0.98899841161E+03  0.12699999809E+01 0.  1.
</event>
<event>
 5   0  0.1635686E-03  0.9009985E+03  0.7818609E-02  0.9424334E-01
       -2   -1    0    0    0  501  0.00000000000E+00  0.00000000000E+00  0.88777495161E+03  0.88777495161E+03  0.25500000920E-02 0.  1.
        2   -1    0    0  501    0  0.00000000000E+00  0.00000000000E+00 -0.22860472875E+03  0.22860472876E+03  0.25500000920E-02 0. -1.
    10030    2    1    2    0    0  0.00000000000E+00  0.00000000000E+00  0.65917022286E+03  0.11163796804E+04  0.90099845063E+03 0.  0.
        5    1    3    3  502    0  0.18524430502E+03  0.39592278524E+03  0.19466453903E+03  0.47852552406E+03  0.46999998093E+01 0. -1.
       -5    1    3    3    0  502 -0.18524430502E+03 -0.39592278524E+03  0.46450568384E+03  0.63785415632E+03  0.46999998093E+01 0.  1.
</event>
<event>
 5   0  0.1635686E-03  0.9002881E+03  0.7818609E-02  0.9425221E-01
       -2   -1    0    0    0  501  0.00000000000E+00  0.00000000000E+00  0.90032799589E+03  0.90032799589E+03  0.25500000920E-02 0.  1.
        2   -1    0    0  501    0  0.00000000000E+00  0.00000000000E+00 -0.22506204085E+03  0.22506204087E+03  0.25500000920E-02 0. -1.
    10030    2    1    2    0    0  0.00000000000E+00  0.00000000000E+00  0.67526595503E+03  0.11253900368E+04  0.90028807879E+03 0.  0.
        5    1    3    3  502    0  0.44793830238E+03 -0.26746388510E+02  0.29355314356E+03  0.53624586724E+03  0.46999998093E+01 0. -1.
       -5    1    3    3    0  502 -0.44793830238E+03  0.26746388510E+02  0.38171281148E+03  0.58914416952E+03  0.46999998093E+01 0.  1.
</event>
<event>
 5   0  0.9981885E-04  0.8998001E+03  0.7818609E-02  0.9425831E-01
       -1   -1    0    0    0  501  0.00000000000E+00  0.00000000000E+00  0.32545552983E+03  0.32545552987E+03  0.50400001928E-02 0. -1.
        1   -1    0    0  501    0  0.00000000000E+00  0.00000000000E+00 -0.62192845146E+03  0.62192845148E+03  0.50400001928E-02 0.  1.
    10030    2    1    2    0    0  0.00000000000E+00  0.00000000000E+00 -0.29647292163E+03  0.94738398135E+03  0.89980009717E+03 0.  0.
        4    1    3    3  502    0  0.18960564776E+03  0.24688958640E+03  0.19375383883E+03  0.36667005944E+03  0.12699999809E+01 0. -1.
       -4    1    3    3    0  502 -0.18960564776E+03 -0.24688958640E+03 -0.49022676046E+03  0.58071392191E+03  0.12699999809E+01 0.  1.
</event>
<event>
 5   0  0.9981885E-04  0.9005488E+03  0.7818609E-02  0.9424896E-01
       -1   -1    0    0    0  501  0.00000000000E+00  0.00000000000E+00  0.18944471512E+03  0.18944471519E+03  0.50400001928E-02 0.  1.
        1   -1    0    0  501    0  0.00000000000E+00  0.00000000000E+00 -0.10702173862E+04  0.10702173862E+04  0.50400001928E-02 0. -1.
    10030    2    1    2    0    0  0.00000000000E+00  0.00000000000E+00 -0.88077267109E+03  0.12596621014E+04  0.90054878357E+03 0.  0.
        4    1    3    3  502    0 -0.25220859181E+03 -0.12310020017E+03 -0.93291006283E+03  0.97421026031E+03  0.12699999809E+01 0. -1.
       -4    1    3    3    0  502  0.25220859181E+03  0.12310020017E+03  0.52137391747E+02  0.28545184109E+03  0.12699999809E+01 0.  1.
</event>
<event>
 5   0  0.6375625E-04  0.8987871E+03  0.7818609E-02  0.9427099E-01
        3   -1    0    0  501    0  0.00000000000E+00  0.00000000000E+00  0.39913687044E+03  0.39913688322E+03  0.10100000352E+00 0. -1.
       -3   -1    0    0    0  501  0.00000000000E+00  0.00000000000E+00 -0.50597822715E+03  0.50597823723E+03  0.10100000352E+00 0.  1.
    10030    2    1    2    0    0  0.00000000000E+00  0.00000000000E+00 -0.10684135670E+03  0.90511512045E+03  0.89878713039E+03 0.  0.
        1    1    3    3  502    0  0.19306286556E+03  0.20983306803E+02  0.35469922460E+03  0.40438237991E+03  0.50400001928E-02 0. -1.
       -1    1    3    3    0  502 -0.19306286556E+03 -0.20983306803E+02 -0.46154058131E+03  0.50073274053E+03  0.50400001928E-02 0.  1.
</event>
<event>
 5   0  0.9223454E-04  0.9006286E+03  0.7818609E-02  0.9424796E-01
        1   -1    0    0  501    0  0.00000000000E+00  0.00000000000E+00  0.14855898191E+04  0.14855898191E+04  0.50400001928E-02 0. -1.
       -1   -1    0    0    0  501  0.00000000000E+00  0.00000000000E+00 -0.13649995809E+03  0.13649995818E+03  0.50400001928E-02 0.  1.
    10030    2    1    2    0    0  0.00000000000E+00  0.00000000000E+00  0.13490898610E+04  0.16220897772E+04  0.90062855412E+03 0.  0.
        1    1    3    3  502    0 -0.29479179830E+03 -0.31562638930E+03  0.44487764206E+03  0.62003091730E+03  0.50400001928E-02 0. -1.
       -1    1    3    3    0  502  0.29479179830E+03  0.31562638930E+03  0.90421221890E+03  0.10020588599E+04  0.50400001928E-02 0.  1.
</event>
<event>
 5   0  0.1635686E-03  0.8982768E+03  0.7818609E-02  0.9427738E-01
        2   -1    0    0  501    0  0.00000000000E+00  0.00000000000E+00  0.74119868007E+03  0.74119868007E+03  0.25500000920E-02 0.  1.
       -2   -1    0    0    0  501  0.00000000000E+00  0.00000000000E+00 -0.27216087439E+03  0.27216087440E+03  0.25500000920E-02 0. -1.
    10030    2    1    2    0    0  0.00000000000E+00  0.00000000000E+00  0.46903780568E+03  0.10133595545E+04  0.89827675217E+03 0.  0.
        5    1    3    3  502    0  0.21259345882E+03  0.22891595982E+03  0.59850815966E+03  0.67515376217E+03  0.46999998093E+01 0.  1.
       -5    1    3    3    0  502 -0.21259345882E+03 -0.22891595982E+03 -0.12947035397E+03  0.33820579231E+03  0.46999998093E+01 0. -1.
</event>
<event>
 5   0  0.1630202E-03  0.9001092E+03  0.7818609E-02  0.9425445E-01
        2   -1    0    0  501    0  0.00000000000E+00  0.00000000000E+00  0.90503645648E+03  0.90503645649E+03  0.25500000920E-02 0.  1.
       -2   -1    0    0    0  501  0.00000000000E+00  0.00000000000E+00 -0.22380220198E+03  0.22380220199E+03  0.25500000920E-02 0. -1.
    10030    2    1    2    0    0  0.00000000000E+00  0.00000000000E+00  0.68123425451E+03  0.11288386585E+04  0.90010921968E+03 0.  0.
        4    1    3    3  502    0 -0.23076151064E+02 -0.88096621476E+02 -0.21212385543E+03  0.23084987851E+03  0.12699999809E+01 0. -1.
       -4    1    3    3    0  502  0.23076151064E+02  0.88096621476E+02  0.89335810994E+03  0.89798877997E+03  0.12699999809E+01 0.  1.
</event>
<event>
 5   0  0.1641516E-03  0.8999621E+03  0.7818609E-02  0.9425629E-01
        2   -1    0    0  501    0  0.00000000000E+00  0.00000000000E+00  0.57660883868E+03  0.57660883869E+03  0.25500000920E-02 0. -1.
       -2   -1    0    0    0  501  0.00000000000E+00  0.00000000000E+00 -0.35116173482E+03  0.35116173483E+03  0.25500000920E-02 0.  1.
    10030    2    1    2    0    0  0.00000000000E+00  0.00000000000E+00  0.22544710386E+03  0.92777057351E+03  0.89996213278E+03 0.  0.
        1    1    3    3  502    0 -0.17970832972E+03 -0.39154768842E+03  0.24665436417E+03  0.49643030877E+03  0.50400001928E-02 0. -1.
       -1    1    3    3    0  502  0.17970832972E+03  0.39154768842E+03 -0.21207260304E+02  0.43134026475E+03  0.50400001928E-02 0.  1.
</event>
<event>
 5   0  0.1641516E-03  0.8955537E+03  0.7818609E-02  0.9431157E-01
       -2   -1    0    0    0  501  0.00000000000E+00  0.00000000000E+00  0.35762861754E+03  0.35762861755E+03  0.25500000920E-02 0. -1.
        2   -1    0    0  501    0  0.00000000000E+00  0.00000000000E+00 -0.56064891026E+03  0.56064891027E+03  0.25500000920E-02 0.  1.
    10030    2    1    2    0    0  0.00000000000E+00  0.00000000000E+00 -0.20302029272E+03  0.91827752782E+03  0.89555367167E+03 0.  0.
        1    1    3    3  502    0 -0.22463470356E+03 -0.29927305013E+03 -0.35367501937E+03  0.51488943272E+03  0.50400001928E-02 0.  1.
       -1    1    3    3    0  502  0.22463470356E+03  0.29927305013E+03  0.15065472665E+03  0.40338809510E+03  0.50400001928E-02 0. -1.
</event>
<event>
 5   0  0.1007561E-03  0.9004971E+03  0.7818609E-02  0.9424960E-01
        1   -1    0    0  501    0  0.00000000000E+00  0.00000000000E+00  0.60455124466E+03  0.60455124469E+03  0.50400001928E-02 0.  1.
       -1   -1    0    0    0  501  0.00000000000E+00  0.00000000000E+00 -0.33532933019E+03  0.33532933023E+03  0.50400001928E-02 0. -1.
    10030    2    1    2    0    0  0.00000000000E+00  0.00000000000E+00  0.26922191447E+03  0.93988057492E+03  0.90049711597E+03 0.  0.
        2    1    3    3  502    0 -0.25307440933E+03 -0.23587948610E+03 -0.16615503125E+03  0.38378807048E+03  0.25500000920E-02 0. -1.
       -2    1    3    3    0  502  0.25307440933E+03  0.23587948610E+03  0.43537694572E+03  0.55609250444E+03  0.25500000920E-02 0.  1.
</event>
<event>
 5   0  0.9697941E-04  0.8997196E+03  0.7818609E-02  0.9425932E-01
       -1   -1    0    0    0  501  0.00000000000E+00  0.00000000000E+00  0.42501270596E+03  0.42501270599E+03  0.50400001928E-02 0.  1.
        1   -1    0    0  501    0  0.00000000000E+00  0.00000000000E+00 -0.47615947057E+03  0.47615947060E+03  0.50400001928E-02 0. -1.
    10030    2    1    2    0    0  0.00000000000E+00  0.00000000000E+00 -0.51146764615E+02  0.90117217659E+03  0.89971956760E+03 0.  0.
        5    1    3    3  502    0  0.16944694187E+03  0.31542390803E+03  0.24716613414E+03  0.43510653377E+03  0.46999998093E+01 0.  1.
       -5    1    3    3    0  502 -0.16944694187E+03 -0.31542390803E+03 -0.29831289875E+03  0.46606564283E+03  0.46999998093E+01 0. -1.
</event>
<event>
 5   0  0.1635686E-03  0.9010283E+03  0.7818609E-02  0.9424297E-01
        2   -1    0    0  501    0  0.00000000000E+00  0.00000000000E+00  0.25903624061E+03  0.25903624062E+03  0.25500000920E-02 0.  1.
       -2   -1    0    0    0  501  0.00000000000E+00  0.00000000000E+00 -0.78353122341E+03  0.78353122341E+03  0.25500000920E-02 0. -1.
    10030    2    1    2    0    0  0.00000000000E+00  0.00000000000E+00 -0.52449498280E+03  0.10425674640E+04  0.90102826264E+03 0.  0.
        5    1    3    3  502    0 -0.21708769738E+02 -0.18791410821E+01 -0.78289273169E+03  0.78321001091E+03  0.46999998093E+01 0. -1.
       -5    1    3    3    0  502  0.21708769738E+02  0.18791410821E+01  0.25839774890E+03  0.25935745312E+03  0.46999998093E+01 0.  1.
</event>
<event>
 5   0  0.9981885E-04  0.9002929E+03  0.7818609E-02  0.9425215E-01
        1   -1    0    0  501    0  0.00000000000E+00  0.00000000000E+00  0.43222288386E+03  0.43222288389E+03  0.50400001928E-02 0. -1.
       -1   -1    0    0    0  501  0.00000000000E+00  0.00000000000E+00 -0.46881326413E+03  0.46881326416E+03  0.50400001928E-02 0.  1.
    10030    2    1    2    0    0  0.00000000000E+00  0.00000000000E+00 -0.36590380267E+02  0.90103614805E+03  0.90029288799E+03 0.  0.
        4    1    3    3  502    0 -0.17692014112E+02  0.43057753430E+03  0.11188982077E+03  0.44523136154E+03  0.12699999809E+01 0. -1.
       -4    1    3    3    0  502  0.17692014112E+02 -0.43057753430E+03 -0.14848020103E+03  0.45580478651E+03  0.12699999809E+01 0.  1.
</event>
<event>
 5   0  0.1536020E-03  0.8966026E+03  0.7818609E-02  0.9429838E-01
        2   -1    0    0  501    0  0.00000000000E+00  0.00000000000E+00  0.93677562616E+03  0.93677562616E+03  0.25500000920E-02 0.  1.
       -2   -1    0    0    0  501  0.00000000000E+00  0.00000000000E+00 -0.21453810237E+03  0.21453810238E+03  0.25500000920E-02 0. -1.
    10030    2    1    2    0    0  0.00000000000E+00  0.00000000000E+00  0.72223752379E+03  0.11513137285E+04  0.89660262143E+03 0.  0.
        2    1    3    3  502    0 -0.44705104686E+01 -0.64691931852E+02 -0.20848395933E+03  0.21833596318E+03  0.25500000920E-02 0. -1.
       -2    1    3    3    0  502  0.44705104686E+01  0.64691931852E+02  0.93072148313E+03  0.93297776537E+03  0.25500000920E-02 0.  1.
</event>
<event>
 5   0  0.9223454E-04  0.8992362E+03  0.7818609E-02  0.9426537E-01
       -1   -1    0    0    0  501  0.00000000000E+00  0.00000000000E+00  0.71523004161E+03  0.71523004163E+03  0.50400001928E-02 0. -1.
        1   -1    0    0  501    0  0.00000000000E+00  0.00000000000E+00 -0.28264531512E+03  0.28264531517E+03  0.50400001928E-02 0.  1.
    10030    2    1    2    0    0  0.00000000000E+00  0.00000000000E+00  0.43258472649E+03  0.99787535680E+03  0.89923616593E+03 0.  0.
        1    1    3    3  502    0  0.55129160758E+02  0.34222089701E+03 -0.10147910247E+03  0.36118191397E+03  0.50400001928E-02 0.  1.
       -1    1    3    3    0  502 -0.55129160758E+02 -0.34222089701E+03  0.53406382896E+03  0.63669344283E+03  0.50400001928E-02 0. -1.
</event>
<event>
 5   0  0.1704416E-03  0.8993622E+03  0.7818609E-02  0.9426379E-01
        2   -1    0    0  501    0  0.00000000000E+00  0.00000000000E+00  0.15938473494E+03  0.15938473496E+03  0.25500000920E-02 0.  1.
       -2   -1    0    0    0  501  0.00000000000E+00  0.00000000000E+00 -0.12687104792E+04  0.12687104792E+04  0.25500000920E-02 0. -1.
    10030    2    1    2    0    0  0.00000000000E+00  0.00000000000E+00 -0.11093257443E+04  0.14280952142E+04  0.89936218170E+03 0.  0.
        3    1    3    3  502    0  0.17615979962E+03 -0.39688790316E+03 -0.36907035618E+03  0.56988176027E+03  0.10100000352E+00 0. -1.
       -3    1    3    3    0  502 -0.17615979962E+03  0.39688790316E+03 -0.74025538810E+03  0.85821345392E+03  0.10100000352E+00 0.  1.
</event>
<event>
 5   0  0.1635686E-03  0.9006767E+03  0.7818609E-02  0.9424736E-01
        2   -1    0    0  501    0  0.00000000000E+00  0.00000000000E+00  0.11465695365E+04  0.11465695365E+04  0.25500000920E-02 0. -1.
       -2   -1    0    0    0  501  0.00000000000E+00  0.00000000000E+00 -0.17687947357E+03  0.17687947358E+03  0.25500000920E-02 0.  1.
    10030    2    1    2    0    0  0.00000000000E+00  0.00000000000E+00  0.96969006291E+03  0.13234490101E+04  0.90067667014E+03 0.  0.
        5    1    3    3  502    0 -0.80431928977E+02  0.11965762494E+03 -0.14201180504E+03  0.20242698726E+03  0.46999998093E+01 0.  1.
       -5    1    3    3    0  502  0.80431928977E+02 -0.11965762494E+03  0.11117018679E+04  0.11210220228E+04  0.46999998093E+01 0. -1.
</event>
<event>
 5   0  0.9223454E-04  0.9001485E+03  0.7818609E-02  0.9425396E-01
        1   -1    0    0  501    0  0.00000000000E+00  0.00000000000E+00  0.18032092436E+04  0.18032092436E+04  0.50400001928E-02 0. -1.
       -1   -1    0    0    0  501  0.00000000000E+00  0.00000000000E+00 -0.11233683308E+03  0.11233683319E+03  0.50400001928E-02 0.  1.
    10030    2    1    2    0    0  0.00000000000E+00  0.00000000000E+00  0.16908724105E+04  0.19155460768E+04  0.90014846759E+03 0.  0.
        1    1    3    3  502    0 -0.18903497097E+03  0.40540595348E+03  0.95138168381E+03  0.10512922123E+04  0.50400001928E-02 0. -1.
       -1    1    3    3    0  502  0.18903497097E+03 -0.40540595348E+03  0.73949072672E+03  0.86425386449E+03  0.50400001928E-02 0.  1.
</event>
<event>
 5   0  0.9981885E-04  0.8994157E+03  0.7818609E-02  0.9426312E-01
        1   -1    0    0  501    0  0.00000000000E+00  0.00000000000E+00  0.96348537491E+03  0.96348537493E+03  0.50400001928E-02 0.  1.
       -1   -1    0    0    0  501  0.00000000000E+00  0.00000000000E+00 -0.20990160922E+03  0.20990160928E+03  0.50400001928E-02 0. -1.
    10030    2    1    2    0    0  0.00000000000E+00  0.00000000000E+00  0.75358376569E+03  0.11733869842E+04  0.89941565630E+03 0.  0.
        4    1    3    3  502    0  0.32637527211E+03 -0.26595536585E+03  0.17058731793E+03  0.45426283230E+03  0.12699999809E+01 0. -1.
       -4    1    3    3    0  502 -0.32637527211E+03  0.26595536585E+03  0.58299644776E+03  0.71912415191E+03  0.12699999809E+01 0.  1.
</event>
<event>
 5   0  0.9697941E-04  0.8991869E+03  0.7818609E-02  0.9426598E-01
       -1   -1    0    0    0  501  0.00000000000E+00  0.00000000000E+00  0.26458038111E+03  0.26458038116E+03  0.50400001928E-02 0. -1.
        1   -1    0    0  501    0  0.00000000000E+00  0.00000000000E+00 -0.76398052927E+03  0.76398052929E+03  0.50400001928E-02 0.  1.
    10030    2    1    2    0    0  0.00000000000E+00  0.00000000000E+00 -0.49940014816E+03  0.10285609104E+04  0.89918687630E+03 0.  0.
        5    1    3    3  502    0  0.13664023492E+03 -0.25861608019E+03 -0.64022934745E+03  0.70389526073E+03  0.46999998093E+01 0.  1.
       -5    1    3    3    0  502 -0.13664023492E+03  0.25861608019E+03  0.14082919930E+03  0.32466564972E+03  0.46999998093E+01 0. -1.
</event>
<event>
 5   0  0.9697941E-04  0.9008532E+03  0.7818609E-02  0.9424516E-01
       -1   -1    0    0    0  501  0.00000000000E+00  0.00000000000E+00  0.80924865425E+03  0.80924865427E+03  0.50400001928E-02 0.  1.
        1   -1    0    0  501    0  0.00000000000E+00  0.00000000000E+00 -0.25070677248E+03  0.25070677253E+03  0.50400001928E-02 0. -1.
    10030    2    1    2    0    0  0.00000000000E+00  0.00000000000E+00  0.55854188177E+03  0.10599554268E+04  0.90085319177E+03 0.  0.
        5    1    3    3  502    0  0.69977456324E+02  0.29420764397E+03 -0.11345529113E+03  0.32303122952E+03  0.46999998093E+01 0. -1.
       -5    1    3    3    0  502 -0.69977456324E+02 -0.29420764397E+03  0.67199717290E+03  0.73692419728E+03  0.46999998093E+01 0.  1.
</event>
<event>
 5   0  0.1635686E-03  0.8974357E+03  0.7818609E-02  0.9428793E-01
       -2   -1    0    0    0  501  0.00000000000E+00  0.00000000000E+00  0.26088925512E+03  0.26088925513E+03  0.25500000920E-02 0.  1.
        2   -1    0    0  501    0  0.00000000000E+00  0.00000000000E+00 -0.77177460328E+03  0.77177460329E+03  0.25500000920E-02 0. -1.
    10030    2    1    2    0    0  0.00000000000E+00  0.00000000000E+00 -0.51088534816E+03  0.10326638584E+04  0.89743568322E+03 0.  0.
        5    1    3    3  502    0  0.35880182526E+03 -0.25776146434E+03 -0.16523406165E+03  0.47170341046E+03  0.46999998093E+01 0. -1.
       -5    1    3    3    0  502 -0.35880182526E+03  0.25776146434E+03 -0.34565128651E+03  0.56096044796E+03  0.46999998093E+01 0.  1.
</event>
<event>
 5   0  0.1635686E-03  0.9015411E+03  0.7818609E-02  0.9423657E-01
       -2   -1    0    0    0  501  0.00000000000E+00  0.00000000000E+00  0.26026017680E+03  0.26026017681E+03  0.25500000920E-02 0.  1.
        2   -1    0    0  501    0  0.00000000000E+00  0.00000000000E+00 -0.78073452697E+03  0.78073452698E+03  0.25500000920E-02 0. -1.
    10030    2    1    2    0    0  0.00000000000E+00  0.00000000000E+00 -0.52047435018E+03  0.10409947038E+04  0.90154113834E+03 0.  0.
        5    1    3    3  502    0  0.40572372403E+02  0.23627963724E+03  0.18050997758E+03  0.30013351426E+03  0.46999998093E+01 0.  1.
       -5    1    3    3    0  502 -0.40572372403E+02 -0.23627963724E+03 -0.70098432776E+03  0.74086118952E+03  0.46999998093E+01 0. -1.
</event>
<event>
 5   0  0.1704416E-03  0.8974131E+03  0.7818609E-02  0.9428821E-01
        2   -1    0    0  501    0  0.00000000000E+00  0.00000000000E+00  0.32326987209E+03  0.32326987210E+03  0.25500000920E-02 0.  1.
       -2   -1    0    0    0  501  0.00000000000E+00  0.00000000000E+00 -0.62281580328E+03  0.62281580328E+03  0.25500000920E-02 0. -1.
    10030    2    1    2    0    0  0.00000000000E+00  0.00000000000E+00 -0.29954593119E+03  0.94608567539E+03  0.89741313801E+03 0.  0.
        3    1    3    3  502    0 -0.43978490032E+03 -0.14426634632E+02 -0.24239403730E+03  0.50236815768E+03  0.10100000352E+00 0. -1.
       -3    1    3    3    0  502  0.43978490032E+03  0.14426634632E+02 -0.57151893892E+02  0.44371751770E+03  0.10100000352E+00 0.  1.
</event>
<event>
 5   0  0.1635686E-03  0.8993200E+03  0.7818609E-02  0.9426432E-01
        2   -1    0    0  501    0  0.00000000000E+00  0.00000000000E+00  0.50205064053E+03  0.50205064053E+03  0.25500000920E-02 0.  1.
       -2   -1    0    0    0  501  0.00000000000E+00  0.00000000000E+00 -0.40273647637E+03  0.40273647638E+03  0.25500000920E-02 0. -1.
    10030    2    1    2    0    0  0.00000000000E+00  0.00000000000E+00  0.99314164159E+02  0.90478711691E+03  0.89931997850E+03 0.  0.
        5    1    3    3  502    0  0.14987301475E+02  0.39336126558E+03 -0.16895240087E+03  0.42839783872E+03  0.46999998093E+01 0. -1.
       -5    1    3    3    0  502 -0.14987301475E+02 -0.39336126558E+03  0.26826656503E+03  0.47638927819E+03  0.46999998093E+01 0.  1.
</event>
<event>
 5   0  0.1007561E-03  0.8994189E+03  0.7818609E-02  0.9426308E-01
        1   -1    0    0  501    0  0.00000000000E+00  0.00000000000E+00  0.63514064506E+03  0.63514064508E+03  0.50400001928E-02 0.  1.
       -1   -1    0    0    0  501  0.00000000000E+00  0.00000000000E+00 -0.31841545356E+03  0.31841545360E+03  0.50400001928E-02 0. -1.
    10030    2    1    2    0    0  0.00000000000E+00  0.00000000000E+00  0.31672519150E+03  0.95355609868E+03  0.89941891596E+03 0.  0.
        2    1    3    3  502    0  0.14134653625E+03  0.38497594239E+03 -0.37280121916E+02  0.41179500607E+03  0.25500000920E-02 0. -1.
       -2    1    3    3    0  502 -0.14134653625E+03 -0.38497594239E+03  0.35400531342E+03  0.54176109261E+03  0.25500000920E-02 0.  1.
</event>
<event>
 5   0  0.1704416E-03  0.8962151E+03  0.7818609E-02  0.9430325E-01
       -2   -1    0    0    0  501  0.00000000000E+00  0.00000000000E+00  0.82012880839E+02  0.82012880879E+02  0.25500000920E-02 0. -1.
        2   -1    0    0  501    0  0.00000000000E+00  0.00000000000E+00 -0.24484007267E+04  0.24484007267E+04  0.25500000920E-02 0.  1.
    10030    2    1    2    0    0  0.00000000000E+00  0.00000000000E+00 -0.23663878458E+04  0.25304136075E+04  0.89621514625E+03 0.  0.
        3    1    3    3  502    0  0.34117233250E+03  0.51392230857E+02 -0.37586326899E+03  0.51020871125E+03  0.10100000352E+00 0. -1.
       -3    1    3    3    0  502 -0.34117233250E+03 -0.51392230857E+02 -0.19905245768E+04  0.20202048963E+04  0.10100000352E+00 0.  1.
</event>
<event>
 5   0  0.1536020E-03  0.8996142E+03  0.7818609E-02  0.9426064E-01
       -2   -1    0    0    0  501  0.00000000000E+00  0.00000000000E+00  0.33537484949E+03  0.33537484950E+03  0.25500000920E-02 0.  1.
        2   -1    0    0  501    0  0.00000000000E+00  0.00000000000E+00 -0.60328444141E+03  0.60328444142E+03  0.25500000920E-02 0. -1.
    10030    2    1    2    0    0  0.00000000000E+00  0.00000000000E+00 -0.26790959192E+03  0.93865929092E+03  0.89961420341E+03 0.  0.
        2    1    3    3  502    0 -0.99735967157E+02  0.53129383596E+01  0.32365871046E+03  0.33871883816E+03  0.25500000920E-02 0.  1.
       -2    1    3    3    0  502  0.99735967157E+02 -0.53129383596E+01 -0.59156830239E+03  0.59994045276E+03  0.25500000920E-02 0. -1.
</event>
<event>
 5   0  0.1704416E-03  0.9024092E+03  0.7818609E-02  0.9422575E-01
        2   -1    0    0  501    0  0.00000000000E+00  0.00000000000E+00  0.16802453563E+03  0.16802453565E+03  0.25500000920E-02 0. -1.
       -2   -1    0    0    0  501  0.00000000000E+00  0.00000000000E+00 -0.12116420271E+04  0.12116420271E+04  0.25500000920E-02 0.  1.
    10030    2    1    2    0    0  0.00000000000E+00  0.00000000000E+00 -0.10436174914E+04  0.13796665627E+04  0.90240919535E+03 0.  0.
        3    1    3    3  502    0 -0.13638775906E+03 -0.26872503844E+03 -0.83932407687E+01  0.30147176285E+03  0.10100000352E+00 0. -1.
       -3    1    3    3    0  502  0.13638775906E+03  0.26872503844E+03 -0.10352242507E+04  0.10781947999E+04  0.10100000352E+00 0.  1.
</event>
<event>
 5   0  0.1007561E-03  0.9138068E+03  0.7818609E-02  0.9408485E-01
       -1   -1    0    0    0  501  0.00000000000E+00  0.00000000000E+00  0.36465632115E+03  0.36465632119E+03  0.50400001928E-02 0.  1.
        1   -1    0    0  501    0  0.00000000000E+00  0.00000000000E+00 -0.57248623464E+03  0.57248623466E+03  0.50400001928E-02 0. -1.
    10030    2    1    2    0    0  0.00000000000E+00  0.00000000000E+00 -0.20782991349E+03  0.93714255585E+03  0.91380681604E+03 0.  0.
        2    1    3    3  502    0 -0.10314127990E+03 -0.44350030785E+03 -0.65132879766E+02  0.45997058462E+03  0.25500000920E-02 0. -1.
       -2    1    3    3    0  502  0.10314127990E+03  0.44350030785E+03 -0.14269703372E+03  0.47717197123E+03  0.25500000920E-02 0.  1.
</event>
<event>
 5   0  0.1536020E-03  0.8961814E+03  0.7818609E-02  0.9430367E-01
       -2   -1    0    0    0  501  0.00000000000E+00  0.00000000000E+00  0.35807015688E+03  0.35807015689E+03  0.25500000920E-02 0. -1.
        2   -1    0    0  501    0  0.00000000000E+00  0.00000000000E+00 -0.56074285371E+03  0.56074285371E+03  0.25500000920E-02 0.  1.
    10030    2    1    2    0    0  0.00000000000E+00  0.00000000000E+00 -0.20267269683E+03  0.91881301060E+03  0.89618141378E+03 0.  0.
        2    1    3    3  502    0 -0.28742671286E+02  0.44544316398E+03 -0.14156403101E+03  0.46827996794E+03  0.25500000920E-02 0.  1.
       -2    1    3    3    0  502  0.28742671286E+02 -0.44544316398E+03 -0.61108665818E+02  0.45053304266E+03  0.25500000920E-02 0. -1.
</event>
<event>
 5   0  0.9981885E-04  0.8999000E+03  0.7818609E-02  0.9425706E-01
        1   -1    0    0  501    0  0.00000000000E+00  0.00000000000E+00  0.15609475507E+04  0.15609475507E+04  0.50400001928E-02 0. -1.
       -1   -1    0    0    0  501  0.00000000000E+00  0.00000000000E+00 -0.12970007445E+03  0.12970007454E+03  0.50400001928E-02 0.  1.
    10030    2    1    2    0    0  0.00000000000E+00  0.00000000000E+00  0.14312474763E+04  0.16906476253E+04  0.89990002473E+03 0.  0.
        4    1    3    3  502    0  0.39719544271E+02  0.44152721293E+03  0.86028994498E+03  0.96779353392E+03  0.12699999809E+01 0. -1.
       -4    1    3    3    0  502 -0.39719544271E+02 -0.44152721293E+03  0.57095753130E+03  0.72285409136E+03  0.12699999809E+01 0.  1.
</event>
<event>
 5   0  0.9981885E-04  0.8978990E+03  0.7818609E-02  0.9428212E-01
       -1   -1    0    0    0  501  0.00000000000E+00  0.00000000000E+00  0.74382108096E+03  0.74382108098E+03  0.50400001928E-02 0. -1.
        1   -1    0    0  501    0  0.00000000000E+00  0.00000000000E+00 -0.27097328621E+03  0.27097328626E+03  0.50400001928E-02 0.  1.
    10030    2    1    2    0    0  0.00000000000E+00  0.00000000000E+00  0.47284779475E+03  0.10147943672E+04  0.89789897582E+03 0.  0.
        4    1    3    3  502    0  0.14149590697E+02 -0.44656390755E+03  0.28613282763E+03  0.53055927321E+03  0.12699999809E+01 0.  1.
       -4    1    3    3    0  502 -0.14149590697E+02  0.44656390755E+03  0.18671496712E+03  0.48423509403E+03  0.12699999809E+01 0. -1.
</event>
<event>
 5   0  0.1630202E-03  0.9006913E+03  0.7818609E-02  0.9424718E-01
        2   -1    0    0  501    0  0.00000000000E+00  0.00000000000E+00  0.11059191818E+04  0.11059191818E+04  0.25500000920E-02 0.  1.
       -2   -1    0    0    0  501  0.00000000000E+00  0.00000000000E+00 -0.18338701064E+03  0.18338701066E+03  0.25500000920E-02 0. -1.
    10030    2    1    2    0    0  0.00000000000E+00  0.00000000000E+00  0.92253217119E+03  0.12893061925E+04  0.90069131844E+03 0.  0.
        4    1    3    3  502    0 -0.43030025183E+03 -0.10987958658E+03  0.35435804304E+03  0.56815760651E+03  0.12699999809E+01 0. -1.
       -4    1    3    3    0  502  0.43030025183E+03  0.10987958658E+03  0.56817412815E+03  0.72114858598E+03  0.12699999809E+01 0.  1.
</event>
<event>
 5   0  0.9321543E-04  0.9033983E+03  0.7818609E-02  0.9421343E-01
       -1   -1    0    0    0  501  0.00000000000E+00  0.00000000000E+00  0.19455479389E+03  0.19455479395E+03  0.50400001928E-02 0.  1.
        1   -1    0    0  501    0  0.00000000000E+00  0.00000000000E+00 -0.10487129135E+04  0.10487129135E+04  0.50400001928E-02 0. -1.
    10030    2    1    2    0    0  0.00000000000E+00  0.00000000000E+00 -0.85415811963E+03  0.12432677075E+04  0.90339830592E+03 0.  0.
        3    1    3    3  502    0 -0.18637543063E+03 -0.36718275242E+03 -0.68259959108E+03  0.79718328304E+03  0.10100000352E+00 0. -1.
       -3    1    3    3    0  502  0.18637543063E+03  0.36718275242E+03 -0.17155852855E+03  0.44608442445E+03  0.10100000352E+00 0.  1.
</event>
<event>
 5   0  0.6375625E-04  0.8988092E+03  0.7818609E-02  0.9427071E-01
        4   -1    0    0  501    0  0.00000000000E+00  0.00000000000E+00  0.35685925795E+03  0.35686151779E+03  0.12699999809E+01 0.  1.
       -4   -1    0    0    0  501  0.00000000000E+00  0.00000000000E+00 -0.56594521539E+03  0.56594664035E+03  0.12699999809E+01 0. -1.
    10030    2    1    2    0    0  0.00000000000E+00  0.00000000000E+00 -0.20908595745E+03  0.92280815814E+03  0.89880918950E+03 0.  0.
        1    1    3    3  502    0  0.30203514054E+03 -0.30898176944E+03 -0.23141233989E+03  0.49014960068E+03  0.50400001928E-02 0. -1.
       -1    1    3    3    0  502 -0.30203514054E+03  0.30898176944E+03  0.22326382446E+02  0.43265855746E+03  0.50400001928E-02 0.  1.
</event>
<event>
 5   0  0.1641516E-03  0.8998725E+03  0.7818609E-02  0.9425741E-01
       -2   -1    0    0    0  501  0.00000000000E+00  0.00000000000E+00  0.16818736654E+03  0.16818736656E+03  0.25500000920E-02 0. -1.
        2   -1    0    0  501    0  0.00000000000E+00  0.00000000000E+00 -0.12036733405E+04  0.12036733405E+04  0.25500000920E-02 0.  1.
    10030    2    1    2    0    0  0.00000000000E+00  0.00000000000E+00 -0.10354859740E+04  0.13718607071E+04  0.89987254505E+03 0.  0.
        1    1    3    3  502    0  0.23552083695E+02 -0.38068386534E+02  0.16478404182E+03  0.17075620974E+03  0.50400001928E-02 0. -1.
       -1    1    3    3    0  502 -0.23552083695E+02  0.38068386534E+02 -0.12002700158E+04  0.12011044974E+04  0.50400001928E-02 0.  1.
</event>
<event>
 5   0  0.1704416E-03  0.9049017E+03  0.7818609E-02  0.9419475E-01
       -2   -1    0    0    0  501  0.00000000000E+00  0.00000000000E+00  0.28961067196E+03  0.28961067197E+03  0.25500000920E-02 0. -1.
        2   -1    0    0  501    0  0.00000000000E+00  0.00000000000E+00 -0.70685154002E+03  0.70685154002E+03  0.25500000920E-02 0.  1.
    10030    2    1    2    0    0  0.00000000000E+00  0.00000000000E+00 -0.41724086806E+03  0.99646221199E+03  0.90490165098E+03 0.  0.
        3    1    3    3  502    0  0.43002484222E+03 -0.62401614484E+02 -0.69782219388E+02  0.44009646075E+03  0.10100000352E+00 0. -1.
       -3    1    3    3    0  502 -0.43002484222E+03  0.62401614484E+02 -0.34745864867E+03  0.55636575124E+03  0.10100000352E+00 0.  1.
</event>
<event>
 5   0  0.1536020E-03  0.8985279E+03  0.7818609E-02  0.9427424E-01
       -2   -1    0    0    0  501  0.00000000000E+00  0.00000000000E+00  0.23093062556E+03  0.23093062558E+03  0.25500000920E-02 0. -1.
        2   -1    0    0  501    0  0.00000000000E+00  0.00000000000E+00 -0.87402045407E+03  0.87402045407E+03  0.25500000920E-02 0.  1.
    10030    2    1    2    0    0  0.00000000000E+00  0.00000000000E+00 -0.64308982851E+03  0.11049510797E+04  0.89852788543E+03 0.  0.
        2    1    3    3  502    0  0.88302195092E+02  0.36197323619E+03 -0.63024557407E+03  0.73214164273E+03  0.25500000920E-02 0.  1.
       -2    1    3    3    0  502 -0.88302195092E+02 -0.36197323619E+03 -0.12844254437E+02  0.37280943692E+03  0.25500000920E-02 0. -1.
</event>
<event>
 5   0  0.9223454E-04  0.9006784E+03  0.7818609E-02  0.9424734E-01
        1   -1    0    0  501    0  0.00000000000E+00  0.00000000000E+00  0.15916037860E+03  0.15916037868E+03  0.50400001928E-02 0.  1.
       -1   -1    0    0    0  501  0.00000000000E+00  0.00000000000E+00 -0.12742202555E+04  0.12742202555E+04  0.50400001928E-02 0. -1.
    10030    2    1    2    0    0  0.00000000000E+00  0.00000000000E+00 -0.11150598769E+04  0.14333806342E+04  0.90067836291E+03 0.  0.
        1    1    3    3  502    0 -0.22204578639E+03 -0.38480106643E+03 -0.44026743093E+03  0.62546910615E+03  0.50400001928E-02 0.  1.
       -1    1    3    3    0  502  0.22204578639E+03  0.38480106643E+03 -0.67479244601E+03  0.80791152808E+03  0.50400001928E-02 0. -1.
</event>
<event>
 5   0  0.1630202E-03  0.8993957E+03  0.7818609E-02  0.9426337E-01
        2   -1    0    0  501    0  0.00000000000E+00  0.00000000000E+00  0.19420018026E+04  0.19420018026E+04  0.25500000920E-02 0. -1.
       -2   -1    0    0    0  501  0.00000000000E+00  0.00000000000E+00 -0.10413386990E+03  0.10413386994E+03  0.25500000920E-02 0.  1.
    10030    2    1    2    0    0  0.00000000000E+00  0.00000000000E+00  0.18378679327E+04  0.20461356726E+04  0.89939571514E+03 0.  0.
        4    1    3    3  502    0  0.26190757387E+03 -0.27092836848E+03  0.14772571857E+04  0.15245616300E+04  0.12699999809E+01 0.  1.
       -4    1    3    3    0  502 -0.26190757387E+03  0.27092836848E+03  0.36061074702E+03  0.52157404255E+03  0.12699999809E+01 0. -1.
</event>
<event>
 5   0  0.9321543E-04  0.9005387E+03  0.7818609E-02  0.9424908E-01
       -1   -1    0    0    0  501  0.00000000000E+00  0.00000000000E+00  0.27697755050E+03  0.27697755055E+03  0.50400001928E-02 0.  1.
        1   -1    0    0  501    0  0.00000000000E+00  0.00000000000E+00 -0.73198171208E+03  0.73198171209E+03  0.50400001928E-02 0. -1.
    10030    2    1    2    0    0  0.00000000000E+00  0.00000000000E+00 -0.45500416158E+03  0.10089592626E+04  0.90053873132E+03 0.  0.
        3    1    3    3  502    0 -0.42166397943E+03  0.14568115188E+03 -0.29582765140E+03  0.53529199424E+03  0.10100000352E+00 0. -1.
       -3    1    3    3    0  502  0.42166397943E+03 -0.14568115188E+03 -0.15917651018E+03  0.47366726840E+03  0.10100000352E+00 0.  1.
</event>
<event>
 5   0  0.1704416E-03  0.9008834E+03  0.7818609E-02  0.9424478E-01
       -2   -1    0    0    0  501  0.00000000000E+00  0.00000000000E+00  0.14343751906E+03  0.14343751908E+03  0.25500000920E-02 0.  1.
        2   -1    0    0  501    0  0.00000000000E+00  0.00000000000E+00 -0.14145371926E+04  0.14145371926E+04  0.25500000920E-02 0. -1.
    10030    2    1    2    0    0  0.00000000000E+00  0.00000000000E+00 -0.12710996735E+04  0.15579747117E+04  0.90088335658E+03 0.  0.
        3    1    3    3  502    0  0.20325970267E+03 -0.34951872056E+03 -0.29219012282E+03  0.49885160201E+03  0.10100000352E+00 0.  1.
       -3    1    3    3    0  502 -0.20325970267E+03  0.34951872056E+03 -0.97890955070E+03  0.10591231097E+04  0.10100000352E+00 0. -1.
</event>
<event>
 5   0  0.1704416E-03  0.9129282E+03  0.7818609E-02  0.9409563E-01
        2   -1    0    0  501    0  0.00000000000E+00  0.00000000000E+00  0.19154509390E+03  0.19154509392E+03  0.25500000920E-02 0.  1.
       -2   -1    0    0    0  501  0.00000000000E+00  0.00000000000E+00 -0.10877829268E+04  0.10877829268E+04  0.25500000920E-02 0. -1.
    10030    2    1    2    0    0  0.00000000000E+00  0.00000000000E+00 -0.89623783294E+03  0.12793280208E+04  0.91292821816E+03 0.  0.
        3    1    3    3  502    0  0.16438814016E+03 -0.38667742846E+03 -0.69807978066E+03  0.81477499021E+03  0.10100000352E+00 0.  1.
       -3    1    3    3    0  502 -0.16438814016E+03  0.38667742846E+03 -0.19815805228E+03  0.46455303055E+03  0.10100000352E+00 0. -1.
</event>
<event>
 5   0  0.9981885E-04  0.8979448E+03  0.7818609E-02  0.9428154E-01
       -1   -1    0    0    0  501  0.00000000000E+00  0.00000000000E+00  0.36006733033E+03  0.36006733037E+03  0.50400001928E-02 0.  1.
        1   -1    0    0  501    0  0.00000000000E+00  0.00000000000E+00 -0.55982924824E+03  0.55982924826E+03  0.50400001928E-02 0. -1.
    10030    2    1    2    0    0  0.00000000000E+00  0.00000000000E+00 -0.19976191791E+03  0.91989657863E+03  0.89794481542E+03 0.  0.
        4    1    3    3  502    0  0.37246433773E+03  0.11155467888E+03  0.13010784553E+03  0.41000462636E+03  0.12699999809E+01 0.  1.
       -4    1    3    3    0  502 -0.37246433773E+03 -0.11155467888E+03 -0.32986976344E+03  0.50989195228E+03  0.12699999809E+01 0. -1.
</event>
<event>
 5   0  0.9223454E-04  0.9000636E+03  0.7818609E-02  0.9425502E-01
        1   -1    0    0  501    0  0.00000000000E+00  0.00000000000E+00  0.77869903753E+03  0.77869903755E+03  0.50400001928E-02 0.  1.
       -1   -1    0    0    0  501  0.00000000000E+00  0.00000000000E+00 -0.26008584680E+03  0.26008584685E+03  0.50400001928E-02 0. -1.
    10030    2    1    2    0    0  0.00000000000E+00  0.00000000000E+00  0.51861319073E+03  0.10387848844E+04  0.90006355023E+03 0.  0.
        1    1    3    3  502    0  0.26705946212E+02  0.32961959867E+03 -0.92968464390E+02  0.34351917383E+03  0.50400001928E-02 0. -1.
       -1    1    3    3    0  502 -0.26705946212E+02 -0.32961959867E+03  0.61158165512E+03  0.69526571057E+03  0.50400001928E-02 0.  1.
</event>
<event>
 5   0  0.1641516E-03  0.8970236E+03  0.7818609E-02  0.9429310E-01
        2   -1    0    0  501    0  0.00000000000E+00  0.00000000000E+00  0.27053916915E+03  0.27053916916E+03  0.25500000920E-02 0.  1.
       -2   -1    0    0    0  501  0.00000000000E+00  0.00000000000E+00 -0.74356266915E+03  0.74356266916E+03  0.25500000920E-02 0. -1.
    10030    2    1    2    0    0  0.00000000000E+00  0.00000000000E+00 -0.47302350001E+03  0.10141018383E+04  0.89702358214E+03 0.  0.
        1    1    3    3  502    0 -0.29523394942E+03  0.37145295542E+02 -0.61590134061E+03  0.68401558408E+03  0.50400001928E-02 0. -1.
       -1    1    3    3    0  502  0.29523394942E+03 -0.37145295542E+02  0.14287784061E+03  0.33008625423E+03  0.50400001928E-02 0.  1.
</event>
<event>
 5   0  0.9981885E-04  0.9028913E+03  0.7818609E-02  0.9421974E-01
        1   -1    0    0  501    0  0.00000000000E+00  0.00000000000E+00  0.42823566960E+03  0.42823566963E+03  0.50400001928E-02 0. -1.
       -1   -1    0    0    0  501  0.00000000000E+00  0.00000000000E+00 -0.47591357419E+03  0.47591357422E+03  0.50400001928E-02 0.  1.
    10030    2    1    2    0    0  0.00000000000E+00  0.00000000000E+00 -0.47677904587E+02  0.90414924385E+03  0.90289128502E+03 0.  0.
        4    1    3    3  502    0 -0.28308888288E+01  0.20062771288E+03 -0.42880573064E+03  0.47342946743E+03  0.12699999809E+01 0.  1.
       -4    1    3    3    0  502  0.28308888288E+01 -0.20062771288E+03  0.38112782605E+03  0.43071977642E+03  0.12699999809E+01 0. -1.
</event>
<event>
 5   0  0.1635686E-03  0.8992116E+03  0.7818609E-02  0.9426567E-01
        2   -1    0    0  501    0  0.00000000000E+00  0.00000000000E+00  0.10509549927E+04  0.10509549927E+04  0.25500000920E-02 0. -1.
       -2   -1    0    0    0  501  0.00000000000E+00  0.00000000000E+00 -0.19234448410E+03  0.19234448412E+03  0.25500000920E-02 0.  1.
    10030    2    1    2    0    0  0.00000000000E+00  0.00000000000E+00  0.85861050862E+03  0.12432994768E+04  0.89921164560E+03 0.  0.
        5    1    3    3  502    0 -0.35200205685E+03  0.27870152930E+03  0.39707677235E+03  0.59939306269E+03  0.46999998093E+01 0. -1.
       -5    1    3    3    0  502  0.35200205685E+03 -0.27870152930E+03  0.46153373627E+03  0.64390641415E+03  0.46999998093E+01 0.  1.
</event>
<event>
 5   0  0.1007561E-03  0.8986060E+03  0.7818609E-02  0.9427326E-01
        1   -1    0    0  501    0  0.00000000000E+00  0.00000000000E+00  0.38400840340E+03  0.38400840343E+03  0.50400001928E-02 0. -1.
       -1   -1    0    0    0  501  0.00000000000E+00  0.00000000000E+00 -0.52569989235E+03  0.52569989237E+03  0.50400001928E-02 0.  1.
    10030    2    1    2    0    0  0.00000000000E+00  0.00000000000E+00 -0.14169148895E+03  0.90970829581E+03  0.89860597896E+03 0.  0.
        2    1    3    3  502    0  0.14451888947E+03  0.41346686102E+03  0.30554749587E+02  0.43906052807E+03  0.25500000920E-02 0. -1.
       -2    1    3    3    0  502 -0.14451888947E+03 -0.41346686102E+03 -0.17224623854E+03  0.47064776774E+03  0.25500000920E-02 0.  1.
</event>
<event>
 5   0  0.9697941E-04  0.9081430E+03  0.7818609E-02  0.9415459E-01
       -1   -1    0    0    0  501  0.00000000000E+00  0.00000000000E+00  0.29941904447E+03  0.29941904451E+03  0.50400001928E-02 0.  1.
        1   -1    0    0  501    0  0.00000000000E+00  0.00000000000E+00 -0.68860323339E+03  0.68860323340E+03  0.50400001928E-02 0. -1.
    10030    2    1    2    0    0  0.00000000000E+00  0.00000000000E+00 -0.38918418892E+03  0.98802227791E+03  0.90814298916E+03 0.  0.
        5    1    3    3  502    0 -0.31300367801E+03 -0.30299249107E+03 -0.33384692842E+03  0.54886393005E+03  0.46999998093E+01 0. -1.
       -5    1    3    3    0  502  0.31300367801E+03  0.30299249107E+03 -0.55337260495E+02  0.43915834786E+03  0.46999998093E+01 0.  1.
</event>
<event>
 5   0  0.9223454E-04  0.8998148E+03  0.7818609E-02  0.9425813E-01
        1   -1    0    0  501    0  0.00000000000E+00  0.00000000000E+00  0.10051814913E+04  0.10051814913E+04  0.50400001928E-02 0. -1.
       -1   -1    0    0    0  501  0.00000000000E+00  0.00000000000E+00 -0.20137324215E+03  0.20137324222E+03  0.50400001928E-02 0.  1.
    10030    2    1    2    0    0  0.00000000000E+00  0.00000000000E+00  0.80380824911E+03  0.12065547335E+04  0.89981477182E+03 0.  0.
        1    1    3    3  502    0  0.39549679840E+03 -0.18203692813E+03  0.24983549293E+03  0.50196905711E+03  0.50400001928E-02 0.  1.
       -1    1    3    3    0  502 -0.39549679840E+03  0.18203692813E+03  0.55397275618E+03  0.70458567638E+03  0.50400001928E-02 0. -1.
</event>
<event>
 5   0  0.1635686E-03  0.8995879E+03  0.7818609E-02  0.9426097E-01
        2   -1    0    0  501    0  0.00000000000E+00  0.00000000000E+00  0.13473007216E+04  0.13473007216E+04  0.25500000920E-02 0. -1.
       -2   -1    0    0    0  501  0.00000000000E+00  0.00000000000E+00 -0.15016291258E+03  0.15016291260E+03  0.25500000920E-02 0.  1.
    10030    2    1    2    0    0  0.00000000000E+00  0.00000000000E+00  0.11971378091E+04  0.14974636342E+04  0.89958790676E+03 0.  0.
        5    1    3    3  502    0 -0.17096833107E+02 -0.35238056995E+03  0.13418088281E+03  0.37747975719E+03  0.46999998093E+01 0.  1.
       -5    1    3    3    0  502  0.17096833107E+02  0.35238056995E+03  0.10629569262E+04  0.11199838770E+04  0.46999998093E+01 0. -1.
</event>
<event>
 5   0  0.1007561E-03  0.9088255E+03  0.7818609E-02  0.9414616E-01
        1   -1    0    0  501    0  0.00000000000E+00  0.00000000000E+00  0.62173025781E+03  0.62173025783E+03  0.50400001928E-02 0. -1.
       -1   -1    0    0    0  501  0.00000000000E+00  0.00000000000E+00 -0.33212307377E+03  0.33212307381E+03  0.50400001928E-02 0.  1.
    10030    2    1    2    0    0  0.00000000000E+00  0.00000000000E+00  0.28960718404E+03  0.95385333164E+03  0.90882553730E+03 0.  0.
        2    1    3    3  502    0  0.11203863754E+03  0.37958945829E+03 -0.89529875425E+02  0.40577877193E+03  0.25500000920E-02 0.  1.
       -2    1    3    3    0  502 -0.11203863754E+03 -0.37958945829E+03  0.37913705946E+03  0.54807455972E+03  0.25500000920E-02 0. -1.
</event>
<event>
 5   0  0.9321543E-04  0.9003962E+03  0.7818609E-02  0.9425086E-01
       -1   -1    0    0    0  501  0.00000000000E+00  0.00000000000E+00  0.48662225762E+03  0.48662225765E+03  0.50400001928E-02 0. -1.
        1   -1    0    0  501    0  0.00000000000E+00  0.00000000000E+00 -0.41650034637E+03  0.41650034640E+03  0.50400001928E-02 0.  1.
    10030    2    1    2    0    0  0.00000000000E+00  0.00000000000E+00  0.70121911253E+02  0.90312260404E+03  0.90039622139E+03 0.  0.
        3    1    3    3  502    0 -0.10430102139E+02 -0.80529582933E+02  0.47921611568E+03  0.48604721631E+03  0.10100000352E+00 0. -1.
       -3    1    3    3    0  502  0.10430102139E+02  0.80529582933E+02 -0.40909420442E+03  0.41707538773E+03  0.10100000352E+00 0.  1.
</event>
<event>
 5   0  0.1704416E-03  0.8993555E+03  0.7818609E-02  0.9426387E-01
        2   -1    0    0  501    0  0.00000000000E+00  0.00000000000E+00  0.55103679351E+03  0.55103679351E+03  0.25500000920E-02 0.  1.
       -2   -1    0    0    0  501  0.00000000000E+00  0.00000000000E+00 -0.36696296771E+03  0.36696296771E+03  0.25500000920E-02 0. -1.
    10030    2    1    2    0    0  0.00000000000E+00  0.00000000000E+00  0.18407382580E+03  0.91799976123E+03  0.89935554052E+03 0.  0.
        3    1    3    3  502    0 -0.10173222245E+03 -0.35944401645E+03  0.34754730579E+03  0.51023385423E+03  0.10100000352E+00 0.  1.
       -3    1    3    3    0  502  0.10173222245E+03  0.35944401645E+03 -0.16347347999E+03  0.40776590699E+03  0.10100000352E+00 0. -1.
</event>
<event>
 5   0  0.1635686E-03  0.8981452E+03  0.7818609E-02  0.9427903E-01
       -2   -1    0    0    0  501  0.00000000000E+00  0.00000000000E+00  0.15003353957E+03  0.15003353959E+03  0.25500000920E-02 0. -1.
        2   -1    0    0  501    0  0.00000000000E+00  0.00000000000E+00 -0.13441408357E+04  0.13441408357E+04  0.25500000920E-02 0.  1.
    10030    2    1    2    0    0  0.00000000000E+00  0.00000000000E+00 -0.11941072961E+04  0.14941743753E+04  0.89814521605E+03 0.  0.
        5    1    3    3  502    0  0.19201978440E+03 -0.57425683045E+02 -0.12655624273E+04  0.12813429104E+04  0.46999998093E+01 0.  1.
       -5    1    3    3    0  502 -0.19201978440E+03  0.57425683045E+02  0.71455131172E+02  0.21283146488E+03  0.46999998093E+01 0. -1.
</event>
<event>
 5   0  0.1641516E-03  0.9002930E+03  0.7818609E-02  0.9425215E-01
        2   -1    0    0  501    0  0.00000000000E+00  0.00000000000E+00  0.84234466127E+03  0.84234466127E+03  0.25500000920E-02 0.  1.
       -2   -1    0    0    0  501  0.00000000000E+00  0.00000000000E+00 -0.24055693519E+03  0.24055693520E+03  0.25500000920E-02 0. -1.
    10030    2    1    2    0    0  0.00000000000E+00  0.00000000000E+00  0.60178772608E+03  0.10829015965E+04  0.90029295253E+03 0.  0.
        1    1    3    3  502    0  0.10206316098E+03 -0.43481270161E+03  0.36843347669E+03  0.57898376582E+03  0.50400001928E-02 0.  1.
       -1    1    3    3    0  502 -0.10206316098E+03  0.43481270161E+03  0.23335424939E+03  0.50391783065E+03  0.50400001928E-02 0. -1.
</event>
<event>
 5   0  0.9981885E-04  0.9006514E+03  0.7818609E-02  0.9424768E-01
       -1   -1    0    0    0  501  0.00000000000E+00  0.00000000000E+00  0.61134635870E+03  0.61134635872E+03  0.50400001928E-02 0.  1.
        1   -1    0    0  501    0  0.00000000000E+00  0.00000000000E+00 -0.33171575278E+03  0.33171575282E+03  0.50400001928E-02 0. -1.
    10030    2    1    2    0    0  0.00000000000E+00  0.00000000000E+00  0.27963060592E+03  0.94306211154E+03  0.90065135899E+03 0.  0.
        4    1    3    3  502    0  0.36460208840E+03  0.24070686256E+03  0.25509206632E+02  0.43763776010E+03  0.12699999809E+01 0. -1.
       -4    1    3    3    0  502 -0.36460208840E+03 -0.24070686256E+03  0.25412139929E+03  0.50542435144E+03  0.12699999809E+01 0.  1.
</event>
<event>
 5   0  0.9321543E-04  0.8926381E+03  0.7818609E-02  0.9434831E-01
        1   -1    0    0  501    0  0.00000000000E+00  0.00000000000E+00  0.65385404769E+03  0.65385404771E+03  0.50400001928E-02 0. -1.
       -1   -1    0    0    0  501  0.00000000000E+00  0.00000000000E+00 -0.30465618649E+03  0.30465618654E+03  0.50400001928E-02 0.  1.
    10030    2    1    2    0    0  0.00000000000E+00  0.00000000000E+00  0.34919786120E+03  0.95851023425E+03  0.89263806937E+03 0.  0.
        3    1    3    3  502    0 -0.14200963240E+03  0.38094504613E+03 -0.23150855467E+02  0.40721227410E+03  0.10100000352E+00 0.  1.
       -3    1    3    3    0  502  0.14200963240E+03 -0.38094504613E+03  0.37234871666E+03  0.55129796015E+03  0.10100000352E+00 0. -1.
</event>
<event>
 5   0  0.9223454E-04  0.8990666E+03  0.7818609E-02  0.9426749E-01
       -1   -1    0    0    0  501  0.00000000000E+00  0.00000000000E+00  0.10415311266E+04  0.10415311266E+04  0.50400001928E-02 0.  1.
        1   -1    0    0  501    0  0.00000000000E+00  0.00000000000E+00 -0.19402222696E+03  0.19402222703E+03  0.50400001928E-02 0. -1.
    10030    2    1    2    0    0  0.00000000000E+00  0.00000000000E+00  0.84750889965E+03  0.12355533537E+04  0.89906660194E+03 0.  0.
        1    1    3    3  502    0  0.28692917365E+03  0.25048567870E+03  0.75188030045E+03  0.84284957861E+03  0.50400001928E-02 0.  1.
       -1    1    3    3    0  502 -0.28692917365E+03 -0.25048567870E+03  0.95628599200E+02  0.39270377504E+03  0.50400001928E-02 0. -1.
</event>
<event>
 5   0  0.1536020E-03  0.9003274E+03  0.7818609E-02  0.9425172E-01
        2   -1    0    0  501    0  0.00000000000E+00  0.00000000000E+00  0.18577122509E+04  0.18577122509E+04  0.25500000920E-02 0.  1.
       -2   -1    0    0    0  501  0.00000000000E+00  0.00000000000E+00 -0.10908437183E+03  0.10908437186E+03  0.25500000920E-02 0. -1.
    10030    2    1    2    0    0  0.00000000000E+00  0.00000000000E+00  0.17486278791E+04  0.19667966228E+04  0.90032743814E+03 0.  0.
        2    1    3    3  502    0 -0.20566479613E+03 -0.22852613389E+03  0.15598663771E+03  0.34475213326E+03  0.25500000920E-02 0. -1.
       -2    1    3    3    0  502  0.20566479613E+03  0.22852613389E+03  0.15926412414E+04  0.16220444895E+04  0.25500000920E-02 0.  1.
</event>
<event>
 5   0  0.9223454E-04  0.9002025E+03  0.7818609E-02  0.9425328E-01
        1   -1    0    0  501    0  0.00000000000E+00  0.00000000000E+00  0.10079190303E+04  0.10079190303E+04  0.50400001928E-02 0.  1.
       -1   -1    0    0    0  501  0.00000000000E+00  0.00000000000E+00 -0.20099940748E+03  0.20099940754E+03  0.50400001928E-02 0. -1.
    10030    2    1    2    0    0  0.00000000000E+00  0.00000000000E+00  0.80691962284E+03  0.12089184379E+04  0.90020248372E+03 0.  0.
        1    1    3    3  502    0 -0.34050841678E+03 -0.26814102769E+03  0.56653469067E+03  0.71330719075E+03  0.50400001928E-02 0.  1.
       -1    1    3    3    0  502  0.34050841678E+03  0.26814102769E+03  0.24038493217E+03  0.49561124712E+03  0.50400001928E-02 0. -1.
</event>
<event>
 5   0  0.6375625E-04  0.9004931E+03  0.7818609E-02  0.9424965E-01
       -4   -1    0    0    0  501  0.00000000000E+00  0.00000000000E+00  0.96641509129E+03  0.96641592577E+03  0.12699999809E+01 0. -1.
        4   -1    0    0  501    0  0.00000000000E+00  0.00000000000E+00 -0.20976411058E+03  0.20976795510E+03  0.12699999809E+01 0.  1.
    10030    2    1    2    0    0  0.00000000000E+00  0.00000000000E+00  0.75665098072E+03  0.11761838809E+04  0.90049309547E+03 0.  0.
        1    1    3    3  502    0 -0.46351299943E+02  0.19431414089E+03  0.90536447829E+03  0.92714144926E+03  0.50400001928E-02 0. -1.
       -1    1    3    3    0  502  0.46351299943E+02 -0.19431414089E+03 -0.14871349757E+03  0.24904243161E+03  0.50400001928E-02 0.  1.
</event>
<event>
 5   0  0.9981885E-04  0.9010312E+03  0.7818609E-02  0.9424293E-01
       -1   -1    0    0    0  501  0.00000000000E+00  0.00000000000E+00  0.90724685589E+02  0.90724685729E+02  0.50400001928E-02 0.  1.
        1   -1    0    0  501    0  0.00000000000E+00  0.00000000000E+00 -0.22371454247E+04  0.22371454247E+04  0.50400001928E-02 0. -1.
    10030    2    1    2    0    0  0.00000000000E+00  0.00000000000E+00 -0.21464207391E+04  0.23278701104E+04  0.90103122130E+03 0.  0.
        4    1    3    3  502    0 -0.14206571824E+03  0.10122982755E+03 -0.75188667011E-01  0.17444702588E+03  0.12699999809E+01 0.  1.
       -4    1    3    3    0  502  0.14206571824E+03 -0.10122982755E+03 -0.21463455504E+04  0.21534230845E+04  0.12699999809E+01 0. -1.
</event>
<event>
 5   0  0.1641516E-03  0.8997232E+03  0.7818609E-02  0.9425928E-01
        2   -1    0    0  501    0  0.00000000000E+00  0.00000000000E+00  0.79207982671E+03  0.79207982672E+03  0.25500000920E-02 0.  1.
       -2   -1    0    0    0  501  0.00000000000E+00  0.00000000000E+00 -0.25549879603E+03  0.25549879604E+03  0.25500000920E-02 0. -1.
    10030    2    1    2    0    0  0.00000000000E+00  0.00000000000E+00  0.53658103069E+03  0.10475786228E+04  0.89972316207E+03 0.  0.
        1    1    3    3  502    0 -0.24434345199E+03 -0.36216359880E+03  0.14337937118E+03  0.45980848071E+03  0.50400001928E-02 0.  1.
       -1    1    3    3    0  502  0.24434345199E+03  0.36216359880E+03  0.39320165951E+03  0.58777014206E+03  0.50400001928E-02 0. -1.
</event>
<event>
 5   0  0.1704416E-03  0.9003266E+03  0.7818609E-02  0.9425173E-01
        2   -1    0    0  501    0  0.00000000000E+00  0.00000000000E+00  0.15786885372E+04  0.15786885372E+04  0.25500000920E-02 0. -1.
       -2   -1    0    0    0  501  0.00000000000E+00  0.00000000000E+00 -0.12836414527E+03  0.12836414530E+03  0.25500000920E-02 0.  1.
    10030    2    1    2    0    0  0.00000000000E+00  0.00000000000E+00  0.14503243920E+04  0.17070526825E+04  0.90032661797E+03 0.  0.
        3    1    3    3  502    0 -0.12183002749E+03 -0.69459312746E+02 -0.85889355369E+02  0.16445103615E+03  0.10100000352E+00 0.  1.
       -3    1    3    3    0  502  0.12183002749E+03  0.69459312746E+02  0.15362137473E+04  0.15426016464E+04  0.10100000352E+00 0. -1.
</event>
<event>
 5   0  0.1007561E-03  0.9030835E+03  0.7818609E-02  0.9421735E-01
        1   -1    0    0  501    0  0.00000000000E+00  0.00000000000E+00  0.11276453994E+04  0.11276453994E+04  0.50400001928E-02 0.  1.
       -1   -1    0    0    0  501  0.00000000000E+00  0.00000000000E+00 -0.18081032360E+03  0.18081032367E+03  0.50400001928E-02 0. -1.
    10030    2    1    2    0    0  0.00000000000E+00  0.00000000000E+00  0.94683507581E+03  0.13084557231E+04  0.90308345046E+03 0.  0.
        2    1    3    3  502    0  0.24854963518E+03  0.37102135388E+03  0.57013651675E+03  0.72421641374E+03  0.25500000920E-02 0.  1.
       -2    1    3    3    0  502 -0.24854963518E+03 -0.37102135388E+03  0.37669855905E+03  0.58423930935E+03  0.25500000920E-02 0. -1.
</event>
<event>
 5   0  0.6375625E-04  0.9002782E+03  0.7818609E-02  0.9425234E-01
       -3   -1    0    0    0  501  0.00000000000E+00  0.00000000000E+00  0.60935078163E+03  0.60935079000E+03  0.10100000352E+00 0.  1.
        3   -1    0    0  501    0  0.00000000000E+00  0.00000000000E+00 -0.33252632572E+03  0.33252634106E+03  0.10100000352E+00 0. -1.
    10030    2    1    2    0    0  0.00000000000E+00  0.00000000000E+00  0.27682445592E+03  0.94187713106E+03  0.90027815181E+03 0.  0.
        4    1    3    3  502    0  0.36763273667E+03  0.91256087035E+02 -0.11601630300E+03  0.39616019229E+03  0.12699999809E+01 0. -1.
       -4    1    3    3    0  502 -0.36763273667E+03 -0.91256087035E+02  0.39284075891E+03  0.54571693877E+03  0.12699999809E+01 0.  1.
</event>
<event>
 5   0  0.9697941E-04  0.9038072E+03  0.7818609E-02  0.9420835E-01
        1   -1    0    0  501    0  0.00000000000E+00  0.00000000000E+00  0.50391154712E+03  0.50391154714E+03  0.50400001928E-02 0.  1.
       -1   -1    0    0    0  501  0.00000000000E+00  0.00000000000E+00 -0.40526328489E+03  0.40526328492E+03  0.50400001928E-02 0. -1.
    10030    2    1    2    0    0  0.00000000000E+00  0.00000000000E+00  0.98648262223E+02  0.90917483207E+03  0.90380716728E+03 0.  0.
        5    1    3    3  502    0 -0.85960070171E+02 -0.20826090385E+03 -0.34470745993E+03  0.41183377796E+03  0.46999998093E+01 0. -1.
       -5    1    3    3    0  502  0.85960070171E+02  0.20826090385E+03  0.44335572215E+03  0.49734105411E+03  0.46999998093E+01 0.  1.
</event>
<event>
 5   0  0.1635686E-03  0.8989746E+03  0.7818609E-02  0.9426864E-01
       -2   -1    0    0    0  501  0.00000000000E+00  0.00000000000E+00  0.17544538432E+03  0.17544538433E+03  0.25500000920E-02 0. -1.
        2   -1    0    0  501    0  0.00000000000E+00  0.00000000000E+00 -0.11515766943E+04  0.11515766943E+04  0.25500000920E-02 0.  1.
    10030    2    1    2    0    0  0.00000000000E+00  0.00000000000E+00 -0.97613131000E+03  0.13270220787E+04  0.89897456186E+03 0.  0.
        5    1    3    3  502    0  0.49181938934E+02 -0.19579762901E+03 -0.10808484957E+04  0.10995504241E+04  0.46999998093E+01 0.  1.
       -5    1    3    3    0  502 -0.49181938934E+02  0.19579762901E+03  0.10471718566E+03  0.22747165452E+03  0.46999998093E+01 0. -1.
</event>
<event>
 5   0  0.1641516E-03  0.9000593E+03  0.7818609E-02  0.9425507E-01
        2   -1    0    0  501    0  0.00000000000E+00  0.00000000000E+00  0.15863631937E+04  0.15863631937E+04  0.25500000920E-02 0.  1.
       -2   -1    0    0    0  501  0.00000000000E+00  0.00000000000E+00 -0.12766729243E+03  0.12766729246E+03  0.25500000920E-02 0. -1.
    10030    2    1    2    0    0  0.00000000000E+00  0.00000000000E+00  0.14586959012E+04  0.17140304861E+04  0.90005931754E+03 0.  0.
        1    1    3    3  502    0  0.34985708304E+03  0.21945957199E+03  0.10698183871E+04  0.11467666998E+04  0.50400001928E-02 0.  1.
       -1    1    3    3    0  502 -0.34985708304E+03 -0.21945957199E+03  0.38887751412E+03  0.56726378635E+03  0.50400001928E-02 0. -1.
</event>
<event>
 5   0  0.9697941E-04  0.9034706E+03  0.7818609E-02  0.9421253E-01
       -1   -1    0    0    0  501  0.00000000000E+00  0.00000000000E+00  0.34482313219E+03  0.34482313223E+03  0.50400001928E-02 0. -1.
        1   -1    0    0  501    0  0.00000000000E+00  0.00000000000E+00 -0.59179545760E+03  0.59179545762E+03  0.50400001928E-02 0.  1.
    10030    2    1    2    0    0  0.00000000000E+00  0.00000000000E+00 -0.24697232540E+03  0.93661858985E+03  0.90347056031E+03 0.  0.
        5    1    3    3  502    0 -0.27638270670E+03  0.27461660916E+01  0.24690048150E+03  0.37064387187E+03  0.46999998093E+01 0. -1.
       -5    1    3    3    0  502  0.27638270670E+03 -0.27461660916E+01 -0.49387280691E+03  0.56597471798E+03  0.46999998093E+01 0.  1.
</event>
<event>
 5   0  0.9981885E-04  0.9005519E+03  0.7818609E-02  0.9424892E-01
        1   -1    0    0  501    0  0.00000000000E+00  0.00000000000E+00  0.57740908879E+03  0.57740908881E+03  0.50400001928E-02 0. -1.
       -1   -1    0    0    0  501  0.00000000000E+00  0.00000000000E+00 -0.35113478673E+03  0.35113478677E+03  0.50400001928E-02 0.  1.
    10030    2    1    2    0    0  0.00000000000E+00  0.00000000000E+00  0.22627430205E+03  0.92854387558E+03  0.90055186919E+03 0.  0.
        4    1    3    3  502    0  0.28151215466E+03  0.14066491875E+03  0.44518930437E+03  0.54518881336E+03  0.12699999809E+01 0. -1.
       -4    1    3    3    0  502 -0.28151215466E+03 -0.14066491875E+03 -0.21891500232E+03  0.38335506222E+03  0.12699999809E+01 0.  1.
</event>
<event>
 5   0  0.1630202E-03  0.8955118E+03  0.7818609E-02  0.9431209E-01
        2   -1    0    0  501    0  0.00000000000E+00  0.00000000000E+00  0.22709021026E+03  0.22709021028E+03  0.25500000920E-02 0. -1.
       -2   -1    0    0    0  501  0.00000000000E+00  0.00000000000E+00 -0.88284448478E+03  0.88284448479E+03  0.25500000920E-02 0.  1.
    10030    2    1    2    0    0  0.00000000000E+00  0.00000000000E+00 -0.65575427452E+03  0.11099346951E+04  0.89551178594E+03 0.  0.
        4    1    3    3  502    0 -0.34748974488E+03 -0.25181395355E+03 -0.48623655420E+03  0.64852678398E+03  0.12699999809E+01 0. -1.
       -4    1    3    3    0  502  0.34748974488E+03  0.25181395355E+03 -0.16951772032E+03  0.46140791108E+03  0.12699999809E+01 0.  1.
</event>
<event>
 5   0  0.1641516E-03  0.8967488E+03  0.7818609E-02  0.9429655E-01
       -2   -1    0    0    0  501  0.00000000000E+00  0.00000000000E+00  0.94654489114E+02  0.94654489148E+02  0.25500000920E-02 0. -1.
        2   -1    0    0  501    0  0.00000000000E+00  0.00000000000E+00 -0.21239310229E+04  0.21239310229E+04  0.25500000920E-02 0.  1.
    10030    2    1    2    0    0  0.00000000000E+00  0.00000000000E+00 -0.20292765338E+04  0.22185855121E+04  0.89674880748E+03 0.  0.
        1    1    3    3  502    0 -0.38183661998E+03 -0.15487050372E+03 -0.14520282059E+04  0.15093607879E+04  0.50400001928E-02 0.  1.
       -1    1    3    3    0  502  0.38183661998E+03  0.15487050372E+03 -0.57724832791E+03  0.70922472418E+03  0.50400001928E-02 0. -1.
</event>
<event>
 5   0  0.1635686E-03  0.9001280E+03  0.7818609E-02  0.9425421E-01
        2   -1    0    0  501    0  0.00000000000E+00  0.00000000000E+00  0.21578966048E+04  0.21578966048E+04  0.25500000920E-02 0.  1.
       -2   -1    0    0    0  501  0.00000000000E+00  0.00000000000E+00 -0.93868073998E+02  0.93868074032E+02  0.25500000920E-02 0. -1.
    10030    2    1    2    0    0  0.00000000000E+00  0.00000000000E+00  0.20640285308E+04  0.22517646788E+04  0.90012798693E+03 0.  0.
        5    1    3    3  502    0 -0.13378621411E+03 -0.99013958336E+02  0.20780112531E+04  0.20846715265E+04  0.46999998093E+01 0.  1.
       -5    1    3    3    0  502  0.13378621411E+03  0.99013958336E+02 -0.13982722386E+02  0.16709315233E+03  0.46999998093E+01 0. -1.
</event>
<event>
 5   0  0.1635686E-03  0.8990537E+03  0.7818609E-02  0.9426765E-01
        2   -1    0    0  501    0  0.00000000000E+00  0.00000000000E+00  0.15644848832E+04  0.15644848832E+04  0.25500000920E-02 0. -1.
       -2   -1    0    0    0  501  0.00000000000E+00  0.00000000000E+00 -0.12916353967E+03  0.12916353970E+03  0.25500000920E-02 0.  1.
    10030    2    1    2    0    0  0.00000000000E+00  0.00000000000E+00  0.14353213435E+04  0.16936484229E+04  0.89905373654E+03 0.  0.
        5    1    3    3  502    0  0.21339806733E+03  0.38148844197E+02  0.14594576245E+04  0.14754771151E+04  0.46999998093E+01 0. -1.
       -5    1    3    3    0  502 -0.21339806733E+03 -0.38148844197E+02 -0.24136281057E+02  0.21817130772E+03  0.46999998093E+01 0.  1.
</event>
<event>
 5   0  0.1635686E-03  0.9003403E+03  0.7818609E-02  0.9425156E-01
       -2   -1    0    0    0  501  0.00000000000E+00  0.00000000000E+00  0.24982907701E+03  0.24982907703E+03  0.25500000920E-02 0.  1.
        2   -1    0    0  501    0  0.00000000000E+00  0.00000000000E+00 -0.81116715807E+03  0.81116715807E+03  0.25500000920E-02 0. -1.
    10030    2    1    2    0    0  0.00000000000E+00  0.00000000000E+00 -0.56133808106E+03  0.10609962351E+04  0.90034025216E+03 0.  0.
        5    1    3    3  502    0  0.19106618007E+03 -0.12662055978E+03  0.17587843937E+03  0.28895391806E+03  0.46999998093E+01 0.  1.
       -5    1    3    3    0  502 -0.19106618007E+03  0.12662055978E+03 -0.73721652042E+03  0.77204231705E+03  0.46999998093E+01 0. -1.
</event>
<event>
 5   0  0.9697941E-04  0.8992669E+03  0.7818609E-02  0.9426498E-01
       -1   -1    0    0    0  501  0.00000000000E+00  0.00000000000E+00  0.44915747711E+03  0.44915747714E+03  0.50400001928E-02 0.  1.
        1   -1    0    0  501    0  0.00000000000E+00  0.00000000000E+00 -0.45010990796E+03  0.45010990799E+03  0.50400001928E-02 0. -1.
    10030    2    1    2    0    0  0.00000000000E+00  0.00000000000E+00 -0.95243084293E+00  0.89926738513E+03  0.89926688076E+03 0.  0.
        5    1    3    3  502    0  0.43601316609E+02  0.22243609528E+02  0.44646059421E+03  0.44916033346E+03  0.46999998093E+01 0.  1.
       -5    1    3    3    0  502 -0.43601316609E+02 -0.22243609528E+02 -0.44741302505E+03  0.45010705167E+03  0.46999998093E+01 0. -1.
</event>
<event>
 5   0  0.1641516E-03  0.9006779E+03  0.7818609E-02  0.9424734E-01
        2   -1    0    0  501    0  0.00000000000E+00  0.00000000000E+00  0.38468051432E+03  0.38468051433E+03  0.25500000920E-02 0.  1.
       -2   -1    0    0    0  501  0.00000000000E+00  0.00000000000E+00 -0.52720413329E+03  0.52720413330E+03  0.25500000920E-02 0. -1.
    10030    2    1    2    0    0  0.00000000000E+00  0.00000000000E+00 -0.14252361897E+03  0.91188464763E+03  0.90067787172E+03 0.  0.
        1    1    3    3  502    0 -0.33622783812E+03 -0.10459150479E+03 -0.35549795227E+03  0.50036720126E+03  0.50400001928E-02 0. -1.
       -1    1    3    3    0  502  0.33622783812E+03  0.10459150479E+03  0.21297433330E+03  0.41151744637E+03  0.50400001928E-02 0.  1.
</event>
<event>
 5   0  0.1007561E-03  0.8996623E+03  0.7818609E-02  0.9426004E-01
       -1   -1    0    0    0  501  0.00000000000E+00  0.00000000000E+00  0.55621724490E+03  0.55621724492E+03  0.50400001928E-02 0. -1.
        1   -1    0    0  501    0  0.00000000000E+00  0.00000000000E+00 -0.36379319310E+03  0.36379319313E+03  0.50400001928E-02 0.  1.
    10030    2    1    2    0    0  0.00000000000E+00  0.00000000000E+00  0.19242405180E+03  0.92001043805E+03  0.89966226464E+03 0.  0.
        2    1    3    3  502    0 -0.65866713784E+01 -0.40127825970E+03  0.30398320870E+03  0.50346143560E+03  0.25500000920E-02 0.  1.
       -2    1    3    3    0  502  0.65866713784E+01  0.40127825970E+03 -0.11155915690E+03  0.41654900246E+03  0.25500000920E-02 0. -1.
</event>
<event>
 5   0  0.1007561E-03  0.9026121E+03  0.7818609E-02  0.9422322E-01
        1   -1    0    0  501    0  0.00000000000E+00  0.00000000000E+00  0.93133245111E+03  0.93133245113E+03  0.50400001928E-02 0.  1.
       -1   -1    0    0    0  501  0.00000000000E+00  0.00000000000E+00 -0.21869433594E+03  0.21869433600E+03  0.50400001928E-02 0. -1.
    10030    2    1    2    0    0  0.00000000000E+00  0.00000000000E+00  0.71263811517E+03  0.11500267871E+04  0.90261205838E+03 0.  0.
        2    1    3    3  502    0  0.28222873229E+03 -0.25668500914E+03  0.66352717602E+03  0.76538131972E+03  0.25500000920E-02 0.  1.
       -2    1    3    3    0  502 -0.28222873229E+03  0.25668500914E+03  0.49110939146E+02  0.38464546741E+03  0.25500000920E-02 0. -1.
</event>
<event>
 5   0  0.9321543E-04  0.8986296E+03  0.7818609E-02  0.9427296E-01
       -1   -1    0    0    0  501  0.00000000000E+00  0.00000000000E+00  0.28218827440E+03  0.28218827444E+03  0.50400001928E-02 0.  1.
        1   -1    0    0  501    0  0.00000000000E+00  0.00000000000E+00 -0.71542238897E+03  0.71542238899E+03  0.50400001928E-02 0. -1.
    10030    2    1    2    0    0  0.00000000000E+00  0.00000000000E+00 -0.43323411458E+03  0.99761066343E+03  0.89862964438E+03 0.  0.
        3    1    3    3  502    0 -0.78683044933E+02  0.35752352219E+03  0.72596291558E+02  0.37320814866E+03  0.10100000352E+00 0.  1.
       -3    1    3    3    0  502  0.78683044933E+02 -0.35752352219E+03 -0.50583040613E+03  0.62440251477E+03  0.10100000352E+00 0. -1.
</event>
<event>
 5   0  0.1641516E-03  0.8997833E+03  0.7818609E-02  0.9425852E-01
        2   -1    0    0  501    0  0.00000000000E+00  0.00000000000E+00  0.16130294454E+04  0.16130294454E+04  0.25500000920E-02 0.  1.
       -2   -1    0    0    0  501  0.00000000000E+00  0.00000000000E+00 -0.12547972327E+03  0.12547972330E+03  0.25500000920E-02 0. -1.
    10030    2    1    2    0    0  0.00000000000E+00  0.00000000000E+00  0.14875497221E+04  0.17385091687E+04  0.89978328158E+03 0.  0.
        1    1    3    3  502    0  0.33989949928E+03 -0.17145616983E+03  0.12069798933E+04  0.12655944653E+04  0.50400001928E-02 0.  1.
       -1    1    3    3    0  502 -0.33989949928E+03  0.17145616983E+03  0.28056982877E+03  0.47291470333E+03  0.50400001928E-02 0. -1.
</event>
<event>
 5   0  0.9981885E-04  0.9005006E+03  0.7818609E-02  0.9424956E-01
        1   -1    0    0  501    0  0.00000000000E+00  0.00000000000E+00  0.62343314817E+03  0.62343314819E+03  0.50400001928E-02 0. -1.
       -1   -1    0    0    0  501  0.00000000000E+00  0.00000000000E+00 -0.32517575141E+03  0.32517575145E+03  0.50400001928E-02 0.  1.
    10030    2    1    2    0    0  0.00000000000E+00  0.00000000000E+00  0.29825739675E+03  0.94860889964E+03  0.90050062174E+03 0.  0.
        4    1    3    3  502    0  0.24166037351E+02 -0.28108001688E+03  0.51877957619E+03  0.59052843693E+03  0.12699999809E+01 0. -1.
       -4    1    3    3    0  502 -0.24166037351E+02  0.28108001688E+03 -0.22052217944E+03  0.35808046271E+03  0.12699999809E+01 0.  1.
</event>
<event>
 5   0  0.9981885E-04  0.8934491E+03  0.7818609E-02  0.9433808E-01
        1   -1    0    0  501    0  0.00000000000E+00  0.00000000000E+00  0.91333079588E+03  0.91333079590E+03  0.50400001928E-02 0.  1.
       -1   -1    0    0    0  501  0.00000000000E+00  0.00000000000E+00 -0.21850003298E+03  0.21850003304E+03  0.50400001928E-02 0. -1.
    10030    2    1    2    0    0  0.00000000000E+00  0.00000000000E+00  0.69483076290E+03  0.11318308289E+04  0.89344906753E+03 0.  0.
        4    1    3    3  502    0 -0.16888878076E+03 -0.61292896204E+02  0.86554088636E+03  0.88399257817E+03  0.12699999809E+01 0.  1.
       -4    1    3    3    0  502  0.16888878076E+03  0.61292896204E+02 -0.17071012346E+03  0.24783825077E+03  0.12699999809E+01 0. -1.
</event>
<event>
 5   0  0.9697941E-04  0.9009075E+03  0.7818609E-02  0.9424448E-01
       -1   -1    0    0    0  501  0.00000000000E+00  0.00000000000E+00  0.23351266862E+03  0.23351266867E+03  0.50400001928E-02 0. -1.
        1   -1    0    0  501    0  0.00000000000E+00  0.00000000000E+00 -0.86894034867E+03  0.86894034868E+03  0.50400001928E-02 0.  1.
    10030    2    1    2    0    0  0.00000000000E+00  0.00000000000E+00 -0.63542768005E+03  0.11024530174E+04  0.90090749741E+03 0.  0.
        5    1    3    3  502    0 -0.23749435313E+02  0.11839759279E+03 -0.84873300711E+03  0.85729331796E+03  0.46999998093E+01 0.  1.
       -5    1    3    3    0  502  0.23749435313E+02 -0.11839759279E+03  0.21330532706E+03  0.24515969939E+03  0.46999998093E+01 0. -1.
</event>
<event>
 5   0  0.1536020E-03  0.9018056E+03  0.7818609E-02  0.9423327E-01
        2   -1    0    0  501    0  0.00000000000E+00  0.00000000000E+00  0.70582019446E+03  0.70582019447E+03  0.25500000920E-02 0. -1.
       -2   -1    0    0    0  501  0.00000000000E+00  0.00000000000E+00 -0.28805258580E+03  0.28805258581E+03  0.25500000920E-02 0.  1.
    10030    2    1    2    0    0  0.00000000000E+00  0.00000000000E+00  0.41776760867E+03  0.99387278028E+03  0.90180559353E+03 0.  0.
        2    1    3    3  502    0 -0.38910128445E+03 -0.21976647561E+03  0.27515811501E+03  0.52479434222E+03  0.25500000920E-02 0. -1.
       -2    1    3    3    0  502  0.38910128445E+03  0.21976647561E+03  0.14260949366E+03  0.46907843806E+03  0.25500000920E-02 0.  1.
</event>
<event>
 5   0  0.1630202E-03  0.9028791E+03  0.7818609E-02  0.9421990E-01
        2   -1    0    0  501    0  0.00000000000E+00  0.00000000000E+00  0.23404661989E+04  0.23404661989E+04  0.25500000920E-02 0. -1.
       -2   -1    0    0    0  501  0.00000000000E+00  0.00000000000E+00 -0.87075668900E+02  0.87075668938E+02  0.25500000920E-02 0.  1.
    10030    2    1    2    0    0  0.00000000000E+00  0.00000000000E+00  0.22533905300E+04  0.24275418679E+04  0.90287908350E+03 0.  0.
        4    1    3    3  502    0  0.17682499623E+03 -0.40984076464E+03  0.13082453579E+04  0.13822966618E+04  0.12699999809E+01 0. -1.
       -4    1    3    3    0  502 -0.17682499623E+03  0.40984076464E+03  0.94514517209E+03  0.10452452061E+04  0.12699999809E+01 0.  1.
</event>
<event>
 5   0  0.1635686E-03  0.9019104E+03  0.7818609E-02  0.9423197E-01
        2   -1    0    0  501    0  0.00000000000E+00  0.00000000000E+00  0.15446416008E+04  0.15446416008E+04  0.25500000920E-02 0. -1.
       -2   -1    0    0    0  501  0.00000000000E+00  0.00000000000E+00 -0.13165550712E+03  0.13165550715E+03  0.25500000920E-02 0.  1.
    10030    2    1    2    0    0  0.00000000000E+00  0.00000000000E+00  0.14129860937E+04  0.16762971079E+04  0.90191035762E+03 0.  0.
        5    1    3    3  502    0 -0.24993362786E+03 -0.12040754571E+03  0.45775332022E+02  0.28121569377E+03  0.46999998093E+01 0.  1.
       -5    1    3    3    0  502  0.24993362786E+03  0.12040754571E+03  0.13672107616E+04  0.13950814142E+04  0.46999998093E+01 0. -1.
</event>
<event>
 5   0  0.1704416E-03  0.9020324E+03  0.7818609E-02  0.9423044E-01
        2   -1    0    0  501    0  0.00000000000E+00  0.00000000000E+00  0.32473592964E+03  0.32473592965E+03  0.25500000920E-02 0.  1.
       -2   -1    0    0    0  501  0.00000000000E+00  0.00000000000E+00 -0.62640309111E+03  0.62640309111E+03  0.25500000920E-02 0. -1.
    10030    2    1    2    0    0  0.00000000000E+00  0.00000000000E+00 -0.30166716147E+03  0.95113902076E+03  0.90203235004E+03 0.  0.
        3    1    3    3  502    0  0.22179802663E+03 -0.25874614117E+03  0.16066672613E+03  0.37677279264E+03  0.10100000352E+00 0.  1.
       -3    1    3    3    0  502 -0.22179802663E+03  0.25874614117E+03 -0.46233388760E+03  0.57436622813E+03  0.10100000352E+00 0. -1.
</event>
<event>
 5   0  0.1635686E-03  0.8998764E+03  0.7818609E-02  0.9425736E-01
       -2   -1    0    0    0  501  0.00000000000E+00  0.00000000000E+00  0.43967483227E+03  0.43967483227E+03  0.25500000920E-02 0. -1.
        2   -1    0    0  501    0  0.00000000000E+00  0.00000000000E+00 -0.46044119458E+03  0.46044119459E+03  0.25500000920E-02 0.  1.
    10030    2    1    2    0    0  0.00000000000E+00  0.00000000000E+00 -0.20766362315E+02  0.90011602686E+03  0.89987644708E+03 0.  0.
        5    1    3    3  502    0  0.37721374676E+03  0.18525765808E+03 -0.17108616880E+03  0.45376555376E+03  0.46999998093E+01 0. -1.
       -5    1    3    3    0  502 -0.37721374676E+03 -0.18525765808E+03  0.15031980648E+03  0.44635047311E+03  0.46999998093E+01 0.  1.
</event>
<event>
 5   0  0.1536020E-03  0.9207497E+03  0.7818609E-02  0.9400009E-01
        2   -1    0    0  501    0  0.00000000000E+00  0.00000000000E+00  0.10976068374E+04  0.10976068374E+04  0.25500000920E-02 0. -1.
       -2   -1    0    0    0  501  0.00000000000E+00  0.00000000000E+00 -0.19309738747E+03  0.19309738749E+03  0.25500000920E-02 0.  1.
    10030    2    1    2    0    0  0.00000000000E+00  0.00000000000E+00  0.90450944997E+03  0.12907042249E+04  0.92074972233E+03 0.  0.
        2    1    3    3  502    0  0.13070137510E+03  0.17809468431E+03  0.10184565734E+04  0.10421393179E+04  0.25500000920E-02 0. -1.
       -2    1    3    3    0  502 -0.13070137510E+03 -0.17809468431E+03 -0.11394712346E+03  0.24856490699E+03  0.25500000920E-02 0.  1.
</event>
<event>
 5   0  0.9223454E-04  0.9003531E+03  0.7818609E-02  0.9425140E-01
       -1   -1    0    0    0  501  0.00000000000E+00  0.00000000000E+00  0.13317258463E+03  0.13317258473E+03  0.50400001928E-02 0.  1.
        1   -1    0    0  501    0  0.00000000000E+00  0.00000000000E+00 -0.15217767793E+04  0.15217767793E+04  0.50400001928E-02 0. -1.
    10030    2    1    2    0    0  0.00000000000E+00  0.00000000000E+00 -0.13886041947E+04  0.16549493640E+04  0.90035314632E+03 0.  0.
        1    1    3    3  502    0 -0.46749975492E+02  0.42115384480E+03 -0.41491626743E+03  0.59305280558E+03  0.50400001928E-02 0.  1.
       -1    1    3    3    0  502  0.46749975492E+02 -0.42115384480E+03 -0.97368792725E+03  0.10618965585E+04  0.50400001928E-02 0. -1.
</event>
<event>
 5   0  0.9981885E-04  0.9016109E+03  0.7818609E-02  0.9423570E-01
       -1   -1    0    0    0  501  0.00000000000E+00  0.00000000000E+00  0.13312867119E+03  0.13312867129E+03  0.50400001928E-02 0.  1.
        1   -1    0    0  501    0  0.00000000000E+00  0.00000000000E+00 -0.15265347947E+04  0.15265347948E+04  0.50400001928E-02 0. -1.
    10030    2    1    2    0    0  0.00000000000E+00  0.00000000000E+00 -0.13934061236E+04  0.16596634660E+04  0.90161088911E+03 0.  0.
        4    1    3    3  502    0 -0.74433995000E+01  0.26653595793E+03 -0.13658120467E+04  0.13915965583E+04  0.12699999809E+01 0. -1.
       -4    1    3    3    0  502  0.74433995000E+01 -0.26653595793E+03 -0.27594076806E+02  0.26806690777E+03  0.12699999809E+01 0.  1.
</event>
<event>
 5   0  0.1630202E-03  0.8993376E+03  0.7818609E-02  0.9426410E-01
       -2   -1    0    0    0  501  0.00000000000E+00  0.00000000000E+00  0.79660804357E+02  0.79660804398E+02  0.25500000920E-02 0.  1.
        2   -1    0    0  501    0  0.00000000000E+00  0.00000000000E+00 -0.25382873006E+04  0.25382873006E+04  0.25500000920E-02 0. -1.
    10030    2    1    2    0    0  0.00000000000E+00  0.00000000000E+00 -0.24586264962E+04  0.26179481050E+04  0.89933755200E+03 0.  0.
        4    1    3    3  502    0 -0.14386732328E+03  0.36106244970E+03 -0.18875828314E+04  0.19271830369E+04  0.12699999809E+01 0. -1.
       -4    1    3    3    0  502  0.14386732328E+03 -0.36106244970E+03 -0.57104366484E+03  0.69076506813E+03  0.12699999809E+01 0.  1.
</event>
<event>
 5   0  0.1630202E-03  0.9002621E+03  0.7818609E-02  0.9425254E-01
        2   -1    0    0  501    0  0.00000000000E+00  0.00000000000E+00  0.58271085693E+03  0.58271085693E+03  0.25500000920E-02 0.  1.
       -2   -1    0    0    0  501  0.00000000000E+00  0.00000000000E+00 -0.34771616071E+03  0.34771616072E+03  0.25500000920E-02 0. -1.
    10030    2    1    2    0    0  0.00000000000E+00  0.00000000000E+00  0.23499469622E+03  0.93042701765E+03  0.90026214400E+03 0.  0.
        4    1    3    3  502    0 -0.10922356694E+02 -0.44242913469E+03  0.20243080579E+03  0.48666485504E+03  0.12699999809E+01 0.  1.
       -4    1    3    3    0  502  0.10922356694E+02  0.44242913469E+03  0.32563890425E+02  0.44376216260E+03  0.12699999809E+01 0. -1.
</event>
<event>
 5   0  0.1007561E-03  0.8991097E+03  0.7818609E-02  0.9426695E-01
       -1   -1    0    0    0  501  0.00000000000E+00  0.00000000000E+00  0.74449783533E+02  0.74449783704E+02  0.50400001928E-02 0.  1.
        1   -1    0    0  501    0  0.00000000000E+00  0.00000000000E+00 -0.27145756840E+04  0.27145756840E+04  0.50400001928E-02 0. -1.
    10030    2    1    2    0    0  0.00000000000E+00  0.00000000000E+00 -0.26401259005E+04  0.27890254677E+04  0.89910972034E+03 0.  0.
        2    1    3    3  502    0  0.36423370237E+03  0.15766249956E+03 -0.66514040960E+03  0.77455498075E+03  0.25500000920E-02 0.  1.
       -2    1    3    3    0  502 -0.36423370237E+03 -0.15766249956E+03 -0.19749854909E+04  0.20144704870E+04  0.25500000920E-02 0. -1.
</event>
<event>
 5   0  0.6375625E-04  0.9009143E+03  0.7818609E-02  0.9424439E-01
        4   -1    0    0  501    0  0.00000000000E+00  0.00000000000E+00  0.91007898997E+03  0.91007987610E+03  0.12699999809E+01 0.  1.
       -4   -1    0    0    0  501  0.00000000000E+00  0.00000000000E+00 -0.22295768699E+03  0.22296130402E+03  0.12699999809E+01 0. -1.
    10030    2    1    2    0    0  0.00000000000E+00  0.00000000000E+00  0.68712130297E+03  0.11330411801E+04  0.90091433047E+03 0.  0.
        5    1    3    3  502    0 -0.35538485793E+03 -0.27344720088E+03  0.28993962726E+03  0.53400266513E+03  0.46999998093E+01 0. -1.
       -5    1    3    3    0  502  0.35538485793E+03  0.27344720088E+03  0.39718167571E+03  0.59903851498E+03  0.46999998093E+01 0.  1.
</event>
<event>
 5   0  0.1536020E-03  0.9005825E+03  0.7818609E-02  0.9424854E-01
        2   -1    0    0  501    0  0.00000000000E+00  0.00000000000E+00  0.11708572519E+04  0.11708572519E+04  0.25500000920E-02 0. -1.
       -2   -1    0    0    0  501  0.00000000000E+00  0.00000000000E+00 -0.17317416798E+03  0.17317416800E+03  0.25500000920E-02 0.  1.
    10030    2    1    2    0    0  0.00000000000E+00  0.00000000000E+00  0.99768308392E+03  0.13440314199E+04  0.90058254578E+03 0.  0.
        2    1    3    3  502    0  0.11709425523E+03 -0.43386199721E+03  0.54144520126E+03  0.70364067762E+03  0.25500000920E-02 0.  1.
       -2    1    3    3    0  502 -0.11709425523E+03  0.43386199721E+03  0.45623788266E+03  0.64039074229E+03  0.25500000920E-02 0. -1.
</event>
<event>
 5   0  0.1704416E-03  0.8988824E+03  0.7818609E-02  0.9426980E-01
        2   -1    0    0  501    0  0.00000000000E+00  0.00000000000E+00  0.12879381728E+04  0.12879381728E+04  0.25500000920E-02 0.  1.
       -2   -1    0    0    0  501  0.00000000000E+00  0.00000000000E+00 -0.15683779344E+03  0.15683779346E+03  0.25500000920E-02 0. -1.
    10030    2    1    2    0    0  0.00000000000E+00  0.00000000000E+00  0.11311003793E+04  0.14447759663E+04  0.89888237524E+03 0.  0.
        3    1    3    3  502    0  0.22925031049E+03  0.38170844645E+03  0.46725042313E+03  0.64543009774E+03  0.10100000352E+00 0. -1.
       -3    1    3    3    0  502 -0.22925031049E+03 -0.38170844645E+03  0.66384995621E+03  0.79934586851E+03  0.10100000352E+00 0.  1.
</event>
<event>
 5   0  0.6375625E-04  0.9009264E+03  0.7818609E-02  0.9424424E-01
       -3   -1    0    0    0  501  0.00000000000E+00  0.00000000000E+00  0.51271805152E+03  0.51271806147E+03  0.10100000352E+00 0.  1.
        3   -1    0    0  501    0  0.00000000000E+00  0.00000000000E+00 -0.39576737903E+03  0.39576739192E+03  0.10100000352E+00 0. -1.
    10030    2    1    2    0    0  0.00000000000E+00  0.00000000000E+00  0.11695067249E+03  0.90848545339E+03  0.90092638946E+03 0.  0.
        3    1    3    3  502    0 -0.62092688930E+02  0.81072956382E+02 -0.38394119816E+03  0.39728979363E+03  0.10100000352E+00 0. -1.
       -3    1    3    3    0  502  0.62092688930E+02 -0.81072956382E+02  0.50089187065E+03  0.51119565976E+03  0.10100000352E+00 0.  1.
</event>
<event>
 5   0  0.1536020E-03  0.8960593E+03  0.7818609E-02  0.9430521E-01
       -2   -1    0    0    0  501  0.00000000000E+00  0.00000000000E+00  0.51416111558E+03  0.51416111559E+03  0.25500000920E-02 0. -1.
        2   -1    0    0  501    0  0.00000000000E+00  0.00000000000E+00 -0.39040400600E+03  0.39040400601E+03  0.25500000920E-02 0.  1.
    10030    2    1    2    0    0  0.00000000000E+00  0.00000000000E+00  0.12375710959E+03  0.90456512160E+03  0.89605928210E+03 0.  0.
        2    1    3    3  502    0 -0.34122705011E+03 -0.21912260962E+03 -0.13040245051E+03  0.42597584072E+03  0.25500000920E-02 0.  1.
       -2    1    3    3    0  502  0.34122705011E+03  0.21912260962E+03  0.25415956009E+03  0.47858928087E+03  0.25500000920E-02 0. -1.
</event>
<event>
 5   0  0.1641516E-03  0.8977252E+03  0.7818609E-02  0.9428429E-01
       -2   -1    0    0    0  501  0.00000000000E+00  0.00000000000E+00  0.26646387224E+03  0.26646387226E+03  0.25500000920E-02 0.  1.
        2   -1    0    0  501    0  0.00000000000E+00  0.00000000000E+00 -0.75611615909E+03  0.75611615910E+03  0.25500000920E-02 0. -1.
    10030    2    1    2    0    0  0.00000000000E+00  0.00000000000E+00 -0.48965228685E+03  0.10225800314E+04  0.89772521325E+03 0.  0.
        1    1    3    3  502    0 -0.61287248418E+02 -0.32370983107E+03  0.10242200095E+03  0.34501369227E+03  0.50400001928E-02 0.  1.
       -1    1    3    3    0  502  0.61287248418E+02  0.32370983107E+03 -0.59207428780E+03  0.67756633908E+03  0.50400001928E-02 0. -1.
</event>
<event>
 5   0  0.9321543E-04  0.9014399E+03  0.7818609E-02  0.9423783E-01
       -1   -1    0    0    0  501  0.00000000000E+00  0.00000000000E+00  0.21029350617E+03  0.21029350623E+03  0.50400001928E-02 0. -1.
        1   -1    0    0  501    0  0.00000000000E+00  0.00000000000E+00 -0.96602345274E+03  0.96602345275E+03  0.50400001928E-02 0.  1.
    10030    2    1    2    0    0  0.00000000000E+00  0.00000000000E+00 -0.75572994657E+03  0.11763169590E+04  0.90143986813E+03 0.  0.
        3    1    3    3  502    0 -0.14319891067E+03  0.34697947997E+03 -0.52291161120E+02  0.37899216782E+03  0.10100000352E+00 0. -1.
       -3    1    3    3    0  502  0.14319891067E+03 -0.34697947997E+03 -0.70343878545E+03  0.79732479117E+03  0.10100000352E+00 0.  1.
</event>
<event>
 5   0  0.1635686E-03  0.9000291E+03  0.7818609E-02  0.9425545E-01
       -2   -1    0    0    0  501  0.00000000000E+00  0.00000000000E+00  0.20140919539E+03  0.20140919540E+03  0.25500000920E-02 0. -1.
        2   -1    0    0  501    0  0.00000000000E+00  0.00000000000E+00 -0.10054809373E+04  0.10054809373E+04  0.25500000920E-02 0.  1.
    10030    2    1    2    0    0  0.00000000000E+00  0.00000000000E+00 -0.80407174189E+03  0.12068901327E+04  0.90002912523E+03 0.  0.
        5    1    3    3  502    0 -0.19655260895E+03  0.25305908656E+03  0.21624837018E+02  0.32118772228E+03  0.46999998093E+01 0. -1.
       -5    1    3    3    0  502  0.19655260895E+03 -0.25305908656E+03 -0.82569657891E+03  0.88570241040E+03  0.46999998093E+01 0.  1.
</event>
<event>
 5   0  0.1630202E-03  0.9055014E+03  0.7818609E-02  0.9418730E-01
        2   -1    0    0  501    0  0.00000000000E+00  0.00000000000E+00  0.18687925128E+04  0.18687925128E+04  0.25500000920E-02 0. -1.
       -2   -1    0    0    0  501  0.00000000000E+00  0.00000000000E+00 -0.10968749760E+03  0.10968749763E+03  0.25500000920E-02 0.  1.
    10030    2    1    2    0    0  0.00000000000E+00  0.00000000000E+00  0.17591050152E+04  0.19784800104E+04  0.90550135129E+03 0.  0.
        4    1    3    3  502    0  0.16817545446E+03  0.41382728209E+03  0.71831585311E+03  0.84588136320E+03  0.12699999809E+01 0.  1.
       -4    1    3    3    0  502 -0.16817545446E+03 -0.41382728209E+03  0.10407891620E+04  0.11325986472E+04  0.12699999809E+01 0. -1.
</event>
<event>
 5   0  0.1536020E-03  0.8987991E+03  0.7818609E-02  0.9427084E-01
       -2   -1    0    0    0  501  0.00000000000E+00  0.00000000000E+00  0.44440240617E+03  0.44440240618E+03  0.25500000920E-02 0.  1.
        2   -1    0    0  501    0  0.00000000000E+00  0.00000000000E+00 -0.45445286824E+03  0.45445286825E+03  0.25500000920E-02 0. -1.
    10030    2    1    2    0    0  0.00000000000E+00  0.00000000000E+00 -0.10050462073E+02  0.89885527442E+03  0.89879908354E+03 0.  0.
        2    1    3    3  502    0 -0.37860931817E+03  0.19769737572E+03 -0.14478617719E+03  0.45099036052E+03  0.25500000920E-02 0.  1.
       -2    1    3    3    0  502  0.37860931817E+03 -0.19769737572E+03  0.13473571512E+03  0.44786491390E+03  0.25500000920E-02 0. -1.
</event>
<event>
 5   0  0.9321543E-04  0.9021074E+03  0.7818609E-02  0.9422951E-01
        1   -1    0    0  501    0  0.00000000000E+00  0.00000000000E+00  0.88782124603E+03  0.88782124605E+03  0.50400001928E-02 0. -1.
       -1   -1    0    0    0  501  0.00000000000E+00  0.00000000000E+00 -0.22915584562E+03  0.22915584567E+03  0.50400001928E-02 0.  1.
    10030    2    1    2    0    0  0.00000000000E+00  0.00000000000E+00  0.65866540041E+03  0.11169770917E+04  0.90210737372E+03 0.  0.
        3    1    3    3  502    0  0.92183504418E+02 -0.42135764413E+03  0.16596079264E+03  0.46215047079E+03  0.10100000352E+00 0.  1.
       -3    1    3    3    0  502 -0.92183504418E+02  0.42135764413E+03  0.49270460777E+03  0.65482662093E+03  0.10100000352E+00 0. -1.
</event>
<event>
 5   0  0.9697941E-04  0.9017418E+03  0.7818609E-02  0.9423407E-01
        1   -1    0    0  501    0  0.00000000000E+00  0.00000000000E+00  0.32618340194E+03  0.32618340198E+03  0.50400001928E-02 0.  1.
       -1   -1    0    0    0  501  0.00000000000E+00  0.00000000000E+00 -0.62322161844E+03  0.62322161846E+03  0.50400001928E-02 0. -1.
    10030    2    1    2    0    0  0.00000000000E+00  0.00000000000E+00 -0.29703821650E+03  0.94940502044E+03  0.90174175393E+03 0.  0.
        5    1    3    3  502    0 -0.18754162564E+03 -0.39273089714E+03 -0.24598975679E+02  0.43593189665E+03  0.46999998093E+01 0.  1.
       -5    1    3    3    0  502  0.18754162564E+03  0.39273089714E+03 -0.27243924082E+03  0.51347312379E+03  0.46999998093E+01 0. -1.
</event>
<event>
 5   0  0.1641516E-03  0.8997834E+03  0.7818609E-02  0.9425852E-01
        2   -1    0    0  501    0  0.00000000000E+00  0.00000000000E+00  0.14723847472E+04  0.14723847472E+04  0.25500000920E-02 0.  1.
       -2   -1    0    0    0  501  0.00000000000E+00  0.00000000000E+00 -0.13746579296E+03  0.13746579298E+03  0.25500000920E-02 0. -1.
    10030    2    1    2    0    0  0.00000000000E+00  0.00000000000E+00  0.13349189542E+04  0.16098505402E+04  0.89978338912E+03 0.  0.
        1    1    3    3  502    0 -0.71232042897E+02  0.31510892362E+03  0.12276528147E+04  0.12694483333E+04  0.50400001928E-02 0.  1.
       -1    1    3    3    0  502  0.71232042897E+02 -0.31510892362E+03  0.10726613955E+03  0.34040220681E+03  0.50400001928E-02 0. -1.
</event>
<event>
 5   0  0.1635686E-03  0.8988915E+03  0.7818609E-02  0.9426968E-01
       -2   -1    0    0    0  501  0.00000000000E+00  0.00000000000E+00  0.70848788144E+03  0.70848788145E+03  0.25500000920E-02 0. -1.
        2   -1    0    0  501    0  0.00000000000E+00  0.00000000000E+00 -0.28511635633E+03  0.28511635634E+03  0.25500000920E-02 0.  1.
    10030    2    1    2    0    0  0.00000000000E+00  0.00000000000E+00  0.42337152512E+03  0.99360423779E+03  0.89889150239E+03 0.  0.
        5    1    3    3  502    0  0.31249048066E+03  0.94607008406E+02  0.55306071078E+03  0.64226087095E+03  0.46999998093E+01 0. -1.
       -5    1    3    3    0  502 -0.31249048066E+03 -0.94607008406E+02 -0.12968918567E+03  0.35134336683E+03  0.46999998093E+01 0.  1.
</event>
<event>
 5   0  0.1635686E-03  0.8970531E+03  0.7818609E-02  0.9429273E-01
        2   -1    0    0  501    0  0.00000000000E+00  0.00000000000E+00  0.11868792987E+04  0.11868792987E+04  0.25500000920E-02 0.  1.
       -2   -1    0    0    0  501  0.00000000000E+00  0.00000000000E+00 -0.16950002974E+03  0.16950002976E+03  0.25500000920E-02 0. -1.
    10030    2    1    2    0    0  0.00000000000E+00  0.00000000000E+00  0.10173792689E+04  0.13563793284E+04  0.89705312314E+03 0.  0.
        5    1    3    3  502    0 -0.10972392408E+03 -0.43442039138E+03  0.53868638813E+03  0.70068932539E+03  0.46999998093E+01 0. -1.
       -5    1    3    3    0  502  0.10972392408E+03  0.43442039138E+03  0.47869288081E+03  0.65569000305E+03  0.46999998093E+01 0.  1.
</event>
<event>
 5   0  0.9981885E-04  0.9010889E+03  0.7818609E-02  0.9424221E-01
       -1   -1    0    0    0  501  0.00000000000E+00  0.00000000000E+00  0.22194957820E+03  0.22194957825E+03  0.50400001928E-02 0. -1.
        1   -1    0    0  501    0  0.00000000000E+00  0.00000000000E+00 -0.91457840514E+03  0.91457840515E+03  0.50400001928E-02 0.  1.
    10030    2    1    2    0    0  0.00000000000E+00  0.00000000000E+00 -0.69262882694E+03  0.11365279834E+04  0.90108887750E+03 0.  0.
        4    1    3    3  502    0 -0.41079337852E+03 -0.53174397358E+02 -0.12277906479E+03  0.43203591057E+03  0.12699999809E+01 0.  1.
       -4    1    3    3    0  502  0.41079337852E+03  0.53174397358E+02 -0.56984976215E+03  0.70449207284E+03  0.12699999809E+01 0. -1.
</event>
<event>
 5   0  0.9981885E-04  0.9023446E+03  0.7818609E-02  0.9422655E-01
       -1   -1    0    0    0  501  0.00000000000E+00  0.00000000000E+00  0.17318597942E+03  0.17318597950E+03  0.50400001928E-02 0.  1.
        1   -1    0    0  501    0  0.00000000000E+00  0.00000000000E+00 -0.11753633865E+04  0.11753633865E+04  0.50400001928E-02 0. -1.
    10030    2    1    2    0    0  0.00000000000E+00  0.00000000000E+00 -0.10021774071E+04  0.13485493660E+04  0.90234463335E+03 0.  0.
        4    1    3    3  502    0 -0.12592835235E+03 -0.42417109174E+03 -0.63287384039E+03  0.77221109533E+03  0.12699999809E+01 0.  1.
       -4    1    3    3    0  502  0.12592835235E+03  0.42417109174E+03 -0.36930356672E+03  0.57633827071E+03  0.12699999809E+01 0. -1.
</event>
<event>
 5   0  0.1007561E-03  0.8985385E+03  0.7818609E-02  0.9427410E-01
        1   -1    0    0  501    0  0.00000000000E+00  0.00000000000E+00  0.93744694923E+03  0.93744694925E+03  0.50400001928E-02 0. -1.
       -1   -1    0    0    0  501  0.00000000000E+00  0.00000000000E+00 -0.21531124190E+03  0.21531124196E+03  0.50400001928E-02 0.  1.
    10030    2    1    2    0    0  0.00000000000E+00  0.00000000000E+00  0.72213570733E+03  0.11527581912E+04  0.89853851758E+03 0.  0.
        2    1    3    3  502    0  0.37762328668E+01 -0.23974067618E+03 -0.12636460722E+03  0.27103111577E+03  0.25500000920E-02 0.  1.
       -2    1    3    3    0  502 -0.37762328668E+01  0.23974067618E+03  0.84850031456E+03  0.88172707544E+03  0.25500000920E-02 0. -1.
</event>
<event>
 5   0  0.1641516E-03  0.9002961E+03  0.7818609E-02  0.9425211E-01
       -2   -1    0    0    0  501  0.00000000000E+00  0.00000000000E+00  0.10902887300E+03  0.10902887303E+03  0.25500000920E-02 0.  1.
        2   -1    0    0  501    0  0.00000000000E+00  0.00000000000E+00 -0.18585283919E+04  0.18585283919E+04  0.25500000920E-02 0. -1.
    10030    2    1    2    0    0  0.00000000000E+00  0.00000000000E+00 -0.17494995189E+04  0.19675572650E+04  0.90029607586E+03 0.  0.
        1    1    3    3  502    0 -0.38835096274E+02  0.22620043986E+01 -0.18548480390E+04  0.18552559201E+04  0.50400001928E-02 0. -1.
       -1    1    3    3    0  502  0.38835096274E+02 -0.22620043986E+01  0.10534852002E+03  0.11230134489E+03  0.50400001928E-02 0.  1.
</event>
<event>
 5   0  0.1635686E-03  0.9001341E+03  0.7818609E-02  0.9425414E-01
       -2   -1    0    0    0  501  0.00000000000E+00  0.00000000000E+00  0.43005560092E+03  0.43005560092E+03  0.25500000920E-02 0. -1.
        2   -1    0    0  501    0  0.00000000000E+00  0.00000000000E+00 -0.47100968602E+03  0.47100968603E+03  0.25500000920E-02 0.  1.
    10030    2    1    2    0    0  0.00000000000E+00  0.00000000000E+00 -0.40954085110E+02  0.90106528695E+03  0.90013410905E+03 0.  0.
        5    1    3    3  502    0  0.21601071876E+03 -0.39418341992E+03 -0.42795047720E+02  0.45154701335E+03  0.46999998093E+01 0. -1.
       -5    1    3    3    0  502 -0.21601071876E+03  0.39418341992E+03  0.18409626099E+01  0.44951827360E+03  0.46999998093E+01 0.  1.
</event>
<event>
 5   0  0.1704416E-03  0.8924007E+03  0.7818609E-02  0.9435131E-01
        2   -1    0    0  501    0  0.00000000000E+00  0.00000000000E+00  0.90776517147E+03  0.90776517148E+03  0.25500000920E-02 0. -1.
       -2   -1    0    0    0  501  0.00000000000E+00  0.00000000000E+00 -0.21932405266E+03  0.21932405268E+03  0.25500000920E-02 0.  1.
    10030    2    1    2    0    0  0.00000000000E+00  0.00000000000E+00  0.68844111881E+03  0.11270892242E+04  0.89240066401E+03 0.  0.
        3    1    3    3  502    0 -0.41495085658E+03 -0.12053030624E+03  0.20367710868E+03  0.47769879935E+03  0.10100000352E+00 0.  1.
       -3    1    3    3    0  502  0.41495085658E+03  0.12053030624E+03  0.48476401014E+03  0.64939042480E+03  0.10100000352E+00 0. -1.
</event>
<event>
 5   0  0.9981885E-04  0.8992558E+03  0.7818609E-02  0.9426512E-01
       -1   -1    0    0    0  501  0.00000000000E+00  0.00000000000E+00  0.44007274883E+03  0.44007274886E+03  0.50400001928E-02 0.  1.
        1   -1    0    0  501    0  0.00000000000E+00  0.00000000000E+00 -0.45939049625E+03  0.45939049628E+03  0.50400001928E-02 0. -1.
    10030    2    1    2    0    0  0.00000000000E+00  0.00000000000E+00 -0.19317747425E+02  0.89946324514E+03  0.89925577785E+03 0.  0.
        4    1    3    3  502    0  0.16958188252E+03  0.13870839824E+03 -0.40238872267E+03  0.45816627076E+03  0.12699999809E+01 0. -1.
       -4    1    3    3    0  502 -0.16958188252E+03 -0.13870839824E+03  0.38307097525E+03  0.44129697438E+03  0.12699999809E+01 0.  1.
</event>
<event>
 5   0  0.1641516E-03  0.8998154E+03  0.7818609E-02  0.9425812E-01
       -2   -1    0    0    0  501  0.00000000000E+00  0.00000000000E+00  0.24705175917E+03  0.24705175918E+03  0.25500000920E-02 0. -1.
        2   -1    0    0  501    0  0.00000000000E+00  0.00000000000E+00 -0.81933003932E+03  0.81933003933E+03  0.25500000920E-02 0.  1.
    10030    2    1    2    0    0  0.00000000000E+00  0.00000000000E+00 -0.57227828016E+03  0.10663817985E+04  0.89981537565E+03 0.  0.
        1    1    3    3  502    0 -0.54731036623E+02 -0.14909782682E+03 -0.78500121132E+03  0.80090732930E+03  0.50400001928E-02 0.  1.
       -1    1    3    3    0  502  0.54731036623E+02  0.14909782682E+03  0.21272293116E+03  0.26547446921E+03  0.50400001928E-02 0. -1.
</event>
<event>
 5   0  0.9981885E-04  0.8997915E+03  0.7818609E-02  0.9425842E-01
        1   -1    0    0  501    0  0.00000000000E+00  0.00000000000E+00  0.17583422306E+04  0.17583422306E+04  0.50400001928E-02 0.  1.
       -1   -1    0    0    0  501  0.00000000000E+00  0.00000000000E+00 -0.11511193112E+03  0.11511193123E+03  0.50400001928E-02 0. -1.
    10030    2    1    2    0    0  0.00000000000E+00  0.00000000000E+00  0.16432302995E+04  0.18734541618E+04  0.89979146439E+03 0.  0.
        4    1    3    3  502    0 -0.43653150773E+03  0.55670285021E+02  0.62690146246E+03  0.76594124736E+03  0.12699999809E+01 0.  1.
       -4    1    3    3    0  502  0.43653150773E+03 -0.55670285021E+02  0.10163288370E+04  0.11075129145E+04  0.12699999809E+01 0. -1.
</event>
<event>
 5   0  0.1704416E-03  0.8998215E+03  0.7818609E-02  0.9425805E-01
       -2   -1    0    0    0  501  0.00000000000E+00  0.00000000000E+00  0.58757763517E+03  0.58757763518E+03  0.25500000920E-02 0.  1.
        2   -1    0    0  501    0  0.00000000000E+00  0.00000000000E+00 -0.34449859597E+03  0.34449859598E+03  0.25500000920E-02 0. -1.
    10030    2    1    2    0    0  0.00000000000E+00  0.00000000000E+00  0.24307903920E+03  0.93207623116E+03  0.89982147196E+03 0.  0.
        3    1    3    3  502    0 -0.20694673877E+02 -0.19682857515E+03  0.54006465575E+03  0.57518657852E+03  0.10100000352E+00 0.  1.
       -3    1    3    3    0  502  0.20694673877E+02  0.19682857515E+03 -0.29698561655E+03  0.35688965264E+03  0.10100000352E+00 0. -1.
</event>
<event>
 5   0  0.1630202E-03  0.9015173E+03  0.7818609E-02  0.9423687E-01
       -2   -1    0    0    0  501  0.00000000000E+00  0.00000000000E+00  0.16133100214E+03  0.16133100216E+03  0.25500000920E-02 0.  1.
        2   -1    0    0  501    0  0.00000000000E+00  0.00000000000E+00 -0.12594191093E+04  0.12594191093E+04  0.25500000920E-02 0. -1.
    10030    2    1    2    0    0  0.00000000000E+00  0.00000000000E+00 -0.10980881071E+04  0.14207501114E+04  0.90151727000E+03 0.  0.
        4    1    3    3  502    0  0.11761798791E+03 -0.12921970470E+03 -0.12038716192E+04  0.12164868316E+04  0.12699999809E+01 0. -1.
       -4    1    3    3    0  502 -0.11761798791E+03  0.12921970470E+03  0.10578351204E+03  0.20426327982E+03  0.12699999809E+01 0.  1.
</event>
<event>
 5   0  0.9223454E-04  0.8999061E+03  0.7818609E-02  0.9425699E-01
       -1   -1    0    0    0  501  0.00000000000E+00  0.00000000000E+00  0.16290541805E+03  0.16290541812E+03  0.50400001928E-02 0. -1.
        1   -1    0    0  501    0  0.00000000000E+00  0.00000000000E+00 -0.12427931668E+04  0.12427931668E+04  0.50400001928E-02 0.  1.
    10030    2    1    2    0    0  0.00000000000E+00  0.00000000000E+00 -0.10798877488E+04  0.14056985849E+04  0.89990608498E+03 0.  0.
        1    1    3    3  502    0  0.27201990231E+03 -0.22189257803E+03 -0.10027014188E+03  0.36508251781E+03  0.50400001928E-02 0. -1.
       -1    1    3    3    0  502 -0.27201990231E+03  0.22189257803E+03 -0.97961760688E+03  0.10406160671E+04  0.50400001928E-02 0.  1.
</event>
<event>
 5   0  0.1641516E-03  0.8997913E+03  0.7818609E-02  0.9425842E-01
        2   -1    0    0  501    0  0.00000000000E+00  0.00000000000E+00  0.12395223744E+04  0.12395223744E+04  0.25500000920E-02 0. -1.
       -2   -1    0    0    0  501  0.00000000000E+00  0.00000000000E+00 -0.16329361463E+03  0.16329361465E+03  0.25500000920E-02 0.  1.
    10030    2    1    2    0    0  0.00000000000E+00  0.00000000000E+00  0.10762287597E+04  0.14028159890E+04  0.89979128457E+03 0.  0.
        1    1    3    3  502    0  0.23600901620E+03  0.21554291671E+02  0.11343169775E+04  0.11588096688E+04  0.50400001928E-02 0. -1.
       -1    1    3    3    0  502 -0.23600901620E+03 -0.21554291671E+02 -0.58088217743E+02  0.24400632017E+03  0.50400001928E-02 0.  1.
</event>
<event>
 5   0  0.9697941E-04  0.9004964E+03  0.7818609E-02  0.9424961E-01
        1   -1    0    0  501    0  0.00000000000E+00  0.00000000000E+00  0.64931326321E+03  0.64931326323E+03  0.50400001928E-02 0. -1.
       -1   -1    0    0    0  501  0.00000000000E+00  0.00000000000E+00 -0.31221205058E+03  0.31221205062E+03  0.50400001928E-02 0.  1.
    10030    2    1    2    0    0  0.00000000000E+00  0.00000000000E+00  0.33710121263E+03  0.96152531385E+03  0.90049636402E+03 0.  0.
        5    1    3    3  502    0  0.22184466675E+03 -0.35207377812E+02  0.58518270935E+03  0.62682972882E+03  0.46999998093E+01 0. -1.
       -5    1    3    3    0  502 -0.22184466675E+03  0.35207377812E+02 -0.24808149672E+03  0.33469558502E+03  0.46999998093E+01 0.  1.
</event>
<event>
 5   0  0.9697941E-04  0.9009643E+03  0.7818609E-02  0.9424377E-01
       -1   -1    0    0    0  501  0.00000000000E+00  0.00000000000E+00  0.79174853562E+03  0.79174853564E+03  0.50400001928E-02 0.  1.
        1   -1    0    0  501    0  0.00000000000E+00  0.00000000000E+00 -0.25631138281E+03  0.25631138286E+03  0.50400001928E-02 0. -1.
    10030    2    1    2    0    0  0.00000000000E+00  0.00000000000E+00  0.53543715282E+03  0.10480599185E+04  0.90096428794E+03 0.  0.
        5    1    3    3  502    0 -0.24461469074E+03 -0.10144770671E+03  0.69160699676E+03  0.74058781525E+03  0.46999998093E+01 0.  1.
       -5    1    3    3    0  502  0.24461469074E+03  0.10144770671E+03 -0.15616984395E+03  0.30747210325E+03  0.46999998093E+01 0. -1.
</event>
<event>
 5   0  0.9981885E-04  0.9012170E+03  0.7818609E-02  0.9424061E-01
        1   -1    0    0  501    0  0.00000000000E+00  0.00000000000E+00  0.27382898082E+04  0.27382898082E+04  0.50400001928E-02 0. -1.
       -1   -1    0    0    0  501  0.00000000000E+00  0.00000000000E+00 -0.74151406894E+02  0.74151407066E+02  0.50400001928E-02 0.  1.
    10030    2    1    2    0    0  0.00000000000E+00  0.00000000000E+00  0.26641384013E+04  0.28124412152E+04  0.90121704823E+03 0.  0.
        4    1    3    3  502    0  0.17864668088E+03 -0.37057600604E+02  0.46279762920E+02  0.18823212188E+03  0.12699999809E+01 0.  1.
       -4    1    3    3    0  502 -0.17864668088E+03  0.37057600604E+02  0.26178586384E+04  0.26242090934E+04  0.12699999809E+01 0. -1.
</event>
<event>
 5   0  0.9321543E-04  0.8952122E+03  0.7818609E-02  0.9431586E-01
       -1   -1    0    0    0  501  0.00000000000E+00  0.00000000000E+00  0.87205768495E+03  0.87205768496E+03  0.50400001928E-02 0.  1.
        1   -1    0    0  501    0  0.00000000000E+00  0.00000000000E+00 -0.22974536905E+03  0.22974536910E+03  0.50400001928E-02 0. -1.
    10030    2    1    2    0    0  0.00000000000E+00  0.00000000000E+00  0.64231231590E+03  0.11018030541E+04  0.89521218646E+03 0.  0.
        3    1    3    3  502    0 -0.37400222507E+03 -0.12467635935E+03  0.58203750762E+03  0.70298615165E+03  0.10100000352E+00 0.  1.
       -3    1    3    3    0  502  0.37400222507E+03  0.12467635935E+03  0.60274808285E+02  0.39881690241E+03  0.10100000352E+00 0. -1.
</event>
<event>
 5   0  0.9321543E-04  0.8974565E+03  0.7818609E-02  0.9428766E-01
       -1   -1    0    0    0  501  0.00000000000E+00  0.00000000000E+00  0.54983755697E+03  0.54983755700E+03  0.50400001928E-02 0.  1.
        1   -1    0    0  501    0  0.00000000000E+00  0.00000000000E+00 -0.36621190965E+03  0.36621190968E+03  0.50400001928E-02 0. -1.
    10030    2    1    2    0    0  0.00000000000E+00  0.00000000000E+00  0.18362564732E+03  0.91604946668E+03  0.89745654327E+03 0.  0.
        3    1    3    3  502    0  0.35623457299E+03  0.95269284574E+02  0.35280077777E+03  0.51034077495E+03  0.10100000352E+00 0.  1.
       -3    1    3    3    0  502 -0.35623457299E+03 -0.95269284574E+02 -0.16917513045E+03  0.40570869173E+03  0.10100000352E+00 0. -1.
</event>
<event>
 5   0  0.9981885E-04  0.9002885E+03  0.7818609E-02  0.9425221E-01
        1   -1    0    0  501    0  0.00000000000E+00  0.00000000000E+00  0.12046119469E+04  0.12046119469E+04  0.50400001928E-02 0. -1.
       -1   -1    0    0    0  501  0.00000000000E+00  0.00000000000E+00 -0.16821172844E+03  0.16821172852E+03  0.50400001928E-02 0.  1.
    10030    2    1    2    0    0  0.00000000000E+00  0.00000000000E+00  0.10364002185E+04  0.13728236754E+04  0.90028852654E+03 0.  0.
        4    1    3    3  502    0  0.23068624588E+03  0.16072604284E+03  0.10542507319E+04  0.10910981732E+04  0.12699999809E+01 0. -1.
       -4    1    3    3    0  502 -0.23068624588E+03 -0.16072604284E+03 -0.17850513458E+02  0.28172550225E+03  0.12699999809E+01 0.  1.
</event>
<event>
 5   0  0.9321543E-04  0.9025638E+03  0.7818609E-02  0.9422382E-01
        1   -1    0    0  501    0  0.00000000000E+00  0.00000000000E+00  0.92120884105E+03  0.92120884107E+03  0.50400001928E-02 0. -1.
       -1   -1    0    0    0  501  0.00000000000E+00  0.00000000000E+00 -0.22107405013E+03  0.22107405019E+03  0.50400001928E-02 0.  1.
    10030    2    1    2    0    0  0.00000000000E+00  0.00000000000E+00  0.70013479092E+03  0.11422828913E+04  0.90256383608E+03 0.  0.
        3    1    3    3  502    0  0.14809503141E+03  0.29907088359E+03  0.73452559801E+03  0.80678584275E+03  0.10100000352E+00 0. -1.
       -3    1    3    3    0  502 -0.14809503141E+03 -0.29907088359E+03 -0.34390807083E+02  0.33549704850E+03  0.10100000352E+00 0.  1.
</event>
<event>
 5   0  0.9223454E-04  0.8995806E+03  0.7818609E-02  0.9426106E-01
       -1   -1    0    0    0  501  0.00000000000E+00  0.00000000000E+00  0.34772109541E+03  0.34772109545E+03  0.50400001928E-02 0. -1.
        1   -1    0    0  501    0  0.00000000000E+00  0.00000000000E+00 -0.58182059540E+03  0.58182059542E+03  0.50400001928E-02 0.  1.
    10030    2    1    2    0    0  0.00000000000E+00  0.00000000000E+00 -0.23409949999E+03  0.92954169087E+03  0.89958055736E+03 0.  0.
        1    1    3    3  502    0  0.31772039754E+03  0.29900127734E+03 -0.40301034630E+01  0.43630752529E+03  0.50400001928E-02 0. -1.
       -1    1    3    3    0  502 -0.31772039754E+03 -0.29900127734E+03 -0.23006939653E+03  0.49323416559E+03  0.50400001928E-02 0.  1.
</event>
<event>
 5   0  0.9697941E-04  0.9001987E+03  0.7818609E-02  0.9425333E-01
        1   -1    0    0  501    0  0.00000000000E+00  0.00000000000E+00  0.44013204030E+03  0.44013204033E+03  0.50400001928E-02 0.  1.
       -1   -1    0    0    0  501  0.00000000000E+00  0.00000000000E+00 -0.46029238864E+03  0.46029238867E+03  0.50400001928E-02 0. -1.
    10030    2    1    2    0    0  0.00000000000E+00  0.00000000000E+00 -0.20160348340E+02  0.90042442900E+03  0.90019870734E+03 0.  0.
        5    1    3    3  502    0 -0.92150372531E+02 -0.53432403898E+02 -0.44747762850E+03  0.46000546839E+03  0.46999998093E+01 0. -1.
       -5    1    3    3    0  502  0.92150372531E+02  0.53432403898E+02  0.42731728016E+03  0.44041896061E+03  0.46999998093E+01 0.  1.
</event>
<event>
 5   0  0.1704416E-03  0.9075125E+03  0.7818609E-02  0.9416239E-01
        2   -1    0    0  501    0  0.00000000000E+00  0.00000000000E+00  0.13436397527E+04  0.13436397527E+04  0.25500000920E-02 0.  1.
       -2   -1    0    0    0  501  0.00000000000E+00  0.00000000000E+00 -0.15323654840E+03  0.15323654842E+03  0.25500000920E-02 0. -1.
    10030    2    1    2    0    0  0.00000000000E+00  0.00000000000E+00  0.11904032043E+04  0.14968763011E+04  0.90751246386E+03 0.  0.
        3    1    3    3  502    0 -0.24593571185E+03  0.26482856434E+03  0.10477469001E+04  0.11083285252E+04  0.10100000352E+00 0.  1.
       -3    1    3    3    0  502  0.24593571185E+03 -0.26482856434E+03  0.14265630417E+03  0.38854777592E+03  0.10100000352E+00 0. -1.
</event>
<event>
 5   0  0.1536020E-03  0.8908655E+03  0.7818609E-02  0.9437073E-01
       -2   -1    0    0    0  501  0.00000000000E+00  0.00000000000E+00  0.19548997744E+03  0.19548997746E+03  0.25500000920E-02 0. -1.
        2   -1    0    0  501    0  0.00000000000E+00  0.00000000000E+00 -0.10149386846E+04  0.10149386846E+04  0.25500000920E-02 0.  1.
    10030    2    1    2    0    0  0.00000000000E+00  0.00000000000E+00 -0.81944870720E+03  0.12104286621E+04  0.89086551303E+03 0.  0.
        2    1    3    3  502    0  0.15930443858E+02 -0.12117683444E+02  0.19487866394E+03  0.19590383089E+03  0.25500000920E-02 0. -1.
       -2    1    3    3    0  502 -0.15930443858E+02  0.12117683444E+02 -0.10143273711E+04  0.10145248312E+04  0.25500000920E-02 0.  1.
</event>
<event>
 5   0  0.9697941E-04  0.9046661E+03  0.7818609E-02  0.9419767E-01
        1   -1    0    0  501    0  0.00000000000E+00  0.00000000000E+00  0.72987129252E+03  0.72987129254E+03  0.50400001928E-02 0.  1.
       -1   -1    0    0    0  501  0.00000000000E+00  0.00000000000E+00 -0.28033052858E+03  0.28033052863E+03  0.50400001928E-02 0. -1.
    10030    2    1    2    0    0  0.00000000000E+00  0.00000000000E+00  0.44954076394E+03  0.10102018212E+04  0.90466613789E+03 0.  0.
        5    1    3    3  502    0  0.97653126972E+02  0.24349253421E+03  0.63620716568E+03  0.68819066769E+03  0.46999998093E+01 0.  1.
       -5    1    3    3    0  502 -0.97653126972E+02 -0.24349253421E+03 -0.18666640175E+03  0.32201115348E+03  0.46999998093E+01 0. -1.
</event>
<event>
 5   0  0.1704416E-03  0.8968916E+03  0.7818609E-02  0.9429475E-01
       -2   -1    0    0    0  501  0.00000000000E+00  0.00000000000E+00  0.24782028173E+03  0.24782028174E+03  0.25500000920E-02 0.  1.
        2   -1    0    0  501    0  0.00000000000E+00  0.00000000000E+00 -0.81148984372E+03  0.81148984373E+03  0.25500000920E-02 0. -1.
    10030    2    1    2    0    0  0.00000000000E+00  0.00000000000E+00 -0.56366956199E+03  0.10593101255E+04  0.89689161375E+03 0.  0.
        3    1    3    3  502    0  0.17292909469E+03  0.79280459385E+02 -0.76147061071E+03  0.78487410723E+03  0.10100000352E+00 0. -1.
       -3    1    3    3    0  502 -0.17292909469E+03 -0.79280459385E+02  0.19780104872E+03  0.27443601824E+03  0.10100000352E+00 0.  1.
</event>
<event>
 5   0  0.1641516E-03  0.8999286E+03  0.7818609E-02  0.9425671E-01
        2   -1    0    0  501    0  0.00000000000E+00  0.00000000000E+00  0.17181469629E+04  0.17181469629E+04  0.25500000920E-02 0. -1.
       -2   -1    0    0    0  501  0.00000000000E+00  0.00000000000E+00 -0.11784082651E+03  0.11784082653E+03  0.25500000920E-02 0.  1.
    10030    2    1    2    0    0  0.00000000000E+00  0.00000000000E+00  0.16003061364E+04  0.18359877895E+04  0.89992857094E+03 0.  0.
        1    1    3    3  502    0 -0.11846504542E+02  0.69308141032E+02  0.17068696845E+04  0.17083173235E+04  0.50400001928E-02 0. -1.
       -1    1    3    3    0  502  0.11846504542E+02 -0.69308141032E+02 -0.10656354803E+03  0.12767046595E+03  0.50400001928E-02 0.  1.
</event>
<event>
 5   0  0.1630202E-03  0.9010617E+03  0.7818609E-02  0.9424255E-01
        2   -1    0    0  501    0  0.00000000000E+00  0.00000000000E+00  0.92772202431E+03  0.92772202431E+03  0.25500000920E-02 0. -1.
       -2   -1    0    0    0  501  0.00000000000E+00  0.00000000000E+00 -0.21879189278E+03  0.21879189280E+03  0.25500000920E-02 0.  1.
    10030    2    1    2    0    0  0.00000000000E+00  0.00000000000E+00  0.70893013152E+03  0.11465139171E+04  0.90106172416E+03 0.  0.
        4    1    3    3  502    0  0.12240466938E+03  0.20168455779E+03  0.84283739189E+03  0.87523485191E+03  0.12699999809E+01 0. -1.
       -4    1    3    3    0  502 -0.12240466938E+03 -0.20168455779E+03 -0.13390726036E+03  0.27127906520E+03  0.12699999809E+01 0.  1.
</event>
<event>
 5   0  0.1536020E-03  0.9003351E+03  0.7818609E-02  0.9425163E-01
        2   -1    0    0  501    0  0.00000000000E+00  0.00000000000E+00  0.52391681020E+03  0.52391681021E+03  0.25500000920E-02 0.  1.
       -2   -1    0    0    0  501  0.00000000000E+00  0.00000000000E+00 -0.38679957805E+03  0.38679957805E+03  0.25500000920E-02 0. -1.
    10030    2    1    2    0    0  0.00000000000E+00  0.00000000000E+00  0.13711723216E+03  0.91071638826E+03  0.90033505124E+03 0.  0.
        2    1    3    3  502    0 -0.99331237832E+02 -0.43387154019E+03  0.40522826984E+00  0.44509703707E+03  0.25500000920E-02 0.  1.
       -2    1    3    3    0  502  0.99331237832E+02  0.43387154019E+03  0.13671200389E+03  0.46561935119E+03  0.25500000920E-02 0. -1.
</event>
<event>
 5   0  0.9697941E-04  0.8965369E+03  0.7818609E-02  0.9429921E-01
        1   -1    0    0  501    0  0.00000000000E+00  0.00000000000E+00  0.39783504354E+03  0.39783504358E+03  0.50400001928E-02 0.  1.
       -1   -1    0    0    0  501  0.00000000000E+00  0.00000000000E+00 -0.50509530976E+03  0.50509530979E+03  0.50400001928E-02 0. -1.
    10030    2    1    2    0    0  0.00000000000E+00  0.00000000000E+00 -0.10726026622E+03  0.90293035336E+03  0.89653692524E+03 0.  0.
        5    1    3    3  502    0  0.52039954691E+02 -0.27709516681E+03 -0.40458703131E+03  0.49315580120E+03  0.46999998093E+01 0. -1.
       -5    1    3    3    0  502 -0.52039954691E+02  0.27709516681E+03  0.29732676510E+03  0.40977455216E+03  0.46999998093E+01 0.  1.
</event>
<event>
 5   0  0.1536020E-03  0.9009976E+03  0.7818609E-02  0.9424335E-01
        2   -1    0    0  501    0  0.00000000000E+00  0.00000000000E+00  0.26545979368E+03  0.26545979369E+03  0.25500000920E-02 0.  1.
       -2   -1    0    0    0  501  0.00000000000E+00  0.00000000000E+00 -0.76451937173E+03  0.76451937173E+03  0.25500000920E-02 0. -1.
    10030    2    1    2    0    0  0.00000000000E+00  0.00000000000E+00 -0.49905957805E+03  0.10299791654E+04  0.90099756867E+03 0.  0.
        2    1    3    3  502    0  0.33145946172E+03 -0.69506248661E+02 -0.58913060581E+03  0.67953761050E+03  0.25500000920E-02 0. -1.
       -2    1    3    3    0  502 -0.33145946172E+03  0.69506248661E+02  0.90071027762E+02  0.35044155492E+03  0.25500000920E-02 0.  1.
</event>
<event>
 5   0  0.9697941E-04  0.8980741E+03  0.7818609E-02  0.9427992E-01
        1   -1    0    0  501    0  0.00000000000E+00  0.00000000000E+00  0.56915675521E+03  0.56915675523E+03  0.50400001928E-02 0. -1.
       -1   -1    0    0    0  501  0.00000000000E+00  0.00000000000E+00 -0.35426845875E+03  0.35426845879E+03  0.50400001928E-02 0.  1.
    10030    2    1    2    0    0  0.00000000000E+00  0.00000000000E+00  0.21488829645E+03  0.92342521402E+03  0.89807413165E+03 0.  0.
        5    1    3    3  502    0  0.16765379292E+03 -0.29054988777E+03  0.41434086044E+03  0.53312988117E+03  0.46999998093E+01 0. -1.
       -5    1    3    3    0  502 -0.16765379292E+03  0.29054988777E+03 -0.19945256399E+03  0.39029533285E+03  0.46999998093E+01 0.  1.
</event>
<event>
 5   0  0.1007561E-03  0.8998239E+03  0.7818609E-02  0.9425802E-01
       -1   -1    0    0    0  501  0.00000000000E+00  0.00000000000E+00  0.14446740310E+03  0.14446740319E+03  0.50400001928E-02 0. -1.
        1   -1    0    0  501    0  0.00000000000E+00  0.00000000000E+00 -0.14011516655E+04  0.14011516655E+04  0.50400001928E-02 0.  1.
    10030    2    1    2    0    0  0.00000000000E+00  0.00000000000E+00 -0.12566842624E+04  0.15456190687E+04  0.89982385510E+03 0.  0.
        2    1    3    3  502    0 -0.20792826503E+03 -0.35359231806E+03 -0.94580860471E+03  0.10309294872E+04  0.25500000920E-02 0.  1.
       -2    1    3    3    0  502  0.20792826503E+03  0.35359231806E+03 -0.31087565773E+03  0.51468958156E+03  0.25500000920E-02 0. -1.
</event>
<event>
 5   0  0.1007561E-03  0.9012651E+03  0.7818609E-02  0.9424001E-01
        1   -1    0    0  501    0  0.00000000000E+00  0.00000000000E+00  0.11988579579E+04  0.11988579579E+04  0.50400001928E-02 0.  1.
       -1   -1    0    0    0  501  0.00000000000E+00  0.00000000000E+00 -0.16938596822E+03  0.16938596830E+03  0.50400001928E-02 0. -1.
    10030    2    1    2    0    0  0.00000000000E+00  0.00000000000E+00  0.10294719897E+04  0.13682439262E+04  0.90126514639E+03 0.  0.
        2    1    3    3  502    0  0.40045788518E+03 -0.94175135439E+02  0.23548856880E+03  0.47401512632E+03  0.25500000920E-02 0. -1.
       -2    1    3    3    0  502 -0.40045788518E+03  0.94175135439E+02  0.79398342090E+03  0.89422879992E+03  0.25500000920E-02 0.  1.
</event>
<event>
 5   0  0.9981885E-04  0.8971026E+03  0.7818609E-02  0.9429211E-01
       -1   -1    0    0    0  501  0.00000000000E+00  0.00000000000E+00  0.20204135213E+03  0.20204135219E+03  0.50400001928E-02 0.  1.
        1   -1    0    0  501    0  0.00000000000E+00  0.00000000000E+00 -0.99582707292E+03  0.99582707293E+03  0.50400001928E-02 0. -1.
    10030    2    1    2    0    0  0.00000000000E+00  0.00000000000E+00 -0.79378572079E+03  0.11978684251E+04  0.89710255455E+03 0.  0.
        4    1    3    3  502    0 -0.21165754938E+03  0.30108323688E+01  0.13115056828E+03  0.24901820773E+03  0.12699999809E+01 0.  1.
       -4    1    3    3    0  502  0.21165754938E+03 -0.30108323688E+01 -0.92493628906E+03  0.94885021739E+03  0.12699999809E+01 0. -1.
</event>
<event>
 5   0  0.1641516E-03  0.8996539E+03  0.7818609E-02  0.9426014E-01
       -2   -1    0    0    0  501  0.00000000000E+00  0.00000000000E+00  0.62346946288E+03  0.62346946289E+03  0.25500000920E-02 0. -1.
        2   -1    0    0  501    0  0.00000000000E+00  0.00000000000E+00 -0.32454564630E+03  0.32454564631E+03  0.25500000920E-02 0.  1.
    10030    2    1    2    0    0  0.00000000000E+00  0.00000000000E+00  0.29892381658E+03  0.94801510920E+03  0.89965393299E+03 0.  0.
        1    1    3    3  502    0 -0.41195295224E+03 -0.26264571851E+02  0.33781381579E+03  0.53339782223E+03  0.50400001928E-02 0. -1.
       -1    1    3    3    0  502  0.41195295224E+03  0.26264571851E+02 -0.38889999204E+02  0.41461728697E+03  0.50400001928E-02 0.  1.
</event>
<event>
 5   0  0.1630202E-03  0.8995296E+03  0.7818609E-02  0.9426170E-01
       -2   -1    0    0    0  501  0.00000000000E+00  0.00000000000E+00  0.53918838754E+03  0.53918838755E+03  0.25500000920E-02 0. -1.
        2   -1    0    0  501    0  0.00000000000E+00  0.00000000000E+00 -0.37517201061E+03  0.37517201062E+03  0.25500000920E-02 0.  1.
    10030    2    1    2    0    0  0.00000000000E+00  0.00000000000E+00  0.16401637693E+03  0.91436039817E+03  0.89952963588E+03 0.  0.
        4    1    3    3  502    0  0.40069550254E+03  0.10355441568E+03 -0.96981262159E+02  0.42507338293E+03  0.12699999809E+01 0.  1.
       -4    1    3    3    0  502 -0.40069550254E+03 -0.10355441568E+03  0.26099763909E+03  0.48928701523E+03  0.12699999809E+01 0. -1.
</event>
<event>
 5   0  0.9321543E-04  0.8992787E+03  0.7818609E-02  0.9426484E-01
       -1   -1    0    0    0  501  0.00000000000E+00  0.00000000000E+00  0.13962792527E+03  0.13962792536E+03  0.50400001928E-02 0. -1.
        1   -1    0    0  501    0  0.00000000000E+00  0.00000000000E+00 -0.14479592058E+04  0.14479592058E+04  0.50400001928E-02 0.  1.
    10030    2    1    2    0    0  0.00000000000E+00  0.00000000000E+00 -0.13083312805E+04  0.15875871312E+04  0.89927868843E+03 0.  0.
        3    1    3    3  502    0  0.13274168780E+03 -0.39272672103E+03 -0.96157301923E+03  0.10471281271E+04  0.10100000352E+00 0. -1.
       -3    1    3    3    0  502 -0.13274168780E+03  0.39272672103E+03 -0.34675826132E+03  0.54045900408E+03  0.10100000352E+00 0.  1.
</event>
<event>
 5   0  0.1704416E-03  0.8982843E+03  0.7818609E-02  0.9427729E-01
       -2   -1    0    0    0  501  0.00000000000E+00  0.00000000000E+00  0.92105403799E+03  0.92105403799E+03  0.25500000920E-02 0.  1.
        2   -1    0    0  501    0  0.00000000000E+00  0.00000000000E+00 -0.21901938762E+03  0.21901938763E+03  0.25500000920E-02 0. -1.
    10030    2    1    2    0    0  0.00000000000E+00  0.00000000000E+00  0.70203465037E+03  0.11400734256E+04  0.89828434557E+03 0.  0.
        3    1    3    3  502    0  0.11617397811E+03  0.19267795775E+02 -0.19907723786E+03  0.23129936874E+03  0.10100000352E+00 0. -1.
       -3    1    3    3    0  502 -0.11617397811E+03 -0.19267795775E+02  0.90111188823E+03  0.90877405688E+03  0.10100000352E+00 0.  1.
</event>
<event>
 5   0  0.9321543E-04  0.9008125E+03  0.7818609E-02  0.9424566E-01
       -1   -1    0    0    0  501  0.00000000000E+00  0.00000000000E+00  0.26836636134E+03  0.26836636138E+03  0.50400001928E-02 0.  1.
        1   -1    0    0  501    0  0.00000000000E+00  0.00000000000E+00 -0.75592852990E+03  0.75592852992E+03  0.50400001928E-02 0. -1.
    10030    2    1    2    0    0  0.00000000000E+00  0.00000000000E+00 -0.48756216857E+03  0.10242948913E+04  0.90081249777E+03 0.  0.
        3    1    3    3  502    0  0.31697740731E+03  0.92058912039E+02  0.10468538555E+03  0.34627815435E+03  0.10100000352E+00 0.  1.
       -3    1    3    3    0  502 -0.31697740731E+03 -0.92058912039E+02 -0.59224755412E+03  0.67801673695E+03  0.10100000352E+00 0. -1.
</event>
<event>
 5   0  0.1007561E-03  0.9004686E+03  0.7818609E-02  0.9424996E-01
       -1   -1    0    0    0  501  0.00000000000E+00  0.00000000000E+00  0.14165734059E+03  0.14165734068E+03  0.50400001928E-02 0.  1.
        1   -1    0    0  501    0  0.00000000000E+00  0.00000000000E+00 -0.14309947676E+04  0.14309947676E+04  0.50400001928E-02 0. -1.
    10030    2    1    2    0    0  0.00000000000E+00  0.00000000000E+00 -0.12893374270E+04  0.15726521083E+04  0.90046857413E+03 0.  0.
        2    1    3    3  502    0  0.17785350546E+03 -0.41068912987E+03 -0.73046849317E+03  0.85666892690E+03  0.25500000920E-02 0.  1.
       -2    1    3    3    0  502 -0.17785350546E+03  0.41068912987E+03 -0.55886893382E+03  0.71598318136E+03  0.25500000920E-02 0. -1.
</event>
<event>
 5   0  0.1536020E-03  0.9002358E+03  0.7818609E-02  0.9425287E-01
        2   -1    0    0  501    0  0.00000000000E+00  0.00000000000E+00  0.25054531109E+03  0.25054531110E+03  0.25500000920E-02 0. -1.
       -2   -1    0    0    0  501  0.00000000000E+00  0.00000000000E+00 -0.80866057822E+03  0.80866057823E+03  0.25500000920E-02 0.  1.
    10030    2    1    2    0    0  0.00000000000E+00  0.00000000000E+00 -0.55811526714E+03  0.10592058893E+04  0.90023578277E+03 0.  0.
        2    1    3    3  502    0  0.56797629424E+02 -0.30778888650E+03 -0.65967249026E+03  0.73015598592E+03  0.25500000920E-02 0.  1.
       -2    1    3    3    0  502 -0.56797629424E+02  0.30778888650E+03  0.10155722312E+03  0.32904990341E+03  0.25500000920E-02 0. -1.
</event>
<event>
 5   0  0.9697941E-04  0.9002340E+03  0.7818609E-02  0.9425289E-01
        1   -1    0    0  501    0  0.00000000000E+00  0.00000000000E+00  0.26700326816E+04  0.26700326816E+04  0.50400001928E-02 0. -1.
       -1   -1    0    0    0  501  0.00000000000E+00  0.00000000000E+00 -0.75881203286E+02  0.75881203454E+02  0.50400001928E-02 0.  1.
    10030    2    1    2    0    0  0.00000000000E+00  0.00000000000E+00  0.25941514784E+04  0.27459138851E+04  0.90023395389E+03 0.  0.
        5    1    3    3  502    0  0.37117508914E+02 -0.25453781213E+03  0.17049019919E+03  0.30863604017E+03  0.46999998093E+01 0.  1.
       -5    1    3    3    0  502 -0.37117508914E+02  0.25453781213E+03  0.24236612792E+04  0.24372778449E+04  0.46999998093E+01 0. -1.
</event>
<event>
 5   0  0.9223454E-04  0.9015042E+03  0.7818609E-02  0.9423703E-01
       -1   -1    0    0    0  501  0.00000000000E+00  0.00000000000E+00  0.16690438533E+03  0.16690438541E+03  0.50400001928E-02 0.  1.
        1   -1    0    0  501    0  0.00000000000E+00  0.00000000000E+00 -0.12173284281E+04  0.12173284281E+04  0.50400001928E-02 0. -1.
    10030    2    1    2    0    0  0.00000000000E+00  0.00000000000E+00 -0.10504240428E+04  0.13842328135E+04  0.90150419433E+03 0.  0.
        1    1    3    3  502    0 -0.11128078681E+03  0.37811407241E+03 -0.18942541155E+03  0.43730498720E+03  0.50400001928E-02 0. -1.
       -1    1    3    3    0  502  0.11128078681E+03 -0.37811407241E+03 -0.86099863122E+03  0.94692782631E+03  0.50400001928E-02 0.  1.
</event>
<event>
 5   0  0.1630202E-03  0.8999581E+03  0.7818609E-02  0.9425634E-01
       -2   -1    0    0    0  501  0.00000000000E+00  0.00000000000E+00  0.10447761913E+03  0.10447761916E+03  0.25500000920E-02 0. -1.
        2   -1    0    0  501    0  0.00000000000E+00  0.00000000000E+00 -0.19380337516E+04  0.19380337516E+04  0.25500000920E-02 0.  1.
    10030    2    1    2    0    0  0.00000000000E+00  0.00000000000E+00 -0.18335561324E+04  0.20425113707E+04  0.89995811501E+03 0.  0.
        4    1    3    3  502    0  0.40315682894E+03  0.16447840619E+03 -0.65909558643E+03  0.78993492123E+03  0.12699999809E+01 0. -1.
       -4    1    3    3    0  502 -0.40315682894E+03 -0.16447840619E+03 -0.11744605460E+04  0.12525764495E+04  0.12699999809E+01 0.  1.
</event>
<event>
 5   0  0.9223454E-04  0.8993502E+03  0.7818609E-02  0.9426394E-01
        1   -1    0    0  501    0  0.00000000000E+00  0.00000000000E+00  0.57939828218E+03  0.57939828220E+03  0.50400001928E-02 0.  1.
       -1   -1    0    0    0  501  0.00000000000E+00  0.00000000000E+00 -0.34899603602E+03  0.34899603605E+03  0.50400001928E-02 0. -1.
    10030    2    1    2    0    0  0.00000000000E+00  0.00000000000E+00  0.23040224617E+03  0.92839431826E+03  0.89935021829E+03 0.  0.
        1    1    3    3  502    0  0.73250321390E+02 -0.33624278690E+03 -0.18359934832E+03  0.39004300026E+03  0.50400001928E-02 0. -1.
       -1    1    3    3    0  502 -0.73250321390E+02  0.33624278690E+03  0.41400159449E+03  0.53835131800E+03  0.50400001928E-02 0.  1.
</event>
<event>
 5   0  0.1630202E-03  0.9011259E+03  0.7818609E-02  0.9424175E-01
        2   -1    0    0  501    0  0.00000000000E+00  0.00000000000E+00  0.75624932923E+03  0.75624932923E+03  0.25500000920E-02 0.  1.
       -2   -1    0    0    0  501  0.00000000000E+00  0.00000000000E+00 -0.26843920447E+03  0.26843920448E+03  0.25500000920E-02 0. -1.
    10030    2    1    2    0    0  0.00000000000E+00  0.00000000000E+00  0.48781012476E+03  0.10246885337E+04  0.90112589204E+03 0.  0.
        4    1    3    3  502    0 -0.30788104389E+02 -0.41688516894E+03  0.43507728409E+03  0.60335313663E+03  0.12699999809E+01 0.  1.
       -4    1    3    3    0  502  0.30788104389E+02  0.41688516894E+03  0.52732840675E+02  0.42133539709E+03  0.12699999809E+01 0. -1.
</event>
<event>
 5   0  0.1635686E-03  0.9008792E+03  0.7818609E-02  0.9424483E-01
       -2   -1    0    0    0  501  0.00000000000E+00  0.00000000000E+00  0.34566542451E+03  0.34566542452E+03  0.25500000920E-02 0.  1.
        2   -1    0    0  501    0  0.00000000000E+00  0.00000000000E+00 -0.58697177481E+03  0.58697177482E+03  0.25500000920E-02 0. -1.
    10030    2    1    2    0    0  0.00000000000E+00  0.00000000000E+00 -0.24130635030E+03  0.93263719934E+03  0.90087923214E+03 0.  0.
        5    1    3    3  502    0 -0.39005011318E+03 -0.22508788063E+03 -0.11198465017E+03  0.46407574454E+03  0.46999998093E+01 0. -1.
       -5    1    3    3    0  502  0.39005011318E+03  0.22508788063E+03 -0.12932170013E+03  0.46856145480E+03  0.46999998093E+01 0.  1.
</event>
<event>
 5   0  0.9981885E-04  0.8992110E+03  0.7818609E-02  0.9426568E-01
       -1   -1    0    0    0  501  0.00000000000E+00  0.00000000000E+00  0.86192493179E+03  0.86192493181E+03  0.50400001928E-02 0. -1.
        1   -1    0    0  501    0  0.00000000000E+00  0.00000000000E+00 -0.23452749223E+03  0.23452749229E+03  0.50400001928E-02 0.  1.
    10030    2    1    2    0    0  0.00000000000E+00  0.00000000000E+00  0.62739743956E+03  0.10964524241E+04  0.89921097143E+03 0.  0.
        4    1    3    3  502    0  0.11713400223E+03 -0.34829130649E+03 -0.21958097493E+01  0.36746924107E+03  0.12699999809E+01 0.  1.
       -4    1    3    3    0  502 -0.11713400223E+03  0.34829130649E+03  0.62959324931E+03  0.72898318302E+03  0.12699999809E+01 0. -1.
</event>
<event>
 5   0  0.1635686E-03  0.8983445E+03  0.7818609E-02  0.9427653E-01
        2   -1    0    0  501    0  0.00000000000E+00  0.00000000000E+00  0.15991105964E+04  0.15991105964E+04  0.25500000920E-02 0.  1.
       -2   -1    0    0    0  501  0.00000000000E+00  0.00000000000E+00 -0.12616746400E+03  0.12616746403E+03  0.25500000920E-02 0. -1.
    10030    2    1    2    0    0  0.00000000000E+00  0.00000000000E+00  0.14729431324E+04  0.17252780604E+04  0.89834454110E+03 0.  0.
        5    1    3    3  502    0 -0.24803965931E+03 -0.23184242631E+03  0.13011762758E+04  0.13447514171E+04  0.46999998093E+01 0.  1.
       -5    1    3    3    0  502  0.24803965931E+03  0.23184242631E+03  0.17176685661E+03  0.38052664329E+03  0.46999998093E+01 0. -1.
</event>
<event>
 5   0  0.6375625E-04  0.9010794E+03  0.7818609E-02  0.9424233E-01
       -4   -1    0    0    0  501  0.00000000000E+00  0.00000000000E+00  0.39924081995E+03  0.39924283990E+03  0.12699999809E+01 0. -1.
        4   -1    0    0  501    0  0.00000000000E+00  0.00000000000E+00 -0.50842594499E+03  0.50842753116E+03  0.12699999809E+01 0.  1.
    10030    2    1    2    0    0  0.00000000000E+00  0.00000000000E+00 -0.10918512504E+03  0.90767037106E+03  0.90107941435E+03 0.  0.
        3    1    3    3  502    0  0.39033708555E+03  0.23365576230E+02  0.17082324071E+03  0.42671955694E+03  0.10100000352E+00 0. -1.
       -3    1    3    3    0  502 -0.39033708555E+03 -0.23365576230E+02 -0.28000836575E+03  0.48095081412E+03  0.10100000352E+00 0.  1.
</event>
<event>
 5   0  0.1536020E-03  0.9012696E+03  0.7818609E-02  0.9423996E-01
       -2   -1    0    0    0  501  0.00000000000E+00  0.00000000000E+00  0.40256994847E+03  0.40256994847E+03  0.25500000920E-02 0.  1.
        2   -1    0    0  501    0  0.00000000000E+00  0.00000000000E+00 -0.50443837484E+03  0.50443837485E+03  0.25500000920E-02 0. -1.
    10030    2    1    2    0    0  0.00000000000E+00  0.00000000000E+00 -0.10186842638E+03  0.90700832332E+03  0.90126961687E+03 0.  0.
        2    1    3    3  502    0 -0.38698757252E+03 -0.23076309246E+03 -0.43090715199E+02  0.45262323833E+03  0.25500000920E-02 0.  1.
       -2    1    3    3    0  502  0.38698757252E+03  0.23076309246E+03 -0.58777711179E+02  0.45438508500E+03  0.25500000920E-02 0. -1.
</event>
<event>
 5   0  0.9321543E-04  0.8985345E+03  0.7818609E-02  0.9427415E-01
       -1   -1    0    0    0  501  0.00000000000E+00  0.00000000000E+00  0.14046285503E+03  0.14046285512E+03  0.50400001928E-02 0.  1.
        1   -1    0    0  501    0  0.00000000000E+00  0.00000000000E+00 -0.14369711458E+04  0.14369711458E+04  0.50400001928E-02 0. -1.
    10030    2    1    2    0    0  0.00000000000E+00  0.00000000000E+00 -0.12965082908E+04  0.15774340010E+04  0.89853451758E+03 0.  0.
        3    1    3    3  502    0 -0.24872396860E+03 -0.58362160710E+02 -0.12970322168E+04  0.13219539840E+04  0.10100000352E+00 0. -1.
       -3    1    3    3    0  502  0.24872396860E+03  0.58362160710E+02  0.52392595186E+00  0.25548001695E+03  0.10100000352E+00 0.  1.
</event>
</LesHouchesEvents>
