<LesHouchesEvents version="3.0">
<header>
<!--
#*********************************************************************
#                                                                    *
#                        MadGraph5_aMC@NLO                           *
#                                                                    *
#                           Going Beyond                             *
#                                                                    *
#                   http://madgraph.hep.uiuc.edu                     *
#                   http://madgraph.phys.ucl.ac.be                   *
#                   http://amcatnlo.cern.ch                          *
#                                                                    *
#                     The MadGraph5_aMC@NLO team                     *
#                                                                    *
#....................................................................*
#                                                                    *
# This file contains all the information necessary to reproduce      *
# the events generated:                                              *
#                                                                    *
# 1. software version                                                *
# 2. proc_card          : code generation info including model       *
# 3. param_card         : model primary parameters in the LH format  *
# 4. run_card           : running parameters (collider and cuts)     *
# 5. pythia_card        : present only if pythia has been run        *
# 6. pgs_card           : present only if pgs has been run           *
# 7. delphes_cards      : present only if delphes has been run       *
#                                                                    *
#                                                                    *
#*********************************************************************
-->
<MGVersion>
#5.2.2.3
</MGVersion>
<MG5ProcCard>
#************************************************************
#*                     MadGraph5_aMC@NLO                    *
#*                                                          *
#*                *                       *                 *
#*                  *        * *        *                   *
#*                    * * * * 5 * * * *                     *
#*                  *        * *        *                   *
#*                *                       *                 *
#*                                                          *
#*                                                          *
#*         VERSION 2.2.3                 2015-02-10         *
#*                                                          *
#*    The MadGraph5_aMC@NLO Development Team - Find us at   *
#*    https://server06.fynu.ucl.ac.be/projects/madgraph     *
#*                                                          *
#************************************************************
#*                                                          *
#*               Command File for MadGraph5_aMC@NLO         *
#*                                                          *
#*     run as ./bin/mg5_aMC  filename                       *
#*                                                          *
#************************************************************
set group_subprocesses Auto
set ignore_six_quark_processes False
set loop_optimized_output True
set gauge unitary
set complex_mass_scheme False
import model sm
define p = g u c d s u~ c~ d~ s~
define j = g u c d s u~ c~ d~ s~
define l+ = e+ mu+
define l- = e- mu-
define vl = ve vm vt
define vl~ = ve~ vm~ vt~
import model Zprime_UFO
generate p p > zph, zph > j j
add process p p > zph, zph > b b~
output Dijet_signal
</MG5ProcCard>
<MGProcCard>
#*********************************************************************
#                        MadGraph/MadEvent                           *
#                   http://madgraph.hep.uiuc.edu                     *
#                                                                    *
#                          proc_card.dat                             *
#*********************************************************************
#                                                                    *
#            This Files is generated by MADGRAPH 5                   *
#                                                                    *
# WARNING: This Files is generated for MADEVENT (compatibility issue)*
#          This files is NOT a valid MG4 proc_card.dat               *
#          Running this in MG4 will NEVER reproduce the result of MG5*
#                                                                    *
#*********************************************************************
#*********************************************************************
# Process(es) requested : mg2 input                                  *
#*********************************************************************
# Begin PROCESS # This is TAG. Do not modify this line
p p > zph , zph > j j           #Process
# Be carefull the coupling are here in MG5 convention
          
end_coup           # End the couplings input

done               # this tells MG there are no more procs
# End PROCESS  # This is TAG. Do not modify this line
#*********************************************************************
# Model information                                                  *
#*********************************************************************
# Begin MODEL  # This is TAG. Do not modify this line
Zprime_UFO
# End   MODEL  # This is TAG. Do not modify this line
#*********************************************************************
# Start multiparticle definitions                                    *
#*********************************************************************
# Begin MULTIPARTICLES # This is TAG. Do not modify this line

# End  MULTIPARTICLES # This is TAG. Do not modify this line
</MGProcCard>
<MGRunCard>
#*********************************************************************
#                       MadGraph5_aMC@NLO                            *
#                                                                    *
#                     run_card.dat MadEvent                          *
#                                                                    *
#  This file is used to set the parameters of the run.               *
#                                                                    *
#  Some notation/conventions:                                        *
#                                                                    *
#   Lines starting with a '# ' are info or comments                  *
#                                                                    *
#   mind the format:   value    = variable     ! comment             *
#*********************************************************************
#
#*******************                                                 
# Running parameters
#*******************                                                 
#                                                                    
#*********************************************************************
# Tag name for the run (one word)                                    *
#*********************************************************************
  tag_1     = run_tag ! name of the run 
#*********************************************************************
# Run to generate the grid pack                                      *
#*********************************************************************
  .false.     = gridpack  !True = setting up the grid pack
#*********************************************************************
# Number of events and rnd seed                                      *
# Warning: Do not generate more than 1M events in a single run       *
# If you want to run Pythia, avoid more than 50k events in a run.    *
#*********************************************************************
  2000 = nevents ! Number of unweighted events requested 
 3018 = iseed   ! rnd seed (0=assigned automatically=default))
#*********************************************************************
# Collider type and energy                                           *
# lpp: 0=No PDF, 1=proton, -1=antiproton, 2=photon from proton,      *
#                                         3=photon from electron     *
#*********************************************************************
        1     = lpp1    ! beam 1 type 
        1     = lpp2    ! beam 2 type
     4000     = ebeam1  ! beam 1 total energy in GeV
     4000     = ebeam2  ! beam 2 total energy in GeV
#*********************************************************************
# Beam polarization from -100 (left-handed) to 100 (right-handed)    *
#*********************************************************************
        0     = polbeam1 ! beam polarization for beam 1
        0     = polbeam2 ! beam polarization for beam 2
#*********************************************************************
# PDF CHOICE: this automatically fixes also alpha_s and its evol.    *
#*********************************************************************
 'nn23lo1'    = pdlabel     ! PDF set                                     
 230000    = lhaid     ! if pdlabel=lhapdf, this is the lhapdf number
#*********************************************************************
# Renormalization and factorization scales                           *
#*********************************************************************
 F        = fixed_ren_scale  ! if .true. use fixed ren scale
 F        = fixed_fac_scale  ! if .true. use fixed fac scale
 91.1880  = scale            ! fixed ren scale
 91.1880  = dsqrt_q2fact1    ! fixed fact scale for pdf1
 91.1880  = dsqrt_q2fact2    ! fixed fact scale for pdf2
 1        = scalefact        ! scale factor for event-by-event scales
#*********************************************************************
# Matching - Warning! ickkw > 1 is still beta
#*********************************************************************
 0        = ickkw            ! 0 no matching, 1 MLM, 2 CKKW matching
 1        = highestmult      ! for ickkw=2, highest mult group
 1        = ktscheme         ! for ickkw=1, 1 Durham kT, 2 Pythia pTE
 1        = alpsfact         ! scale factor for QCD emission vx
 F        = chcluster        ! cluster only according to channel diag
 T        = pdfwgt           ! for ickkw=1, perform pdf reweighting
 5        = asrwgtflavor     ! highest quark flavor for a_s reweight
 T        = clusinfo         ! include clustering tag in output
 3.0      = lhe_version       ! Change the way clustering information pass to shower.        
#*********************************************************************
#**********************************************************
#
#**********************************************************
# Automatic ptj and mjj cuts if xqcut > 0
# (turn off for VBF and single top processes)
#**********************************************************
   T  = auto_ptj_mjj  ! Automatic setting of ptj and mjj
#**********************************************************
#                                                                    
#**********************************
# BW cutoff (M+/-bwcutoff*Gamma)
#**********************************
  15  = bwcutoff      ! (M+/-bwcutoff*Gamma)
#**********************************************************
# Apply pt/E/eta/dr/mij cuts on decay products or not
# (note that etmiss/ptll/ptheavy/ht/sorted cuts always apply)
#**********************************************************
   T  = cut_decays    ! Cut decay products 
#*************************************************************
# Number of helicities to sum per event (0 = all helicities)
# 0 gives more stable result, but longer run time (needed for
# long decay chains e.g.).
# Use >=2 if most helicities contribute, e.g. pure QCD.
#*************************************************************
   0  = nhel          ! Number of helicities used per event
#*******************                                                 
# Standard Cuts
#*******************                                                 
#                                                                    
#*********************************************************************
# Minimum and maximum pt's (for max, -1 means no cut)                *
#*********************************************************************
 20  = ptj       ! minimum pt for the jets 
  0  = ptb       ! minimum pt for the b 
 10  = pta       ! minimum pt for the photons 
 10  = ptl       ! minimum pt for the charged leptons 
  0  = misset    ! minimum missing Et (sum of neutrino's momenta)
  0  = ptheavy   ! minimum pt for one heavy final state
 1.0 = ptonium   ! minimum pt for the quarkonium states
 -1  = ptjmax    ! maximum pt for the jets
 -1  = ptbmax    ! maximum pt for the b
 -1  = ptamax    ! maximum pt for the photons
 -1  = ptlmax    ! maximum pt for the charged leptons
 -1  = missetmax ! maximum missing Et (sum of neutrino's momenta)
#*********************************************************************
# Minimum and maximum E's (in the center of mass frame)              *
#*********************************************************************
  0  = ej     ! minimum E for the jets 
  0  = eb     ! minimum E for the b 
  0  = ea     ! minimum E for the photons 
  0  = el     ! minimum E for the charged leptons 
 -1   = ejmax ! maximum E for the jets
 -1   = ebmax ! maximum E for the b
 -1   = eamax ! maximum E for the photons
 -1   = elmax ! maximum E for the charged leptons
#*********************************************************************
# Maximum and minimum absolute rapidity (for max, -1 means no cut)   *
#*********************************************************************
   5  = etaj    ! max rap for the jets 
  -1  = etab    ! max rap for the b
 2.5  = etaa    ! max rap for the photons 
 2.5  = etal    ! max rap for the charged leptons 
 0.6  = etaonium ! max rap for the quarkonium states
   0  = etajmin ! min rap for the jets
   0  = etabmin ! min rap for the b
   0  = etaamin ! min rap for the photons
   0  = etalmin ! main rap for the charged leptons
#*********************************************************************
# Minimum and maximum DeltaR distance                                *
#*********************************************************************
 0.4 = drjj    ! min distance between jets 
 0   = drbb    ! min distance between b's 
 0.4 = drll    ! min distance between leptons 
 0.4 = draa    ! min distance between gammas 
 0   = drbj    ! min distance between b and jet 
 0.4 = draj    ! min distance between gamma and jet 
 0.4 = drjl    ! min distance between jet and lepton 
 0   = drab    ! min distance between gamma and b 
 0   = drbl    ! min distance between b and lepton 
 0.4 = dral    ! min distance between gamma and lepton 
 -1  = drjjmax ! max distance between jets
 -1  = drbbmax ! max distance between b's
 -1  = drllmax ! max distance between leptons
 -1  = draamax ! max distance between gammas
 -1  = drbjmax ! max distance between b and jet
 -1  = drajmax ! max distance between gamma and jet
 -1  = drjlmax ! max distance between jet and lepton
 -1  = drabmax ! max distance between gamma and b
 -1  = drblmax ! max distance between b and lepton
 -1  = dralmax ! maxdistance between gamma and lepton
#*********************************************************************
# Minimum and maximum invariant mass for pairs                       *
# WARNING: for four lepton final state mmll cut require to have      *
#          different lepton masses for each flavor!                  *           
#*********************************************************************
 0   = mmjj    ! min invariant mass of a jet pair 
 0   = mmbb    ! min invariant mass of a b pair 
 0   = mmaa    ! min invariant mass of gamma gamma pair
 0   = mmll    ! min invariant mass of l+l- (same flavour) lepton pair
 -1  = mmjjmax ! max invariant mass of a jet pair
 -1  = mmbbmax ! max invariant mass of a b pair
 -1  = mmaamax ! max invariant mass of gamma gamma pair
 -1  = mmllmax ! max invariant mass of l+l- (same flavour) lepton pair
#*********************************************************************
# Minimum and maximum invariant mass for all letpons                 *
#*********************************************************************
 0   = mmnl    ! min invariant mass for all letpons (l+- and vl) 
 -1  = mmnlmax ! max invariant mass for all letpons (l+- and vl) 
#*********************************************************************
# Minimum and maximum pt for 4-momenta sum of leptons                *
#*********************************************************************
 0   = ptllmin  ! Minimum pt for 4-momenta sum of leptons(l and vl)
 -1  = ptllmax  ! Maximum pt for 4-momenta sum of leptons(l and vl)
#*********************************************************************
# Inclusive cuts                                                     *
#*********************************************************************
 0  = xptj ! minimum pt for at least one jet  
 0  = xptb ! minimum pt for at least one b 
 0  = xpta ! minimum pt for at least one photon 
 0  = xptl ! minimum pt for at least one charged lepton 
#*********************************************************************
# Control the pt's of the jets sorted by pt                          *
#*********************************************************************
 0   = ptj1min ! minimum pt for the leading jet in pt
 0   = ptj2min ! minimum pt for the second jet in pt
 0   = ptj3min ! minimum pt for the third jet in pt
 0   = ptj4min ! minimum pt for the fourth jet in pt
 -1  = ptj1max ! maximum pt for the leading jet in pt 
 -1  = ptj2max ! maximum pt for the second jet in pt
 -1  = ptj3max ! maximum pt for the third jet in pt
 -1  = ptj4max ! maximum pt for the fourth jet in pt
 0   = cutuse  ! reject event if fails any (0) / all (1) jet pt cuts
#*********************************************************************
# Control the pt's of leptons sorted by pt                           *
#*********************************************************************
 0   = ptl1min ! minimum pt for the leading lepton in pt
 0   = ptl2min ! minimum pt for the second lepton in pt
 0   = ptl3min ! minimum pt for the third lepton in pt
 0   = ptl4min ! minimum pt for the fourth lepton in pt
 -1  = ptl1max ! maximum pt for the leading lepton in pt 
 -1  = ptl2max ! maximum pt for the second lepton in pt
 -1  = ptl3max ! maximum pt for the third lepton in pt
 -1  = ptl4max ! maximum pt for the fourth lepton in pt
#*********************************************************************
# Control the Ht(k)=Sum of k leading jets                            *
#*********************************************************************
 0   = htjmin ! minimum jet HT=Sum(jet pt)
 -1  = htjmax ! maximum jet HT=Sum(jet pt)
 0   = ihtmin  !inclusive Ht for all partons (including b)
 -1  = ihtmax  !inclusive Ht for all partons (including b)
 0   = ht2min ! minimum Ht for the two leading jets
 0   = ht3min ! minimum Ht for the three leading jets
 0   = ht4min ! minimum Ht for the four leading jets
 -1  = ht2max ! maximum Ht for the two leading jets
 -1  = ht3max ! maximum Ht for the three leading jets
 -1  = ht4max ! maximum Ht for the four leading jets
#***********************************************************************
# Photon-isolation cuts, according to hep-ph/9801442                   *
# When ptgmin=0, all the other parameters are ignored                  *
# When ptgmin>0, pta and draj are not going to be used                 *
#***********************************************************************
   0 = ptgmin ! Min photon transverse momentum
 0.4 = R0gamma ! Radius of isolation code
 1.0 = xn ! n parameter of eq.(3.4) in hep-ph/9801442
 1.0 = epsgamma ! epsilon_gamma parameter of eq.(3.4) in hep-ph/9801442
 .true. = isoEM ! isolate photons from EM energy (photons and leptons)
#*********************************************************************
# WBF cuts                                                           *
#*********************************************************************
 0   = xetamin ! minimum rapidity for two jets in the WBF case  
 0   = deltaeta ! minimum rapidity for two jets in the WBF case 
#*********************************************************************
# KT DURHAM CUT                                                      *
#*********************************************************************
 -1    =  ktdurham        
 0.4  =  dparameter 
#*********************************************************************
# maximal pdg code for quark to be considered as a light jet         *
# (otherwise b cuts are applied)                                     *
#*********************************************************************
 4 = maxjetflavor    ! Maximum jet pdg code
#*********************************************************************
# Jet measure cuts                                                   *
#*********************************************************************
 0   = xqcut   ! minimum kt jet measure between partons
#*********************************************************************
#
#*********************************************************************
# Store info for systematics studies                                 *
# WARNING: If use_syst is T, matched Pythia output is                *
#          meaningful ONLY if plotted taking matchscale              *
#          reweighting into account!                                 *
#*********************************************************************
   F  = use_syst      ! Enable systematics studies
#
#**************************************
# Parameter of the systematics study
#  will be used by SysCalc (if installed)
#**************************************                                  
#
0.5 1 2 = sys_scalefact  # factorization/renormalization scale factor
0.5 1 2 = sys_alpsfact  # \alpha_s emission scale factors
30 50 = sys_matchscale # variation of merging scale
# PDF sets and number of members (0 or none for all members).
CT10nlo.LHgrid = sys_pdf # matching scales
# MSTW2008nlo68cl.LHgrid 1  = sys_pdf
</MGRunCard>
<slha>
######################################################################
## PARAM_CARD AUTOMATICALY GENERATED BY MG5 FOLLOWING UFO MODEL   ####
######################################################################
##                                                                  ##
##  Width set on Auto will be computed following the information    ##
##        present in the decay.py files of the model.               ##
##        See  arXiv:1402.1178 for more details.                    ##
##                                                                  ##
######################################################################

###################################
## INFORMATION FOR CKMBLOCK
###################################
Block ckmblock 
    1 2.277360e-01 # cabi 

###################################
## INFORMATION FOR FRBLOCK
###################################
Block frblock 
    1 1.600000e+00 # gz 

###################################
## INFORMATION FOR MASS
###################################
Block mass 
    1 5.040000e-03 # MD 
    2 2.550000e-03 # MU 
    3 1.010000e-01 # MS 
    4 1.270000e+00 # MC 
    5 4.700000e+00 # MB 
    6 1.720000e+02 # MT 
   11 5.110000e-04 # Me 
   13 1.056600e-01 # MM 
   15 1.777000e+00 # MTA 
   23 9.118760e+01 # MZ 
   25 1.200000e+02 # MH 
  10030 3.300000e+03 # MZph 
  10031 3.000000e+02 # MZpl 
## Dependent parameters, given by model restrictions.
## Those values should be edited following the 
## analytical expression. MG5 ignores those values 
## but they are important for interfacing the output of MG5
## to external program such as Pythia.
  12 0.000000 # ve : 0.0 
  14 0.000000 # vm : 0.0 
  16 0.000000 # vt : 0.0 
  21 0.000000 # g : 0.0 
  22 0.000000 # a : 0.0 
  24 79.824360 # w+ : cmath.sqrt(MZ__exp__2/2. + cmath.sqrt(MZ__exp__4/4. - (aEW*cmath.pi*MZ__exp__2)/(Gf*sqrt__2))) 

###################################
## INFORMATION FOR SMINPUTS
###################################
Block sminputs 
    1 1.279000e+02 # aEWM1 
    2 1.166370e-05 # Gf 
    3 1.184000e-01 # aS 

###################################
## INFORMATION FOR YUKAWA
###################################
Block yukawa 
    1 5.040000e-03 # ymdo 
    2 2.550000e-03 # ymup 
    3 1.010000e-01 # yms 
    4 1.270000e+00 # ymc 
    5 4.700000e+00 # ymb 
    6 1.720000e+02 # ymt 
   11 5.110000e-04 # yme 
   13 1.056600e-01 # ymm 
   15 1.777000e+00 # ymtau 

###################################
## INFORMATION FOR DECAY
###################################
DECAY   6 1.508336e+00 # WT 
DECAY  23 2.495200e+00 # WZ 
DECAY  24 2.085000e+00 # WW 
DECAY  25 5.753088e-03 # WH 
## Dependent parameters, given by model restrictions.
## Those values should be edited following the 
## analytical expression. MG5 ignores those values 
## but they are important for interfacing the output of MG5
## to external program such as Pythia.
DECAY  1 0.000000 # d : 0.0 
DECAY  2 0.000000 # u : 0.0 
DECAY  3 0.000000 # s : 0.0 
DECAY  4 0.000000 # c : 0.0 
DECAY  5 0.000000 # b : 0.0 
DECAY  11 0.000000 # e- : 0.0 
DECAY  12 0.000000 # ve : 0.0 
DECAY  13 0.000000 # mu- : 0.0 
DECAY  14 0.000000 # vm : 0.0 
DECAY  15 0.000000 # ta- : 0.0 
DECAY  16 0.000000 # vt : 0.0 
DECAY  21 0.000000 # g : 0.0 
DECAY  22 0.000000 # a : 0.0 
DECAY  10030 0.308725 # zph : (gz__exp__2*MZph*(5 + cmath.sqrt(1 - (4*MT__exp__2)/MZph__exp__2)))/(144.*cmath.pi) 
DECAY  10031 0.132629 # zpl : (5*gz__exp__2*MZpl)/(144.*cmath.pi) 
#===========================================================
# QUANTUM NUMBERS OF NEW STATE(S) (NON SM PDG CODE)
#===========================================================

Block QNUMBERS 10030  # zph 
        1 0  # 3 times electric charge
        2 3  # number of spin states (2S+1)
        3 1  # colour rep (1: singlet, 3: triplet, 8: octet)
        4 0  # Particle/Antiparticle distinction (0=own anti)
Block QNUMBERS 10031  # zpl 
        1 0  # 3 times electric charge
        2 3  # number of spin states (2S+1)
        3 1  # colour rep (1: singlet, 3: triplet, 8: octet)
        4 0  # Particle/Antiparticle distinction (0=own anti)
</slha>
## END BANNER##
<MGGenerationInfo>
#  Number of Events        :         3909
#  Integrated weight (pb)  :  0.15024E-02
#  Max wgt                 :  0.95063E-06
#  Average wgt             :  0.38434E-06
</MGGenerationInfo>
</header>
<init>
     2212     2212  0.40000000000E+04  0.40000000000E+04 0 0  247000  247000 2   1
  0.15035970420E-02  0.79439243082E-05  0.95063150000E-06   0
</init>
<event>
 5   0  0.5622811E-06  0.3276724E+04  0.7818609E-02  0.8168843E-01
       -2   -1    0    0    0  501  0.00000000000E+00  0.00000000000E+00  0.12159969303E+04  0.12159969303E+04  0.25500000920E-02 0. -1.
        2   -1    0    0  501    0  0.00000000000E+00  0.00000000000E+00 -0.22074312873E+04  0.22074312873E+04  0.25500000920E-02 0.  1.
    10030    2    1    2    0    0  0.00000000000E+00  0.00000000000E+00 -0.99143435704E+03  0.34234282176E+04  0.32767237718E+04 0.  0.
        1    1    3    3  502    0  0.12385418650E+04  0.54848313978E+03  0.46718034454E+03  0.14328563013E+04  0.50400001928E-02 0. -1.
       -1    1    3    3    0  502 -0.12385418650E+04 -0.54848313978E+03 -0.14586147016E+04  0.19905719162E+04  0.50400001928E-02 0.  1.
</event>
<event>
 5   0  0.5622811E-06  0.3191833E+04  0.7818609E-02  0.8190977E-01
        2   -1    0    0  501    0  0.00000000000E+00  0.00000000000E+00  0.11109198207E+04  0.11109198207E+04  0.25500000920E-02 0. -1.
       -2   -1    0    0    0  501  0.00000000000E+00  0.00000000000E+00 -0.22926493665E+04  0.22926493665E+04  0.25500000920E-02 0.  1.
    10030    2    1    2    0    0  0.00000000000E+00  0.00000000000E+00 -0.11817295457E+04  0.34035691872E+04  0.31918330929E+04 0.  0.
        1    1    3    3  502    0 -0.11778200563E+04 -0.10649963820E+04 -0.42067713223E+03  0.16426949286E+04  0.50400001928E-02 0.  1.
       -1    1    3    3    0  502  0.11778200563E+04  0.10649963820E+04 -0.76105241352E+03  0.17608742587E+04  0.50400001928E-02 0. -1.
</event>
<event>
 5   0  0.5855568E-06  0.2021983E+04  0.7818609E-02  0.8596412E-01
        2   -1    0    0  501    0  0.00000000000E+00  0.00000000000E+00  0.10897300226E+04  0.10897300226E+04  0.25500000920E-02 0.  1.
       -2   -1    0    0    0  501  0.00000000000E+00  0.00000000000E+00 -0.93794182001E+03  0.93794182002E+03  0.25500000920E-02 0. -1.
    10030    2    1    2    0    0  0.00000000000E+00  0.00000000000E+00  0.15178820262E+03  0.20276718427E+04  0.20219825526E+04 0.  0.
        3    1    3    3  502    0 -0.40041885865E+03 -0.14489527726E+03 -0.84362289316E+03  0.94500238084E+03  0.10100000352E+00 0. -1.
       -3    1    3    3    0  502  0.40041885865E+03  0.14489527726E+03  0.99541109578E+03  0.10826694618E+04  0.10100000352E+00 0.  1.
</event>
<event>
 5   0  0.5622811E-06  0.1731167E+04  0.7818609E-02  0.8743786E-01
        2   -1    0    0  501    0  0.00000000000E+00  0.00000000000E+00  0.10153217012E+04  0.10153217012E+04  0.25500000920E-02 0.  1.
       -2   -1    0    0    0  501  0.00000000000E+00  0.00000000000E+00 -0.73792807941E+03  0.73792807941E+03  0.25500000920E-02 0. -1.
    10030    2    1    2    0    0  0.00000000000E+00  0.00000000000E+00  0.27739362175E+03  0.17532497806E+04  0.17311665349E+04 0.  0.
        1    1    3    3  502    0  0.38984742742E+03 -0.17357931739E+03  0.90137935024E+03  0.99729410364E+03  0.50400001928E-02 0.  1.
       -1    1    3    3    0  502 -0.38984742742E+03  0.17357931739E+03 -0.62398572850E+03  0.75595567693E+03  0.50400001928E-02 0. -1.
</event>
<event>
 5   0  0.5855568E-06  0.3272618E+04  0.7818609E-02  0.8169898E-01
        2   -1    0    0  501    0  0.00000000000E+00  0.00000000000E+00  0.21003670804E+04  0.21003670804E+04  0.25500000920E-02 0. -1.
       -2   -1    0    0    0  501  0.00000000000E+00  0.00000000000E+00 -0.12747802613E+04  0.12747802613E+04  0.25500000920E-02 0.  1.
    10030    2    1    2    0    0  0.00000000000E+00  0.00000000000E+00  0.82558681913E+03  0.33751473417E+04  0.32726176041E+04 0.  0.
        3    1    3    3  502    0  0.46442276269E+03 -0.99822019467E+03  0.16612452053E+04  0.19929545158E+04  0.10100000352E+00 0. -1.
       -3    1    3    3    0  502 -0.46442276269E+03  0.99822019467E+03 -0.83565838618E+03  0.13821928260E+04  0.10100000352E+00 0.  1.
</event>
<event>
 5   0  0.1925906E-06  0.3274563E+04  0.7818609E-02  0.8169398E-01
       -1   -1    0    0    0  501  0.00000000000E+00  0.00000000000E+00  0.18271675507E+04  0.18271675507E+04  0.50400001928E-02 0.  1.
        1   -1    0    0  501    0  0.00000000000E+00  0.00000000000E+00 -0.14671293076E+04  0.14671293077E+04  0.50400001928E-02 0. -1.
    10030    2    1    2    0    0  0.00000000000E+00  0.00000000000E+00  0.36003824306E+03  0.32942968584E+04  0.32745632159E+04 0.  0.
        1    1    3    3  502    0  0.89822796094E+03  0.12841806659E+04  0.65696220694E+03  0.16992741962E+04  0.50400001928E-02 0.  1.
       -1    1    3    3    0  502 -0.89822796094E+03 -0.12841806659E+04 -0.29692396388E+03  0.15950226622E+04  0.50400001928E-02 0. -1.
</event>
<event>
 5   0  0.2730981E-06  0.3283187E+04  0.7818609E-02  0.8167187E-01
        1   -1    0    0  501    0  0.00000000000E+00  0.00000000000E+00  0.13912926013E+04  0.13912926013E+04  0.50400001928E-02 0. -1.
       -1   -1    0    0    0  501  0.00000000000E+00  0.00000000000E+00 -0.19369248167E+04  0.19369248167E+04  0.50400001928E-02 0.  1.
    10030    2    1    2    0    0  0.00000000000E+00  0.00000000000E+00 -0.54563221532E+03  0.33282174180E+04  0.32831869680E+04 0.  0.
        3    1    3    3  502    0  0.85417526952E+03 -0.10348981237E+04  0.68577483014E+03  0.15069560861E+04  0.10100000352E+00 0. -1.
       -3    1    3    3    0  502 -0.85417526952E+03  0.10348981237E+04 -0.12314070455E+04  0.18212613320E+04  0.10100000352E+00 0.  1.
</event>
<event>
 5   0  0.5622811E-06  0.3268288E+04  0.7818609E-02  0.8171012E-01
       -2   -1    0    0    0  501  0.00000000000E+00  0.00000000000E+00  0.10882374401E+04  0.10882374401E+04  0.25500000920E-02 0. -1.
        2   -1    0    0  501    0  0.00000000000E+00  0.00000000000E+00 -0.24539002854E+04  0.24539002854E+04  0.25500000920E-02 0.  1.
    10030    2    1    2    0    0  0.00000000000E+00  0.00000000000E+00 -0.13656628453E+04  0.35421377255E+04  0.32682877260E+04 0.  0.
        1    1    3    3  502    0  0.13870064447E+04  0.81902520494E+03 -0.98129114814E+03  0.18861393060E+04  0.50400001928E-02 0. -1.
       -1    1    3    3    0  502 -0.13870064447E+04 -0.81902520494E+03 -0.38437169712E+03  0.16559984196E+04  0.50400001928E-02 0.  1.
</event>
<event>
 5   0  0.2037109E-06  0.3419475E+04  0.7818609E-02  0.8133143E-01
        1   -1    0    0  501    0  0.00000000000E+00  0.00000000000E+00  0.16101696613E+04  0.16101696613E+04  0.50400001928E-02 0. -1.
       -1   -1    0    0    0  501  0.00000000000E+00  0.00000000000E+00 -0.18154625223E+04  0.18154625223E+04  0.50400001928E-02 0.  1.
    10030    2    1    2    0    0  0.00000000000E+00  0.00000000000E+00 -0.20529286098E+03  0.34256321836E+04  0.34194752081E+04 0.  0.
        2    1    3    3  502    0 -0.91473570328E+03 -0.46418076714E+03 -0.14729534184E+04  0.17949364792E+04  0.25500000920E-02 0.  1.
       -2    1    3    3    0  502  0.91473570328E+03  0.46418076714E+03  0.12676605575E+04  0.16306957044E+04  0.25500000920E-02 0. -1.
</event>
<event>
 5   0  0.5622811E-06  0.3121403E+04  0.7818609E-02  0.8209888E-01
       -2   -1    0    0    0  501  0.00000000000E+00  0.00000000000E+00  0.28470947020E+04  0.28470947020E+04  0.25500000920E-02 0.  1.
        2   -1    0    0  501    0  0.00000000000E+00  0.00000000000E+00 -0.85553502582E+03  0.85553502582E+03  0.25500000920E-02 0. -1.
    10030    2    1    2    0    0  0.00000000000E+00  0.00000000000E+00  0.19915596762E+04  0.37026297279E+04  0.31214030431E+04 0.  0.
        1    1    3    3  502    0  0.30396200772E+02 -0.22466805524E+03  0.28274574680E+04  0.28365322839E+04  0.50400001928E-02 0.  1.
       -1    1    3    3    0  502 -0.30396200772E+02  0.22466805524E+03 -0.83589779181E+03  0.86609744396E+03  0.50400001928E-02 0. -1.
</event>
<event>
 5   0  0.1878000E-06  0.3234653E+04  0.7818609E-02  0.8179725E-01
        4   -1    0    0  501    0  0.00000000000E+00  0.00000000000E+00  0.13510389976E+04  0.13510395945E+04  0.12699999809E+01 0.  1.
       -4   -1    0    0    0  501  0.00000000000E+00  0.00000000000E+00 -0.19360981829E+04  0.19360985994E+04  0.12699999809E+01 0. -1.
    10030    2    1    2    0    0  0.00000000000E+00  0.00000000000E+00 -0.58505918528E+03  0.32871381939E+04  0.32346534985E+04 0.  0.
        3    1    3    3  502    0 -0.10758584959E+04 -0.69544477735E+03  0.71072296852E+03  0.14650058327E+04  0.10100000352E+00 0. -1.
       -3    1    3    3    0  502  0.10758584959E+04  0.69544477735E+03 -0.12957821538E+04  0.18221323612E+04  0.10100000352E+00 0.  1.
</event>
<event>
 5   0  0.5755250E-06  0.2121081E+04  0.7818609E-02  0.8552013E-01
        2   -1    0    0  501    0  0.00000000000E+00  0.00000000000E+00  0.15134624914E+04  0.15134624914E+04  0.25500000920E-02 0. -1.
       -2   -1    0    0    0  501  0.00000000000E+00  0.00000000000E+00 -0.74316089852E+03  0.74316089852E+03  0.25500000920E-02 0.  1.
    10030    2    1    2    0    0  0.00000000000E+00  0.00000000000E+00  0.77030159289E+03  0.22566233899E+04  0.21210809933E+04 0.  0.
        5    1    3    3  502    0  0.34398638743E+02  0.39302040923E+03  0.14324739270E+04  0.14858169301E+04  0.46999998093E+01 0. -1.
       -5    1    3    3    0  502 -0.34398638743E+02 -0.39302040923E+03 -0.66217233409E+03  0.77080645979E+03  0.46999998093E+01 0.  1.
</event>
<event>
 5   0  0.1999849E-06  0.3252587E+04  0.7818609E-02  0.8175065E-01
        1   -1    0    0  501    0  0.00000000000E+00  0.00000000000E+00  0.19634082429E+04  0.19634082429E+04  0.50400001928E-02 0. -1.
       -1   -1    0    0    0  501  0.00000000000E+00  0.00000000000E+00 -0.13470611164E+04  0.13470611164E+04  0.50400001928E-02 0.  1.
    10030    2    1    2    0    0  0.00000000000E+00  0.00000000000E+00  0.61634712653E+03  0.33104693593E+04  0.32525872161E+04 0.  0.
        5    1    3    3  502    0 -0.13686134239E+04 -0.87403287215E+03  0.21844204631E+03  0.16385283590E+04  0.46999998093E+01 0.  1.
       -5    1    3    3    0  502  0.13686134239E+04  0.87403287215E+03  0.39790508022E+03  0.16719410003E+04  0.46999998093E+01 0. -1.
</event>
<event>
 5   0  0.1925906E-06  0.3269317E+04  0.7818609E-02  0.8170747E-01
        1   -1    0    0  501    0  0.00000000000E+00  0.00000000000E+00  0.18486515008E+04  0.18486515008E+04  0.50400001928E-02 0.  1.
       -1   -1    0    0    0  501  0.00000000000E+00  0.00000000000E+00 -0.14454363763E+04  0.14454363763E+04  0.50400001928E-02 0. -1.
    10030    2    1    2    0    0  0.00000000000E+00  0.00000000000E+00  0.40321512451E+03  0.32940878771E+04  0.32693168255E+04 0.  0.
        1    1    3    3  502    0  0.11380867537E+04 -0.94537343064E+03  0.90195372887E+03  0.17327702996E+04  0.50400001928E-02 0.  1.
       -1    1    3    3    0  502 -0.11380867537E+04  0.94537343064E+03 -0.49873860436E+03  0.15613175775E+04  0.50400001928E-02 0. -1.
</event>
<event>
 5   0  0.3639918E-06  0.1648656E+04  0.7818609E-02  0.8791202E-01
        1   -1    0    0  501    0  0.00000000000E+00  0.00000000000E+00  0.99015748249E+03  0.99015748250E+03  0.50400001928E-02 0.  1.
       -1   -1    0    0    0  501  0.00000000000E+00  0.00000000000E+00 -0.68627128436E+03  0.68627128438E+03  0.50400001928E-02 0. -1.
    10030    2    1    2    0    0  0.00000000000E+00  0.00000000000E+00  0.30388619813E+03  0.16764287669E+04  0.16486559947E+04 0.  0.
        3    1    3    3  502    0 -0.68425780291E+03 -0.61136821175E+02 -0.31133049313E+03  0.75423679167E+03  0.10100000352E+00 0. -1.
       -3    1    3    3    0  502  0.68425780291E+03  0.61136821175E+02  0.61521669126E+03  0.92219197522E+03  0.10100000352E+00 0.  1.
</event>
<event>
 5   0  0.2730981E-06  0.3299015E+04  0.7818609E-02  0.8163146E-01
        1   -1    0    0  501    0  0.00000000000E+00  0.00000000000E+00  0.15882183387E+04  0.15882183387E+04  0.50400001928E-02 0. -1.
       -1   -1    0    0    0  501  0.00000000000E+00  0.00000000000E+00 -0.17131622962E+04  0.17131622962E+04  0.50400001928E-02 0.  1.
    10030    2    1    2    0    0  0.00000000000E+00  0.00000000000E+00 -0.12494395752E+03  0.33013806349E+04  0.32990154749E+04 0.  0.
        3    1    3    3  502    0  0.40180119637E+03  0.10828598734E+04  0.11160165923E+04  0.16060892725E+04  0.10100000352E+00 0. -1.
       -3    1    3    3    0  502 -0.40180119637E+03 -0.10828598734E+04 -0.12409605498E+04  0.16952913624E+04  0.10100000352E+00 0.  1.
</event>
<event>
 5   0  0.5622811E-06  0.3357564E+04  0.7818609E-02  0.8148401E-01
        2   -1    0    0  501    0  0.00000000000E+00  0.00000000000E+00  0.24265555227E+04  0.24265555227E+04  0.25500000920E-02 0. -1.
       -2   -1    0    0    0  501  0.00000000000E+00  0.00000000000E+00 -0.11614441418E+04  0.11614441418E+04  0.25500000920E-02 0.  1.
    10030    2    1    2    0    0  0.00000000000E+00  0.00000000000E+00  0.12651113808E+04  0.35879996645E+04  0.33575638172E+04 0.  0.
        1    1    3    3  502    0 -0.14028347833E+04 -0.33766818894E+03  0.15495535778E+04  0.21173288657E+04  0.50400001928E-02 0. -1.
       -1    1    3    3    0  502  0.14028347833E+04  0.33766818894E+03 -0.28444219695E+03  0.14706707988E+04  0.50400001928E-02 0.  1.
</event>
<event>
 5   0  0.2097842E-06  0.3285533E+04  0.7818609E-02  0.8166586E-01
       -1   -1    0    0    0  501  0.00000000000E+00  0.00000000000E+00  0.11070432116E+04  0.11070432116E+04  0.50400001928E-02 0.  1.
        1   -1    0    0  501    0  0.00000000000E+00  0.00000000000E+00 -0.24377388801E+04  0.24377388801E+04  0.50400001928E-02 0. -1.
    10030    2    1    2    0    0  0.00000000000E+00  0.00000000000E+00 -0.13306956685E+04  0.35447820917E+04  0.32855333077E+04 0.  0.
        4    1    3    3  502    0 -0.14143919175E+04 -0.61354667610E+03 -0.53372478058E+02  0.15426581781E+04  0.12699999809E+01 0.  1.
       -4    1    3    3    0  502  0.14143919175E+04  0.61354667610E+03 -0.12773231904E+04  0.20021239137E+04  0.12699999809E+01 0. -1.
</event>
<event>
 5   0  0.1925906E-06  0.2884870E+04  0.7818609E-02  0.8277393E-01
       -1   -1    0    0    0  501  0.00000000000E+00  0.00000000000E+00  0.99933909517E+03  0.99933909518E+03  0.50400001928E-02 0. -1.
        1   -1    0    0  501    0  0.00000000000E+00  0.00000000000E+00 -0.20819950998E+04  0.20819950998E+04  0.50400001928E-02 0.  1.
    10030    2    1    2    0    0  0.00000000000E+00  0.00000000000E+00 -0.10826560046E+04  0.30813341950E+04  0.28848702565E+04 0.  0.
        1    1    3    3  502    0 -0.76809842950E+03  0.11443572170E+03  0.75699685084E+03  0.10844883420E+04  0.50400001928E-02 0. -1.
       -1    1    3    3    0  502  0.76809842950E+03 -0.11443572170E+03 -0.18396528554E+04  0.19968458529E+04  0.50400001928E-02 0.  1.
</event>
<event>
 5   0  0.5637538E-06  0.1808545E+04  0.7818609E-02  0.8701768E-01
        2   -1    0    0  501    0  0.00000000000E+00  0.00000000000E+00  0.10985982775E+04  0.10985982775E+04  0.25500000920E-02 0.  1.
       -2   -1    0    0    0  501  0.00000000000E+00  0.00000000000E+00 -0.74432033505E+03  0.74432033505E+03  0.25500000920E-02 0. -1.
    10030    2    1    2    0    0  0.00000000000E+00  0.00000000000E+00  0.35427794241E+03  0.18429186125E+04  0.18085453137E+04 0.  0.
        2    1    3    3  502    0 -0.44263462297E+03  0.32282769963E+03 -0.55595490397E+03  0.78053122190E+03  0.25500000920E-02 0. -1.
       -2    1    3    3    0  502  0.44263462297E+03 -0.32282769963E+03  0.91023284639E+03  0.10623873906E+04  0.25500000920E-02 0.  1.
</event>
<event>
 5   0  0.2730981E-06  0.2433132E+04  0.7818609E-02  0.8427202E-01
       -1   -1    0    0    0  501  0.00000000000E+00  0.00000000000E+00  0.75399626324E+03  0.75399626325E+03  0.50400001928E-02 0. -1.
        1   -1    0    0  501    0  0.00000000000E+00  0.00000000000E+00 -0.19629186755E+04  0.19629186755E+04  0.50400001928E-02 0.  1.
    10030    2    1    2    0    0  0.00000000000E+00  0.00000000000E+00 -0.12089224123E+04  0.27169149388E+04  0.24331324225E+04 0.  0.
        3    1    3    3  502    0 -0.12097364104E+03  0.77543128799E+03  0.43352973402E+03  0.89659151496E+03  0.10100000352E+00 0. -1.
       -3    1    3    3    0  502  0.12097364104E+03 -0.77543128799E+03 -0.16424521463E+04  0.18203234238E+04  0.10100000352E+00 0.  1.
</event>
<event>
 5   0  0.5855568E-06  0.3359464E+04  0.7818609E-02  0.8147927E-01
       -2   -1    0    0    0  501  0.00000000000E+00  0.00000000000E+00  0.10664212975E+04  0.10664212975E+04  0.25500000920E-02 0.  1.
        2   -1    0    0  501    0  0.00000000000E+00  0.00000000000E+00 -0.26457647397E+04  0.26457647397E+04  0.25500000920E-02 0. -1.
    10030    2    1    2    0    0  0.00000000000E+00  0.00000000000E+00 -0.15793434422E+04  0.37121860372E+04  0.33594641636E+04 0.  0.
        3    1    3    3  502    0  0.13440943109E+04 -0.85405864056E+03 -0.13800880344E+04  0.21072846677E+04  0.10100000352E+00 0. -1.
       -3    1    3    3    0  502 -0.13440943109E+04  0.85405864056E+03 -0.19925540779E+03  0.16049013695E+04  0.10100000352E+00 0.  1.
</event>
<event>
 5   0  0.1925906E-06  0.3233964E+04  0.7818609E-02  0.8179904E-01
        1   -1    0    0  501    0  0.00000000000E+00  0.00000000000E+00  0.12575331604E+04  0.12575331605E+04  0.50400001928E-02 0.  1.
       -1   -1    0    0    0  501  0.00000000000E+00  0.00000000000E+00 -0.20791748797E+04  0.20791748797E+04  0.50400001928E-02 0. -1.
    10030    2    1    2    0    0  0.00000000000E+00  0.00000000000E+00 -0.82164171928E+03  0.33367080402E+04  0.32339643521E+04 0.  0.
        1    1    3    3  502    0 -0.12631555119E+04 -0.74700916900E+03  0.28975552055E+03  0.14958418391E+04  0.50400001928E-02 0.  1.
       -1    1    3    3    0  502  0.12631555119E+04  0.74700916900E+03 -0.11113972398E+04  0.18408662011E+04  0.50400001928E-02 0. -1.
</event>
<event>
 5   0  0.5637538E-06  0.2764645E+04  0.7818609E-02  0.8314329E-01
        2   -1    0    0  501    0  0.00000000000E+00  0.00000000000E+00  0.22535890565E+04  0.22535890565E+04  0.25500000920E-02 0.  1.
       -2   -1    0    0    0  501  0.00000000000E+00  0.00000000000E+00 -0.84789886767E+03  0.84789886768E+03  0.25500000920E-02 0. -1.
    10030    2    1    2    0    0  0.00000000000E+00  0.00000000000E+00  0.14056901888E+04  0.31014879242E+04  0.27646450834E+04 0.  0.
        2    1    3    3  502    0 -0.12432326529E+04  0.56428582713E+03  0.46023272905E+03  0.14407845394E+04  0.25500000920E-02 0. -1.
       -2    1    3    3    0  502  0.12432326529E+04 -0.56428582713E+03  0.94545745979E+03  0.16607033848E+04  0.25500000920E-02 0.  1.
</event>
<event>
 5   0  0.2037109E-06  0.3388883E+04  0.7818609E-02  0.8140640E-01
        1   -1    0    0  501    0  0.00000000000E+00  0.00000000000E+00  0.20648816549E+04  0.20648816549E+04  0.50400001928E-02 0. -1.
       -1   -1    0    0    0  501  0.00000000000E+00  0.00000000000E+00 -0.13904586748E+04  0.13904586748E+04  0.50400001928E-02 0.  1.
    10030    2    1    2    0    0  0.00000000000E+00  0.00000000000E+00  0.67442298018E+03  0.34553403297E+04  0.33888833615E+04 0.  0.
        2    1    3    3  502    0 -0.14852805240E+04 -0.43193288939E+03  0.10425197493E+04  0.18653342016E+04  0.25500000920E-02 0.  1.
       -2    1    3    3    0  502  0.14852805240E+04  0.43193288939E+03 -0.36809676909E+03  0.15900061281E+04  0.25500000920E-02 0. -1.
</event>
<event>
 5   0  0.5855568E-06  0.1691697E+04  0.7818609E-02  0.8766114E-01
        2   -1    0    0  501    0  0.00000000000E+00  0.00000000000E+00  0.79679528615E+03  0.79679528615E+03  0.25500000920E-02 0. -1.
       -2   -1    0    0    0  501  0.00000000000E+00  0.00000000000E+00 -0.89792112509E+03  0.89792112509E+03  0.25500000920E-02 0.  1.
    10030    2    1    2    0    0  0.00000000000E+00  0.00000000000E+00 -0.10112583894E+03  0.16947164112E+04  0.16916965683E+04 0.  0.
        3    1    3    3  502    0  0.38126112478E+03 -0.24255491300E+03  0.66574241218E+03  0.80461537436E+03  0.10100000352E+00 0. -1.
       -3    1    3    3    0  502 -0.38126112478E+03  0.24255491300E+03 -0.76686825112E+03  0.89010103688E+03  0.10100000352E+00 0.  1.
</event>
<event>
 5   0  0.5755250E-06  0.3044586E+04  0.7818609E-02  0.8231112E-01
       -2   -1    0    0    0  501  0.00000000000E+00  0.00000000000E+00  0.76781540346E+03  0.76781540347E+03  0.25500000920E-02 0.  1.
        2   -1    0    0  501    0  0.00000000000E+00  0.00000000000E+00 -0.30181423707E+04  0.30181423707E+04  0.25500000920E-02 0. -1.
    10030    2    1    2    0    0  0.00000000000E+00  0.00000000000E+00 -0.22503269672E+04  0.37859577741E+04  0.30445861473E+04 0.  0.
        5    1    3    3  502    0  0.12062546154E+04 -0.92451356702E+03 -0.12334168470E+04  0.19573233614E+04  0.46999998093E+01 0.  1.
       -5    1    3    3    0  502 -0.12062546154E+04  0.92451356702E+03 -0.10169101203E+04  0.18286344127E+04  0.46999998093E+01 0. -1.
</event>
<event>
 5   0  0.2037109E-06  0.3322972E+04  0.7818609E-02  0.8157075E-01
        1   -1    0    0  501    0  0.00000000000E+00  0.00000000000E+00  0.84459952685E+03  0.84459952687E+03  0.50400001928E-02 0.  1.
       -1   -1    0    0    0  501  0.00000000000E+00  0.00000000000E+00 -0.32684546230E+04  0.32684546230E+04  0.50400001928E-02 0. -1.
    10030    2    1    2    0    0  0.00000000000E+00  0.00000000000E+00 -0.24238550962E+04  0.41130541499E+04  0.33229716990E+04 0.  0.
        2    1    3    3  502    0 -0.50019926643E+03  0.52602580718E+03  0.63795293818E+03  0.96637798365E+03  0.25500000920E-02 0.  1.
       -2    1    3    3    0  502  0.50019926643E+03 -0.52602580718E+03 -0.30618080343E+04  0.31466761662E+04  0.25500000920E-02 0. -1.
</event>
<event>
 5   0  0.5855568E-06  0.3215579E+04  0.7818609E-02  0.8184715E-01
       -2   -1    0    0    0  501  0.00000000000E+00  0.00000000000E+00  0.11991332405E+04  0.11991332405E+04  0.25500000920E-02 0.  1.
        2   -1    0    0  501    0  0.00000000000E+00  0.00000000000E+00 -0.21557125222E+04  0.21557125222E+04  0.25500000920E-02 0. -1.
    10030    2    1    2    0    0  0.00000000000E+00  0.00000000000E+00 -0.95657928166E+03  0.33548457627E+04  0.32155786679E+04 0.  0.
        3    1    3    3  502    0  0.94466251909E+03  0.44267018348E+03 -0.17546474415E+04  0.20413553881E+04  0.10100000352E+00 0. -1.
       -3    1    3    3    0  502 -0.94466251909E+03 -0.44267018348E+03  0.79806815982E+03  0.13134903746E+04  0.10100000352E+00 0.  1.
</event>
<event>
 5   0  0.5622811E-06  0.3350871E+04  0.7818609E-02  0.8150071E-01
       -2   -1    0    0    0  501  0.00000000000E+00  0.00000000000E+00  0.11786626798E+04  0.11786626798E+04  0.25500000920E-02 0.  1.
        2   -1    0    0  501    0  0.00000000000E+00  0.00000000000E+00 -0.23815835688E+04  0.23815835688E+04  0.25500000920E-02 0. -1.
    10030    2    1    2    0    0  0.00000000000E+00  0.00000000000E+00 -0.12029208890E+04  0.35602462486E+04  0.33508707354E+04 0.  0.
        1    1    3    3  502    0 -0.10901053380E+04  0.12020528521E+04 -0.10444321009E+04  0.19297925071E+04  0.50400001928E-02 0.  1.
       -1    1    3    3    0  502  0.10901053380E+04 -0.12020528521E+04 -0.15848878816E+03  0.16304537415E+04  0.50400001928E-02 0. -1.
</event>
<event>
 5   0  0.1999849E-06  0.2222918E+04  0.7818609E-02  0.8508949E-01
        1   -1    0    0  501    0  0.00000000000E+00  0.00000000000E+00  0.17278069282E+04  0.17278069282E+04  0.50400001928E-02 0. -1.
       -1   -1    0    0    0  501  0.00000000000E+00  0.00000000000E+00 -0.71497624329E+03  0.71497624331E+03  0.50400001928E-02 0.  1.
    10030    2    1    2    0    0  0.00000000000E+00  0.00000000000E+00  0.10128306849E+04  0.24427831715E+04  0.22229178183E+04 0.  0.
        5    1    3    3  502    0  0.53374000655E+03 -0.87788676078E+03  0.97232564395E+03  0.14145680638E+04  0.46999998093E+01 0. -1.
       -5    1    3    3    0  502 -0.53374000655E+03  0.87788676078E+03  0.40505040974E+02  0.10282151077E+04  0.46999998093E+01 0.  1.
</event>
<event>
 5   0  0.5855568E-06  0.3354526E+04  0.7818609E-02  0.8149158E-01
       -2   -1    0    0    0  501  0.00000000000E+00  0.00000000000E+00  0.19688885029E+04  0.19688885029E+04  0.25500000920E-02 0. -1.
        2   -1    0    0  501    0  0.00000000000E+00  0.00000000000E+00 -0.14288319252E+04  0.14288319252E+04  0.25500000920E-02 0.  1.
    10030    2    1    2    0    0  0.00000000000E+00  0.00000000000E+00  0.54005657770E+03  0.33977204282E+04  0.33545257490E+04 0.  0.
        3    1    3    3  502    0 -0.10578350622E+04 -0.27752557358E+03  0.15580852177E+04  0.19035926609E+04  0.10100000352E+00 0. -1.
       -3    1    3    3    0  502  0.10578350622E+04  0.27752557358E+03 -0.10180286400E+04  0.14941277673E+04  0.10100000352E+00 0.  1.
</event>
<event>
 5   0  0.2097842E-06  0.2465884E+04  0.7818609E-02  0.8415241E-01
       -1   -1    0    0    0  501  0.00000000000E+00  0.00000000000E+00  0.97879949599E+03  0.97879949601E+03  0.50400001928E-02 0.  1.
        1   -1    0    0  501    0  0.00000000000E+00  0.00000000000E+00 -0.15530714298E+04  0.15530714298E+04  0.50400001928E-02 0. -1.
    10030    2    1    2    0    0  0.00000000000E+00  0.00000000000E+00 -0.57427193377E+03  0.25318709258E+04  0.24658836410E+04 0.  0.
        4    1    3    3  502    0  0.52053074490E+03 -0.89793213295E+02  0.85673599880E+03  0.10064855995E+04  0.12699999809E+01 0.  1.
       -4    1    3    3    0  502 -0.52053074490E+03  0.89793213295E+02 -0.14310079326E+04  0.15253853262E+04  0.12699999809E+01 0. -1.
</event>
<event>
 5   0  0.1925906E-06  0.3262139E+04  0.7818609E-02  0.8172596E-01
        1   -1    0    0  501    0  0.00000000000E+00  0.00000000000E+00  0.15992789282E+04  0.15992789282E+04  0.50400001928E-02 0. -1.
       -1   -1    0    0    0  501  0.00000000000E+00  0.00000000000E+00 -0.16634920183E+04  0.16634920183E+04  0.50400001928E-02 0.  1.
    10030    2    1    2    0    0  0.00000000000E+00  0.00000000000E+00 -0.64213090110E+02  0.32627709465E+04  0.32621390112E+04 0.  0.
        1    1    3    3  502    0 -0.14607635056E+04 -0.72562336570E+03 -0.37440858295E+02  0.16314904554E+04  0.50400001928E-02 0. -1.
       -1    1    3    3    0  502  0.14607635056E+04  0.72562336570E+03 -0.26772231815E+02  0.16312804911E+04  0.50400001928E-02 0.  1.
</event>
<event>
 5   0  0.2730981E-06  0.2316475E+04  0.7818609E-02  0.8471454E-01
        1   -1    0    0  501    0  0.00000000000E+00  0.00000000000E+00  0.14141559611E+04  0.14141559611E+04  0.50400001928E-02 0. -1.
       -1   -1    0    0    0  501  0.00000000000E+00  0.00000000000E+00 -0.94863195385E+03  0.94863195386E+03  0.50400001928E-02 0.  1.
    10030    2    1    2    0    0  0.00000000000E+00  0.00000000000E+00  0.46552400721E+03  0.23627879149E+04  0.23164745044E+04 0.  0.
        3    1    3    3  502    0 -0.15439283400E+03  0.41933976030E+03  0.13226905909E+04  0.13961351623E+04  0.10100000352E+00 0. -1.
       -3    1    3    3    0  502  0.15439283400E+03 -0.41933976030E+03 -0.85716658373E+03  0.96665275266E+03  0.10100000352E+00 0.  1.
</event>
<event>
 5   0  0.5300268E-06  0.3229362E+04  0.7818609E-02  0.8181106E-01
        2   -1    0    0  501    0  0.00000000000E+00  0.00000000000E+00  0.15833135630E+04  0.15833135630E+04  0.25500000920E-02 0. -1.
       -2   -1    0    0    0  501  0.00000000000E+00  0.00000000000E+00 -0.16466694144E+04  0.16466694144E+04  0.25500000920E-02 0.  1.
    10030    2    1    2    0    0  0.00000000000E+00  0.00000000000E+00 -0.63355851474E+02  0.32299829774E+04  0.32293615577E+04 0.  0.
        4    1    3    3  502    0 -0.17186428396E+03 -0.10763237239E+04 -0.12232015501E+04  0.16383631270E+04  0.12699999809E+01 0.  1.
       -4    1    3    3    0  502  0.17186428396E+03  0.10763237239E+04  0.11598456986E+04  0.15916198504E+04  0.12699999809E+01 0. -1.
</event>
<event>
 5   0  0.5300268E-06  0.3481376E+04  0.7818609E-02  0.8118218E-01
       -2   -1    0    0    0  501  0.00000000000E+00  0.00000000000E+00  0.15646933995E+04  0.15646933995E+04  0.25500000920E-02 0. -1.
        2   -1    0    0  501    0  0.00000000000E+00  0.00000000000E+00 -0.19364780489E+04  0.19364780489E+04  0.25500000920E-02 0.  1.
    10030    2    1    2    0    0  0.00000000000E+00  0.00000000000E+00 -0.37178464936E+03  0.35011714483E+04  0.34813758322E+04 0.  0.
        4    1    3    3  502    0  0.54118687902E+03 -0.10667333701E+04 -0.14576736137E+04  0.18856344550E+04  0.12699999809E+01 0.  1.
       -4    1    3    3    0  502 -0.54118687902E+03  0.10667333701E+04  0.10858889644E+04  0.16155369933E+04  0.12699999809E+01 0. -1.
</event>
<event>
 5   0  0.2037109E-06  0.3324109E+04  0.7818609E-02  0.8156788E-01
        1   -1    0    0  501    0  0.00000000000E+00  0.00000000000E+00  0.19386999030E+04  0.19386999030E+04  0.50400001928E-02 0.  1.
       -1   -1    0    0    0  501  0.00000000000E+00  0.00000000000E+00 -0.14248853766E+04  0.14248853766E+04  0.50400001928E-02 0. -1.
    10030    2    1    2    0    0  0.00000000000E+00  0.00000000000E+00  0.51381452641E+03  0.33635852797E+04  0.33241089883E+04 0.  0.
        2    1    3    3  502    0  0.26519206512E+03 -0.40171933029E+03  0.18666231405E+04  0.19276896017E+04  0.25500000920E-02 0.  1.
       -2    1    3    3    0  502 -0.26519206512E+03  0.40171933029E+03 -0.13528086141E+04  0.14358956780E+04  0.25500000920E-02 0. -1.
</event>
<event>
 5   0  0.1999849E-06  0.2798522E+04  0.7818609E-02  0.8303727E-01
        1   -1    0    0  501    0  0.00000000000E+00  0.00000000000E+00  0.14994728507E+04  0.14994728507E+04  0.50400001928E-02 0. -1.
       -1   -1    0    0    0  501  0.00000000000E+00  0.00000000000E+00 -0.13057467013E+04  0.13057467013E+04  0.50400001928E-02 0.  1.
    10030    2    1    2    0    0  0.00000000000E+00  0.00000000000E+00  0.19372614937E+03  0.28052195521E+04  0.27985222733E+04 0.  0.
        5    1    3    3  502    0  0.17614510594E+03  0.13875369009E+04  0.13725701839E+03  0.14053993485E+04  0.46999998093E+01 0.  1.
       -5    1    3    3    0  502 -0.17614510594E+03 -0.13875369009E+04  0.56469130984E+02  0.13998202036E+04  0.46999998093E+01 0. -1.
</event>
<event>
 5   0  0.1999849E-06  0.1971756E+04  0.7818609E-02  0.8619941E-01
       -1   -1    0    0    0  501  0.00000000000E+00  0.00000000000E+00  0.54080164369E+03  0.54080164371E+03  0.50400001928E-02 0. -1.
        1   -1    0    0  501    0  0.00000000000E+00  0.00000000000E+00 -0.17972496046E+04  0.17972496046E+04  0.50400001928E-02 0.  1.
    10030    2    1    2    0    0  0.00000000000E+00  0.00000000000E+00 -0.12564479609E+04  0.23380512484E+04  0.19717561110E+04 0.  0.
        5    1    3    3  502    0 -0.76356061388E+03  0.50971948847E+03 -0.10542685239E+04  0.13979781753E+04  0.46999998093E+01 0.  1.
       -5    1    3    3    0  502  0.76356061388E+03 -0.50971948847E+03 -0.20217943702E+03  0.94007307309E+03  0.46999998093E+01 0. -1.
</event>
<event>
 5   0  0.5637538E-06  0.3219359E+04  0.7818609E-02  0.8183723E-01
       -2   -1    0    0    0  501  0.00000000000E+00  0.00000000000E+00  0.10700182836E+04  0.10700182836E+04  0.25500000920E-02 0. -1.
        2   -1    0    0  501    0  0.00000000000E+00  0.00000000000E+00 -0.24215172620E+04  0.24215172620E+04  0.25500000920E-02 0.  1.
    10030    2    1    2    0    0  0.00000000000E+00  0.00000000000E+00 -0.13514989784E+04  0.34915355456E+04  0.32193587836E+04 0.  0.
        2    1    3    3  502    0  0.92780288975E+03  0.52090006101E+03 -0.19857206536E+04  0.22528296850E+04  0.25500000920E-02 0. -1.
       -2    1    3    3    0  502 -0.92780288975E+03 -0.52090006101E+03  0.63422167514E+03  0.12387058606E+04  0.25500000920E-02 0.  1.
</event>
<event>
 5   0  0.5855568E-06  0.3346118E+04  0.7818609E-02  0.8151259E-01
        2   -1    0    0  501    0  0.00000000000E+00  0.00000000000E+00  0.15942797958E+04  0.15942797958E+04  0.25500000920E-02 0. -1.
       -2   -1    0    0    0  501  0.00000000000E+00  0.00000000000E+00 -0.17557312443E+04  0.17557312443E+04  0.25500000920E-02 0.  1.
    10030    2    1    2    0    0  0.00000000000E+00  0.00000000000E+00 -0.16145144849E+03  0.33500110400E+04  0.33461182582E+04 0.  0.
        3    1    3    3  502    0 -0.39809520388E+03 -0.92313536857E+02  0.15435442980E+04  0.15967249577E+04  0.10100000352E+00 0. -1.
       -3    1    3    3    0  502  0.39809520388E+03  0.92313536857E+02 -0.17049957465E+04  0.17532860823E+04  0.10100000352E+00 0.  1.
</event>
<event>
 5   0  0.5622811E-06  0.3131781E+04  0.7818609E-02  0.8207070E-01
       -2   -1    0    0    0  501  0.00000000000E+00  0.00000000000E+00  0.27079490500E+04  0.27079490500E+04  0.25500000920E-02 0. -1.
        2   -1    0    0  501    0  0.00000000000E+00  0.00000000000E+00 -0.90548728304E+03  0.90548728304E+03  0.25500000920E-02 0.  1.
    10030    2    1    2    0    0  0.00000000000E+00  0.00000000000E+00  0.18024617669E+04  0.36134363330E+04  0.31317812362E+04 0.  0.
        1    1    3    3  502    0 -0.93030147857E+03  0.85028219940E+03  0.19734374404E+04  0.23415584534E+04  0.50400001928E-02 0. -1.
       -1    1    3    3    0  502  0.93030147857E+03 -0.85028219940E+03 -0.17097567345E+03  0.12718778796E+04  0.50400001928E-02 0.  1.
</event>
<event>
 5   0  0.5637538E-06  0.3231893E+04  0.7818609E-02  0.8180445E-01
       -2   -1    0    0    0  501  0.00000000000E+00  0.00000000000E+00  0.11790428498E+04  0.11790428498E+04  0.25500000920E-02 0. -1.
        2   -1    0    0  501    0  0.00000000000E+00  0.00000000000E+00 -0.22147486204E+04  0.22147486204E+04  0.25500000920E-02 0.  1.
    10030    2    1    2    0    0  0.00000000000E+00  0.00000000000E+00 -0.10357057706E+04  0.33937914702E+04  0.32318932687E+04 0.  0.
        2    1    3    3  502    0 -0.12922577875E+04  0.39818553551E+02 -0.15358309693E+04  0.20075588343E+04  0.25500000920E-02 0.  1.
       -2    1    3    3    0  502  0.12922577875E+04 -0.39818553551E+02  0.50012519874E+03  0.13862326360E+04  0.25500000920E-02 0. -1.
</event>
<event>
 5   0  0.5855568E-06  0.3080515E+04  0.7818609E-02  0.8221106E-01
       -2   -1    0    0    0  501  0.00000000000E+00  0.00000000000E+00  0.99058214886E+03  0.99058214887E+03  0.25500000920E-02 0.  1.
        2   -1    0    0  501    0  0.00000000000E+00  0.00000000000E+00 -0.23949476672E+04  0.23949476672E+04  0.25500000920E-02 0. -1.
    10030    2    1    2    0    0  0.00000000000E+00  0.00000000000E+00 -0.14043655183E+04  0.33855298160E+04  0.30805145067E+04 0.  0.
        3    1    3    3  502    0 -0.11543858893E+03 -0.14936622659E+04 -0.30892695706E+03  0.15296368547E+04  0.10100000352E+00 0.  1.
       -3    1    3    3    0  502  0.11543858893E+03  0.14936622659E+04 -0.10954385612E+04  0.18558929613E+04  0.10100000352E+00 0. -1.
</event>
<event>
 5   0  0.1999849E-06  0.3363624E+04  0.7818609E-02  0.8146892E-01
       -1   -1    0    0    0  501  0.00000000000E+00  0.00000000000E+00  0.18278160752E+04  0.18278160752E+04  0.50400001928E-02 0. -1.
        1   -1    0    0  501    0  0.00000000000E+00  0.00000000000E+00 -0.15474703972E+04  0.15474703973E+04  0.50400001928E-02 0.  1.
    10030    2    1    2    0    0  0.00000000000E+00  0.00000000000E+00  0.28034567791E+03  0.33752864724E+04  0.33636238006E+04 0.  0.
        5    1    3    3  502    0 -0.16072757991E+04 -0.12234581686E+03  0.62159163006E+03  0.17276290799E+04  0.46999998093E+01 0. -1.
       -5    1    3    3    0  502  0.16072757991E+04  0.12234581686E+03 -0.34124595215E+03  0.16476573925E+04  0.46999998093E+01 0.  1.
</event>
<event>
 5   0  0.5755250E-06  0.3339189E+04  0.7818609E-02  0.8152995E-01
       -2   -1    0    0    0  501  0.00000000000E+00  0.00000000000E+00  0.14466734837E+04  0.14466734837E+04  0.25500000920E-02 0.  1.
        2   -1    0    0  501    0  0.00000000000E+00  0.00000000000E+00 -0.19268660035E+04  0.19268660035E+04  0.25500000920E-02 0. -1.
    10030    2    1    2    0    0  0.00000000000E+00  0.00000000000E+00 -0.48019251975E+03  0.33735394872E+04  0.33391890955E+04 0.  0.
        5    1    3    3  502    0  0.35281275251E+03  0.11895491351E+04  0.88854399549E+03  0.15261181164E+04  0.46999998093E+01 0.  1.
       -5    1    3    3    0  502 -0.35281275251E+03 -0.11895491351E+04 -0.13687365152E+04  0.18474213708E+04  0.46999998093E+01 0. -1.
</event>
<event>
 5   0  0.1999849E-06  0.3204541E+04  0.7818609E-02  0.8187619E-01
        1   -1    0    0  501    0  0.00000000000E+00  0.00000000000E+00  0.23862719995E+04  0.23862719996E+04  0.50400001928E-02 0.  1.
       -1   -1    0    0    0  501  0.00000000000E+00  0.00000000000E+00 -0.10758502040E+04  0.10758502040E+04  0.50400001928E-02 0. -1.
    10030    2    1    2    0    0  0.00000000000E+00  0.00000000000E+00  0.13104217955E+04  0.34621222036E+04  0.32045412886E+04 0.  0.
        5    1    3    3  502    0 -0.10130727390E+04 -0.79680347802E+03  0.16835810931E+04  0.21203017579E+04  0.46999998093E+01 0.  1.
       -5    1    3    3    0  502  0.10130727390E+04  0.79680347802E+03 -0.37315929761E+03  0.13418204457E+04  0.46999998093E+01 0. -1.
</event>
<event>
 5   0  0.2730981E-06  0.2760196E+04  0.7818609E-02  0.8315734E-01
       -1   -1    0    0    0  501  0.00000000000E+00  0.00000000000E+00  0.14013121925E+04  0.14013121926E+04  0.50400001928E-02 0. -1.
        1   -1    0    0  501    0  0.00000000000E+00  0.00000000000E+00 -0.13592047613E+04  0.13592047613E+04  0.50400001928E-02 0.  1.
    10030    2    1    2    0    0  0.00000000000E+00  0.00000000000E+00  0.42107431278E+02  0.27605169538E+04  0.27601957932E+04 0.  0.
        3    1    3    3  502    0 -0.13616990577E+03 -0.82062539661E+03 -0.10803018726E+04  0.13634589950E+04  0.10100000352E+00 0.  1.
       -3    1    3    3    0  502  0.13616990577E+03  0.82062539661E+03  0.11224093039E+04  0.13970579589E+04  0.10100000352E+00 0. -1.
</event>
<event>
 5   0  0.5855568E-06  0.3188184E+04  0.7818609E-02  0.8191945E-01
       -2   -1    0    0    0  501  0.00000000000E+00  0.00000000000E+00  0.10827677496E+04  0.10827677496E+04  0.25500000920E-02 0.  1.
        2   -1    0    0  501    0  0.00000000000E+00  0.00000000000E+00 -0.23468829342E+04  0.23468829342E+04  0.25500000920E-02 0. -1.
    10030    2    1    2    0    0  0.00000000000E+00  0.00000000000E+00 -0.12641151845E+04  0.34296506838E+04  0.31881839051E+04 0.  0.
        3    1    3    3  502    0 -0.58001813119E+03 -0.99042370536E+03 -0.18220830342E+04  0.21534499628E+04  0.10100000352E+00 0. -1.
       -3    1    3    3    0  502  0.58001813119E+03  0.99042370536E+03  0.55796784969E+03  0.12762007209E+04  0.10100000352E+00 0.  1.
</event>
<event>
 5   0  0.1925906E-06  0.2411049E+04  0.7818609E-02  0.8435379E-01
       -1   -1    0    0    0  501  0.00000000000E+00  0.00000000000E+00  0.67573722364E+03  0.67573722366E+03  0.50400001928E-02 0.  1.
        1   -1    0    0  501    0  0.00000000000E+00  0.00000000000E+00 -0.21506722514E+04  0.21506722514E+04  0.50400001928E-02 0. -1.
    10030    2    1    2    0    0  0.00000000000E+00  0.00000000000E+00 -0.14749350278E+04  0.28264094751E+04  0.24110489802E+04 0.  0.
        1    1    3    3  502    0 -0.22895255411E+03 -0.80701212464E+03 -0.17524166017E+04  0.19428463108E+04  0.50400001928E-02 0. -1.
       -1    1    3    3    0  502  0.22895255411E+03  0.80701212464E+03  0.27748157397E+03  0.88356316427E+03  0.50400001928E-02 0.  1.
</event>
<event>
 5   0  0.2730981E-06  0.3278707E+04  0.7818609E-02  0.8168335E-01
        1   -1    0    0  501    0  0.00000000000E+00  0.00000000000E+00  0.10202712641E+04  0.10202712641E+04  0.50400001928E-02 0.  1.
       -1   -1    0    0    0  501  0.00000000000E+00  0.00000000000E+00 -0.26340829138E+04  0.26340829138E+04  0.50400001928E-02 0. -1.
    10030    2    1    2    0    0  0.00000000000E+00  0.00000000000E+00 -0.16138116497E+04  0.36543541779E+04  0.32787065158E+04 0.  0.
        3    1    3    3  502    0  0.12068699796E+04 -0.49236709221E+03 -0.19150608343E+04  0.23165531529E+04  0.10100000352E+00 0. -1.
       -3    1    3    3    0  502 -0.12068699796E+04  0.49236709221E+03  0.30124918458E+03  0.13378010250E+04  0.10100000352E+00 0.  1.
</event>
<event>
 5   0  0.2037109E-06  0.3019858E+04  0.7818609E-02  0.8238083E-01
        1   -1    0    0  501    0  0.00000000000E+00  0.00000000000E+00  0.16135341138E+04  0.16135341138E+04  0.50400001928E-02 0. -1.
       -1   -1    0    0    0  501  0.00000000000E+00  0.00000000000E+00 -0.14129767991E+04  0.14129767991E+04  0.50400001928E-02 0.  1.
    10030    2    1    2    0    0  0.00000000000E+00  0.00000000000E+00  0.20055731464E+03  0.30265109129E+04  0.30198584519E+04 0.  0.
        2    1    3    3  502    0  0.11316622284E+02  0.13925204365E+03  0.16070423369E+04  0.16131039242E+04  0.25500000920E-02 0. -1.
       -2    1    3    3    0  502 -0.11316622284E+02 -0.13925204365E+03 -0.14064850223E+04  0.14134069887E+04  0.25500000920E-02 0.  1.
</event>
<event>
 5   0  0.1999849E-06  0.1690229E+04  0.7818609E-02  0.8766957E-01
       -1   -1    0    0    0  501  0.00000000000E+00  0.00000000000E+00  0.56596643528E+03  0.56596643531E+03  0.50400001928E-02 0.  1.
        1   -1    0    0  501    0  0.00000000000E+00  0.00000000000E+00 -0.12619456144E+04  0.12619456144E+04  0.50400001928E-02 0. -1.
    10030    2    1    2    0    0  0.00000000000E+00  0.00000000000E+00 -0.69597917912E+03  0.18279120497E+04  0.16902294057E+04 0.  0.
        5    1    3    3  502    0 -0.36142104018E+03 -0.27686138179E+03  0.42198978048E+03  0.62078567786E+03  0.46999998093E+01 0.  1.
       -5    1    3    3    0  502  0.36142104018E+03  0.27686138179E+03 -0.11179689596E+04  0.12071263719E+04  0.46999998093E+01 0. -1.
</event>
<event>
 5   0  0.5300268E-06  0.1925632E+04  0.7818609E-02  0.8642202E-01
        2   -1    0    0  501    0  0.00000000000E+00  0.00000000000E+00  0.16291274651E+04  0.16291274651E+04  0.25500000920E-02 0. -1.
       -2   -1    0    0    0  501  0.00000000000E+00  0.00000000000E+00 -0.56902533525E+03  0.56902533525E+03  0.25500000920E-02 0.  1.
    10030    2    1    2    0    0  0.00000000000E+00  0.00000000000E+00  0.10601021298E+04  0.21981528003E+04  0.19256321580E+04 0.  0.
        4    1    3    3  502    0 -0.29952816427E+03 -0.22203214603E+03 -0.48326994922E+03  0.61038254544E+03  0.12699999809E+01 0.  1.
       -4    1    3    3    0  502  0.29952816427E+03  0.22203214603E+03  0.15433720791E+04  0.15877702549E+04  0.12699999809E+01 0. -1.
</event>
<event>
 5   0  0.5622811E-06  0.3286360E+04  0.7818609E-02  0.8166375E-01
       -2   -1    0    0    0  501  0.00000000000E+00  0.00000000000E+00  0.17400293470E+04  0.17400293470E+04  0.25500000920E-02 0. -1.
        2   -1    0    0  501    0  0.00000000000E+00  0.00000000000E+00 -0.15517214846E+04  0.15517214846E+04  0.25500000920E-02 0.  1.
    10030    2    1    2    0    0  0.00000000000E+00  0.00000000000E+00  0.18830786240E+03  0.32917508315E+04  0.32863602489E+04 0.  0.
        1    1    3    3  502    0  0.79459432040E+03  0.88235013347E+03  0.12318510957E+04  0.17109585074E+04  0.50400001928E-02 0. -1.
       -1    1    3    3    0  502 -0.79459432040E+03 -0.88235013347E+03 -0.10435432333E+04  0.15807923241E+04  0.50400001928E-02 0.  1.
</event>
<event>
 5   0  0.2097842E-06  0.2495072E+04  0.7818609E-02  0.8404743E-01
       -1   -1    0    0    0  501  0.00000000000E+00  0.00000000000E+00  0.12094954589E+04  0.12094954589E+04  0.50400001928E-02 0. -1.
        1   -1    0    0  501    0  0.00000000000E+00  0.00000000000E+00 -0.12867729403E+04  0.12867729403E+04  0.50400001928E-02 0.  1.
    10030    2    1    2    0    0  0.00000000000E+00  0.00000000000E+00 -0.77277481471E+02  0.24962683992E+04  0.24950719652E+04 0.  0.
        4    1    3    3  502    0 -0.82586675188E+03  0.40557378865E+03 -0.88153808927E+03  0.12742280038E+04  0.12699999809E+01 0.  1.
       -4    1    3    3    0  502  0.82586675188E+03 -0.40557378865E+03  0.80426060779E+03  0.12220403954E+04  0.12699999809E+01 0. -1.
</event>
<event>
 5   0  0.5637538E-06  0.3041850E+04  0.7818609E-02  0.8231880E-01
       -2   -1    0    0    0  501  0.00000000000E+00  0.00000000000E+00  0.13611321170E+04  0.13611321170E+04  0.25500000920E-02 0. -1.
        2   -1    0    0  501    0  0.00000000000E+00  0.00000000000E+00 -0.16994773435E+04  0.16994773435E+04  0.25500000920E-02 0.  1.
    10030    2    1    2    0    0  0.00000000000E+00  0.00000000000E+00 -0.33834522651E+03  0.30606094604E+04  0.30418502226E+04 0.  0.
        2    1    3    3  502    0 -0.10494175297E+04  0.27465572143E+03 -0.12418147743E+04  0.16488835164E+04  0.25500000920E-02 0.  1.
       -2    1    3    3    0  502  0.10494175297E+04 -0.27465572143E+03  0.90346954782E+03  0.14117259440E+04  0.25500000920E-02 0. -1.
</event>
<event>
 5   0  0.1999849E-06  0.1852703E+04  0.7818609E-02  0.8678764E-01
       -1   -1    0    0    0  501  0.00000000000E+00  0.00000000000E+00  0.14329438860E+04  0.14329438860E+04  0.50400001928E-02 0.  1.
        1   -1    0    0  501    0  0.00000000000E+00  0.00000000000E+00 -0.59885623952E+03  0.59885623954E+03  0.50400001928E-02 0. -1.
    10030    2    1    2    0    0  0.00000000000E+00  0.00000000000E+00  0.83408764647E+03  0.20318001255E+04  0.18527033082E+04 0.  0.
        5    1    3    3  502    0 -0.23006997192E+03 -0.81770369379E+03  0.82226781809E+03  0.11822512328E+04  0.46999998093E+01 0.  1.
       -5    1    3    3    0  502  0.23006997192E+03  0.81770369379E+03  0.11819828381E+02  0.84954889274E+03  0.46999998093E+01 0. -1.
</event>
<event>
 5   0  0.5637538E-06  0.3325928E+04  0.7818609E-02  0.8156329E-01
       -2   -1    0    0    0  501  0.00000000000E+00  0.00000000000E+00  0.11101604130E+04  0.11101604130E+04  0.25500000920E-02 0.  1.
        2   -1    0    0  501    0  0.00000000000E+00  0.00000000000E+00 -0.24910360587E+04  0.24910360587E+04  0.25500000920E-02 0. -1.
    10030    2    1    2    0    0  0.00000000000E+00  0.00000000000E+00 -0.13808756458E+04  0.36011964717E+04  0.33259282131E+04 0.  0.
        2    1    3    3  502    0 -0.75952077139E+03 -0.39047931605E+03 -0.22354570686E+04  0.23930345179E+04  0.25500000920E-02 0. -1.
       -2    1    3    3    0  502  0.75952077139E+03  0.39047931605E+03  0.85458142279E+03  0.12081619538E+04  0.25500000920E-02 0.  1.
</event>
<event>
 5   0  0.2097842E-06  0.3309565E+04  0.7818609E-02  0.8160466E-01
        1   -1    0    0  501    0  0.00000000000E+00  0.00000000000E+00  0.24418722142E+04  0.24418722142E+04  0.50400001928E-02 0.  1.
       -1   -1    0    0    0  501  0.00000000000E+00  0.00000000000E+00 -0.11213954671E+04  0.11213954671E+04  0.50400001928E-02 0. -1.
    10030    2    1    2    0    0  0.00000000000E+00  0.00000000000E+00  0.13204767471E+04  0.35632676813E+04  0.33095645830E+04 0.  0.
        4    1    3    3  502    0  0.15292079626E+04 -0.28515789731E+03  0.12678690203E+04  0.20068097779E+04  0.12699999809E+01 0.  1.
       -4    1    3    3    0  502 -0.15292079626E+04  0.28515789731E+03  0.52607726884E+02  0.15564579034E+04  0.12699999809E+01 0. -1.
</event>
<event>
 5   0  0.2037109E-06  0.3337477E+04  0.7818609E-02  0.8153424E-01
       -1   -1    0    0    0  501  0.00000000000E+00  0.00000000000E+00  0.13465013277E+04  0.13465013278E+04  0.50400001928E-02 0.  1.
        1   -1    0    0  501    0  0.00000000000E+00  0.00000000000E+00 -0.20680920644E+04  0.20680920644E+04  0.50400001928E-02 0. -1.
    10030    2    1    2    0    0  0.00000000000E+00  0.00000000000E+00 -0.72159073669E+03  0.34145933922E+04  0.33374773172E+04 0.  0.
        2    1    3    3  502    0  0.70690052258E+00  0.87556215035E+03  0.10926200686E+04  0.14001529178E+04  0.25500000920E-02 0.  1.
       -2    1    3    3    0  502 -0.70690052258E+00 -0.87556215035E+03 -0.18142108053E+04  0.20144404744E+04  0.25500000920E-02 0. -1.
</event>
<event>
 5   0  0.2037109E-06  0.2357879E+04  0.7818609E-02  0.8455443E-01
        1   -1    0    0  501    0  0.00000000000E+00  0.00000000000E+00  0.93986866683E+03  0.93986866684E+03  0.50400001928E-02 0.  1.
       -1   -1    0    0    0  501  0.00000000000E+00  0.00000000000E+00 -0.14788224482E+04  0.14788224482E+04  0.50400001928E-02 0. -1.
    10030    2    1    2    0    0  0.00000000000E+00  0.00000000000E+00 -0.53895378140E+03  0.24186911151E+04  0.23578794566E+04 0.  0.
        2    1    3    3  502    0  0.79173889992E+03  0.69694722279E+03 -0.80966360483E+03  0.13297146574E+04  0.25500000920E-02 0. -1.
       -2    1    3    3    0  502 -0.79173889992E+03 -0.69694722279E+03  0.27070982342E+03  0.10889764577E+04  0.25500000920E-02 0.  1.
</event>
<event>
 5   0  0.5637538E-06  0.3459859E+04  0.7818609E-02  0.8123369E-01
       -2   -1    0    0    0  501  0.00000000000E+00  0.00000000000E+00  0.21318953279E+04  0.21318953279E+04  0.25500000920E-02 0. -1.
        2   -1    0    0  501    0  0.00000000000E+00  0.00000000000E+00 -0.14037538786E+04  0.14037538786E+04  0.25500000920E-02 0.  1.
    10030    2    1    2    0    0  0.00000000000E+00  0.00000000000E+00  0.72814144922E+03  0.35356492065E+04  0.34598591505E+04 0.  0.
        2    1    3    3  502    0  0.80015521329E+03  0.37336139230E+03 -0.11561350012E+04  0.14547492002E+04  0.25500000920E-02 0.  1.
       -2    1    3    3    0  502 -0.80015521329E+03 -0.37336139230E+03  0.18842764504E+04  0.20809000063E+04  0.25500000920E-02 0. -1.
</event>
<event>
 5   0  0.1878000E-06  0.3292040E+04  0.7818609E-02  0.8164924E-01
        3   -1    0    0  501    0  0.00000000000E+00  0.00000000000E+00  0.17026617198E+04  0.17026617228E+04  0.10100000352E+00 0.  1.
       -3   -1    0    0    0  501  0.00000000000E+00  0.00000000000E+00 -0.15912624795E+04  0.15912624827E+04  0.10100000352E+00 0. -1.
    10030    2    1    2    0    0  0.00000000000E+00  0.00000000000E+00  0.11139924027E+03  0.32939242055E+04  0.32920399269E+04 0.  0.
        4    1    3    3  502    0 -0.15702495697E+04 -0.12817916033E+03 -0.42129800718E+03  0.16308302278E+04  0.12699999809E+01 0. -1.
       -4    1    3    3    0  502  0.15702495697E+04  0.12817916033E+03  0.53269724745E+03  0.16630939777E+04  0.12699999809E+01 0.  1.
</event>
<event>
 5   0  0.5755250E-06  0.3852300E+04  0.7818609E-02  0.8035024E-01
       -2   -1    0    0    0  501  0.00000000000E+00  0.00000000000E+00  0.19904569976E+04  0.19904569976E+04  0.25500000920E-02 0. -1.
        2   -1    0    0  501    0  0.00000000000E+00  0.00000000000E+00 -0.18639203400E+04  0.18639203400E+04  0.25500000920E-02 0.  1.
    10030    2    1    2    0    0  0.00000000000E+00  0.00000000000E+00  0.12653665767E+03  0.38543773376E+04  0.38522997203E+04 0.  0.
        5    1    3    3  502    0 -0.17980323037E+03  0.10407851720E+04 -0.15483356743E+04  0.18742807757E+04  0.46999998093E+01 0.  1.
       -5    1    3    3    0  502  0.17980323037E+03 -0.10407851720E+04  0.16748723320E+04  0.19800965619E+04  0.46999998093E+01 0. -1.
</event>
<event>
 5   0  0.5755250E-06  0.3081928E+04  0.7818609E-02  0.8220715E-01
        2   -1    0    0  501    0  0.00000000000E+00  0.00000000000E+00  0.13583733609E+04  0.13583733609E+04  0.25500000920E-02 0. -1.
       -2   -1    0    0    0  501  0.00000000000E+00  0.00000000000E+00 -0.17480985650E+04  0.17480985650E+04  0.25500000920E-02 0.  1.
    10030    2    1    2    0    0  0.00000000000E+00  0.00000000000E+00 -0.38972520404E+03  0.31064719259E+04  0.30819283074E+04 0.  0.
        5    1    3    3  502    0  0.66818877508E+03  0.13508841864E+04  0.12891836067E+03  0.15126157337E+04  0.46999998093E+01 0. -1.
       -5    1    3    3    0  502 -0.66818877508E+03 -0.13508841864E+04 -0.51864356472E+03  0.15938561922E+04  0.46999998093E+01 0.  1.
</event>
<event>
 5   0  0.5300268E-06  0.3321442E+04  0.7818609E-02  0.8157461E-01
        2   -1    0    0  501    0  0.00000000000E+00  0.00000000000E+00  0.10514979346E+04  0.10514979346E+04  0.25500000920E-02 0. -1.
       -2   -1    0    0    0  501  0.00000000000E+00  0.00000000000E+00 -0.26229197433E+04  0.26229197433E+04  0.25500000920E-02 0.  1.
    10030    2    1    2    0    0  0.00000000000E+00  0.00000000000E+00 -0.15714218087E+04  0.36744176779E+04  0.33214422726E+04 0.  0.
        4    1    3    3  502    0 -0.64651056395E+03  0.38551989088E+03  0.85194180423E+03  0.11368412142E+04  0.12699999809E+01 0. -1.
       -4    1    3    3    0  502  0.64651056395E+03 -0.38551989088E+03 -0.24233636129E+04  0.25375764637E+04  0.12699999809E+01 0.  1.
</event>
<event>
 5   0  0.2097842E-06  0.3267312E+04  0.7818609E-02  0.8171263E-01
       -1   -1    0    0    0  501  0.00000000000E+00  0.00000000000E+00  0.12966619934E+04  0.12966619934E+04  0.50400001928E-02 0. -1.
        1   -1    0    0  501    0  0.00000000000E+00  0.00000000000E+00 -0.20582319759E+04  0.20582319759E+04  0.50400001928E-02 0.  1.
    10030    2    1    2    0    0  0.00000000000E+00  0.00000000000E+00 -0.76156998247E+03  0.33548939694E+04  0.32673115412E+04 0.  0.
        4    1    3    3  502    0 -0.37763733273E+03 -0.71269317702E+03  0.10779615049E+04  0.13463075944E+04  0.12699999809E+01 0. -1.
       -4    1    3    3    0  502  0.37763733273E+03  0.71269317702E+03 -0.18395314874E+04  0.20085863750E+04  0.12699999809E+01 0.  1.
</event>
<event>
 5   0  0.2037109E-06  0.2126055E+04  0.7818609E-02  0.8549852E-01
        1   -1    0    0  501    0  0.00000000000E+00  0.00000000000E+00  0.78754376289E+03  0.78754376290E+03  0.50400001928E-02 0. -1.
       -1   -1    0    0    0  501  0.00000000000E+00  0.00000000000E+00 -0.14348758408E+04  0.14348758408E+04  0.50400001928E-02 0.  1.
    10030    2    1    2    0    0  0.00000000000E+00  0.00000000000E+00 -0.64733207791E+03  0.22224196037E+04  0.21260550501E+04 0.  0.
        2    1    3    3  502    0 -0.65048106867E+03 -0.11375482651E+02  0.55513664421E+03  0.85523781258E+03  0.25500000920E-02 0. -1.
       -2    1    3    3    0  502  0.65048106867E+03  0.11375482651E+02 -0.12024687221E+04  0.13671817911E+04  0.25500000920E-02 0.  1.
</event>
<event>
 5   0  0.5637538E-06  0.3305559E+04  0.7818609E-02  0.8161482E-01
        2   -1    0    0  501    0  0.00000000000E+00  0.00000000000E+00  0.21747785758E+04  0.21747785758E+04  0.25500000920E-02 0. -1.
       -2   -1    0    0    0  501  0.00000000000E+00  0.00000000000E+00 -0.12560727474E+04  0.12560727474E+04  0.25500000920E-02 0.  1.
    10030    2    1    2    0    0  0.00000000000E+00  0.00000000000E+00  0.91870582839E+03  0.34308513233E+04  0.33055590152E+04 0.  0.
        2    1    3    3  502    0 -0.72641532005E+03  0.11043001217E+03 -0.10772372478E+04  0.13039609246E+04  0.25500000920E-02 0.  1.
       -2    1    3    3    0  502  0.72641532005E+03 -0.11043001217E+03  0.19959430762E+04  0.21268903987E+04  0.25500000920E-02 0. -1.
</event>
<event>
 5   0  0.2037109E-06  0.1923944E+04  0.7818609E-02  0.8643029E-01
        1   -1    0    0  501    0  0.00000000000E+00  0.00000000000E+00  0.76897051758E+03  0.76897051760E+03  0.50400001928E-02 0.  1.
       -1   -1    0    0    0  501  0.00000000000E+00  0.00000000000E+00 -0.12034144258E+04  0.12034144258E+04  0.50400001928E-02 0. -1.
    10030    2    1    2    0    0  0.00000000000E+00  0.00000000000E+00 -0.43444390818E+03  0.19723849434E+04  0.19239440885E+04 0.  0.
        2    1    3    3  502    0  0.43095871146E+03 -0.58168895189E+03 -0.86665638283E+03  0.11292390064E+04  0.25500000920E-02 0. -1.
       -2    1    3    3    0  502 -0.43095871146E+03  0.58168895189E+03  0.43221247465E+03  0.84314593694E+03  0.25500000920E-02 0.  1.
</event>
<event>
 5   0  0.5855568E-06  0.1732766E+04  0.7818609E-02  0.8742894E-01
        2   -1    0    0  501    0  0.00000000000E+00  0.00000000000E+00  0.16591133841E+04  0.16591133841E+04  0.25500000920E-02 0.  1.
       -2   -1    0    0    0  501  0.00000000000E+00  0.00000000000E+00 -0.45242215722E+03  0.45242215722E+03  0.25500000920E-02 0. -1.
    10030    2    1    2    0    0  0.00000000000E+00  0.00000000000E+00  0.12066912269E+04  0.21115355414E+04  0.17327661773E+04 0.  0.
        3    1    3    3  502    0  0.21167658041E+03  0.73040575692E+03  0.97490196714E+02  0.76668369820E+03  0.10100000352E+00 0. -1.
       -3    1    3    3    0  502 -0.21167658041E+03 -0.73040575692E+03  0.11092010302E+04  0.13448518432E+04  0.10100000352E+00 0.  1.
</event>
<event>
 5   0  0.5755250E-06  0.2908074E+04  0.7818609E-02  0.8270479E-01
       -2   -1    0    0    0  501  0.00000000000E+00  0.00000000000E+00  0.81633497602E+03  0.81633497603E+03  0.25500000920E-02 0.  1.
        2   -1    0    0  501    0  0.00000000000E+00  0.00000000000E+00 -0.25898973130E+04  0.25898973130E+04  0.25500000920E-02 0. -1.
    10030    2    1    2    0    0  0.00000000000E+00  0.00000000000E+00 -0.17735623370E+04  0.34062322891E+04  0.29080741125E+04 0.  0.
        5    1    3    3  502    0  0.11073105127E+04  0.11873590789E+03 -0.19817866153E+04  0.22732652872E+04  0.46999998093E+01 0. -1.
       -5    1    3    3    0  502 -0.11073105127E+04 -0.11873590789E+03  0.20822427831E+03  0.11329670019E+04  0.46999998093E+01 0.  1.
</event>
<event>
 5   0  0.1999849E-06  0.3310965E+04  0.7818609E-02  0.8160111E-01
        1   -1    0    0  501    0  0.00000000000E+00  0.00000000000E+00  0.19724257679E+04  0.19724257679E+04  0.50400001928E-02 0. -1.
       -1   -1    0    0    0  501  0.00000000000E+00  0.00000000000E+00 -0.13894682683E+04  0.13894682683E+04  0.50400001928E-02 0.  1.
    10030    2    1    2    0    0  0.00000000000E+00  0.00000000000E+00  0.58295749962E+03  0.33618940363E+04  0.33109654279E+04 0.  0.
        5    1    3    3  502    0  0.54795397291E+03  0.13891784207E+04 -0.43402606651E+03  0.15551433881E+04  0.46999998093E+01 0.  1.
       -5    1    3    3    0  502 -0.54795397291E+03 -0.13891784207E+04  0.10169835661E+04  0.18067506482E+04  0.46999998093E+01 0. -1.
</event>
<event>
 5   0  0.2730981E-06  0.2931138E+04  0.7818609E-02  0.8263673E-01
        1   -1    0    0  501    0  0.00000000000E+00  0.00000000000E+00  0.22244905311E+04  0.22244905311E+04  0.50400001928E-02 0. -1.
       -1   -1    0    0    0  501  0.00000000000E+00  0.00000000000E+00 -0.96556582409E+03  0.96556582410E+03  0.50400001928E-02 0.  1.
    10030    2    1    2    0    0  0.00000000000E+00  0.00000000000E+00  0.12589247070E+04  0.31900563552E+04  0.29311376855E+04 0.  0.
        3    1    3    3  502    0  0.15155330388E+03 -0.14450911646E+04  0.83777282015E+03  0.16772358768E+04  0.10100000352E+00 0. -1.
       -3    1    3    3    0  502 -0.15155330388E+03  0.14450911646E+04  0.42115188682E+03  0.15128204784E+04  0.10100000352E+00 0.  1.
</event>
<event>
 5   0  0.5855568E-06  0.3357084E+04  0.7818609E-02  0.8148520E-01
        2   -1    0    0  501    0  0.00000000000E+00  0.00000000000E+00  0.22372350264E+04  0.22372350264E+04  0.25500000920E-02 0. -1.
       -2   -1    0    0    0  501  0.00000000000E+00  0.00000000000E+00 -0.12593683515E+04  0.12593683515E+04  0.25500000920E-02 0.  1.
    10030    2    1    2    0    0  0.00000000000E+00  0.00000000000E+00  0.97786667484E+03  0.34966033779E+04  0.33570838459E+04 0.  0.
        3    1    3    3  502    0 -0.14724725873E+03  0.16120682628E+04  0.95129335321E+03  0.18776061603E+04  0.10100000352E+00 0. -1.
       -3    1    3    3    0  502  0.14724725873E+03 -0.16120682628E+04  0.26573321636E+02  0.16189972176E+04  0.10100000352E+00 0.  1.
</event>
<event>
 5   0  0.5300268E-06  0.3252751E+04  0.7818609E-02  0.8175023E-01
        2   -1    0    0  501    0  0.00000000000E+00  0.00000000000E+00  0.17637555178E+04  0.17637555178E+04  0.25500000920E-02 0. -1.
       -2   -1    0    0    0  501  0.00000000000E+00  0.00000000000E+00 -0.14996963245E+04  0.14996963245E+04  0.25500000920E-02 0.  1.
    10030    2    1    2    0    0  0.00000000000E+00  0.00000000000E+00  0.26405919325E+03  0.32634518423E+04  0.32527512462E+04 0.  0.
        4    1    3    3  502    0  0.57832178600E+03 -0.10752889413E+04  0.12099912769E+04  0.17189481954E+04  0.12699999809E+01 0. -1.
       -4    1    3    3    0  502 -0.57832178600E+03  0.10752889413E+04 -0.94593208365E+03  0.15445036469E+04  0.12699999809E+01 0.  1.
</event>
<event>
 5   0  0.5622811E-06  0.1769987E+04  0.7818609E-02  0.8722425E-01
       -2   -1    0    0    0  501  0.00000000000E+00  0.00000000000E+00  0.51131308476E+03  0.51131308477E+03  0.25500000920E-02 0. -1.
        2   -1    0    0  501    0  0.00000000000E+00  0.00000000000E+00 -0.15317685396E+04  0.15317685396E+04  0.25500000920E-02 0.  1.
    10030    2    1    2    0    0  0.00000000000E+00  0.00000000000E+00 -0.10204554548E+04  0.20430816244E+04  0.17699867764E+04 0.  0.
        1    1    3    3  502    0 -0.84207374113E+03  0.25032287846E+03 -0.38663992666E+03  0.95981256603E+03  0.50400001928E-02 0. -1.
       -1    1    3    3    0  502  0.84207374113E+03 -0.25032287846E+03 -0.63381552817E+03  0.10832690583E+04  0.50400001928E-02 0.  1.
</event>
<event>
 5   0  0.5637538E-06  0.2397459E+04  0.7818609E-02  0.8440456E-01
        2   -1    0    0  501    0  0.00000000000E+00  0.00000000000E+00  0.78503916894E+03  0.78503916895E+03  0.25500000920E-02 0.  1.
       -2   -1    0    0    0  501  0.00000000000E+00  0.00000000000E+00 -0.18304210772E+04  0.18304210772E+04  0.25500000920E-02 0. -1.
    10030    2    1    2    0    0  0.00000000000E+00  0.00000000000E+00 -0.10453819083E+04  0.26154602462E+04  0.23974588558E+04 0.  0.
        2    1    3    3  502    0  0.62339619659E+03 -0.10122885579E+04 -0.69028744216E+03  0.13747173146E+04  0.25500000920E-02 0. -1.
       -2    1    3    3    0  502 -0.62339619659E+03  0.10122885579E+04 -0.35509446614E+03  0.12407429316E+04  0.25500000920E-02 0.  1.
</event>
<event>
 5   0  0.1925906E-06  0.3077558E+04  0.7818609E-02  0.8221924E-01
       -1   -1    0    0    0  501  0.00000000000E+00  0.00000000000E+00  0.21905567877E+04  0.21905567877E+04  0.50400001928E-02 0. -1.
        1   -1    0    0  501    0  0.00000000000E+00  0.00000000000E+00 -0.10809311221E+04  0.10809311221E+04  0.50400001928E-02 0.  1.
    10030    2    1    2    0    0  0.00000000000E+00  0.00000000000E+00  0.11096256656E+04  0.32714879099E+04  0.30775581273E+04 0.  0.
        1    1    3    3  502    0 -0.54409216806E+03  0.11002767806E+04  0.15412967017E+04  0.19703402762E+04  0.50400001928E-02 0. -1.
       -1    1    3    3    0  502  0.54409216806E+03 -0.11002767806E+04 -0.43167103611E+03  0.13011476337E+04  0.50400001928E-02 0.  1.
</event>
<event>
 5   0  0.5300268E-06  0.2706441E+04  0.7818609E-02  0.8332918E-01
       -2   -1    0    0    0  501  0.00000000000E+00  0.00000000000E+00  0.12845167442E+04  0.12845167442E+04  0.25500000920E-02 0. -1.
        2   -1    0    0  501    0  0.00000000000E+00  0.00000000000E+00 -0.14255990708E+04  0.14255990708E+04  0.25500000920E-02 0.  1.
    10030    2    1    2    0    0  0.00000000000E+00  0.00000000000E+00 -0.14108232667E+03  0.27101158150E+04  0.27064411148E+04 0.  0.
        4    1    3    3  502    0 -0.13517174885E+04 -0.25669067519E+01 -0.67561180487E+01  0.13517374064E+04  0.12699999809E+01 0. -1.
       -4    1    3    3    0  502  0.13517174885E+04  0.25669067519E+01 -0.13432620863E+03  0.13583784086E+04  0.12699999809E+01 0.  1.
</event>
<event>
 5   0  0.5300268E-06  0.2850718E+04  0.7818609E-02  0.8287693E-01
        2   -1    0    0  501    0  0.00000000000E+00  0.00000000000E+00  0.17142905321E+04  0.17142905321E+04  0.25500000920E-02 0.  1.
       -2   -1    0    0    0  501  0.00000000000E+00  0.00000000000E+00 -0.11851245675E+04  0.11851245675E+04  0.25500000920E-02 0. -1.
    10030    2    1    2    0    0  0.00000000000E+00  0.00000000000E+00  0.52916596464E+03  0.28994150996E+04  0.28507176819E+04 0.  0.
        4    1    3    3  502    0  0.11157635149E+04 -0.57522539020E+03  0.95127092452E+03  0.15750334776E+04  0.12699999809E+01 0.  1.
       -4    1    3    3    0  502 -0.11157635149E+04  0.57522539020E+03 -0.42210495988E+03  0.13243816220E+04  0.12699999809E+01 0. -1.
</event>
<event>
 5   0  0.5855568E-06  0.3282690E+04  0.7818609E-02  0.8167314E-01
        2   -1    0    0  501    0  0.00000000000E+00  0.00000000000E+00  0.30357220589E+04  0.30357220589E+04  0.25500000920E-02 0.  1.
       -2   -1    0    0    0  501  0.00000000000E+00  0.00000000000E+00 -0.88743748571E+03  0.88743748571E+03  0.25500000920E-02 0. -1.
    10030    2    1    2    0    0  0.00000000000E+00  0.00000000000E+00  0.21482845732E+04  0.39231595446E+04  0.32826900867E+04 0.  0.
        3    1    3    3  502    0  0.29676428412E+03  0.16077960453E+04  0.90121765596E+03  0.18668879016E+04  0.10100000352E+00 0. -1.
       -3    1    3    3    0  502 -0.29676428412E+03 -0.16077960453E+04  0.12470669172E+04  0.20562716430E+04  0.10100000352E+00 0.  1.
</event>
<event>
 5   0  0.1999849E-06  0.3286497E+04  0.7818609E-02  0.8166340E-01
        1   -1    0    0  501    0  0.00000000000E+00  0.00000000000E+00  0.22221165042E+04  0.22221165042E+04  0.50400001928E-02 0. -1.
       -1   -1    0    0    0  501  0.00000000000E+00  0.00000000000E+00 -0.12151769848E+04  0.12151769848E+04  0.50400001928E-02 0.  1.
    10030    2    1    2    0    0  0.00000000000E+00  0.00000000000E+00  0.10069395194E+04  0.34372934890E+04  0.32864965136E+04 0.  0.
        5    1    3    3  502    0 -0.99987559485E+02 -0.16331565539E+04  0.66224064723E+03  0.17651579551E+04  0.46999998093E+01 0. -1.
       -5    1    3    3    0  502  0.99987559485E+02  0.16331565539E+04  0.34469887215E+03  0.16721355340E+04  0.46999998093E+01 0.  1.
</event>
<event>
 5   0  0.2037109E-06  0.2164526E+04  0.7818609E-02  0.8533340E-01
        1   -1    0    0  501    0  0.00000000000E+00  0.00000000000E+00  0.85790604701E+03  0.85790604702E+03  0.50400001928E-02 0.  1.
       -1   -1    0    0    0  501  0.00000000000E+00  0.00000000000E+00 -0.13652929608E+04  0.13652929609E+04  0.50400001928E-02 0. -1.
    10030    2    1    2    0    0  0.00000000000E+00  0.00000000000E+00 -0.50738691384E+03  0.22231990079E+04  0.21645258946E+04 0.  0.
        2    1    3    3  502    0 -0.39888907775E+03 -0.62744547801E+02 -0.12850250348E+04  0.13469739102E+04  0.25500000920E-02 0. -1.
       -2    1    3    3    0  502  0.39888907775E+03  0.62744547801E+02  0.77763812097E+03  0.87622509769E+03  0.25500000920E-02 0.  1.
</event>
<event>
 5   0  0.5622811E-06  0.2086146E+04  0.7818609E-02  0.8567371E-01
       -2   -1    0    0    0  501  0.00000000000E+00  0.00000000000E+00  0.50470156276E+03  0.50470156277E+03  0.25500000920E-02 0. -1.
        2   -1    0    0  501    0  0.00000000000E+00  0.00000000000E+00 -0.21557321318E+04  0.21557321318E+04  0.25500000920E-02 0.  1.
    10030    2    1    2    0    0  0.00000000000E+00  0.00000000000E+00 -0.16510305691E+04  0.26604336946E+04  0.20861460887E+04 0.  0.
        1    1    3    3  502    0 -0.75702831088E+02  0.24136897192E+03  0.46499102916E+03  0.52934540374E+03  0.50400001928E-02 0. -1.
       -1    1    3    3    0  502  0.75702831088E+02 -0.24136897192E+03 -0.21160215982E+04  0.21310882908E+04  0.50400001928E-02 0.  1.
</event>
<event>
 5   0  0.5300268E-06  0.3326473E+04  0.7818609E-02  0.8156192E-01
       -2   -1    0    0    0  501  0.00000000000E+00  0.00000000000E+00  0.13046893172E+04  0.13046893172E+04  0.25500000920E-02 0. -1.
        2   -1    0    0  501    0  0.00000000000E+00  0.00000000000E+00 -0.21203169468E+04  0.21203169468E+04  0.25500000920E-02 0.  1.
    10030    2    1    2    0    0  0.00000000000E+00  0.00000000000E+00 -0.81562762955E+03  0.34250062641E+04  0.33264725279E+04 0.  0.
        4    1    3    3  502    0  0.26046227677E+03 -0.42323281045E+03 -0.20420876987E+04  0.21016875105E+04  0.12699999809E+01 0.  1.
       -4    1    3    3    0  502 -0.26046227677E+03  0.42323281045E+03  0.12264600692E+04  0.13233187536E+04  0.12699999809E+01 0. -1.
</event>
<event>
 5   0  0.5855568E-06  0.3457389E+04  0.7818609E-02  0.8123963E-01
       -2   -1    0    0    0  501  0.00000000000E+00  0.00000000000E+00  0.25574215847E+04  0.25574215847E+04  0.25500000920E-02 0.  1.
        2   -1    0    0  501    0  0.00000000000E+00  0.00000000000E+00 -0.11685143983E+04  0.11685143983E+04  0.25500000920E-02 0. -1.
    10030    2    1    2    0    0  0.00000000000E+00  0.00000000000E+00  0.13889071864E+04  0.37259359830E+04  0.34573885777E+04 0.  0.
        3    1    3    3  502    0 -0.12185739696E+04 -0.41218711685E+01  0.20158431964E+04  0.23555388581E+04  0.10100000352E+00 0.  1.
       -3    1    3    3    0  502  0.12185739696E+04  0.41218711685E+01 -0.62693600998E+03  0.13703971250E+04  0.10100000352E+00 0. -1.
</event>
<event>
 5   0  0.1925906E-06  0.1742880E+04  0.7818609E-02  0.8737279E-01
       -1   -1    0    0    0  501  0.00000000000E+00  0.00000000000E+00  0.28969974288E+03  0.28969974292E+03  0.50400001928E-02 0.  1.
        1   -1    0    0  501    0  0.00000000000E+00  0.00000000000E+00 -0.26213606772E+04  0.26213606772E+04  0.50400001928E-02 0. -1.
    10030    2    1    2    0    0  0.00000000000E+00  0.00000000000E+00 -0.23316609344E+04  0.29110604202E+04  0.17428798172E+04 0.  0.
        1    1    3    3  502    0  0.80730583046E+02 -0.75786364989E+03 -0.46009367855E+03  0.89025891286E+03  0.50400001928E-02 0.  1.
       -1    1    3    3    0  502 -0.80730583046E+02  0.75786364989E+03 -0.18715672558E+04  0.20208015073E+04  0.50400001928E-02 0. -1.
</event>
<event>
 5   0  0.5637538E-06  0.3284264E+04  0.7818609E-02  0.8166911E-01
        2   -1    0    0  501    0  0.00000000000E+00  0.00000000000E+00  0.13537865310E+04  0.13537865310E+04  0.25500000920E-02 0.  1.
       -2   -1    0    0    0  501  0.00000000000E+00  0.00000000000E+00 -0.19918927847E+04  0.19918927847E+04  0.25500000920E-02 0. -1.
    10030    2    1    2    0    0  0.00000000000E+00  0.00000000000E+00 -0.63810625365E+03  0.33456793157E+04  0.32842640717E+04 0.  0.
        2    1    3    3  502    0 -0.15981667597E+04 -0.52280637763E+02 -0.69984439289E+03  0.17454662503E+04  0.25500000920E-02 0. -1.
       -2    1    3    3    0  502  0.15981667597E+04  0.52280637763E+02  0.61738139240E+02  0.16002130654E+04  0.25500000920E-02 0.  1.
</event>
<event>
 5   0  0.1925906E-06  0.3328900E+04  0.7818609E-02  0.8155580E-01
        1   -1    0    0  501    0  0.00000000000E+00  0.00000000000E+00  0.20425980638E+04  0.20425980638E+04  0.50400001928E-02 0.  1.
       -1   -1    0    0    0  501  0.00000000000E+00  0.00000000000E+00 -0.13563090282E+04  0.13563090283E+04  0.50400001928E-02 0. -1.
    10030    2    1    2    0    0  0.00000000000E+00  0.00000000000E+00  0.68628903558E+03  0.33989070921E+04  0.33289002359E+04 0.  0.
        1    1    3    3  502    0  0.19916841298E+03  0.16515752649E+04  0.28698524309E+03  0.16881141674E+04  0.50400001928E-02 0.  1.
       -1    1    3    3    0  502 -0.19916841298E+03 -0.16515752649E+04  0.39930379249E+03  0.17107929247E+04  0.50400001928E-02 0. -1.
</event>
<event>
 5   0  0.2037109E-06  0.3249715E+04  0.7818609E-02  0.8175810E-01
       -1   -1    0    0    0  501  0.00000000000E+00  0.00000000000E+00  0.16678439449E+04  0.16678439449E+04  0.50400001928E-02 0. -1.
        1   -1    0    0  501    0  0.00000000000E+00  0.00000000000E+00 -0.15829791730E+04  0.15829791730E+04  0.50400001928E-02 0.  1.
    10030    2    1    2    0    0  0.00000000000E+00  0.00000000000E+00  0.84864771912E+02  0.32508231180E+04  0.32497152052E+04 0.  0.
        2    1    3    3  502    0  0.10421614598E+04  0.92184956268E+03  0.88191757577E+03  0.16473268452E+04  0.25500000920E-02 0. -1.
       -2    1    3    3    0  502 -0.10421614598E+04 -0.92184956268E+03 -0.79705280386E+03  0.16034962727E+04  0.25500000920E-02 0.  1.
</event>
<event>
 5   0  0.5755250E-06  0.2547978E+04  0.7818609E-02  0.8386090E-01
       -2   -1    0    0    0  501  0.00000000000E+00  0.00000000000E+00  0.71804455959E+03  0.71804455960E+03  0.25500000920E-02 0. -1.
        2   -1    0    0  501    0  0.00000000000E+00  0.00000000000E+00 -0.22603722918E+04  0.22603722918E+04  0.25500000920E-02 0.  1.
    10030    2    1    2    0    0  0.00000000000E+00  0.00000000000E+00 -0.15423277322E+04  0.29784168514E+04  0.25479780429E+04 0.  0.
        5    1    3    3  502    0  0.70937354974E+03 -0.10091721308E+04 -0.39896047707E+03  0.12964685785E+04  0.46999998093E+01 0. -1.
       -5    1    3    3    0  502 -0.70937354974E+03  0.10091721308E+04 -0.11433672552E+04  0.16819482730E+04  0.46999998093E+01 0.  1.
</event>
<event>
 5   0  0.1925906E-06  0.3155893E+04  0.7818609E-02  0.8200564E-01
       -1   -1    0    0    0  501  0.00000000000E+00  0.00000000000E+00  0.13765797586E+04  0.13765797586E+04  0.50400001928E-02 0.  1.
        1   -1    0    0  501    0  0.00000000000E+00  0.00000000000E+00 -0.18087691260E+04  0.18087691260E+04  0.50400001928E-02 0. -1.
    10030    2    1    2    0    0  0.00000000000E+00  0.00000000000E+00 -0.43218936739E+03  0.31853488847E+04  0.31558928796E+04 0.  0.
        1    1    3    3  502    0  0.13464367493E+04 -0.38423136224E+03 -0.95047721141E+03  0.16923157474E+04  0.50400001928E-02 0. -1.
       -1    1    3    3    0  502 -0.13464367493E+04  0.38423136224E+03  0.51828784402E+03  0.14930331372E+04  0.50400001928E-02 0.  1.
</event>
<event>
 5   0  0.5300268E-06  0.3330116E+04  0.7818609E-02  0.8155274E-01
        2   -1    0    0  501    0  0.00000000000E+00  0.00000000000E+00  0.17658034340E+04  0.17658034340E+04  0.25500000920E-02 0.  1.
       -2   -1    0    0    0  501  0.00000000000E+00  0.00000000000E+00 -0.15700602172E+04  0.15700602172E+04  0.25500000920E-02 0. -1.
    10030    2    1    2    0    0  0.00000000000E+00  0.00000000000E+00  0.19574321682E+03  0.33358636512E+04  0.33301157476E+04 0.  0.
        4    1    3    3  502    0 -0.29992175677E+03 -0.85431602406E+03  0.14976407120E+04  0.17500680685E+04  0.12699999809E+01 0.  1.
       -4    1    3    3    0  502  0.29992175677E+03  0.85431602406E+03 -0.13018974952E+04  0.15857955827E+04  0.12699999809E+01 0. -1.
</event>
<event>
 5   0  0.1878000E-06  0.2899509E+04  0.7818609E-02  0.8273024E-01
        3   -1    0    0  501    0  0.00000000000E+00  0.00000000000E+00  0.10614126894E+04  0.10614126942E+04  0.10100000352E+00 0. -1.
       -3   -1    0    0    0  501  0.00000000000E+00  0.00000000000E+00 -0.19801798031E+04  0.19801798057E+04  0.10100000352E+00 0.  1.
    10030    2    1    2    0    0  0.00000000000E+00  0.00000000000E+00 -0.91876711376E+03  0.30415924998E+04  0.28995089111E+04 0.  0.
        1    1    3    3  502    0  0.14095868377E+04  0.31878117770E+03 -0.58004845273E+03  0.15572452279E+04  0.50400001928E-02 0. -1.
       -1    1    3    3    0  502 -0.14095868377E+04 -0.31878117770E+03 -0.33871866102E+03  0.14843472719E+04  0.50400001928E-02 0.  1.
</event>
<event>
 5   0  0.5855568E-06  0.3167786E+04  0.7818609E-02  0.8197377E-01
        2   -1    0    0  501    0  0.00000000000E+00  0.00000000000E+00  0.20954133692E+04  0.20954133692E+04  0.25500000920E-02 0.  1.
       -2   -1    0    0    0  501  0.00000000000E+00  0.00000000000E+00 -0.11972418732E+04  0.11972418732E+04  0.25500000920E-02 0. -1.
    10030    2    1    2    0    0  0.00000000000E+00  0.00000000000E+00  0.89817149603E+03  0.32926552424E+04  0.31677857423E+04 0.  0.
        3    1    3    3  502    0  0.64592908416E+02  0.13459304585E+04 -0.41620479623E+03  0.14102934040E+04  0.10100000352E+00 0. -1.
       -3    1    3    3    0  502 -0.64592908416E+02 -0.13459304585E+04  0.13143762923E+04  0.18823618384E+04  0.10100000352E+00 0.  1.
</event>
<event>
 5   0  0.5855568E-06  0.3337137E+04  0.7818609E-02  0.8153510E-01
       -2   -1    0    0    0  501  0.00000000000E+00  0.00000000000E+00  0.11006085310E+04  0.11006085310E+04  0.25500000920E-02 0. -1.
        2   -1    0    0  501    0  0.00000000000E+00  0.00000000000E+00 -0.25296188790E+04  0.25296188790E+04  0.25500000920E-02 0.  1.
    10030    2    1    2    0    0  0.00000000000E+00  0.00000000000E+00 -0.14290103481E+04  0.36302274100E+04  0.33371365680E+04 0.  0.
        3    1    3    3  502    0  0.87068241352E+03  0.96171425169E+03  0.42700744063E+03  0.13657662800E+04  0.10100000352E+00 0. -1.
       -3    1    3    3    0  502 -0.87068241352E+03 -0.96171425169E+03 -0.18560177887E+04  0.22644611300E+04  0.10100000352E+00 0.  1.
</event>
<event>
 5   0  0.2730981E-06  0.3357243E+04  0.7818609E-02  0.8148481E-01
       -1   -1    0    0    0  501  0.00000000000E+00  0.00000000000E+00  0.14613449042E+04  0.14613449042E+04  0.50400001928E-02 0.  1.
        1   -1    0    0  501    0  0.00000000000E+00  0.00000000000E+00 -0.19282030388E+04  0.19282030388E+04  0.50400001928E-02 0. -1.
    10030    2    1    2    0    0  0.00000000000E+00  0.00000000000E+00 -0.46685813458E+03  0.33895479431E+04  0.33572427289E+04 0.  0.
        3    1    3    3  502    0 -0.15493994651E+04 -0.30247526099E+03 -0.80956863817E+03  0.17741283426E+04  0.10100000352E+00 0.  1.
       -3    1    3    3    0  502  0.15493994651E+04  0.30247526099E+03  0.34271050360E+03  0.16154196004E+04  0.10100000352E+00 0. -1.
</event>
<event>
 5   0  0.5637538E-06  0.3235152E+04  0.7818609E-02  0.8179595E-01
        2   -1    0    0  501    0  0.00000000000E+00  0.00000000000E+00  0.20490161383E+04  0.20490161383E+04  0.25500000920E-02 0.  1.
       -2   -1    0    0    0  501  0.00000000000E+00  0.00000000000E+00 -0.12769797493E+04  0.12769797493E+04  0.25500000920E-02 0. -1.
    10030    2    1    2    0    0  0.00000000000E+00  0.00000000000E+00  0.77203638899E+03  0.33259958875E+04  0.32351519992E+04 0.  0.
        2    1    3    3  502    0 -0.23781751510E+03  0.10631518926E+04 -0.84325930239E+03  0.13776557510E+04  0.25500000920E-02 0. -1.
       -2    1    3    3    0  502  0.23781751510E+03 -0.10631518926E+04  0.16152956914E+04  0.19483401366E+04  0.25500000920E-02 0.  1.
</event>
<event>
 5   0  0.5300268E-06  0.2548099E+04  0.7818609E-02  0.8386048E-01
        2   -1    0    0  501    0  0.00000000000E+00  0.00000000000E+00  0.13307452536E+04  0.13307452536E+04  0.25500000920E-02 0.  1.
       -2   -1    0    0    0  501  0.00000000000E+00  0.00000000000E+00 -0.12197689995E+04  0.12197689995E+04  0.25500000920E-02 0. -1.
    10030    2    1    2    0    0  0.00000000000E+00  0.00000000000E+00  0.11097625405E+03  0.25505142531E+04  0.25480987474E+04 0.  0.
        4    1    3    3  502    0  0.10281274361E+04  0.35217413808E+03 -0.61006892133E+03  0.12462978577E+04  0.12699999809E+01 0. -1.
       -4    1    3    3    0  502 -0.10281274361E+04 -0.35217413808E+03  0.72104517538E+03  0.13042163955E+04  0.12699999809E+01 0.  1.
</event>
<event>
 5   0  0.5300268E-06  0.3201325E+04  0.7818609E-02  0.8188467E-01
        2   -1    0    0  501    0  0.00000000000E+00  0.00000000000E+00  0.16572862115E+04  0.16572862115E+04  0.25500000920E-02 0. -1.
       -2   -1    0    0    0  501  0.00000000000E+00  0.00000000000E+00 -0.15459736307E+04  0.15459736307E+04  0.25500000920E-02 0.  1.
    10030    2    1    2    0    0  0.00000000000E+00  0.00000000000E+00  0.11131258081E+03  0.32032598422E+04  0.32013252141E+04 0.  0.
        4    1    3    3  502    0  0.33137448359E+03  0.77361388801E+03  0.14180339798E+04  0.16489722487E+04  0.12699999809E+01 0. -1.
       -4    1    3    3    0  502 -0.33137448359E+03 -0.77361388801E+03 -0.13067213990E+04  0.15542875936E+04  0.12699999809E+01 0.  1.
</event>
<event>
 5   0  0.2097842E-06  0.3126740E+04  0.7818609E-02  0.8208437E-01
       -1   -1    0    0    0  501  0.00000000000E+00  0.00000000000E+00  0.13502556422E+04  0.13502556422E+04  0.50400001928E-02 0. -1.
        1   -1    0    0  501    0  0.00000000000E+00  0.00000000000E+00 -0.18101210762E+04  0.18101210762E+04  0.50400001928E-02 0.  1.
    10030    2    1    2    0    0  0.00000000000E+00  0.00000000000E+00 -0.45986543404E+03  0.31603767184E+04  0.31267402810E+04 0.  0.
        4    1    3    3  502    0 -0.12582748813E+04  0.22359784117E+02  0.70760642546E+03  0.14437673300E+04  0.12699999809E+01 0. -1.
       -4    1    3    3    0  502  0.12582748813E+04 -0.22359784117E+02 -0.11674718595E+04  0.17166093884E+04  0.12699999809E+01 0.  1.
</event>
<event>
 5   0  0.1999849E-06  0.3233838E+04  0.7818609E-02  0.8179937E-01
        1   -1    0    0  501    0  0.00000000000E+00  0.00000000000E+00  0.14574492436E+04  0.14574492436E+04  0.50400001928E-02 0. -1.
       -1   -1    0    0    0  501  0.00000000000E+00  0.00000000000E+00 -0.17938372733E+04  0.17938372733E+04  0.50400001928E-02 0.  1.
    10030    2    1    2    0    0  0.00000000000E+00  0.00000000000E+00 -0.33638802968E+03  0.32512865170E+04  0.32338378297E+04 0.  0.
        5    1    3    3  502    0 -0.63085183968E+03  0.94633896037E+03 -0.13236876904E+04  0.17451941620E+04  0.46999998093E+01 0.  1.
       -5    1    3    3    0  502  0.63085183968E+03 -0.94633896037E+03  0.98729966071E+03  0.15060923549E+04  0.46999998093E+01 0. -1.
</event>
<event>
 5   0  0.1925906E-06  0.3282629E+04  0.7818609E-02  0.8167329E-01
       -1   -1    0    0    0  501  0.00000000000E+00  0.00000000000E+00  0.11322059094E+04  0.11322059094E+04  0.50400001928E-02 0.  1.
        1   -1    0    0  501    0  0.00000000000E+00  0.00000000000E+00 -0.23793495471E+04  0.23793495471E+04  0.50400001928E-02 0. -1.
    10030    2    1    2    0    0  0.00000000000E+00  0.00000000000E+00 -0.12471436377E+04  0.35115554565E+04  0.32826292010E+04 0.  0.
        1    1    3    3  502    0  0.11791037401E+04  0.19865389843E+03  0.57918968152E+03  0.13286119405E+04  0.50400001928E-02 0.  1.
       -1    1    3    3    0  502 -0.11791037401E+04 -0.19865389843E+03 -0.18263333192E+04  0.21829435160E+04  0.50400001928E-02 0. -1.
</event>
<event>
 5   0  0.2097842E-06  0.1641751E+04  0.7818609E-02  0.8795302E-01
        1   -1    0    0  501    0  0.00000000000E+00  0.00000000000E+00  0.25130315421E+04  0.25130315421E+04  0.50400001928E-02 0. -1.
       -1   -1    0    0    0  501  0.00000000000E+00  0.00000000000E+00 -0.26813682865E+03  0.26813682870E+03  0.50400001928E-02 0.  1.
    10030    2    1    2    0    0  0.00000000000E+00  0.00000000000E+00  0.22448947134E+04  0.27811683708E+04  0.16417506608E+04 0.  0.
        4    1    3    3  502    0 -0.42652296867E+03 -0.34411057203E+03  0.21577464428E+04  0.22262536363E+04  0.12699999809E+01 0. -1.
       -4    1    3    3    0  502  0.42652296867E+03  0.34411057203E+03  0.87148270584E+02  0.55491473449E+03  0.12699999809E+01 0.  1.
</event>
<event>
 5   0  0.1925906E-06  0.3230056E+04  0.7818609E-02  0.8180924E-01
       -1   -1    0    0    0  501  0.00000000000E+00  0.00000000000E+00  0.17339122434E+04  0.17339122434E+04  0.50400001928E-02 0. -1.
        1   -1    0    0  501    0  0.00000000000E+00  0.00000000000E+00 -0.15042954139E+04  0.15042954139E+04  0.50400001928E-02 0.  1.
    10030    2    1    2    0    0  0.00000000000E+00  0.00000000000E+00  0.22961682945E+03  0.32382076573E+04  0.32300564923E+04 0.  0.
        1    1    3    3  502    0 -0.15633015851E+04 -0.73458231700E+01 -0.29161619565E+03  0.15902848213E+04  0.50400001928E-02 0. -1.
       -1    1    3    3    0  502  0.15633015851E+04  0.73458231700E+01  0.52123302510E+03  0.16479228361E+04  0.50400001928E-02 0.  1.
</event>
<event>
 5   0  0.5637538E-06  0.2479167E+04  0.7818609E-02  0.8410445E-01
        2   -1    0    0  501    0  0.00000000000E+00  0.00000000000E+00  0.20093548299E+04  0.20093548299E+04  0.25500000920E-02 0.  1.
       -2   -1    0    0    0  501  0.00000000000E+00  0.00000000000E+00 -0.76470672831E+03  0.76470672832E+03  0.25500000920E-02 0. -1.
    10030    2    1    2    0    0  0.00000000000E+00  0.00000000000E+00  0.12446481016E+04  0.27740615583E+04  0.24791669230E+04 0.  0.
        2    1    3    3  502    0  0.11157682053E+04 -0.47174345627E+03  0.91643228066E+03  0.15189893685E+04  0.25500000920E-02 0. -1.
       -2    1    3    3    0  502 -0.11157682053E+04  0.47174345627E+03  0.32821582097E+03  0.12550721898E+04  0.25500000920E-02 0.  1.
</event>
<event>
 5   0  0.2097842E-06  0.3282947E+04  0.7818609E-02  0.8167248E-01
        1   -1    0    0  501    0  0.00000000000E+00  0.00000000000E+00  0.15499427628E+04  0.15499427628E+04  0.50400001928E-02 0. -1.
       -1   -1    0    0    0  501  0.00000000000E+00  0.00000000000E+00 -0.17384094816E+04  0.17384094816E+04  0.50400001928E-02 0.  1.
    10030    2    1    2    0    0  0.00000000000E+00  0.00000000000E+00 -0.18846671887E+03  0.32883522444E+04  0.32829469656E+04 0.  0.
        4    1    3    3  502    0  0.49852464300E+03  0.13387356816E+04  0.71561099897E+03  0.15977611710E+04  0.12699999809E+01 0. -1.
       -4    1    3    3    0  502 -0.49852464300E+03 -0.13387356816E+04 -0.90407771784E+03  0.16905910734E+04  0.12699999809E+01 0.  1.
</event>
<event>
 5   0  0.5637538E-06  0.3393199E+04  0.7818609E-02  0.8139577E-01
       -2   -1    0    0    0  501  0.00000000000E+00  0.00000000000E+00  0.10726994542E+04  0.10726994543E+04  0.25500000920E-02 0. -1.
        2   -1    0    0  501    0  0.00000000000E+00  0.00000000000E+00 -0.26833705027E+04  0.26833705027E+04  0.25500000920E-02 0.  1.
    10030    2    1    2    0    0  0.00000000000E+00  0.00000000000E+00 -0.16106710484E+04  0.37560699569E+04  0.33931991240E+04 0.  0.
        2    1    3    3  502    0  0.20543563156E+03  0.62450219027E+03 -0.25366427829E+04  0.26204509902E+04  0.25500000920E-02 0.  1.
       -2    1    3    3    0  502 -0.20543563156E+03 -0.62450219027E+03  0.92597173448E+03  0.11356189667E+04  0.25500000920E-02 0. -1.
</event>
<event>
 5   0  0.1925906E-06  0.1731720E+04  0.7818609E-02  0.8743477E-01
        1   -1    0    0  501    0  0.00000000000E+00  0.00000000000E+00  0.81536613058E+03  0.81536613059E+03  0.50400001928E-02 0.  1.
       -1   -1    0    0    0  501  0.00000000000E+00  0.00000000000E+00 -0.91948066780E+03  0.91948066781E+03  0.50400001928E-02 0. -1.
    10030    2    1    2    0    0  0.00000000000E+00  0.00000000000E+00 -0.10411453722E+03  0.17348467984E+04  0.17317198322E+04 0.  0.
        1    1    3    3  502    0 -0.77621997479E+03 -0.22647815619E+03  0.25818497326E+03  0.84880462118E+03  0.50400001928E-02 0. -1.
       -1    1    3    3    0  502  0.77621997479E+03  0.22647815619E+03 -0.36229951048E+03  0.88604217722E+03  0.50400001928E-02 0.  1.
</event>
<event>
 5   0  0.2730981E-06  0.3207107E+04  0.7818609E-02  0.8186943E-01
       -1   -1    0    0    0  501  0.00000000000E+00  0.00000000000E+00  0.13428815762E+04  0.13428815762E+04  0.50400001928E-02 0.  1.
        1   -1    0    0  501    0  0.00000000000E+00  0.00000000000E+00 -0.19148252619E+04  0.19148252619E+04  0.50400001928E-02 0. -1.
    10030    2    1    2    0    0  0.00000000000E+00  0.00000000000E+00 -0.57194368572E+03  0.32577068381E+04  0.32071068369E+04 0.  0.
        3    1    3    3  502    0 -0.68493470463E+03  0.74464835862E+03  0.97774138989E+03  0.14069879045E+04  0.10100000352E+00 0.  1.
       -3    1    3    3    0  502  0.68493470463E+03 -0.74464835862E+03 -0.15496850756E+04  0.18507189337E+04  0.10100000352E+00 0. -1.
</event>
<event>
 5   0  0.5637538E-06  0.2158057E+04  0.7818609E-02  0.8536091E-01
        2   -1    0    0  501    0  0.00000000000E+00  0.00000000000E+00  0.10607536743E+04  0.10607536743E+04  0.25500000920E-02 0.  1.
       -2   -1    0    0    0  501  0.00000000000E+00  0.00000000000E+00 -0.10976181466E+04  0.10976181467E+04  0.25500000920E-02 0. -1.
    10030    2    1    2    0    0  0.00000000000E+00  0.00000000000E+00 -0.36864472391E+02  0.21583718209E+04  0.21580569798E+04 0.  0.
        2    1    3    3  502    0 -0.45535961746E+03  0.24163116037E+03 -0.96649694243E+03  0.10953786280E+04  0.25500000920E-02 0. -1.
       -2    1    3    3    0  502  0.45535961746E+03 -0.24163116037E+03  0.92963247004E+03  0.10629931929E+04  0.25500000920E-02 0.  1.
</event>
<event>
 5   0  0.5622811E-06  0.3263587E+04  0.7818609E-02  0.8172223E-01
        2   -1    0    0  501    0  0.00000000000E+00  0.00000000000E+00  0.17870841096E+04  0.17870841096E+04  0.25500000920E-02 0. -1.
       -2   -1    0    0    0  501  0.00000000000E+00  0.00000000000E+00 -0.14899974059E+04  0.14899974059E+04  0.25500000920E-02 0.  1.
    10030    2    1    2    0    0  0.00000000000E+00  0.00000000000E+00  0.29708670373E+03  0.32770815155E+04  0.32635874049E+04 0.  0.
        1    1    3    3  502    0 -0.13572345231E+04 -0.89774022068E+03  0.26684110004E+02  0.16274935011E+04  0.50400001928E-02 0.  1.
       -1    1    3    3    0  502  0.13572345231E+04  0.89774022068E+03  0.27040259373E+03  0.16495880144E+04  0.50400001928E-02 0. -1.
</event>
<event>
 5   0  0.5755250E-06  0.3334214E+04  0.7818609E-02  0.8154244E-01
        2   -1    0    0  501    0  0.00000000000E+00  0.00000000000E+00  0.15728356601E+04  0.15728356601E+04  0.25500000920E-02 0. -1.
       -2   -1    0    0    0  501  0.00000000000E+00  0.00000000000E+00 -0.17670284097E+04  0.17670284097E+04  0.25500000920E-02 0.  1.
    10030    2    1    2    0    0  0.00000000000E+00  0.00000000000E+00 -0.19419274963E+03  0.33398640699E+04  0.33342137276E+04 0.  0.
        5    1    3    3  502    0 -0.76044416744E+03  0.10466241096E+04 -0.11503180949E+04  0.17311704619E+04  0.46999998093E+01 0.  1.
       -5    1    3    3    0  502  0.76044416744E+03 -0.10466241096E+04  0.95612534526E+03  0.16086936080E+04  0.46999998093E+01 0. -1.
</event>
<event>
 5   0  0.2097842E-06  0.3238956E+04  0.7818609E-02  0.8178604E-01
        1   -1    0    0  501    0  0.00000000000E+00  0.00000000000E+00  0.22808270252E+04  0.22808270252E+04  0.50400001928E-02 0. -1.
       -1   -1    0    0    0  501  0.00000000000E+00  0.00000000000E+00 -0.11498935989E+04  0.11498935989E+04  0.50400001928E-02 0.  1.
    10030    2    1    2    0    0  0.00000000000E+00  0.00000000000E+00  0.11309334263E+04  0.34307206241E+04  0.32389556320E+04 0.  0.
        4    1    3    3  502    0 -0.36460551739E+03 -0.12345732506E+04 -0.47536051083E+03  0.13722527182E+04  0.12699999809E+01 0.  1.
       -4    1    3    3    0  502  0.36460551739E+03  0.12345732506E+04  0.16062939371E+04  0.20584679059E+04  0.12699999809E+01 0. -1.
</event>
<event>
 5   0  0.1925906E-06  0.3369644E+04  0.7818609E-02  0.8145397E-01
       -1   -1    0    0    0  501  0.00000000000E+00  0.00000000000E+00  0.22343143129E+04  0.22343143129E+04  0.50400001928E-02 0. -1.
        1   -1    0    0  501    0  0.00000000000E+00  0.00000000000E+00 -0.12704684264E+04  0.12704684264E+04  0.50400001928E-02 0.  1.
    10030    2    1    2    0    0  0.00000000000E+00  0.00000000000E+00  0.96384588647E+03  0.35047827393E+04  0.33696443666E+04 0.  0.
        1    1    3    3  502    0 -0.10761482882E+04 -0.10089924192E+03  0.18261751978E+04  0.21220724890E+04  0.50400001928E-02 0. -1.
       -1    1    3    3    0  502  0.10761482882E+04  0.10089924192E+03 -0.86232931134E+03  0.13827102504E+04  0.50400001928E-02 0.  1.
</event>
<event>
 5   0  0.1999849E-06  0.1790153E+04  0.7818609E-02  0.8711553E-01
        1   -1    0    0  501    0  0.00000000000E+00  0.00000000000E+00  0.15403025067E+04  0.15403025067E+04  0.50400001928E-02 0. -1.
       -1   -1    0    0    0  501  0.00000000000E+00  0.00000000000E+00 -0.52013305494E+03  0.52013305496E+03  0.50400001928E-02 0.  1.
    10030    2    1    2    0    0  0.00000000000E+00  0.00000000000E+00  0.10201694518E+04  0.20604355617E+04  0.17901533436E+04 0.  0.
        5    1    3    3  502    0 -0.47325772895E+03 -0.65309535133E+03  0.63370342751E+02  0.80903912531E+03  0.46999998093E+01 0.  1.
       -5    1    3    3    0  502  0.47325772895E+03  0.65309535133E+03  0.95679910902E+03  0.12513964364E+04  0.46999998093E+01 0. -1.
</event>
<event>
 5   0  0.5855568E-06  0.3464218E+04  0.7818609E-02  0.8122323E-01
       -2   -1    0    0    0  501  0.00000000000E+00  0.00000000000E+00  0.16057370439E+04  0.16057370439E+04  0.25500000920E-02 0. -1.
        2   -1    0    0  501    0  0.00000000000E+00  0.00000000000E+00 -0.18684263761E+04  0.18684263761E+04  0.25500000920E-02 0.  1.
    10030    2    1    2    0    0  0.00000000000E+00  0.00000000000E+00 -0.26268933219E+03  0.34741634201E+04  0.34642179181E+04 0.  0.
        3    1    3    3  502    0  0.27891466967E+02  0.15784938691E+04  0.58328837977E+03  0.16830466936E+04  0.10100000352E+00 0. -1.
       -3    1    3    3    0  502 -0.27891466967E+02 -0.15784938691E+04 -0.84597771196E+03  0.17911167265E+04  0.10100000352E+00 0.  1.
</event>
<event>
 5   0  0.5637538E-06  0.3278968E+04  0.7818609E-02  0.8168268E-01
        2   -1    0    0  501    0  0.00000000000E+00  0.00000000000E+00  0.14605320799E+04  0.14605320799E+04  0.25500000920E-02 0. -1.
       -2   -1    0    0    0  501  0.00000000000E+00  0.00000000000E+00 -0.18403625666E+04  0.18403625666E+04  0.25500000920E-02 0.  1.
    10030    2    1    2    0    0  0.00000000000E+00  0.00000000000E+00 -0.37983048673E+03  0.33008946464E+04  0.32789684763E+04 0.  0.
        2    1    3    3  502    0  0.26944010449E+03 -0.93133241178E+03 -0.15208492034E+04  0.18035964988E+04  0.25500000920E-02 0.  1.
       -2    1    3    3    0  502 -0.26944010449E+03  0.93133241178E+03  0.11410187166E+04  0.14972981476E+04  0.25500000920E-02 0. -1.
</event>
<event>
 5   0  0.2037109E-06  0.2882458E+04  0.7818609E-02  0.8278116E-01
       -1   -1    0    0    0  501  0.00000000000E+00  0.00000000000E+00  0.23201046123E+04  0.23201046123E+04  0.50400001928E-02 0. -1.
        1   -1    0    0  501    0  0.00000000000E+00  0.00000000000E+00 -0.89527916733E+03  0.89527916734E+03  0.50400001928E-02 0.  1.
    10030    2    1    2    0    0  0.00000000000E+00  0.00000000000E+00  0.14248254449E+04  0.32153837796E+04  0.28824582047E+04 0.  0.
        2    1    3    3  502    0 -0.11432484673E+04 -0.61049849298E+03  0.91908117963E+01  0.12960748200E+04  0.25500000920E-02 0.  1.
       -2    1    3    3    0  502  0.11432484673E+04  0.61049849298E+03  0.14156346331E+04  0.19193089596E+04  0.25500000920E-02 0. -1.
</event>
<event>
 5   0  0.2037109E-06  0.3294528E+04  0.7818609E-02  0.8164289E-01
        1   -1    0    0  501    0  0.00000000000E+00  0.00000000000E+00  0.90705542573E+03  0.90705542575E+03  0.50400001928E-02 0. -1.
       -1   -1    0    0    0  501  0.00000000000E+00  0.00000000000E+00 -0.29915248546E+04  0.29915248546E+04  0.50400001928E-02 0.  1.
    10030    2    1    2    0    0  0.00000000000E+00  0.00000000000E+00 -0.20844694288E+04  0.38985802803E+04  0.32945281001E+04 0.  0.
        2    1    3    3  502    0  0.32101225376E+03  0.87725860383E+03  0.56330906047E+03  0.10908476624E+04  0.25500000920E-02 0. -1.
       -2    1    3    3    0  502 -0.32101225376E+03 -0.87725860383E+03 -0.26477784893E+04  0.28077326179E+04  0.25500000920E-02 0.  1.
</event>
<event>
 5   0  0.5300268E-06  0.3373028E+04  0.7818609E-02  0.8144558E-01
       -2   -1    0    0    0  501  0.00000000000E+00  0.00000000000E+00  0.12213100724E+04  0.12213100724E+04  0.25500000920E-02 0. -1.
        2   -1    0    0  501    0  0.00000000000E+00  0.00000000000E+00 -0.23289167053E+04  0.23289167053E+04  0.25500000920E-02 0.  1.
    10030    2    1    2    0    0  0.00000000000E+00  0.00000000000E+00 -0.11076066329E+04  0.35502267777E+04  0.33730279750E+04 0.  0.
        4    1    3    3  502    0  0.13394419074E+03  0.16516701952E+04 -0.88392393271E+03  0.18781050587E+04  0.12699999809E+01 0.  1.
       -4    1    3    3    0  502 -0.13394419074E+03 -0.16516701952E+04 -0.22368270020E+03  0.16721217190E+04  0.12699999809E+01 0. -1.
</event>
<event>
 5   0  0.2730981E-06  0.3364412E+04  0.7818609E-02  0.8146696E-01
       -1   -1    0    0    0  501  0.00000000000E+00  0.00000000000E+00  0.13869954324E+04  0.13869954324E+04  0.50400001928E-02 0. -1.
        1   -1    0    0  501    0  0.00000000000E+00  0.00000000000E+00 -0.20402499125E+04  0.20402499125E+04  0.50400001928E-02 0.  1.
    10030    2    1    2    0    0  0.00000000000E+00  0.00000000000E+00 -0.65325448012E+03  0.34272453449E+04  0.33644121683E+04 0.  0.
        3    1    3    3  502    0  0.50768718514E+03  0.13686403972E+04  0.52498482728E+03  0.15513000657E+04  0.10100000352E+00 0. -1.
       -3    1    3    3    0  502 -0.50768718514E+03 -0.13686403972E+04 -0.11782393074E+04  0.18759452792E+04  0.10100000352E+00 0.  1.
</event>
<event>
 5   0  0.5622811E-06  0.3284200E+04  0.7818609E-02  0.8166927E-01
       -2   -1    0    0    0  501  0.00000000000E+00  0.00000000000E+00  0.11289932420E+04  0.11289932420E+04  0.25500000920E-02 0.  1.
        2   -1    0    0  501    0  0.00000000000E+00  0.00000000000E+00 -0.23884039537E+04  0.23884039537E+04  0.25500000920E-02 0. -1.
    10030    2    1    2    0    0  0.00000000000E+00  0.00000000000E+00 -0.12594107117E+04  0.35173971957E+04  0.32841997033E+04 0.  0.
        1    1    3    3  502    0  0.26200662913E+03 -0.14341510554E+04 -0.14390451612E+04  0.20484842443E+04  0.50400001928E-02 0. -1.
       -1    1    3    3    0  502 -0.26200662913E+03  0.14341510554E+04  0.17963444943E+03  0.14689129514E+04  0.50400001928E-02 0.  1.
</event>
<event>
 5   0  0.2037109E-06  0.3239984E+04  0.7818609E-02  0.8178337E-01
       -1   -1    0    0    0  501  0.00000000000E+00  0.00000000000E+00  0.12918174857E+04  0.12918174857E+04  0.50400001928E-02 0.  1.
        1   -1    0    0  501    0  0.00000000000E+00  0.00000000000E+00 -0.20315360528E+04  0.20315360529E+04  0.50400001928E-02 0. -1.
    10030    2    1    2    0    0  0.00000000000E+00  0.00000000000E+00 -0.73971856717E+03  0.33233535385E+04  0.32399838246E+04 0.  0.
        2    1    3    3  502    0  0.27746684572E+03 -0.15549086044E+04 -0.73918698656E+03  0.17438824558E+04  0.25500000920E-02 0.  1.
       -2    1    3    3    0  502 -0.27746684572E+03  0.15549086044E+04 -0.53158060825E+00  0.15794710827E+04  0.25500000920E-02 0. -1.
</event>
<event>
 5   0  0.2097842E-06  0.2422222E+04  0.7818609E-02  0.8431231E-01
       -1   -1    0    0    0  501  0.00000000000E+00  0.00000000000E+00  0.10860041316E+04  0.10860041316E+04  0.50400001928E-02 0.  1.
        1   -1    0    0  501    0  0.00000000000E+00  0.00000000000E+00 -0.13506301397E+04  0.13506301397E+04  0.50400001928E-02 0. -1.
    10030    2    1    2    0    0  0.00000000000E+00  0.00000000000E+00 -0.26462600810E+03  0.24366342713E+04  0.24222220476E+04 0.  0.
        4    1    3    3  502    0  0.32440044834E+03  0.10172254936E+04 -0.70738299329E+03  0.12807715127E+04  0.12699999809E+01 0. -1.
       -4    1    3    3    0  502 -0.32440044834E+03 -0.10172254936E+04  0.44275698519E+03  0.11558627585E+04  0.12699999809E+01 0.  1.
</event>
<event>
 5   0  0.5300268E-06  0.3295762E+04  0.7818609E-02  0.8163975E-01
       -2   -1    0    0    0  501  0.00000000000E+00  0.00000000000E+00  0.14322472208E+04  0.14322472208E+04  0.25500000920E-02 0. -1.
        2   -1    0    0  501    0  0.00000000000E+00  0.00000000000E+00 -0.18959801199E+04  0.18959801199E+04  0.25500000920E-02 0.  1.
    10030    2    1    2    0    0  0.00000000000E+00  0.00000000000E+00 -0.46373289918E+03  0.33282273407E+04  0.32957622835E+04 0.  0.
        4    1    3    3  502    0 -0.14276453334E+04  0.71772803596E+03  0.17484878977E+03  0.16074446938E+04  0.12699999809E+01 0. -1.
       -4    1    3    3    0  502  0.14276453334E+04 -0.71772803596E+03 -0.63858168894E+03  0.17207826469E+04  0.12699999809E+01 0.  1.
</event>
<event>
 5   0  0.5637538E-06  0.3244434E+04  0.7818609E-02  0.8177180E-01
        2   -1    0    0  501    0  0.00000000000E+00  0.00000000000E+00  0.92773628285E+03  0.92773628285E+03  0.25500000920E-02 0. -1.
       -2   -1    0    0    0  501  0.00000000000E+00  0.00000000000E+00 -0.28365692903E+04  0.28365692903E+04  0.25500000920E-02 0.  1.
    10030    2    1    2    0    0  0.00000000000E+00  0.00000000000E+00 -0.19088330075E+04  0.37643055732E+04  0.32444341568E+04 0.  0.
        2    1    3    3  502    0 -0.85920657429E+03 -0.12904893365E+04 -0.40042461088E+03  0.16012303188E+04  0.25500000920E-02 0. -1.
       -2    1    3    3    0  502  0.85920657429E+03  0.12904893365E+04 -0.15084083966E+04  0.21630752543E+04  0.25500000920E-02 0.  1.
</event>
<event>
 5   0  0.1999849E-06  0.2369835E+04  0.7818609E-02  0.8450884E-01
        1   -1    0    0  501    0  0.00000000000E+00  0.00000000000E+00  0.22763661437E+04  0.22763661437E+04  0.50400001928E-02 0. -1.
       -1   -1    0    0    0  501  0.00000000000E+00  0.00000000000E+00 -0.61678566271E+03  0.61678566273E+03  0.50400001928E-02 0.  1.
    10030    2    1    2    0    0  0.00000000000E+00  0.00000000000E+00  0.16595804810E+04  0.28931518065E+04  0.23698354378E+04 0.  0.
        5    1    3    3  502    0 -0.22867045685E+03  0.78699923012E+02 -0.58632555107E+03  0.63425830507E+03  0.46999998093E+01 0.  1.
       -5    1    3    3    0  502  0.22867045685E+03 -0.78699923012E+02  0.22459060321E+04  0.22588935014E+04  0.46999998093E+01 0. -1.
</event>
<event>
 5   0  0.5755250E-06  0.1829633E+04  0.7818609E-02  0.8690698E-01
        2   -1    0    0  501    0  0.00000000000E+00  0.00000000000E+00  0.55487371974E+03  0.55487371974E+03  0.25500000920E-02 0. -1.
       -2   -1    0    0    0  501  0.00000000000E+00  0.00000000000E+00 -0.15082521390E+04  0.15082521390E+04  0.25500000920E-02 0.  1.
    10030    2    1    2    0    0  0.00000000000E+00  0.00000000000E+00 -0.95337841925E+03  0.20631258587E+04  0.18296332689E+04 0.  0.
        5    1    3    3  502    0 -0.13203526910E+02 -0.90006539392E+03 -0.29286569133E+03  0.94661737234E+03  0.46999998093E+01 0. -1.
       -5    1    3    3    0  502  0.13203526910E+02  0.90006539392E+03 -0.66051272791E+03  0.11165084864E+04  0.46999998093E+01 0.  1.
</event>
<event>
 5   0  0.5637538E-06  0.3349584E+04  0.7818609E-02  0.8150392E-01
        2   -1    0    0  501    0  0.00000000000E+00  0.00000000000E+00  0.17505601595E+04  0.17505601595E+04  0.25500000920E-02 0. -1.
       -2   -1    0    0    0  501  0.00000000000E+00  0.00000000000E+00 -0.16023028387E+04  0.16023028387E+04  0.25500000920E-02 0.  1.
    10030    2    1    2    0    0  0.00000000000E+00  0.00000000000E+00  0.14825732082E+03  0.33528629982E+04  0.33495835639E+04 0.  0.
        2    1    3    3  502    0 -0.59465351180E+03 -0.14699900630E+04  0.61358480255E+03  0.17002852391E+04  0.25500000920E-02 0. -1.
       -2    1    3    3    0  502  0.59465351180E+03  0.14699900630E+04 -0.46532748173E+03  0.16525777591E+04  0.25500000920E-02 0.  1.
</event>
<event>
 5   0  0.5755250E-06  0.3389324E+04  0.7818609E-02  0.8140532E-01
        2   -1    0    0  501    0  0.00000000000E+00  0.00000000000E+00  0.16961872192E+04  0.16961872192E+04  0.25500000920E-02 0. -1.
       -2   -1    0    0    0  501  0.00000000000E+00  0.00000000000E+00 -0.16931379812E+04  0.16931379812E+04  0.25500000920E-02 0.  1.
    10030    2    1    2    0    0  0.00000000000E+00  0.00000000000E+00  0.30492379133E+01  0.33893252004E+04  0.33893238288E+04 0.  0.
        5    1    3    3  502    0 -0.39780783779E+03 -0.11313896777E+04  0.11988401145E+04  0.16957397762E+04  0.46999998093E+01 0. -1.
       -5    1    3    3    0  502  0.39780783779E+03  0.11313896777E+04 -0.11957908765E+04  0.16935854242E+04  0.46999998093E+01 0.  1.
</event>
<event>
 5   0  0.2730981E-06  0.3249513E+04  0.7818609E-02  0.8175862E-01
        1   -1    0    0  501    0  0.00000000000E+00  0.00000000000E+00  0.21866580008E+04  0.21866580008E+04  0.50400001928E-02 0. -1.
       -1   -1    0    0    0  501  0.00000000000E+00  0.00000000000E+00 -0.12072457523E+04  0.12072457523E+04  0.50400001928E-02 0.  1.
    10030    2    1    2    0    0  0.00000000000E+00  0.00000000000E+00  0.97941224853E+03  0.33939037531E+04  0.32495129378E+04 0.  0.
        3    1    3    3  502    0  0.10095566935E+03  0.10419415754E+04  0.17874972445E+04  0.20714682482E+04  0.10100000352E+00 0. -1.
       -3    1    3    3    0  502 -0.10095566935E+03 -0.10419415754E+04 -0.80808499601E+03  0.13224355049E+04  0.10100000352E+00 0.  1.
</event>
<event>
 5   0  0.5622811E-06  0.3175706E+04  0.7818609E-02  0.8195263E-01
        2   -1    0    0  501    0  0.00000000000E+00  0.00000000000E+00  0.29037559853E+04  0.29037559853E+04  0.25500000920E-02 0.  1.
       -2   -1    0    0    0  501  0.00000000000E+00  0.00000000000E+00 -0.86828136300E+03  0.86828136300E+03  0.25500000920E-02 0. -1.
    10030    2    1    2    0    0  0.00000000000E+00  0.00000000000E+00  0.20354746223E+04  0.37720373483E+04  0.31757060347E+04 0.  0.
        1    1    3    3  502    0 -0.11748594351E+04 -0.96719178179E+03  0.47926242827E+03  0.15954457403E+04  0.50400001928E-02 0.  1.
       -1    1    3    3    0  502  0.11748594351E+04  0.96719178179E+03  0.15562121940E+04  0.21765916080E+04  0.50400001928E-02 0. -1.
</event>
<event>
 5   0  0.2730981E-06  0.2057739E+04  0.7818609E-02  0.8580092E-01
       -1   -1    0    0    0  501  0.00000000000E+00  0.00000000000E+00  0.53048042301E+03  0.53048042304E+03  0.50400001928E-02 0.  1.
        1   -1    0    0  501    0  0.00000000000E+00  0.00000000000E+00 -0.19954974064E+04  0.19954974064E+04  0.50400001928E-02 0. -1.
    10030    2    1    2    0    0  0.00000000000E+00  0.00000000000E+00 -0.14650169833E+04  0.25259778294E+04  0.20577388642E+04 0.  0.
        3    1    3    3  502    0 -0.36411197194E+02  0.23737279935E+03 -0.19606114169E+04  0.19752642252E+04  0.10100000352E+00 0. -1.
       -3    1    3    3    0  502  0.36411197194E+02 -0.23737279935E+03  0.49559443351E+03  0.55071360423E+03  0.10100000352E+00 0.  1.
</event>
<event>
 5   0  0.5637538E-06  0.3221824E+04  0.7818609E-02  0.8183077E-01
        2   -1    0    0  501    0  0.00000000000E+00  0.00000000000E+00  0.20782466058E+04  0.20782466058E+04  0.25500000920E-02 0.  1.
       -2   -1    0    0    0  501  0.00000000000E+00  0.00000000000E+00 -0.12486667299E+04  0.12486667299E+04  0.25500000920E-02 0. -1.
    10030    2    1    2    0    0  0.00000000000E+00  0.00000000000E+00  0.82957987594E+03  0.33269133357E+04  0.32218239512E+04 0.  0.
        2    1    3    3  502    0 -0.32460025233E+03 -0.62706662771E+03 -0.10803537167E+04  0.12906362898E+04  0.25500000920E-02 0. -1.
       -2    1    3    3    0  502  0.32460025233E+03  0.62706662771E+03  0.19099335926E+04  0.20362770459E+04  0.25500000920E-02 0.  1.
</event>
<event>
 5   0  0.5855568E-06  0.2582119E+04  0.7818609E-02  0.8374300E-01
       -2   -1    0    0    0  501  0.00000000000E+00  0.00000000000E+00  0.10492096439E+04  0.10492096439E+04  0.25500000920E-02 0. -1.
        2   -1    0    0  501    0  0.00000000000E+00  0.00000000000E+00 -0.15886571716E+04  0.15886571716E+04  0.25500000920E-02 0.  1.
    10030    2    1    2    0    0  0.00000000000E+00  0.00000000000E+00 -0.53944752767E+03  0.26378668154E+04  0.25821188394E+04 0.  0.
        3    1    3    3  502    0 -0.50481896366E+03 -0.10539530915E+04  0.29091894274E+03  0.12042811743E+04  0.10100000352E+00 0. -1.
       -3    1    3    3    0  502  0.50481896366E+03  0.10539530915E+04 -0.83036647041E+03  0.14335856412E+04  0.10100000352E+00 0.  1.
</event>
<event>
 5   0  0.5622811E-06  0.3376917E+04  0.7818609E-02  0.8143595E-01
        2   -1    0    0  501    0  0.00000000000E+00  0.00000000000E+00  0.15732010863E+04  0.15732010863E+04  0.25500000920E-02 0. -1.
       -2   -1    0    0    0  501  0.00000000000E+00  0.00000000000E+00 -0.18121600039E+04  0.18121600039E+04  0.25500000920E-02 0.  1.
    10030    2    1    2    0    0  0.00000000000E+00  0.00000000000E+00 -0.23895891765E+03  0.33853610902E+04  0.33769169884E+04 0.  0.
        1    1    3    3  502    0 -0.14201977805E+03  0.53385762638E+03  0.14800410137E+04  0.15797768782E+04  0.50400001928E-02 0. -1.
       -1    1    3    3    0  502  0.14201977805E+03 -0.53385762638E+03 -0.17189999314E+04  0.18055842120E+04  0.50400001928E-02 0.  1.
</event>
<event>
 5   0  0.5755250E-06  0.3223210E+04  0.7818609E-02  0.8182714E-01
        2   -1    0    0  501    0  0.00000000000E+00  0.00000000000E+00  0.18291564543E+04  0.18291564543E+04  0.25500000920E-02 0. -1.
       -2   -1    0    0    0  501  0.00000000000E+00  0.00000000000E+00 -0.14199281986E+04  0.14199281986E+04  0.25500000920E-02 0.  1.
    10030    2    1    2    0    0  0.00000000000E+00  0.00000000000E+00  0.40922825574E+03  0.32490846529E+04  0.32232100950E+04 0.  0.
        5    1    3    3  502    0 -0.11251715537E+04  0.66962311526E+03 -0.74252559691E+03  0.15052483163E+04  0.46999998093E+01 0.  1.
       -5    1    3    3    0  502  0.11251715537E+04 -0.66962311526E+03  0.11517538527E+04  0.17438363366E+04  0.46999998093E+01 0. -1.
</event>
<event>
 5   0  0.2097842E-06  0.3208579E+04  0.7818609E-02  0.8186555E-01
        1   -1    0    0  501    0  0.00000000000E+00  0.00000000000E+00  0.11944025315E+04  0.11944025315E+04  0.50400001928E-02 0.  1.
       -1   -1    0    0    0  501  0.00000000000E+00  0.00000000000E+00 -0.21548381595E+04  0.21548381595E+04  0.50400001928E-02 0. -1.
    10030    2    1    2    0    0  0.00000000000E+00  0.00000000000E+00 -0.96043562795E+03  0.33492406910E+04  0.32085785967E+04 0.  0.
        4    1    3    3  502    0 -0.15983427741E+03  0.82896054673E+03  0.94377957126E+03  0.12662717229E+04  0.12699999809E+01 0.  1.
       -4    1    3    3    0  502  0.15983427741E+03 -0.82896054673E+03 -0.19042151992E+04  0.20829689681E+04  0.12699999809E+01 0. -1.
</event>
<event>
 5   0  0.1999849E-06  0.2266032E+04  0.7818609E-02  0.8491436E-01
        1   -1    0    0  501    0  0.00000000000E+00  0.00000000000E+00  0.15403701307E+04  0.15403701307E+04  0.50400001928E-02 0. -1.
       -1   -1    0    0    0  501  0.00000000000E+00  0.00000000000E+00 -0.83338781069E+03  0.83338781070E+03  0.50400001928E-02 0.  1.
    10030    2    1    2    0    0  0.00000000000E+00  0.00000000000E+00  0.70698232003E+03  0.23737579414E+04  0.22660323836E+04 0.  0.
        5    1    3    3  502    0  0.11092330548E+04 -0.83763776489E+02  0.12811372024E+03  0.11197542389E+04  0.46999998093E+01 0.  1.
       -5    1    3    3    0  502 -0.11092330548E+04  0.83763776489E+02  0.57886859979E+03  0.12540037025E+04  0.46999998093E+01 0. -1.
</event>
<event>
 5   0  0.5300268E-06  0.3507299E+04  0.7818609E-02  0.8112062E-01
       -2   -1    0    0    0  501  0.00000000000E+00  0.00000000000E+00  0.16228677111E+04  0.16228677112E+04  0.25500000920E-02 0.  1.
        2   -1    0    0  501    0  0.00000000000E+00  0.00000000000E+00 -0.18949710692E+04  0.18949710692E+04  0.25500000920E-02 0. -1.
    10030    2    1    2    0    0  0.00000000000E+00  0.00000000000E+00 -0.27210335808E+03  0.35178387804E+04  0.35072994522E+04 0.  0.
        4    1    3    3  502    0 -0.74265243039E+03  0.12564439205E+04  0.83903310173E+03  0.16834969903E+04  0.12699999809E+01 0.  1.
       -4    1    3    3    0  502  0.74265243039E+03 -0.12564439205E+04 -0.11111364598E+04  0.18343417901E+04  0.12699999809E+01 0. -1.
</event>
<event>
 5   0  0.2097842E-06  0.1686139E+04  0.7818609E-02  0.8769309E-01
        1   -1    0    0  501    0  0.00000000000E+00  0.00000000000E+00  0.12623364451E+04  0.12623364451E+04  0.50400001928E-02 0.  1.
       -1   -1    0    0    0  501  0.00000000000E+00  0.00000000000E+00 -0.56305623593E+03  0.56305623595E+03  0.50400001928E-02 0. -1.
    10030    2    1    2    0    0  0.00000000000E+00  0.00000000000E+00  0.69928020917E+03  0.18253926811E+04  0.16861392674E+04 0.  0.
        4    1    3    3  502    0 -0.11343099672E+03 -0.31335749345E+03 -0.48872231099E+03  0.59153243350E+03  0.12699999809E+01 0. -1.
       -4    1    3    3    0  502  0.11343099672E+03  0.31335749345E+03  0.11880025202E+04  0.12338602476E+04  0.12699999809E+01 0.  1.
</event>
<event>
 5   0  0.1925906E-06  0.1816075E+04  0.7818609E-02  0.8697797E-01
       -1   -1    0    0    0  501  0.00000000000E+00  0.00000000000E+00  0.10136279312E+04  0.10136279312E+04  0.50400001928E-02 0. -1.
        1   -1    0    0  501    0  0.00000000000E+00  0.00000000000E+00 -0.81344658654E+03  0.81344658656E+03  0.50400001928E-02 0.  1.
    10030    2    1    2    0    0  0.00000000000E+00  0.00000000000E+00  0.20018134464E+03  0.18270745178E+04  0.18160750873E+04 0.  0.
        1    1    3    3  502    0 -0.50238414660E+03 -0.59199990536E+03 -0.37358841300E+03  0.86163914782E+03  0.50400001928E-02 0.  1.
       -1    1    3    3    0  502  0.50238414660E+03  0.59199990536E+03  0.57376975765E+03  0.96543536993E+03  0.50400001928E-02 0. -1.
</event>
<event>
 5   0  0.5622811E-06  0.3316787E+04  0.7818609E-02  0.8158637E-01
        2   -1    0    0  501    0  0.00000000000E+00  0.00000000000E+00  0.81614169141E+03  0.81614169141E+03  0.25500000920E-02 0. -1.
       -2   -1    0    0    0  501  0.00000000000E+00  0.00000000000E+00 -0.33698432746E+04  0.33698432746E+04  0.25500000920E-02 0.  1.
    10030    2    1    2    0    0  0.00000000000E+00  0.00000000000E+00 -0.25537015832E+04  0.41859849660E+04  0.33167873552E+04 0.  0.
        1    1    3    3  502    0 -0.16283286446E+04 -0.98503948631E+02 -0.16535971595E+04  0.23228303357E+04  0.50400001928E-02 0.  1.
       -1    1    3    3    0  502  0.16283286446E+04  0.98503948631E+02 -0.90010442366E+03  0.18631546302E+04  0.50400001928E-02 0. -1.
</event>
<event>
 5   0  0.1999849E-06  0.2197233E+04  0.7818609E-02  0.8519581E-01
       -1   -1    0    0    0  501  0.00000000000E+00  0.00000000000E+00  0.12032386478E+04  0.12032386478E+04  0.50400001928E-02 0. -1.
        1   -1    0    0  501    0  0.00000000000E+00  0.00000000000E+00 -0.10030910167E+04  0.10030910167E+04  0.50400001928E-02 0.  1.
    10030    2    1    2    0    0  0.00000000000E+00  0.00000000000E+00  0.20014763107E+03  0.22063296645E+04  0.21972326946E+04 0.  0.
        5    1    3    3  502    0  0.10830311832E+04 -0.16480541843E+03  0.18298940523E+03  0.11106865364E+04  0.46999998093E+01 0. -1.
       -5    1    3    3    0  502 -0.10830311832E+04  0.16480541843E+03  0.17158225837E+02  0.10956431282E+04  0.46999998093E+01 0.  1.
</event>
<event>
 5   0  0.5300268E-06  0.2967580E+04  0.7818609E-02  0.8253050E-01
        2   -1    0    0  501    0  0.00000000000E+00  0.00000000000E+00  0.16312599702E+04  0.16312599702E+04  0.25500000920E-02 0. -1.
       -2   -1    0    0    0  501  0.00000000000E+00  0.00000000000E+00 -0.13496520485E+04  0.13496520485E+04  0.25500000920E-02 0.  1.
    10030    2    1    2    0    0  0.00000000000E+00  0.00000000000E+00  0.28160792171E+03  0.29809120187E+04  0.29675804019E+04 0.  0.
        4    1    3    3  502    0 -0.59619921423E+03 -0.22609921171E+03  0.14866204123E+04  0.16175958147E+04  0.12699999809E+01 0. -1.
       -4    1    3    3    0  502  0.59619921423E+03  0.22609921171E+03 -0.12050124906E+04  0.13633162040E+04  0.12699999809E+01 0.  1.
</event>
<event>
 5   0  0.5622811E-06  0.3463200E+04  0.7818609E-02  0.8122567E-01
        2   -1    0    0  501    0  0.00000000000E+00  0.00000000000E+00  0.27219161694E+04  0.27219161694E+04  0.25500000920E-02 0. -1.
       -2   -1    0    0    0  501  0.00000000000E+00  0.00000000000E+00 -0.11015908599E+04  0.11015908599E+04  0.25500000920E-02 0.  1.
    10030    2    1    2    0    0  0.00000000000E+00  0.00000000000E+00  0.16203253095E+04  0.38235070292E+04  0.34631996613E+04 0.  0.
        1    1    3    3  502    0 -0.21178264765E+03  0.17179262384E+04  0.86328887531E+03  0.19342673374E+04  0.50400001928E-02 0. -1.
       -1    1    3    3    0  502  0.21178264765E+03 -0.17179262384E+04  0.75703643418E+03  0.18892396918E+04  0.50400001928E-02 0.  1.
</event>
<event>
 5   0  0.5855568E-06  0.3499186E+04  0.7818609E-02  0.8113983E-01
       -2   -1    0    0    0  501  0.00000000000E+00  0.00000000000E+00  0.15487336878E+04  0.15487336878E+04  0.25500000920E-02 0.  1.
        2   -1    0    0  501    0  0.00000000000E+00  0.00000000000E+00 -0.19765017216E+04  0.19765017216E+04  0.25500000920E-02 0. -1.
    10030    2    1    2    0    0  0.00000000000E+00  0.00000000000E+00 -0.42776803382E+03  0.35252354095E+04  0.34991855054E+04 0.  0.
        3    1    3    3  502    0 -0.11829102853E+03  0.67323821585E+03  0.14086436327E+04  0.15657328497E+04  0.10100000352E+00 0.  1.
       -3    1    3    3    0  502  0.11829102853E+03 -0.67323821585E+03 -0.18364116665E+04  0.19595025597E+04  0.10100000352E+00 0. -1.
</event>
<event>
 5   0  0.5637538E-06  0.3170968E+04  0.7818609E-02  0.8196527E-01
       -2   -1    0    0    0  501  0.00000000000E+00  0.00000000000E+00  0.13774301730E+04  0.13774301730E+04  0.25500000920E-02 0. -1.
        2   -1    0    0  501    0  0.00000000000E+00  0.00000000000E+00 -0.18249628342E+04  0.18249628342E+04  0.25500000920E-02 0.  1.
    10030    2    1    2    0    0  0.00000000000E+00  0.00000000000E+00 -0.44753266128E+03  0.32023930072E+04  0.31709675952E+04 0.  0.
        2    1    3    3  502    0  0.66454868717E+03  0.10967066657E+04  0.71787334942E+03  0.14696028763E+04  0.25500000920E-02 0. -1.
       -2    1    3    3    0  502 -0.66454868717E+03 -0.10967066657E+04 -0.11654060107E+04  0.17327901309E+04  0.25500000920E-02 0.  1.
</event>
<event>
 5   0  0.5622811E-06  0.3231094E+04  0.7818609E-02  0.8180653E-01
        2   -1    0    0  501    0  0.00000000000E+00  0.00000000000E+00  0.20037166015E+04  0.20037166015E+04  0.25500000920E-02 0.  1.
       -2   -1    0    0    0  501  0.00000000000E+00  0.00000000000E+00 -0.13025753055E+04  0.13025753055E+04  0.25500000920E-02 0. -1.
    10030    2    1    2    0    0  0.00000000000E+00  0.00000000000E+00  0.70114129602E+03  0.33062919071E+04  0.32310937866E+04 0.  0.
        1    1    3    3  502    0  0.11977645519E+04 -0.95003294887E+03  0.88501839022E+03  0.17664824021E+04  0.50400001928E-02 0.  1.
       -1    1    3    3    0  502 -0.11977645519E+04  0.95003294887E+03 -0.18387709420E+03  0.15398095050E+04  0.50400001928E-02 0. -1.
</event>
<event>
 5   0  0.5755250E-06  0.2834956E+04  0.7818609E-02  0.8292497E-01
        2   -1    0    0  501    0  0.00000000000E+00  0.00000000000E+00  0.12574548262E+04  0.12574548262E+04  0.25500000920E-02 0. -1.
       -2   -1    0    0    0  501  0.00000000000E+00  0.00000000000E+00 -0.15978655525E+04  0.15978655525E+04  0.25500000920E-02 0.  1.
    10030    2    1    2    0    0  0.00000000000E+00  0.00000000000E+00 -0.34041072633E+03  0.28553203787E+04  0.28349559084E+04 0.  0.
        5    1    3    3  502    0  0.98345338262E+03 -0.49616914499E+03 -0.10687220230E+04  0.15347811664E+04  0.46999998093E+01 0.  1.
       -5    1    3    3    0  502 -0.98345338262E+03  0.49616914499E+03  0.72831129672E+03  0.13205392123E+04  0.46999998093E+01 0. -1.
</event>
<event>
 5   0  0.5637538E-06  0.3283608E+04  0.7818609E-02  0.8167079E-01
       -2   -1    0    0    0  501  0.00000000000E+00  0.00000000000E+00  0.11444067075E+04  0.11444067075E+04  0.25500000920E-02 0.  1.
        2   -1    0    0  501    0  0.00000000000E+00  0.00000000000E+00 -0.23553866843E+04  0.23553866843E+04  0.25500000920E-02 0. -1.
    10030    2    1    2    0    0  0.00000000000E+00  0.00000000000E+00 -0.12109799768E+04  0.34997933918E+04  0.32836079670E+04 0.  0.
        2    1    3    3  502    0 -0.13343889899E+04  0.35697205315E+03  0.34034558059E+03  0.14226236808E+04  0.25500000920E-02 0.  1.
       -2    1    3    3    0  502  0.13343889899E+04 -0.35697205315E+03 -0.15513255574E+04  0.20771697110E+04  0.25500000920E-02 0. -1.
</event>
<event>
 5   0  0.2730982E-06  0.1699910E+04  0.7818609E-02  0.8761416E-01
        1   -1    0    0  501    0  0.00000000000E+00  0.00000000000E+00  0.22365524492E+04  0.22365524492E+04  0.50400001928E-02 0. -1.
       -1   -1    0    0    0  501  0.00000000000E+00  0.00000000000E+00 -0.32300765136E+03  0.32300765140E+03  0.50400001928E-02 0.  1.
    10030    2    1    2    0    0  0.00000000000E+00  0.00000000000E+00  0.19135447978E+04  0.25595601006E+04  0.16999100609E+04 0.  0.
        3    1    3    3  502    0 -0.38816444200E+03 -0.33730823613E+03  0.19757398301E+04  0.20415671350E+04  0.10100000352E+00 0. -1.
       -3    1    3    3    0  502  0.38816444200E+03  0.33730823613E+03 -0.62195032263E+02  0.51799296562E+03  0.10100000352E+00 0.  1.
</event>
<event>
 5   0  0.1925906E-06  0.3509356E+04  0.7818609E-02  0.8111576E-01
        1   -1    0    0  501    0  0.00000000000E+00  0.00000000000E+00  0.19810815614E+04  0.19810815614E+04  0.50400001928E-02 0.  1.
       -1   -1    0    0    0  501  0.00000000000E+00  0.00000000000E+00 -0.15541487541E+04  0.15541487542E+04  0.50400001928E-02 0. -1.
    10030    2    1    2    0    0  0.00000000000E+00  0.00000000000E+00  0.42693280721E+03  0.35352303155E+04  0.35093563173E+04 0.  0.
        1    1    3    3  502    0  0.11386065355E+04 -0.84642469025E+03 -0.82663611993E+03  0.16420069652E+04  0.50400001928E-02 0. -1.
       -1    1    3    3    0  502 -0.11386065355E+04  0.84642469025E+03  0.12535689271E+04  0.18932233503E+04  0.50400001928E-02 0.  1.
</event>
<event>
 5   0  0.5637538E-06  0.3361036E+04  0.7818609E-02  0.8147536E-01
       -2   -1    0    0    0  501  0.00000000000E+00  0.00000000000E+00  0.21236831596E+04  0.21236831596E+04  0.25500000920E-02 0. -1.
        2   -1    0    0  501    0  0.00000000000E+00  0.00000000000E+00 -0.13298312544E+04  0.13298312544E+04  0.25500000920E-02 0.  1.
    10030    2    1    2    0    0  0.00000000000E+00  0.00000000000E+00  0.79385190524E+03  0.34535144140E+04  0.33610356976E+04 0.  0.
        2    1    3    3  502    0  0.95369960361E+03  0.79612020633E+03  0.15597850608E+04  0.19940611206E+04  0.25500000920E-02 0. -1.
       -2    1    3    3    0  502 -0.95369960361E+03 -0.79612020633E+03 -0.76593315555E+03  0.14594532934E+04  0.25500000920E-02 0.  1.
</event>
<event>
 5   0  0.5755250E-06  0.3308667E+04  0.7818609E-02  0.8160693E-01
        2   -1    0    0  501    0  0.00000000000E+00  0.00000000000E+00  0.27447747235E+04  0.27447747235E+04  0.25500000920E-02 0. -1.
       -2   -1    0    0    0  501  0.00000000000E+00  0.00000000000E+00 -0.99710188303E+03  0.99710188303E+03  0.25500000920E-02 0.  1.
    10030    2    1    2    0    0  0.00000000000E+00  0.00000000000E+00  0.17476728405E+04  0.37418766066E+04  0.33086674329E+04 0.  0.
        5    1    3    3  502    0 -0.77450283439E+03  0.59327513734E+03 -0.63711866138E+03  0.11652348723E+04  0.46999998093E+01 0.  1.
       -5    1    3    3    0  502  0.77450283439E+03 -0.59327513734E+03  0.23847915019E+04  0.25766417342E+04  0.46999998093E+01 0. -1.
</event>
<event>
 5   0  0.5755250E-06  0.3304244E+04  0.7818609E-02  0.8161816E-01
       -2   -1    0    0    0  501  0.00000000000E+00  0.00000000000E+00  0.14965965548E+04  0.14965965548E+04  0.25500000920E-02 0.  1.
        2   -1    0    0  501    0  0.00000000000E+00  0.00000000000E+00 -0.18238100215E+04  0.18238100215E+04  0.25500000920E-02 0. -1.
    10030    2    1    2    0    0  0.00000000000E+00  0.00000000000E+00 -0.32721346673E+03  0.33204065764E+04  0.33042444189E+04 0.  0.
        5    1    3    3  502    0  0.51892758091E+03 -0.61966316873E+03  0.12843497717E+04  0.15175126698E+04  0.46999998093E+01 0.  1.
       -5    1    3    3    0  502 -0.51892758091E+03  0.61966316873E+03 -0.16115632384E+04  0.18028939066E+04  0.46999998093E+01 0. -1.
</event>
<event>
 5   0  0.2097842E-06  0.1960080E+04  0.7818609E-02  0.8625515E-01
        1   -1    0    0  501    0  0.00000000000E+00  0.00000000000E+00  0.65015760931E+03  0.65015760933E+03  0.50400001928E-02 0.  1.
       -1   -1    0    0    0  501  0.00000000000E+00  0.00000000000E+00 -0.14773012005E+04  0.14773012005E+04  0.50400001928E-02 0. -1.
    10030    2    1    2    0    0  0.00000000000E+00  0.00000000000E+00 -0.82714359120E+03  0.21274588099E+04  0.19600802196E+04 0.  0.
        4    1    3    3  502    0  0.76280731539E+03 -0.60558378371E+03 -0.29531724111E+03  0.10177527231E+04  0.12699999809E+01 0.  1.
       -4    1    3    3    0  502 -0.76280731539E+03  0.60558378371E+03 -0.53182635009E+03  0.11097060868E+04  0.12699999809E+01 0. -1.
</event>
<event>
 5   0  0.1999849E-06  0.3029087E+04  0.7818609E-02  0.8235473E-01
       -1   -1    0    0    0  501  0.00000000000E+00  0.00000000000E+00  0.13290944455E+04  0.13290944455E+04  0.50400001928E-02 0. -1.
        1   -1    0    0  501    0  0.00000000000E+00  0.00000000000E+00 -0.17258687504E+04  0.17258687504E+04  0.50400001928E-02 0.  1.
    10030    2    1    2    0    0  0.00000000000E+00  0.00000000000E+00 -0.39677430495E+03  0.30549631959E+04  0.30290873674E+04 0.  0.
        5    1    3    3  502    0 -0.62943484472E+03 -0.13728477880E+02  0.11908572057E+04  0.13470485029E+04  0.46999998093E+01 0. -1.
       -5    1    3    3    0  502  0.62943484472E+03  0.13728477880E+02 -0.15876315107E+04  0.17079146930E+04  0.46999998093E+01 0.  1.
</event>
<event>
 5   0  0.5622811E-06  0.1973891E+04  0.7818609E-02  0.8618925E-01
       -2   -1    0    0    0  501  0.00000000000E+00  0.00000000000E+00  0.61781584491E+03  0.61781584492E+03  0.25500000920E-02 0. -1.
        2   -1    0    0  501    0  0.00000000000E+00  0.00000000000E+00 -0.15766217009E+04  0.15766217009E+04  0.25500000920E-02 0.  1.
    10030    2    1    2    0    0  0.00000000000E+00  0.00000000000E+00 -0.95880585596E+03  0.21944375458E+04  0.19738914542E+04 0.  0.
        1    1    3    3  502    0  0.45110042245E+03  0.56064175080E+03  0.27153133908E+03  0.76911639692E+03  0.50400001928E-02 0. -1.
       -1    1    3    3    0  502 -0.45110042245E+03 -0.56064175080E+03 -0.12303371950E+04  0.14253211489E+04  0.50400001928E-02 0.  1.
</event>
<event>
 5   0  0.6897201E-06  0.1790547E+04  0.7818609E-02  0.8711342E-01
       -2   -1    0    0    0  501  0.00000000000E+00  0.00000000000E+00  0.57822066280E+03  0.57822066280E+03  0.25500000920E-02 0. -1.
        2   -1    0    0  501    0  0.00000000000E+00  0.00000000000E+00 -0.13861748881E+04  0.13861748881E+04  0.25500000920E-02 0.  1.
    10030    2    1    2    0    0  0.00000000000E+00  0.00000000000E+00 -0.80795422530E+03  0.19643955509E+04  0.17905473605E+04 0.  0.
        4    1    3    3  502    0  0.32391308763E+03 -0.76925497755E+03 -0.48748820126E+02  0.83609267979E+03  0.12699999809E+01 0. -1.
       -4    1    3    3    0  502 -0.32391308763E+03  0.76925497755E+03 -0.75920540517E+03  0.11283028711E+04  0.12699999809E+01 0.  1.
</event>
<event>
 5   0  0.5637538E-06  0.2976343E+04  0.7818609E-02  0.8250519E-01
       -2   -1    0    0    0  501  0.00000000000E+00  0.00000000000E+00  0.92135590161E+03  0.92135590162E+03  0.25500000920E-02 0.  1.
        2   -1    0    0  501    0  0.00000000000E+00  0.00000000000E+00 -0.24036897622E+04  0.24036897622E+04  0.25500000920E-02 0. -1.
    10030    2    1    2    0    0  0.00000000000E+00  0.00000000000E+00 -0.14823338605E+04  0.33250456638E+04  0.29763425529E+04 0.  0.
        2    1    3    3  502    0 -0.14092355803E+04  0.44003154330E+03 -0.53192385003E+03  0.15692404730E+04  0.25500000920E-02 0. -1.
       -2    1    3    3    0  502  0.14092355803E+04 -0.44003154330E+03 -0.95041001051E+03  0.17558051908E+04  0.25500000920E-02 0.  1.
</event>
<event>
 5   0  0.5637538E-06  0.3261125E+04  0.7818609E-02  0.8172858E-01
       -2   -1    0    0    0  501  0.00000000000E+00  0.00000000000E+00  0.14961632262E+04  0.14961632263E+04  0.25500000920E-02 0. -1.
        2   -1    0    0  501    0  0.00000000000E+00  0.00000000000E+00 -0.17770345849E+04  0.17770345849E+04  0.25500000920E-02 0.  1.
    10030    2    1    2    0    0  0.00000000000E+00  0.00000000000E+00 -0.28087135868E+03  0.32731978112E+04  0.32611248352E+04 0.  0.
        2    1    3    3  502    0 -0.64994206155E+03 -0.14894055465E+04 -0.58488753512E+01  0.16250500837E+04  0.25500000920E-02 0. -1.
       -2    1    3    3    0  502  0.64994206155E+03  0.14894055465E+04 -0.27502248333E+03  0.16481477275E+04  0.25500000920E-02 0.  1.
</event>
<event>
 5   0  0.2037109E-06  0.3361565E+04  0.7818609E-02  0.8147405E-01
       -1   -1    0    0    0  501  0.00000000000E+00  0.00000000000E+00  0.10930322459E+04  0.10930322459E+04  0.50400001928E-02 0.  1.
        1   -1    0    0  501    0  0.00000000000E+00  0.00000000000E+00 -0.25845800950E+04  0.25845800950E+04  0.50400001928E-02 0. -1.
    10030    2    1    2    0    0  0.00000000000E+00  0.00000000000E+00 -0.14915478491E+04  0.36776123409E+04  0.33615647464E+04 0.  0.
        2    1    3    3  502    0 -0.43317871893E+03  0.54799058714E+02  0.10299027755E+04  0.11186359847E+04  0.25500000920E-02 0.  1.
       -2    1    3    3    0  502  0.43317871893E+03 -0.54799058714E+02 -0.25214506246E+04  0.25589763562E+04  0.25500000920E-02 0. -1.
</event>
<event>
 5   0  0.1925906E-06  0.2089419E+04  0.7818609E-02  0.8565919E-01
        1   -1    0    0  501    0  0.00000000000E+00  0.00000000000E+00  0.17544091271E+04  0.17544091271E+04  0.50400001928E-02 0.  1.
       -1   -1    0    0    0  501  0.00000000000E+00  0.00000000000E+00 -0.62210030593E+03  0.62210030595E+03  0.50400001928E-02 0. -1.
    10030    2    1    2    0    0  0.00000000000E+00  0.00000000000E+00  0.11323088211E+04  0.23765094330E+04  0.20894194933E+04 0.  0.
        1    1    3    3  502    0 -0.42503151688E+03 -0.24445326383E+03 -0.48310058301E+03  0.68832794646E+03  0.50400001928E-02 0. -1.
       -1    1    3    3    0  502  0.42503151688E+03  0.24445326383E+03  0.16154094041E+04  0.16881814866E+04  0.50400001928E-02 0.  1.
</event>
<event>
 5   0  0.5755250E-06  0.3163459E+04  0.7818609E-02  0.8198535E-01
        2   -1    0    0  501    0  0.00000000000E+00  0.00000000000E+00  0.23756249044E+04  0.23756249044E+04  0.25500000920E-02 0. -1.
       -2   -1    0    0    0  501  0.00000000000E+00  0.00000000000E+00 -0.10531414235E+04  0.10531414235E+04  0.25500000920E-02 0.  1.
    10030    2    1    2    0    0  0.00000000000E+00  0.00000000000E+00  0.13224834808E+04  0.34287663279E+04  0.31634594946E+04 0.  0.
        5    1    3    3  502    0  0.13986061050E+04 -0.73850116814E+03  0.64056598407E+03  0.17064084746E+04  0.46999998093E+01 0. -1.
       -5    1    3    3    0  502 -0.13986061050E+04  0.73850116814E+03  0.68191749677E+03  0.17223578533E+04  0.46999998093E+01 0.  1.
</event>
<event>
 5   0  0.5622811E-06  0.3349359E+04  0.7818609E-02  0.8150448E-01
        2   -1    0    0  501    0  0.00000000000E+00  0.00000000000E+00  0.20101426900E+04  0.20101426900E+04  0.25500000920E-02 0.  1.
       -2   -1    0    0    0  501  0.00000000000E+00  0.00000000000E+00 -0.13952005405E+04  0.13952005405E+04  0.25500000920E-02 0. -1.
    10030    2    1    2    0    0  0.00000000000E+00  0.00000000000E+00  0.61494214949E+03  0.34053432305E+04  0.33493594418E+04 0.  0.
        1    1    3    3  502    0  0.54513831444E+03  0.43853882893E+03 -0.12394931417E+04  0.14233184235E+04  0.50400001928E-02 0. -1.
       -1    1    3    3    0  502 -0.54513831444E+03 -0.43853882893E+03  0.18544352912E+04  0.19820248070E+04  0.50400001928E-02 0.  1.
</event>
<event>
 5   0  0.2097842E-06  0.3241359E+04  0.7818609E-02  0.8177979E-01
        1   -1    0    0  501    0  0.00000000000E+00  0.00000000000E+00  0.26894858284E+04  0.26894858284E+04  0.50400001928E-02 0.  1.
       -1   -1    0    0    0  501  0.00000000000E+00  0.00000000000E+00 -0.97661886067E+03  0.97661886068E+03  0.50400001928E-02 0. -1.
    10030    2    1    2    0    0  0.00000000000E+00  0.00000000000E+00  0.17128669678E+04  0.36661046891E+04  0.32413593356E+04 0.  0.
        4    1    3    3  502    0  0.46485110035E+03 -0.11364227877E+04  0.20529092816E+04  0.23920663514E+04  0.12699999809E+01 0.  1.
       -4    1    3    3    0  502 -0.46485110035E+03  0.11364227877E+04 -0.34004231382E+03  0.12740383378E+04  0.12699999809E+01 0. -1.
</event>
<event>
 5   0  0.2730981E-06  0.3282386E+04  0.7818609E-02  0.8167392E-01
        1   -1    0    0  501    0  0.00000000000E+00  0.00000000000E+00  0.10979586306E+04  0.10979586306E+04  0.50400001928E-02 0. -1.
       -1   -1    0    0    0  501  0.00000000000E+00  0.00000000000E+00 -0.24532016515E+04  0.24532016515E+04  0.50400001928E-02 0.  1.
    10030    2    1    2    0    0  0.00000000000E+00  0.00000000000E+00 -0.13552430209E+04  0.35511602821E+04  0.32823856726E+04 0.  0.
        3    1    3    3  502    0 -0.90050235616E+03 -0.12506342648E+03 -0.21558758712E+04  0.23397320650E+04  0.10100000352E+00 0.  1.
       -3    1    3    3    0  502  0.90050235616E+03  0.12506342648E+03  0.80063285025E+03  0.12114282171E+04  0.10100000352E+00 0. -1.
</event>
<event>
 5   0  0.5755250E-06  0.3267125E+04  0.7818609E-02  0.8171311E-01
       -2   -1    0    0    0  501  0.00000000000E+00  0.00000000000E+00  0.24149589761E+04  0.24149589761E+04  0.25500000920E-02 0. -1.
        2   -1    0    0  501    0  0.00000000000E+00  0.00000000000E+00 -0.11049988114E+04  0.11049988114E+04  0.25500000920E-02 0.  1.
    10030    2    1    2    0    0  0.00000000000E+00  0.00000000000E+00  0.13099601647E+04  0.35199577875E+04  0.32671252184E+04 0.  0.
        5    1    3    3  502    0 -0.96397456165E+03 -0.41803907434E+03 -0.69261559654E+03  0.12584681473E+04  0.46999998093E+01 0.  1.
       -5    1    3    3    0  502  0.96397456165E+03  0.41803907434E+03  0.20025757612E+04  0.22614896402E+04  0.46999998093E+01 0. -1.
</event>
<event>
 5   0  0.5755250E-06  0.3507754E+04  0.7818609E-02  0.8111955E-01
        2   -1    0    0  501    0  0.00000000000E+00  0.00000000000E+00  0.20961401233E+04  0.20961401233E+04  0.25500000920E-02 0. -1.
       -2   -1    0    0    0  501  0.00000000000E+00  0.00000000000E+00 -0.14674993039E+04  0.14674993039E+04  0.25500000920E-02 0.  1.
    10030    2    1    2    0    0  0.00000000000E+00  0.00000000000E+00  0.62864081945E+03  0.35636394272E+04  0.35077537951E+04 0.  0.
        5    1    3    3  502    0 -0.16149141292E+04 -0.64698459350E+03  0.54040893891E+03  0.18217026707E+04  0.46999998093E+01 0.  1.
       -5    1    3    3    0  502  0.16149141292E+04  0.64698459350E+03  0.88231880535E+02  0.17419367565E+04  0.46999998093E+01 0. -1.
</event>
<event>
 5   0  0.5637538E-06  0.2775170E+04  0.7818609E-02  0.8311019E-01
       -2   -1    0    0    0  501  0.00000000000E+00  0.00000000000E+00  0.82466480805E+03  0.82466480806E+03  0.25500000920E-02 0.  1.
        2   -1    0    0  501    0  0.00000000000E+00  0.00000000000E+00 -0.23347577979E+04  0.23347577979E+04  0.25500000920E-02 0. -1.
    10030    2    1    2    0    0  0.00000000000E+00  0.00000000000E+00 -0.15100929899E+04  0.31594226060E+04  0.27751703308E+04 0.  0.
        2    1    3    3  502    0  0.12210547925E+04  0.52481495244E+02 -0.70652126983E+01  0.12222025326E+04  0.25500000920E-02 0.  1.
       -2    1    3    3    0  502 -0.12210547925E+04 -0.52481495244E+02 -0.15030277772E+04  0.19372200733E+04  0.25500000920E-02 0. -1.
</event>
<event>
 5   0  0.5300268E-06  0.2654533E+04  0.7818609E-02  0.8349910E-01
        2   -1    0    0  501    0  0.00000000000E+00  0.00000000000E+00  0.23287339970E+04  0.23287339970E+04  0.25500000920E-02 0.  1.
       -2   -1    0    0    0  501  0.00000000000E+00  0.00000000000E+00 -0.75647826730E+03  0.75647826730E+03  0.25500000920E-02 0. -1.
    10030    2    1    2    0    0  0.00000000000E+00  0.00000000000E+00  0.15722557297E+04  0.30852122643E+04  0.26545332238E+04 0.  0.
        4    1    3    3  502    0 -0.32345100369E+03 -0.82028739478E+03 -0.36686337146E+03  0.95503000374E+03  0.12699999809E+01 0. -1.
       -4    1    3    3    0  502  0.32345100369E+03  0.82028739478E+03  0.19391191012E+04  0.21301822606E+04  0.12699999809E+01 0.  1.
</event>
<event>
 5   0  0.1925906E-06  0.3321305E+04  0.7818609E-02  0.8157495E-01
        1   -1    0    0  501    0  0.00000000000E+00  0.00000000000E+00  0.18626995583E+04  0.18626995583E+04  0.50400001928E-02 0.  1.
       -1   -1    0    0    0  501  0.00000000000E+00  0.00000000000E+00 -0.14805217950E+04  0.14805217950E+04  0.50400001928E-02 0. -1.
    10030    2    1    2    0    0  0.00000000000E+00  0.00000000000E+00  0.38217776338E+03  0.33432213533E+04  0.33213053419E+04 0.  0.
        1    1    3    3  502    0  0.53593170565E+03 -0.12617585858E+04  0.11345622076E+04  0.17794631002E+04  0.50400001928E-02 0.  1.
       -1    1    3    3    0  502 -0.53593170565E+03  0.12617585858E+04 -0.75238444426E+03  0.15637582531E+04  0.50400001928E-02 0. -1.
</event>
<event>
 5   0  0.1925906E-06  0.3235751E+04  0.7818609E-02  0.8179439E-01
        1   -1    0    0  501    0  0.00000000000E+00  0.00000000000E+00  0.18479621215E+04  0.18479621215E+04  0.50400001928E-02 0. -1.
       -1   -1    0    0    0  501  0.00000000000E+00  0.00000000000E+00 -0.14164363099E+04  0.14164363099E+04  0.50400001928E-02 0.  1.
    10030    2    1    2    0    0  0.00000000000E+00  0.00000000000E+00  0.43152581162E+03  0.32643984314E+04  0.32357507000E+04 0.  0.
        1    1    3    3  502    0 -0.82530527372E+03 -0.96053684019E+03 -0.80000821313E+03  0.14979228810E+04  0.50400001928E-02 0.  1.
       -1    1    3    3    0  502  0.82530527372E+03  0.96053684019E+03  0.12315340247E+04  0.17664755504E+04  0.50400001928E-02 0. -1.
</event>
<event>
 5   0  0.1999849E-06  0.1658529E+04  0.7818609E-02  0.8785377E-01
       -1   -1    0    0    0  501  0.00000000000E+00  0.00000000000E+00  0.88941439990E+03  0.88941439991E+03  0.50400001928E-02 0. -1.
        1   -1    0    0  501    0  0.00000000000E+00  0.00000000000E+00 -0.77318280509E+03  0.77318280511E+03  0.50400001928E-02 0.  1.
    10030    2    1    2    0    0  0.00000000000E+00  0.00000000000E+00  0.11623159481E+03  0.16625972050E+04  0.16585293734E+04 0.  0.
        5    1    3    3  502    0  0.26180919490E+03  0.37944036352E+02  0.84596581342E+03  0.88637692428E+03  0.46999998093E+01 0. -1.
       -5    1    3    3    0  502 -0.26180919490E+03 -0.37944036352E+02 -0.72973421861E+03  0.77622028074E+03  0.46999998093E+01 0.  1.
</event>
<event>
 5   0  0.5622811E-06  0.3228221E+04  0.7818609E-02  0.8181403E-01
       -2   -1    0    0    0  501  0.00000000000E+00  0.00000000000E+00  0.14493828861E+04  0.14493828861E+04  0.25500000920E-02 0.  1.
        2   -1    0    0  501    0  0.00000000000E+00  0.00000000000E+00 -0.17975604603E+04  0.17975604603E+04  0.25500000920E-02 0. -1.
    10030    2    1    2    0    0  0.00000000000E+00  0.00000000000E+00 -0.34817757418E+03  0.32469433464E+04  0.32282214099E+04 0.  0.
        1    1    3    3  502    0  0.61664898349E+03 -0.31234932496E+03  0.12929776603E+04  0.14661545961E+04  0.50400001928E-02 0.  1.
       -1    1    3    3    0  502 -0.61664898349E+03  0.31234932496E+03 -0.16411552345E+04  0.17807887503E+04  0.50400001928E-02 0. -1.
</event>
<event>
 5   0  0.5300268E-06  0.2786884E+04  0.7818609E-02  0.8307352E-01
        2   -1    0    0  501    0  0.00000000000E+00  0.00000000000E+00  0.29407444366E+04  0.29407444366E+04  0.25500000920E-02 0. -1.
       -2   -1    0    0    0  501  0.00000000000E+00  0.00000000000E+00 -0.66026862860E+03  0.66026862861E+03  0.25500000920E-02 0.  1.
    10030    2    1    2    0    0  0.00000000000E+00  0.00000000000E+00  0.22804758080E+04  0.36010130652E+04  0.27868844944E+04 0.  0.
        4    1    3    3  502    0  0.10258089069E+04 -0.84302791075E+03  0.59401783406E+03  0.14545923044E+04  0.12699999809E+01 0.  1.
       -4    1    3    3    0  502 -0.10258089069E+04  0.84302791075E+03  0.16864579739E+04  0.21464207608E+04  0.12699999809E+01 0. -1.
</event>
<event>
 5   0  0.2097842E-06  0.3085421E+04  0.7818609E-02  0.8219750E-01
       -1   -1    0    0    0  501  0.00000000000E+00  0.00000000000E+00  0.93935636477E+03  0.93935636479E+03  0.50400001928E-02 0.  1.
        1   -1    0    0  501    0  0.00000000000E+00  0.00000000000E+00 -0.25336024514E+04  0.25336024514E+04  0.50400001928E-02 0. -1.
    10030    2    1    2    0    0  0.00000000000E+00  0.00000000000E+00 -0.15942460867E+04  0.34729588162E+04  0.30854209363E+04 0.  0.
        4    1    3    3  502    0  0.95977070810E+02  0.11851924813E+04  0.30921417321E+03  0.12286202968E+04  0.12699999809E+01 0.  1.
       -4    1    3    3    0  502 -0.95977070810E+02 -0.11851924813E+04 -0.19034602599E+04  0.22443385194E+04  0.12699999809E+01 0. -1.
</event>
<event>
 5   0  0.1999849E-06  0.2729708E+04  0.7818609E-02  0.8325430E-01
       -1   -1    0    0    0  501  0.00000000000E+00  0.00000000000E+00  0.12045875278E+04  0.12045875278E+04  0.50400001928E-02 0. -1.
        1   -1    0    0  501    0  0.00000000000E+00  0.00000000000E+00 -0.15464431517E+04  0.15464431517E+04  0.50400001928E-02 0.  1.
    10030    2    1    2    0    0  0.00000000000E+00  0.00000000000E+00 -0.34185562395E+03  0.27510306795E+04  0.27297077741E+04 0.  0.
        5    1    3    3  502    0 -0.10338800406E+04  0.84278738457E+03  0.12047703894E+03  0.13393040434E+04  0.46999998093E+01 0. -1.
       -5    1    3    3    0  502  0.10338800406E+04 -0.84278738457E+03 -0.46233266289E+03  0.14117266361E+04  0.46999998093E+01 0.  1.
</event>
<event>
 5   0  0.5622811E-06  0.3178719E+04  0.7818609E-02  0.8194460E-01
       -2   -1    0    0    0  501  0.00000000000E+00  0.00000000000E+00  0.16570868765E+04  0.16570868765E+04  0.25500000920E-02 0.  1.
        2   -1    0    0  501    0  0.00000000000E+00  0.00000000000E+00 -0.15244005517E+04  0.15244005517E+04  0.25500000920E-02 0. -1.
    10030    2    1    2    0    0  0.00000000000E+00  0.00000000000E+00  0.13268632480E+03  0.31814874282E+04  0.31787193325E+04 0.  0.
        1    1    3    3  502    0  0.12991497425E+02  0.86572748472E+03 -0.12676382886E+04  0.15351090149E+04  0.50400001928E-02 0. -1.
       -1    1    3    3    0  502 -0.12991497425E+02 -0.86572748472E+03  0.14003246134E+04  0.16463784133E+04  0.50400001928E-02 0.  1.
</event>
<event>
 5   0  0.2730981E-06  0.2321012E+04  0.7818609E-02  0.8469682E-01
        1   -1    0    0  501    0  0.00000000000E+00  0.00000000000E+00  0.10166981790E+04  0.10166981790E+04  0.50400001928E-02 0. -1.
       -1   -1    0    0    0  501  0.00000000000E+00  0.00000000000E+00 -0.13246549578E+04  0.13246549578E+04  0.50400001928E-02 0.  1.
    10030    2    1    2    0    0  0.00000000000E+00  0.00000000000E+00 -0.30795677887E+03  0.23413531368E+04  0.23210120925E+04 0.  0.
        3    1    3    3  502    0 -0.39568556408E+03  0.71560443644E+03  0.67671737082E+03  0.10614156515E+04  0.10100000352E+00 0. -1.
       -3    1    3    3    0  502  0.39568556408E+03 -0.71560443644E+03 -0.98467414969E+03  0.12799374853E+04  0.10100000352E+00 0.  1.
</event>
<event>
 5   0  0.5637538E-06  0.3663929E+04  0.7818609E-02  0.8076003E-01
        2   -1    0    0  501    0  0.00000000000E+00  0.00000000000E+00  0.10300975880E+04  0.10300975880E+04  0.25500000920E-02 0. -1.
       -2   -1    0    0    0  501  0.00000000000E+00  0.00000000000E+00 -0.32580344632E+04  0.32580344632E+04  0.25500000920E-02 0.  1.
    10030    2    1    2    0    0  0.00000000000E+00  0.00000000000E+00 -0.22279368752E+04  0.42881320512E+04  0.36639287341E+04 0.  0.
        2    1    3    3  502    0 -0.71044625525E+03  0.68621612563E+03  0.69175907334E+03  0.12058843511E+04  0.25500000920E-02 0. -1.
       -2    1    3    3    0  502  0.71044625525E+03 -0.68621612563E+03 -0.29196959486E+04  0.30822477001E+04  0.25500000920E-02 0.  1.
</event>
<event>
 5   0  0.5637538E-06  0.3292142E+04  0.7818609E-02  0.8164898E-01
       -2   -1    0    0    0  501  0.00000000000E+00  0.00000000000E+00  0.26473076311E+04  0.26473076311E+04  0.25500000920E-02 0. -1.
        2   -1    0    0  501    0  0.00000000000E+00  0.00000000000E+00 -0.10235114546E+04  0.10235114546E+04  0.25500000920E-02 0.  1.
    10030    2    1    2    0    0  0.00000000000E+00  0.00000000000E+00  0.16237961765E+04  0.36708190856E+04  0.32921419679E+04 0.  0.
        2    1    3    3  502    0 -0.51579457762E+03 -0.13326796992E+04  0.17228604845E+04  0.22383760801E+04  0.25500000920E-02 0. -1.
       -2    1    3    3    0  502  0.51579457762E+03  0.13326796992E+04 -0.99064308032E+02  0.14324430055E+04  0.25500000920E-02 0.  1.
</event>
<event>
 5   0  0.5300268E-06  0.3329213E+04  0.7818609E-02  0.8155502E-01
       -2   -1    0    0    0  501  0.00000000000E+00  0.00000000000E+00  0.11763080509E+04  0.11763080509E+04  0.25500000920E-02 0. -1.
        2   -1    0    0  501    0  0.00000000000E+00  0.00000000000E+00 -0.23556031040E+04  0.23556031040E+04  0.25500000920E-02 0.  1.
    10030    2    1    2    0    0  0.00000000000E+00  0.00000000000E+00 -0.11792950531E+04  0.35319111549E+04  0.33292130577E+04 0.  0.
        4    1    3    3  502    0 -0.69443746469E+03  0.14055619828E+04  0.39413024995E+01  0.15677579618E+04  0.12699999809E+01 0. -1.
       -4    1    3    3    0  502  0.69443746469E+03 -0.14055619828E+04 -0.11832363556E+04  0.19641531931E+04  0.12699999809E+01 0.  1.
</event>
<event>
 5   0  0.5855568E-06  0.3080646E+04  0.7818609E-02  0.8221070E-01
        2   -1    0    0  501    0  0.00000000000E+00  0.00000000000E+00  0.21159527079E+04  0.21159527079E+04  0.25500000920E-02 0.  1.
       -2   -1    0    0    0  501  0.00000000000E+00  0.00000000000E+00 -0.11212893387E+04  0.11212893387E+04  0.25500000920E-02 0. -1.
    10030    2    1    2    0    0  0.00000000000E+00  0.00000000000E+00  0.99466336918E+03  0.32372420465E+04  0.30806461741E+04 0.  0.
        3    1    3    3  502    0  0.63683641083E+03  0.94171306940E+03 -0.59483183572E+03  0.12830467810E+04  0.10100000352E+00 0. -1.
       -3    1    3    3    0  502 -0.63683641083E+03 -0.94171306940E+03  0.15894952049E+04  0.19541952655E+04  0.10100000352E+00 0.  1.
</event>
<event>
 5   0  0.5622811E-06  0.2980621E+04  0.7818609E-02  0.8249286E-01
       -2   -1    0    0    0  501  0.00000000000E+00  0.00000000000E+00  0.12087738765E+04  0.12087738765E+04  0.25500000920E-02 0. -1.
        2   -1    0    0  501    0  0.00000000000E+00  0.00000000000E+00 -0.18374204875E+04  0.18374204875E+04  0.25500000920E-02 0.  1.
    10030    2    1    2    0    0  0.00000000000E+00  0.00000000000E+00 -0.62864661101E+03  0.30461943639E+04  0.29806213348E+04 0.  0.
        1    1    3    3  502    0  0.14703376422E+03  0.53123031372E+03  0.11007686536E+04  0.12310630377E+04  0.50400001928E-02 0. -1.
       -1    1    3    3    0  502 -0.14703376422E+03 -0.53123031372E+03 -0.17294152646E+04  0.18151313262E+04  0.50400001928E-02 0.  1.
</event>
<event>
 5   0  0.5755250E-06  0.2072362E+04  0.7818609E-02  0.8573517E-01
        2   -1    0    0  501    0  0.00000000000E+00  0.00000000000E+00  0.11542876243E+04  0.11542876243E+04  0.25500000920E-02 0.  1.
       -2   -1    0    0    0  501  0.00000000000E+00  0.00000000000E+00 -0.93015928876E+03  0.93015928876E+03  0.25500000920E-02 0. -1.
    10030    2    1    2    0    0  0.00000000000E+00  0.00000000000E+00  0.22412833551E+03  0.20844469130E+04  0.20723622807E+04 0.  0.
        5    1    3    3  502    0  0.65509612797E+03 -0.53909293088E+03 -0.48628048555E+03  0.97788696976E+03  0.46999998093E+01 0. -1.
       -5    1    3    3    0  502 -0.65509612797E+03  0.53909293088E+03  0.71040882106E+03  0.11065599433E+04  0.46999998093E+01 0.  1.
</event>
<event>
 5   0  0.2097842E-06  0.1891280E+04  0.7818609E-02  0.8659209E-01
        1   -1    0    0  501    0  0.00000000000E+00  0.00000000000E+00  0.11449356503E+04  0.11449356503E+04  0.50400001928E-02 0.  1.
       -1   -1    0    0    0  501  0.00000000000E+00  0.00000000000E+00 -0.78103496280E+03  0.78103496282E+03  0.50400001928E-02 0. -1.
    10030    2    1    2    0    0  0.00000000000E+00  0.00000000000E+00  0.36390068753E+03  0.19259706132E+04  0.18912797499E+04 0.  0.
        4    1    3    3  502    0  0.84340905728E+02  0.50439214097E+03 -0.62806950928E+03  0.80993687509E+03  0.12699999809E+01 0. -1.
       -4    1    3    3    0  502 -0.84340905728E+02 -0.50439214097E+03  0.99197019680E+03  0.11160337381E+04  0.12699999809E+01 0.  1.
</event>
<event>
 5   0  0.1999849E-06  0.3157952E+04  0.7818609E-02  0.8200011E-01
        1   -1    0    0  501    0  0.00000000000E+00  0.00000000000E+00  0.20756593238E+04  0.20756593238E+04  0.50400001928E-02 0. -1.
       -1   -1    0    0    0  501  0.00000000000E+00  0.00000000000E+00 -0.12011437827E+04  0.12011437827E+04  0.50400001928E-02 0.  1.
    10030    2    1    2    0    0  0.00000000000E+00  0.00000000000E+00  0.87451554115E+03  0.32768031065E+04  0.31579520527E+04 0.  0.
        5    1    3    3  502    0  0.58547546218E+03 -0.11771951358E+04 -0.47004947268E+03  0.13962587516E+04  0.46999998093E+01 0.  1.
       -5    1    3    3    0  502 -0.58547546218E+03  0.11771951358E+04  0.13445650138E+04  0.18805443550E+04  0.46999998093E+01 0. -1.
</event>
<event>
 5   0  0.5300268E-06  0.2247065E+04  0.7818609E-02  0.8499090E-01
        2   -1    0    0  501    0  0.00000000000E+00  0.00000000000E+00  0.88849147730E+03  0.88849147731E+03  0.25500000920E-02 0. -1.
       -2   -1    0    0    0  501  0.00000000000E+00  0.00000000000E+00 -0.14207507817E+04  0.14207507817E+04  0.25500000920E-02 0.  1.
    10030    2    1    2    0    0  0.00000000000E+00  0.00000000000E+00 -0.53225930435E+03  0.23092422590E+04  0.22470647173E+04 0.  0.
        4    1    3    3  502    0 -0.61564509232E+03 -0.56176001843E+02  0.69799224780E+03  0.93239981433E+03  0.12699999809E+01 0. -1.
       -4    1    3    3    0  502  0.61564509232E+03  0.56176001843E+02 -0.12302515522E+04  0.13768424446E+04  0.12699999809E+01 0.  1.
</event>
<event>
 5   0  0.5637538E-06  0.3274776E+04  0.7818609E-02  0.8169343E-01
       -2   -1    0    0    0  501  0.00000000000E+00  0.00000000000E+00  0.30716911058E+04  0.30716911058E+04  0.25500000920E-02 0.  1.
        2   -1    0    0  501    0  0.00000000000E+00  0.00000000000E+00 -0.87282206606E+03  0.87282206606E+03  0.25500000920E-02 0. -1.
    10030    2    1    2    0    0  0.00000000000E+00  0.00000000000E+00  0.21988690398E+04  0.39445131719E+04  0.32747761922E+04 0.  0.
        2    1    3    3  502    0 -0.98830392604E+03  0.38185220291E+03 -0.40427158646E+03  0.11340155514E+04  0.25500000920E-02 0. -1.
       -2    1    3    3    0  502  0.98830392604E+03 -0.38185220291E+03  0.26031406262E+04  0.28104976205E+04  0.25500000920E-02 0.  1.
</event>
<event>
 5   0  0.1999849E-06  0.3280202E+04  0.7818609E-02  0.8167951E-01
       -1   -1    0    0    0  501  0.00000000000E+00  0.00000000000E+00  0.25534306021E+04  0.25534306021E+04  0.50400001928E-02 0. -1.
        1   -1    0    0  501    0  0.00000000000E+00  0.00000000000E+00 -0.10534574466E+04  0.10534574466E+04  0.50400001928E-02 0.  1.
    10030    2    1    2    0    0  0.00000000000E+00  0.00000000000E+00  0.14999731554E+04  0.36068880487E+04  0.32802015073E+04 0.  0.
        5    1    3    3  502    0  0.96588413032E+03  0.13242143469E+04  0.81441001456E+03  0.18302353815E+04  0.46999998093E+01 0. -1.
       -5    1    3    3    0  502 -0.96588413032E+03 -0.13242143469E+04  0.68556314088E+03  0.17766526672E+04  0.46999998093E+01 0.  1.
</event>
<event>
 5   0  0.2037109E-06  0.3186655E+04  0.7818609E-02  0.8192350E-01
       -1   -1    0    0    0  501  0.00000000000E+00  0.00000000000E+00  0.12659848266E+04  0.12659848266E+04  0.50400001928E-02 0. -1.
        1   -1    0    0  501    0  0.00000000000E+00  0.00000000000E+00 -0.20053107535E+04  0.20053107535E+04  0.50400001928E-02 0.  1.
    10030    2    1    2    0    0  0.00000000000E+00  0.00000000000E+00 -0.73932592683E+03  0.32712955801E+04  0.31866552914E+04 0.  0.
        2    1    3    3  502    0 -0.40636115684E+03  0.10777682236E+04 -0.14998030826E+04  0.18910639916E+04  0.25500000920E-02 0.  1.
       -2    1    3    3    0  502  0.40636115684E+03 -0.10777682236E+04  0.76047715576E+03  0.13802315886E+04  0.25500000920E-02 0. -1.
</event>
<event>
 5   0  0.5755250E-06  0.3400518E+04  0.7818609E-02  0.8137779E-01
       -2   -1    0    0    0  501  0.00000000000E+00  0.00000000000E+00  0.21907877246E+04  0.21907877246E+04  0.25500000920E-02 0. -1.
        2   -1    0    0  501    0  0.00000000000E+00  0.00000000000E+00 -0.13195619090E+04  0.13195619090E+04  0.25500000920E-02 0.  1.
    10030    2    1    2    0    0  0.00000000000E+00  0.00000000000E+00  0.87122581562E+03  0.35103496336E+04  0.34005176265E+04 0.  0.
        5    1    3    3  502    0  0.73421164049E+03  0.10552374155E+04 -0.71310179360E+03  0.14700778871E+04  0.46999998093E+01 0.  1.
       -5    1    3    3    0  502 -0.73421164049E+03 -0.10552374155E+04  0.15843276092E+04  0.20402717465E+04  0.46999998093E+01 0. -1.
</event>
<event>
 5   0  0.2037109E-06  0.3288616E+04  0.7818609E-02  0.8165798E-01
        1   -1    0    0  501    0  0.00000000000E+00  0.00000000000E+00  0.15691477343E+04  0.15691477343E+04  0.50400001928E-02 0.  1.
       -1   -1    0    0    0  501  0.00000000000E+00  0.00000000000E+00 -0.17230684745E+04  0.17230684745E+04  0.50400001928E-02 0. -1.
    10030    2    1    2    0    0  0.00000000000E+00  0.00000000000E+00 -0.15392074024E+03  0.32922162088E+04  0.32886161179E+04 0.  0.
        2    1    3    3  502    0  0.29571618162E+03  0.15991231790E+03  0.15343758138E+04  0.15707734233E+04  0.25500000920E-02 0.  1.
       -2    1    3    3    0  502 -0.29571618162E+03 -0.15991231790E+03 -0.16882965540E+04  0.17214427855E+04  0.25500000920E-02 0. -1.
</event>
<event>
 5   0  0.2730981E-06  0.2482100E+04  0.7818609E-02  0.8409390E-01
        1   -1    0    0  501    0  0.00000000000E+00  0.00000000000E+00  0.19451912149E+04  0.19451912149E+04  0.50400001928E-02 0.  1.
       -1   -1    0    0    0  501  0.00000000000E+00  0.00000000000E+00 -0.79180160493E+03  0.79180160495E+03  0.50400001928E-02 0. -1.
    10030    2    1    2    0    0  0.00000000000E+00  0.00000000000E+00  0.11533896100E+04  0.27369928199E+04  0.24821003412E+04 0.  0.
        3    1    3    3  502    0 -0.22695563038E+03  0.94046418447E+03  0.14338376987E+04  0.17297029504E+04  0.10100000352E+00 0.  1.
       -3    1    3    3    0  502  0.22695563038E+03 -0.94046418447E+03 -0.28044808868E+03  0.10072898694E+04  0.10100000352E+00 0. -1.
</event>
<event>
 5   0  0.1925906E-06  0.2416630E+04  0.7818609E-02  0.8433304E-01
       -1   -1    0    0    0  501  0.00000000000E+00  0.00000000000E+00  0.90500431975E+03  0.90500431976E+03  0.50400001928E-02 0.  1.
        1   -1    0    0  501    0  0.00000000000E+00  0.00000000000E+00 -0.16132795100E+04  0.16132795100E+04  0.50400001928E-02 0. -1.
    10030    2    1    2    0    0  0.00000000000E+00  0.00000000000E+00 -0.70827519027E+03  0.25182838298E+04  0.24166298232E+04 0.  0.
        1    1    3    3  502    0  0.10606585421E+04 -0.50776223066E+03 -0.64368507562E+03  0.13405780479E+04  0.50400001928E-02 0. -1.
       -1    1    3    3    0  502 -0.10606585421E+04  0.50776223066E+03 -0.64590114646E+02  0.11777057819E+04  0.50400001928E-02 0.  1.
</event>
<event>
 5   0  0.5622811E-06  0.2049269E+04  0.7818609E-02  0.8583926E-01
        2   -1    0    0  501    0  0.00000000000E+00  0.00000000000E+00  0.11605414892E+04  0.11605414892E+04  0.25500000920E-02 0.  1.
       -2   -1    0    0    0  501  0.00000000000E+00  0.00000000000E+00 -0.90464267069E+03  0.90464267069E+03  0.25500000920E-02 0. -1.
    10030    2    1    2    0    0  0.00000000000E+00  0.00000000000E+00  0.25589881854E+03  0.20651841599E+04  0.20492685059E+04 0.  0.
        1    1    3    3  502    0  0.54484473744E+02  0.59109203553E+03  0.96961063070E+03  0.11368830756E+04  0.50400001928E-02 0.  1.
       -1    1    3    3    0  502 -0.54484473744E+02 -0.59109203553E+03 -0.71371181217E+03  0.92830108434E+03  0.50400001928E-02 0. -1.
</event>
<event>
 5   0  0.5855568E-06  0.3473925E+04  0.7818609E-02  0.8119997E-01
       -2   -1    0    0    0  501  0.00000000000E+00  0.00000000000E+00  0.18827588225E+04  0.18827588225E+04  0.25500000920E-02 0.  1.
        2   -1    0    0  501    0  0.00000000000E+00  0.00000000000E+00 -0.16024565888E+04  0.16024565888E+04  0.25500000920E-02 0. -1.
    10030    2    1    2    0    0  0.00000000000E+00  0.00000000000E+00  0.28030223371E+03  0.34852154113E+04  0.34739253189E+04 0.  0.
        3    1    3    3  502    0  0.35046246480E+03  0.11712911259E+04 -0.10976708672E+04  0.16430545286E+04  0.10100000352E+00 0.  1.
       -3    1    3    3    0  502 -0.35046246480E+03 -0.11712911259E+04  0.13779731009E+04  0.18421608828E+04  0.10100000352E+00 0. -1.
</event>
<event>
 5   0  0.5755250E-06  0.2643980E+04  0.7818609E-02  0.8353414E-01
       -2   -1    0    0    0  501  0.00000000000E+00  0.00000000000E+00  0.97782009508E+03  0.97782009508E+03  0.25500000920E-02 0. -1.
        2   -1    0    0  501    0  0.00000000000E+00  0.00000000000E+00 -0.17873001574E+04  0.17873001574E+04  0.25500000920E-02 0.  1.
    10030    2    1    2    0    0  0.00000000000E+00  0.00000000000E+00 -0.80948006233E+03  0.27651202525E+04  0.26439803402E+04 0.  0.
        5    1    3    3  502    0  0.80088744796E+03 -0.63618188830E+03 -0.12806629079E+04  0.16389837318E+04  0.46999998093E+01 0.  1.
       -5    1    3    3    0  502 -0.80088744796E+03  0.63618188830E+03  0.47118284560E+03  0.11261365207E+04  0.46999998093E+01 0. -1.
</event>
<event>
 5   0  0.5300268E-06  0.2851707E+04  0.7818609E-02  0.8287393E-01
        2   -1    0    0  501    0  0.00000000000E+00  0.00000000000E+00  0.14626826878E+04  0.14626826878E+04  0.25500000920E-02 0.  1.
       -2   -1    0    0    0  501  0.00000000000E+00  0.00000000000E+00 -0.13899517790E+04  0.13899517790E+04  0.25500000920E-02 0. -1.
    10030    2    1    2    0    0  0.00000000000E+00  0.00000000000E+00  0.72730908781E+02  0.28526344668E+04  0.28517071407E+04 0.  0.
        4    1    3    3  502    0 -0.66378377791E+02  0.12144754093E+04 -0.70798684688E+03  0.14073391905E+04  0.12699999809E+01 0. -1.
       -4    1    3    3    0  502  0.66378377791E+02 -0.12144754093E+04  0.78071775566E+03  0.14452952763E+04  0.12699999809E+01 0.  1.
</event>
<event>
 5   0  0.5622811E-06  0.3270495E+04  0.7818609E-02  0.8170444E-01
        2   -1    0    0  501    0  0.00000000000E+00  0.00000000000E+00  0.21924166673E+04  0.21924166673E+04  0.25500000920E-02 0. -1.
       -2   -1    0    0    0  501  0.00000000000E+00  0.00000000000E+00 -0.12196740810E+04  0.12196740810E+04  0.25500000920E-02 0.  1.
    10030    2    1    2    0    0  0.00000000000E+00  0.00000000000E+00  0.97274258630E+03  0.34120907483E+04  0.32704946316E+04 0.  0.
        1    1    3    3  502    0 -0.95641192130E+03  0.12845023058E+04  0.14135149066E+03  0.16076847268E+04  0.50400001928E-02 0. -1.
       -1    1    3    3    0  502  0.95641192130E+03 -0.12845023058E+04  0.83139109564E+03  0.18044060216E+04  0.50400001928E-02 0.  1.
</event>
<event>
 5   0  0.2037109E-06  0.3101992E+04  0.7818609E-02  0.8215191E-01
        1   -1    0    0  501    0  0.00000000000E+00  0.00000000000E+00  0.18633292763E+04  0.18633292763E+04  0.50400001928E-02 0.  1.
       -1   -1    0    0    0  501  0.00000000000E+00  0.00000000000E+00 -0.12910163248E+04  0.12910163248E+04  0.50400001928E-02 0. -1.
    10030    2    1    2    0    0  0.00000000000E+00  0.00000000000E+00  0.57231295149E+03  0.31543456010E+04  0.31019919498E+04 0.  0.
        2    1    3    3  502    0  0.48084117712E+03 -0.82082492903E+03 -0.95951908644E+03  0.13511619736E+04  0.25500000920E-02 0.  1.
       -2    1    3    3    0  502 -0.48084117712E+03  0.82082492903E+03  0.15318320379E+04  0.18031836274E+04  0.25500000920E-02 0. -1.
</event>
<event>
 5   0  0.2730981E-06  0.1842713E+04  0.7818609E-02  0.8683909E-01
        1   -1    0    0  501    0  0.00000000000E+00  0.00000000000E+00  0.17097870196E+04  0.17097870196E+04  0.50400001928E-02 0.  1.
       -1   -1    0    0    0  501  0.00000000000E+00  0.00000000000E+00 -0.49649345987E+03  0.49649345990E+03  0.50400001928E-02 0. -1.
    10030    2    1    2    0    0  0.00000000000E+00  0.00000000000E+00  0.12132935597E+04  0.22062804795E+04  0.18427132962E+04 0.  0.
        3    1    3    3  502    0  0.12520052210E+03 -0.31198361026E+03 -0.42044474041E+03  0.53831471626E+03  0.10100000352E+00 0. -1.
       -3    1    3    3    0  502 -0.12520052210E+03  0.31198361026E+03  0.16337383001E+04  0.16679657632E+04  0.10100000352E+00 0.  1.
</event>
<event>
 5   0  0.5855568E-06  0.3289954E+04  0.7818609E-02  0.8165456E-01
       -2   -1    0    0    0  501  0.00000000000E+00  0.00000000000E+00  0.17292027873E+04  0.17292027873E+04  0.25500000920E-02 0. -1.
        2   -1    0    0  501    0  0.00000000000E+00  0.00000000000E+00 -0.15648535257E+04  0.15648535257E+04  0.25500000920E-02 0.  1.
    10030    2    1    2    0    0  0.00000000000E+00  0.00000000000E+00  0.16434926160E+03  0.32940563129E+04  0.32899538466E+04 0.  0.
        3    1    3    3  502    0  0.12535929040E+04  0.57040453818E+03  0.98279199933E+03  0.16919623608E+04  0.10100000352E+00 0. -1.
       -3    1    3    3    0  502 -0.12535929040E+04 -0.57040453818E+03 -0.81844273773E+03  0.16020939521E+04  0.10100000352E+00 0.  1.
</event>
<event>
 5   0  0.5855568E-06  0.2293941E+04  0.7818609E-02  0.8480314E-01
        2   -1    0    0  501    0  0.00000000000E+00  0.00000000000E+00  0.22002024561E+04  0.22002024561E+04  0.25500000920E-02 0.  1.
       -2   -1    0    0    0  501  0.00000000000E+00  0.00000000000E+00 -0.59791807286E+03  0.59791807287E+03  0.25500000920E-02 0. -1.
    10030    2    1    2    0    0  0.00000000000E+00  0.00000000000E+00  0.16022843832E+04  0.27981205290E+04  0.22939405506E+04 0.  0.
        3    1    3    3  502    0  0.10611375132E+04  0.69926886996E+01  0.13321059709E+04  0.17031054129E+04  0.10100000352E+00 0.  1.
       -3    1    3    3    0  502 -0.10611375132E+04 -0.69926886996E+01  0.27017841236E+03  0.10950151161E+04  0.10100000352E+00 0. -1.
</event>
<event>
 5   0  0.2037109E-06  0.3236653E+04  0.7818609E-02  0.8179204E-01
        1   -1    0    0  501    0  0.00000000000E+00  0.00000000000E+00  0.17014866953E+04  0.17014866953E+04  0.50400001928E-02 0.  1.
       -1   -1    0    0    0  501  0.00000000000E+00  0.00000000000E+00 -0.15392312014E+04  0.15392312014E+04  0.50400001928E-02 0. -1.
    10030    2    1    2    0    0  0.00000000000E+00  0.00000000000E+00  0.16225549382E+03  0.32407178967E+04  0.32366534632E+04 0.  0.
        2    1    3    3  502    0 -0.21932138750E+03 -0.10186209476E+03  0.16832945312E+04  0.17005758543E+04  0.25500000920E-02 0.  1.
       -2    1    3    3    0  502  0.21932138750E+03  0.10186209476E+03 -0.15210390374E+04  0.15401420424E+04  0.25500000920E-02 0. -1.
</event>
<event>
 5   0  0.1925906E-06  0.2375627E+04  0.7818609E-02  0.8448685E-01
       -1   -1    0    0    0  501  0.00000000000E+00  0.00000000000E+00  0.89241559384E+03  0.89241559385E+03  0.50400001928E-02 0. -1.
        1   -1    0    0  501    0  0.00000000000E+00  0.00000000000E+00 -0.15809904284E+04  0.15809904284E+04  0.50400001928E-02 0.  1.
    10030    2    1    2    0    0  0.00000000000E+00  0.00000000000E+00 -0.68857483458E+03  0.24734060223E+04  0.23756266643E+04 0.  0.
        1    1    3    3  502    0 -0.38071351807E+03 -0.54649334521E+03 -0.13682838284E+04  0.15217747515E+04  0.50400001928E-02 0.  1.
       -1    1    3    3    0  502  0.38071351807E+03  0.54649334521E+03  0.67970899383E+03  0.95163127078E+03  0.50400001928E-02 0. -1.
</event>
<event>
 5   0  0.5755250E-06  0.3323170E+04  0.7818609E-02  0.8157025E-01
       -2   -1    0    0    0  501  0.00000000000E+00  0.00000000000E+00  0.13879309624E+04  0.13879309624E+04  0.25500000920E-02 0.  1.
        2   -1    0    0  501    0  0.00000000000E+00  0.00000000000E+00 -0.19891948827E+04  0.19891948827E+04  0.25500000920E-02 0. -1.
    10030    2    1    2    0    0  0.00000000000E+00  0.00000000000E+00 -0.60126392032E+03  0.33771258452E+04  0.33231702743E+04 0.  0.
        5    1    3    3  502    0 -0.50744390515E+02 -0.12301894275E+04 -0.14344992906E+04  0.18904368081E+04  0.46999998093E+01 0. -1.
       -5    1    3    3    0  502  0.50744390515E+02  0.12301894275E+04  0.83323537028E+03  0.14866890371E+04  0.46999998093E+01 0.  1.
</event>
<event>
 5   0  0.2097842E-06  0.1668906E+04  0.7818609E-02  0.8779300E-01
       -1   -1    0    0    0  501  0.00000000000E+00  0.00000000000E+00  0.12973876478E+04  0.12973876478E+04  0.50400001928E-02 0.  1.
        1   -1    0    0  501    0  0.00000000000E+00  0.00000000000E+00 -0.53670292613E+03  0.53670292616E+03  0.50400001928E-02 0. -1.
    10030    2    1    2    0    0  0.00000000000E+00  0.00000000000E+00  0.76068472164E+03  0.18340905739E+04  0.16689059254E+04 0.  0.
        4    1    3    3  502    0 -0.76440404802E+03 -0.37953776365E+01  0.74810142206E+03  0.10695724866E+04  0.12699999809E+01 0.  1.
       -4    1    3    3    0  502  0.76440404802E+03  0.37953776365E+01  0.12583299579E+02  0.76451808733E+03  0.12699999809E+01 0. -1.
</event>
<event>
 5   0  0.1925906E-06  0.3374958E+04  0.7818609E-02  0.8144080E-01
        1   -1    0    0  501    0  0.00000000000E+00  0.00000000000E+00  0.12702588480E+04  0.12702588480E+04  0.50400001928E-02 0.  1.
       -1   -1    0    0    0  501  0.00000000000E+00  0.00000000000E+00 -0.22417361159E+04  0.22417361159E+04  0.50400001928E-02 0. -1.
    10030    2    1    2    0    0  0.00000000000E+00  0.00000000000E+00 -0.97147726792E+03  0.35119949639E+04  0.33749578582E+04 0.  0.
        1    1    3    3  502    0 -0.11333188304E+04 -0.11958954093E+04 -0.86524929349E+03  0.18609765558E+04  0.50400001928E-02 0.  1.
       -1    1    3    3    0  502  0.11333188304E+04  0.11958954093E+04 -0.10622797444E+03  0.16510184081E+04  0.50400001928E-02 0. -1.
</event>
<event>
 5   0  0.6529887E-06  0.1672412E+04  0.7818609E-02  0.8777257E-01
       -2   -1    0    0    0  501  0.00000000000E+00  0.00000000000E+00  0.34124598233E+03  0.34124598234E+03  0.25500000920E-02 0.  1.
        2   -1    0    0  501    0  0.00000000000E+00  0.00000000000E+00 -0.20490798197E+04  0.20490798197E+04  0.25500000920E-02 0. -1.
    10030    2    1    2    0    0  0.00000000000E+00  0.00000000000E+00 -0.17078338374E+04  0.23903258020E+04  0.16724117387E+04 0.  0.
        4    1    3    3  502    0 -0.42948853830E+03  0.59122057790E+03 -0.27292934696E+03  0.78006039356E+03  0.12699999809E+01 0. -1.
       -4    1    3    3    0  502  0.42948853830E+03 -0.59122057790E+03 -0.14349044904E+04  0.16102654085E+04  0.12699999809E+01 0.  1.
</event>
<event>
 5   0  0.1925906E-06  0.3242349E+04  0.7818609E-02  0.8177722E-01
        1   -1    0    0  501    0  0.00000000000E+00  0.00000000000E+00  0.25627866805E+04  0.25627866805E+04  0.50400001928E-02 0. -1.
       -1   -1    0    0    0  501  0.00000000000E+00  0.00000000000E+00 -0.10255268870E+04  0.10255268870E+04  0.50400001928E-02 0.  1.
    10030    2    1    2    0    0  0.00000000000E+00  0.00000000000E+00  0.15372597935E+04  0.35883135675E+04  0.32423489303E+04 0.  0.
        1    1    3    3  502    0 -0.90927700583E+03  0.13407911003E+04  0.83595884436E+03  0.18230009976E+04  0.50400001928E-02 0.  1.
       -1    1    3    3    0  502  0.90927700583E+03 -0.13407911003E+04  0.70130094915E+03  0.17653125698E+04  0.50400001928E-02 0. -1.
</event>
<event>
 5   0  0.1925906E-06  0.1861648E+04  0.7818609E-02  0.8674185E-01
        1   -1    0    0  501    0  0.00000000000E+00  0.00000000000E+00  0.18365771172E+04  0.18365771172E+04  0.50400001928E-02 0.  1.
       -1   -1    0    0    0  501  0.00000000000E+00  0.00000000000E+00 -0.47176546952E+03  0.47176546954E+03  0.50400001928E-02 0. -1.
    10030    2    1    2    0    0  0.00000000000E+00  0.00000000000E+00  0.13648116476E+04  0.23083425867E+04  0.18616483728E+04 0.  0.
        1    1    3    3  502    0 -0.11942394968E+02  0.46703119844E+03  0.16806758819E+04  0.17444002354E+04  0.50400001928E-02 0.  1.
       -1    1    3    3    0  502  0.11942394968E+02 -0.46703119844E+03 -0.31586423427E+03  0.56394235134E+03  0.50400001928E-02 0. -1.
</event>
<event>
 5   0  0.1925906E-06  0.3291201E+04  0.7818609E-02  0.8165138E-01
        1   -1    0    0  501    0  0.00000000000E+00  0.00000000000E+00  0.19409841745E+04  0.19409841745E+04  0.50400001928E-02 0. -1.
       -1   -1    0    0    0  501  0.00000000000E+00  0.00000000000E+00 -0.13951693771E+04  0.13951693772E+04  0.50400001928E-02 0.  1.
    10030    2    1    2    0    0  0.00000000000E+00  0.00000000000E+00  0.54581479738E+03  0.33361535517E+04  0.32912014109E+04 0.  0.
        1    1    3    3  502    0 -0.39530325994E+03  0.14644694676E+04 -0.37382421206E+03  0.15622675924E+04  0.50400001928E-02 0. -1.
       -1    1    3    3    0  502  0.39530325994E+03 -0.14644694676E+04  0.91963900944E+03  0.17738859593E+04  0.50400001928E-02 0.  1.
</event>
<event>
 5   0  0.1999849E-06  0.3241532E+04  0.7818609E-02  0.8177934E-01
        1   -1    0    0  501    0  0.00000000000E+00  0.00000000000E+00  0.16268046696E+04  0.16268046696E+04  0.50400001928E-02 0.  1.
       -1   -1    0    0    0  501  0.00000000000E+00  0.00000000000E+00 -0.16147494369E+04  0.16147494369E+04  0.50400001928E-02 0. -1.
    10030    2    1    2    0    0  0.00000000000E+00  0.00000000000E+00  0.12055232710E+02  0.32415541064E+04  0.32415316899E+04 0.  0.
        5    1    3    3  502    0 -0.79602948052E+03  0.13999168688E+04 -0.17681144653E+03  0.16200970808E+04  0.46999998093E+01 0. -1.
       -5    1    3    3    0  502  0.79602948052E+03 -0.13999168688E+04  0.18886667924E+03  0.16214570257E+04  0.46999998093E+01 0.  1.
</event>
<event>
 5   0  0.1999849E-06  0.1686029E+04  0.7818609E-02  0.8769373E-01
        1   -1    0    0  501    0  0.00000000000E+00  0.00000000000E+00  0.14033566377E+04  0.14033566377E+04  0.50400001928E-02 0. -1.
       -1   -1    0    0    0  501  0.00000000000E+00  0.00000000000E+00 -0.50640988134E+03  0.50640988137E+03  0.50400001928E-02 0.  1.
    10030    2    1    2    0    0  0.00000000000E+00  0.00000000000E+00  0.89694675632E+03  0.19097665190E+04  0.16860292624E+04 0.  0.
        5    1    3    3  502    0  0.22021892032E+03 -0.51058151501E+03  0.11661639466E+04  0.12919559964E+04  0.46999998093E+01 0. -1.
       -5    1    3    3    0  502 -0.22021892032E+03  0.51058151501E+03 -0.26921719027E+03  0.61781052263E+03  0.46999998093E+01 0.  1.
</event>
<event>
 5   0  0.2037109E-06  0.3312177E+04  0.7818609E-02  0.8159804E-01
       -1   -1    0    0    0  501  0.00000000000E+00  0.00000000000E+00  0.14648830494E+04  0.14648830494E+04  0.50400001928E-02 0.  1.
        1   -1    0    0  501    0  0.00000000000E+00  0.00000000000E+00 -0.18722508508E+04  0.18722508508E+04  0.50400001928E-02 0. -1.
    10030    2    1    2    0    0  0.00000000000E+00  0.00000000000E+00 -0.40736780138E+03  0.33371339002E+04  0.33121766472E+04 0.  0.
        2    1    3    3  502    0  0.16182045880E+03  0.30541036351E+03 -0.18355071909E+04  0.18677655096E+04  0.25500000920E-02 0. -1.
       -2    1    3    3    0  502 -0.16182045880E+03 -0.30541036351E+03  0.14281393896E+04  0.14693683905E+04  0.25500000920E-02 0.  1.
</event>
<event>
 5   0  0.2037109E-06  0.3376149E+04  0.7818609E-02  0.8143785E-01
        1   -1    0    0  501    0  0.00000000000E+00  0.00000000000E+00  0.15285858644E+04  0.15285858644E+04  0.50400001928E-02 0.  1.
       -1   -1    0    0    0  501  0.00000000000E+00  0.00000000000E+00 -0.18642038882E+04  0.18642038882E+04  0.50400001928E-02 0. -1.
    10030    2    1    2    0    0  0.00000000000E+00  0.00000000000E+00 -0.33561802377E+03  0.33927897526E+04  0.33761491151E+04 0.  0.
        2    1    3    3  502    0  0.16241695107E+03 -0.13051308386E+03 -0.18512322018E+04  0.18629207165E+04  0.25500000920E-02 0. -1.
       -2    1    3    3    0  502 -0.16241695107E+03  0.13051308386E+03  0.15156141780E+04  0.15298690361E+04  0.25500000920E-02 0.  1.
</event>
<event>
 5   0  0.2037109E-06  0.2827941E+04  0.7818609E-02  0.8294646E-01
       -1   -1    0    0    0  501  0.00000000000E+00  0.00000000000E+00  0.13054966274E+04  0.13054966274E+04  0.50400001928E-02 0.  1.
        1   -1    0    0  501    0  0.00000000000E+00  0.00000000000E+00 -0.15314574502E+04  0.15314574502E+04  0.50400001928E-02 0. -1.
    10030    2    1    2    0    0  0.00000000000E+00  0.00000000000E+00 -0.22596082280E+03  0.28369540776E+04  0.28279409727E+04 0.  0.
        2    1    3    3  502    0 -0.12569015572E+04  0.52050419025E+02  0.53467908911E+03  0.13668915462E+04  0.25500000920E-02 0.  1.
       -2    1    3    3    0  502  0.12569015572E+04 -0.52050419025E+02 -0.76063991191E+03  0.14700625314E+04  0.25500000920E-02 0. -1.
</event>
<event>
 5   0  0.5755250E-06  0.2988451E+04  0.7818609E-02  0.8247036E-01
       -2   -1    0    0    0  501  0.00000000000E+00  0.00000000000E+00  0.13686306483E+04  0.13686306483E+04  0.25500000920E-02 0.  1.
        2   -1    0    0  501    0  0.00000000000E+00  0.00000000000E+00 -0.16313463135E+04  0.16313463135E+04  0.25500000920E-02 0. -1.
    10030    2    1    2    0    0  0.00000000000E+00  0.00000000000E+00 -0.26271566525E+03  0.29999769618E+04  0.29884514804E+04 0.  0.
        5    1    3    3  502    0  0.72265334013E+02 -0.33586332381E+03  0.13284382480E+04  0.13721503997E+04  0.46999998093E+01 0.  1.
       -5    1    3    3    0  502 -0.72265334013E+02  0.33586332381E+03 -0.15911539132E+04  0.16278265621E+04  0.46999998093E+01 0. -1.
</event>
<event>
 5   0  0.1925906E-06  0.3307024E+04  0.7818609E-02  0.8161111E-01
       -1   -1    0    0    0  501  0.00000000000E+00  0.00000000000E+00  0.10190759872E+04  0.10190759872E+04  0.50400001928E-02 0. -1.
        1   -1    0    0  501    0  0.00000000000E+00  0.00000000000E+00 -0.26829220582E+04  0.26829220582E+04  0.50400001928E-02 0.  1.
    10030    2    1    2    0    0  0.00000000000E+00  0.00000000000E+00 -0.16638460710E+04  0.37019980454E+04  0.33070237042E+04 0.  0.
        1    1    3    3  502    0 -0.68536568071E+03 -0.12757180017E+04  0.61466679627E+02  0.14494691059E+04  0.50400001928E-02 0. -1.
       -1    1    3    3    0  502  0.68536568071E+03  0.12757180017E+04 -0.17253127506E+04  0.22525289395E+04  0.50400001928E-02 0.  1.
</event>
<event>
 5   0  0.1878000E-06  0.2890932E+04  0.7818609E-02  0.8275581E-01
        3   -1    0    0  501    0  0.00000000000E+00  0.00000000000E+00  0.99194101121E+03  0.99194101635E+03  0.10100000352E+00 0. -1.
       -3   -1    0    0    0  501  0.00000000000E+00  0.00000000000E+00 -0.21063472139E+04  0.21063472163E+04  0.10100000352E+00 0.  1.
    10030    2    1    2    0    0  0.00000000000E+00  0.00000000000E+00 -0.11144062027E+04  0.30982882327E+04  0.28909321659E+04 0.  0.
        5    1    3    3  502    0 -0.56327400582E+03  0.56457295969E+03 -0.18492135228E+04  0.20138602174E+04  0.46999998093E+01 0.  1.
       -5    1    3    3    0  502  0.56327400582E+03 -0.56457295969E+03  0.73480732014E+03  0.10844280152E+04  0.46999998093E+01 0. -1.
</event>
<event>
 5   0  0.5855568E-06  0.3262163E+04  0.7818609E-02  0.8172590E-01
        2   -1    0    0  501    0  0.00000000000E+00  0.00000000000E+00  0.17405743237E+04  0.17405743237E+04  0.25500000920E-02 0.  1.
       -2   -1    0    0    0  501  0.00000000000E+00  0.00000000000E+00 -0.15284760579E+04  0.15284760579E+04  0.25500000920E-02 0. -1.
    10030    2    1    2    0    0  0.00000000000E+00  0.00000000000E+00  0.21209826576E+03  0.32690503815E+04  0.32621625837E+04 0.  0.
        3    1    3    3  502    0  0.14129285071E+04 -0.50492422247E+03 -0.53491901581E+03  0.15929387308E+04  0.10100000352E+00 0. -1.
       -3    1    3    3    0  502 -0.14129285071E+04  0.50492422247E+03  0.74701728157E+03  0.16761116507E+04  0.10100000352E+00 0.  1.
</event>
<event>
 5   0  0.2097842E-06  0.3286272E+04  0.7818609E-02  0.8166397E-01
        1   -1    0    0  501    0  0.00000000000E+00  0.00000000000E+00  0.10629120573E+04  0.10629120574E+04  0.50400001928E-02 0. -1.
       -1   -1    0    0    0  501  0.00000000000E+00  0.00000000000E+00 -0.25400939964E+04  0.25400939964E+04  0.50400001928E-02 0.  1.
    10030    2    1    2    0    0  0.00000000000E+00  0.00000000000E+00 -0.14771819391E+04  0.36030060538E+04  0.32862723780E+04 0.  0.
        4    1    3    3  502    0  0.12937002299E+04  0.52504071681E+03 -0.16884433920E+04  0.21909291956E+04  0.12699999809E+01 0.  1.
       -4    1    3    3    0  502 -0.12937002299E+04 -0.52504071681E+03  0.21126145291E+03  0.14120768582E+04  0.12699999809E+01 0. -1.
</event>
<event>
 5   0  0.5300268E-06  0.3213751E+04  0.7818609E-02  0.8185195E-01
        2   -1    0    0  501    0  0.00000000000E+00  0.00000000000E+00  0.12701898556E+04  0.12701898556E+04  0.25500000920E-02 0.  1.
       -2   -1    0    0    0  501  0.00000000000E+00  0.00000000000E+00 -0.20328056062E+04  0.20328056062E+04  0.25500000920E-02 0. -1.
    10030    2    1    2    0    0  0.00000000000E+00  0.00000000000E+00 -0.76261575058E+03  0.33029954619E+04  0.32137511164E+04 0.  0.
        4    1    3    3  502    0  0.14122567636E+04 -0.67686902569E+03 -0.75105730385E+03  0.17368677356E+04  0.12699999809E+01 0.  1.
       -4    1    3    3    0  502 -0.14122567636E+04  0.67686902569E+03 -0.11558446724E+02  0.15661277263E+04  0.12699999809E+01 0. -1.
</event>
<event>
 5   0  0.5622811E-06  0.2951318E+04  0.7818609E-02  0.8257771E-01
        2   -1    0    0  501    0  0.00000000000E+00  0.00000000000E+00  0.23984454761E+04  0.23984454761E+04  0.25500000920E-02 0.  1.
       -2   -1    0    0    0  501  0.00000000000E+00  0.00000000000E+00 -0.90790877895E+03  0.90790877896E+03  0.25500000920E-02 0. -1.
    10030    2    1    2    0    0  0.00000000000E+00  0.00000000000E+00  0.14905366971E+04  0.33063542550E+04  0.29513181486E+04 0.  0.
        1    1    3    3  502    0 -0.28230845890E+03  0.47468206387E+03 -0.78775899618E+03  0.96207347111E+03  0.50400001928E-02 0. -1.
       -1    1    3    3    0  502  0.28230845890E+03 -0.47468206387E+03  0.22782956933E+04  0.23442807839E+04  0.50400001928E-02 0.  1.
</event>
<event>
 5   0  0.4150810E-06  0.1703846E+04  0.7818609E-02  0.8759174E-01
        1   -1    0    0  501    0  0.00000000000E+00  0.00000000000E+00  0.92148890616E+03  0.92148890618E+03  0.50400001928E-02 0.  1.
       -1   -1    0    0    0  501  0.00000000000E+00  0.00000000000E+00 -0.78760852066E+03  0.78760852067E+03  0.50400001928E-02 0. -1.
    10030    2    1    2    0    0  0.00000000000E+00  0.00000000000E+00  0.13388038551E+03  0.17090974269E+04  0.17038456670E+04 0.  0.
        3    1    3    3  502    0  0.68512505754E+03  0.39235831653E+03 -0.25409489961E+03  0.82940076033E+03  0.10100000352E+00 0. -1.
       -3    1    3    3    0  502 -0.68512505754E+03 -0.39235831653E+03  0.38797528512E+03  0.87969666652E+03  0.10100000352E+00 0.  1.
</event>
<event>
 5   0  0.5855568E-06  0.1698945E+04  0.7818609E-02  0.8761966E-01
       -2   -1    0    0    0  501  0.00000000000E+00  0.00000000000E+00  0.28869539677E+03  0.28869539678E+03  0.25500000920E-02 0.  1.
        2   -1    0    0  501    0  0.00000000000E+00  0.00000000000E+00 -0.24995332818E+04  0.24995332818E+04  0.25500000920E-02 0. -1.
    10030    2    1    2    0    0  0.00000000000E+00  0.00000000000E+00 -0.22108378851E+04  0.27882286786E+04  0.16989452640E+04 0.  0.
        3    1    3    3  502    0 -0.57348593996E+03  0.29496350028E+03 -0.20128356572E+04  0.21136217692E+04  0.10100000352E+00 0. -1.
       -3    1    3    3    0  502  0.57348593996E+03 -0.29496350028E+03 -0.19800222781E+03  0.67460690943E+03  0.10100000352E+00 0.  1.
</event>
<event>
 5   0  0.2097842E-06  0.3083954E+04  0.7818609E-02  0.8220155E-01
       -1   -1    0    0    0  501  0.00000000000E+00  0.00000000000E+00  0.14361530206E+04  0.14361530206E+04  0.50400001928E-02 0.  1.
        1   -1    0    0  501    0  0.00000000000E+00  0.00000000000E+00 -0.16555986945E+04  0.16555986945E+04  0.50400001928E-02 0. -1.
    10030    2    1    2    0    0  0.00000000000E+00  0.00000000000E+00 -0.21944567395E+03  0.30917517151E+04  0.30839539983E+04 0.  0.
        4    1    3    3  502    0 -0.67475620729E+03  0.70471654238E+03 -0.13067981425E+04  0.16308416056E+04  0.12699999809E+01 0. -1.
       -4    1    3    3    0  502  0.67475620729E+03 -0.70471654238E+03  0.10873524685E+04  0.14609101095E+04  0.12699999809E+01 0.  1.
</event>
<event>
 5   0  0.5637538E-06  0.3346770E+04  0.7818609E-02  0.8151096E-01
        2   -1    0    0  501    0  0.00000000000E+00  0.00000000000E+00  0.16373430802E+04  0.16373430802E+04  0.25500000920E-02 0. -1.
       -2   -1    0    0    0  501  0.00000000000E+00  0.00000000000E+00 -0.17102207627E+04  0.17102207627E+04  0.25500000920E-02 0.  1.
    10030    2    1    2    0    0  0.00000000000E+00  0.00000000000E+00 -0.72877682540E+02  0.33475638429E+04  0.33467704620E+04 0.  0.
        2    1    3    3  502    0 -0.92644130551E+02  0.15523597509E+04 -0.65449664307E+03  0.16872372646E+04  0.25500000920E-02 0.  1.
       -2    1    3    3    0  502  0.92644130551E+02 -0.15523597509E+04  0.58161896053E+03  0.16603265783E+04  0.25500000920E-02 0. -1.
</event>
<event>
 5   0  0.2097842E-06  0.3318078E+04  0.7818609E-02  0.8158311E-01
        1   -1    0    0  501    0  0.00000000000E+00  0.00000000000E+00  0.15559647581E+04  0.15559647581E+04  0.50400001928E-02 0.  1.
       -1   -1    0    0    0  501  0.00000000000E+00  0.00000000000E+00 -0.17689416751E+04  0.17689416751E+04  0.50400001928E-02 0. -1.
    10030    2    1    2    0    0  0.00000000000E+00  0.00000000000E+00 -0.21297691700E+03  0.33249064332E+04  0.33180783027E+04 0.  0.
        4    1    3    3  502    0 -0.20152677546E+03  0.82565615420E+03  0.13212552250E+04  0.15709990798E+04  0.12699999809E+01 0.  1.
       -4    1    3    3    0  502  0.20152677546E+03 -0.82565615420E+03 -0.15342321420E+04  0.17539073535E+04  0.12699999809E+01 0. -1.
</event>
<event>
 5   0  0.2097842E-06  0.3269014E+04  0.7818609E-02  0.8170825E-01
       -1   -1    0    0    0  501  0.00000000000E+00  0.00000000000E+00  0.94545353643E+03  0.94545353644E+03  0.50400001928E-02 0.  1.
        1   -1    0    0  501    0  0.00000000000E+00  0.00000000000E+00 -0.28257468409E+04  0.28257468409E+04  0.50400001928E-02 0. -1.
    10030    2    1    2    0    0  0.00000000000E+00  0.00000000000E+00 -0.18802933045E+04  0.37712003773E+04  0.32690135171E+04 0.  0.
        4    1    3    3  502    0  0.92726811152E+02 -0.13162054864E+04  0.17273261957E+03  0.13307266115E+04  0.12699999809E+01 0.  1.
       -4    1    3    3    0  502 -0.92726811152E+02  0.13162054864E+04 -0.20530259240E+04  0.24404737658E+04  0.12699999809E+01 0. -1.
</event>
<event>
 5   0  0.2037109E-06  0.3230282E+04  0.7818609E-02  0.8180865E-01
        1   -1    0    0  501    0  0.00000000000E+00  0.00000000000E+00  0.31596684011E+04  0.31596684011E+04  0.50400001928E-02 0.  1.
       -1   -1    0    0    0  501  0.00000000000E+00  0.00000000000E+00 -0.82561847802E+03  0.82561847804E+03  0.50400001928E-02 0. -1.
    10030    2    1    2    0    0  0.00000000000E+00  0.00000000000E+00  0.23340499231E+04  0.39852868791E+04  0.32302821031E+04 0.  0.
        2    1    3    3  502    0 -0.12252940211E+04  0.13575776901E+03  0.24544268307E+04  0.27466318788E+04  0.25500000920E-02 0.  1.
       -2    1    3    3    0  502  0.12252940211E+04 -0.13575776901E+03 -0.12037690768E+03  0.12386550004E+04  0.25500000920E-02 0. -1.
</event>
<event>
 5   0  0.5637538E-06  0.3316420E+04  0.7818609E-02  0.8158730E-01
       -2   -1    0    0    0  501  0.00000000000E+00  0.00000000000E+00  0.22107525947E+04  0.22107525947E+04  0.25500000920E-02 0.  1.
        2   -1    0    0  501    0  0.00000000000E+00  0.00000000000E+00 -0.12437668098E+04  0.12437668098E+04  0.25500000920E-02 0. -1.
    10030    2    1    2    0    0  0.00000000000E+00  0.00000000000E+00  0.96698578482E+03  0.34545194045E+04  0.33164201797E+04 0.  0.
        2    1    3    3  502    0 -0.52800070353E+03  0.55274385573E+03  0.20162811283E+04  0.21563163268E+04  0.25500000920E-02 0.  1.
       -2    1    3    3    0  502  0.52800070353E+03 -0.55274385573E+03 -0.10492953435E+04  0.12982030777E+04  0.25500000920E-02 0. -1.
</event>
<event>
 5   0  0.5622811E-06  0.3189714E+04  0.7818609E-02  0.8191539E-01
       -2   -1    0    0    0  501  0.00000000000E+00  0.00000000000E+00  0.10377812087E+04  0.10377812087E+04  0.25500000920E-02 0. -1.
        2   -1    0    0  501    0  0.00000000000E+00  0.00000000000E+00 -0.24509677295E+04  0.24509677295E+04  0.25500000920E-02 0.  1.
    10030    2    1    2    0    0  0.00000000000E+00  0.00000000000E+00 -0.14131865208E+04  0.34887489382E+04  0.31897136253E+04 0.  0.
        1    1    3    3  502    0  0.92718748468E+03 -0.68762424564E+03 -0.19102472616E+04  0.22319382464E+04  0.50400001928E-02 0.  1.
       -1    1    3    3    0  502 -0.92718748468E+03  0.68762424564E+03  0.49706074087E+03  0.12568106918E+04  0.50400001928E-02 0. -1.
</event>
<event>
 5   0  0.5755250E-06  0.3264508E+04  0.7818609E-02  0.8171986E-01
       -2   -1    0    0    0  501  0.00000000000E+00  0.00000000000E+00  0.14534954634E+04  0.14534954634E+04  0.25500000920E-02 0. -1.
        2   -1    0    0  501    0  0.00000000000E+00  0.00000000000E+00 -0.18329971097E+04  0.18329971097E+04  0.25500000920E-02 0.  1.
    10030    2    1    2    0    0  0.00000000000E+00  0.00000000000E+00 -0.37950164628E+03  0.32864925731E+04  0.32645079160E+04 0.  0.
        5    1    3    3  502    0  0.32460580292E+03 -0.14454133873E+04  0.50016871257E+03  0.15635791053E+04  0.46999998093E+01 0. -1.
       -5    1    3    3    0  502 -0.32460580292E+03  0.14454133873E+04 -0.87967035885E+03  0.17229134678E+04  0.46999998093E+01 0.  1.
</event>
<event>
 5   0  0.5622811E-06  0.3323721E+04  0.7818609E-02  0.8156886E-01
        2   -1    0    0  501    0  0.00000000000E+00  0.00000000000E+00  0.20951756871E+04  0.20951756871E+04  0.25500000920E-02 0.  1.
       -2   -1    0    0    0  501  0.00000000000E+00  0.00000000000E+00 -0.13181616846E+04  0.13181616846E+04  0.25500000920E-02 0. -1.
    10030    2    1    2    0    0  0.00000000000E+00  0.00000000000E+00  0.77701400253E+03  0.34133373717E+04  0.33237209951E+04 0.  0.
        1    1    3    3  502    0  0.62871403551E+03 -0.13842529970E+04 -0.30066270354E+03  0.15497857140E+04  0.50400001928E-02 0. -1.
       -1    1    3    3    0  502 -0.62871403551E+03  0.13842529970E+04  0.10776767061E+04  0.18635516577E+04  0.50400001928E-02 0.  1.
</event>
<event>
 5   0  0.1925906E-06  0.3120834E+04  0.7818609E-02  0.8210043E-01
        1   -1    0    0  501    0  0.00000000000E+00  0.00000000000E+00  0.25236366886E+04  0.25236366886E+04  0.50400001928E-02 0.  1.
       -1   -1    0    0    0  501  0.00000000000E+00  0.00000000000E+00 -0.96483798494E+03  0.96483798495E+03  0.50400001928E-02 0. -1.
    10030    2    1    2    0    0  0.00000000000E+00  0.00000000000E+00  0.15587987036E+04  0.34884746735E+04  0.31208335664E+04 0.  0.
        1    1    3    3  502    0  0.81253848604E+03 -0.53791934774E+03  0.21417084007E+04  0.23529749021E+04  0.50400001928E-02 0.  1.
       -1    1    3    3    0  502 -0.81253848604E+03  0.53791934774E+03 -0.58290969710E+03  0.11354997715E+04  0.50400001928E-02 0. -1.
</event>
<event>
 5   0  0.5755250E-06  0.1874973E+04  0.7818609E-02  0.8667415E-01
       -2   -1    0    0    0  501  0.00000000000E+00  0.00000000000E+00  0.69271147772E+03  0.69271147772E+03  0.25500000920E-02 0.  1.
        2   -1    0    0  501    0  0.00000000000E+00  0.00000000000E+00 -0.12687546228E+04  0.12687546228E+04  0.25500000920E-02 0. -1.
    10030    2    1    2    0    0  0.00000000000E+00  0.00000000000E+00 -0.57604314504E+03  0.19614661005E+04  0.18749729487E+04 0.  0.
        5    1    3    3  502    0  0.23663007171E+03  0.22106361969E+03  0.63233289811E+03  0.71044345223E+03  0.46999998093E+01 0.  1.
       -5    1    3    3    0  502 -0.23663007171E+03 -0.22106361969E+03 -0.12083760432E+04  0.12510226483E+04  0.46999998093E+01 0. -1.
</event>
<event>
 5   0  0.5300268E-06  0.3090146E+04  0.7818609E-02  0.8218448E-01
        2   -1    0    0  501    0  0.00000000000E+00  0.00000000000E+00  0.19767072009E+04  0.19767072009E+04  0.25500000920E-02 0. -1.
       -2   -1    0    0    0  501  0.00000000000E+00  0.00000000000E+00 -0.12076902877E+04  0.12076902877E+04  0.25500000920E-02 0.  1.
    10030    2    1    2    0    0  0.00000000000E+00  0.00000000000E+00  0.76901691317E+03  0.31843974886E+04  0.30901456847E+04 0.  0.
        4    1    3    3  502    0 -0.14594012072E+04 -0.32892982590E+03  0.78255631644E+03  0.16883254174E+04  0.12699999809E+01 0. -1.
       -4    1    3    3    0  502  0.14594012072E+04  0.32892982590E+03 -0.13539403277E+02  0.14960720712E+04  0.12699999809E+01 0.  1.
</event>
<event>
 5   0  0.5300268E-06  0.3305892E+04  0.7818609E-02  0.8161398E-01
        2   -1    0    0  501    0  0.00000000000E+00  0.00000000000E+00  0.20456463604E+04  0.20456463604E+04  0.25500000920E-02 0. -1.
       -2   -1    0    0    0  501  0.00000000000E+00  0.00000000000E+00 -0.13356315481E+04  0.13356315481E+04  0.25500000920E-02 0.  1.
    10030    2    1    2    0    0  0.00000000000E+00  0.00000000000E+00  0.71001481231E+03  0.33812779085E+04  0.33058915985E+04 0.  0.
        4    1    3    3  502    0 -0.76488051534E+03  0.99572910164E+03  0.14545615266E+04  0.19215279062E+04  0.12699999809E+01 0. -1.
       -4    1    3    3    0  502  0.76488051534E+03 -0.99572910164E+03 -0.74454671434E+03  0.14597500023E+04  0.12699999809E+01 0.  1.
</event>
<event>
 5   0  0.2037109E-06  0.3420834E+04  0.7818609E-02  0.8132812E-01
       -1   -1    0    0    0  501  0.00000000000E+00  0.00000000000E+00  0.14873075393E+04  0.14873075394E+04  0.50400001928E-02 0.  1.
        1   -1    0    0  501    0  0.00000000000E+00  0.00000000000E+00 -0.19669945363E+04  0.19669945364E+04  0.50400001928E-02 0. -1.
    10030    2    1    2    0    0  0.00000000000E+00  0.00000000000E+00 -0.47968699701E+03  0.34543020757E+04  0.34208337018E+04 0.  0.
        2    1    3    3  502    0 -0.55740164527E+03  0.13120452583E+04  0.71458449917E+03  0.15946129187E+04  0.25500000920E-02 0.  1.
       -2    1    3    3    0  502  0.55740164527E+03 -0.13120452583E+04 -0.11942714962E+04  0.18596891570E+04  0.25500000920E-02 0. -1.
</event>
<event>
 5   0  0.1925906E-06  0.3318288E+04  0.7818609E-02  0.8158258E-01
        1   -1    0    0  501    0  0.00000000000E+00  0.00000000000E+00  0.17090257476E+04  0.17090257476E+04  0.50400001928E-02 0. -1.
       -1   -1    0    0    0  501  0.00000000000E+00  0.00000000000E+00 -0.16107179384E+04  0.16107179384E+04  0.50400001928E-02 0.  1.
    10030    2    1    2    0    0  0.00000000000E+00  0.00000000000E+00  0.98307809286E+02  0.33197436860E+04  0.33182877686E+04 0.  0.
        1    1    3    3  502    0 -0.10787477773E+04  0.90380799238E+03  0.92828445872E+03  0.16859055995E+04  0.50400001928E-02 0. -1.
       -1    1    3    3    0  502  0.10787477773E+04 -0.90380799238E+03 -0.82997664943E+03  0.16338380865E+04  0.50400001928E-02 0.  1.
</event>
<event>
 5   0  0.1999849E-06  0.1837702E+04  0.7818609E-02  0.8686503E-01
       -1   -1    0    0    0  501  0.00000000000E+00  0.00000000000E+00  0.69952116008E+03  0.69952116010E+03  0.50400001928E-02 0. -1.
        1   -1    0    0  501    0  0.00000000000E+00  0.00000000000E+00 -0.12069504299E+04  0.12069504299E+04  0.50400001928E-02 0.  1.
    10030    2    1    2    0    0  0.00000000000E+00  0.00000000000E+00 -0.50742926981E+03  0.19064715900E+04  0.18377022228E+04 0.  0.
        5    1    3    3  502    0  0.75995660263E+02  0.90860181337E+03 -0.13573706386E+03  0.92183471195E+03  0.46999998093E+01 0. -1.
       -5    1    3    3    0  502 -0.75995660263E+02 -0.90860181337E+03 -0.37169220595E+03  0.98463687804E+03  0.46999998093E+01 0.  1.
</event>
<event>
 5   0  0.5300268E-06  0.3461485E+04  0.7818609E-02  0.8122979E-01
        2   -1    0    0  501    0  0.00000000000E+00  0.00000000000E+00  0.16194334363E+04  0.16194334363E+04  0.25500000920E-02 0. -1.
       -2   -1    0    0    0  501  0.00000000000E+00  0.00000000000E+00 -0.18497018354E+04  0.18497018354E+04  0.25500000920E-02 0.  1.
    10030    2    1    2    0    0  0.00000000000E+00  0.00000000000E+00 -0.23026839913E+03  0.34691352717E+04  0.34614846522E+04 0.  0.
        4    1    3    3  502    0 -0.10747169498E+04 -0.12357204940E+04 -0.67623385208E+03  0.17718113605E+04  0.12699999809E+01 0.  1.
       -4    1    3    3    0  502  0.10747169498E+04  0.12357204940E+04  0.44596545296E+03  0.16973239112E+04  0.12699999809E+01 0. -1.
</event>
<event>
 5   0  0.5755250E-06  0.3289362E+04  0.7818609E-02  0.8165608E-01
        2   -1    0    0  501    0  0.00000000000E+00  0.00000000000E+00  0.18986569127E+04  0.18986569127E+04  0.25500000920E-02 0. -1.
       -2   -1    0    0    0  501  0.00000000000E+00  0.00000000000E+00 -0.14246781215E+04  0.14246781215E+04  0.25500000920E-02 0.  1.
    10030    2    1    2    0    0  0.00000000000E+00  0.00000000000E+00  0.47397879116E+03  0.33233350342E+04  0.32893616182E+04 0.  0.
        5    1    3    3  502    0  0.49814026638E+03  0.15303682287E+04 -0.10530504129E+03  0.16128489954E+04  0.46999998093E+01 0.  1.
       -5    1    3    3    0  502 -0.49814026638E+03 -0.15303682287E+04  0.57928383246E+03  0.17104860388E+04  0.46999998093E+01 0. -1.
</event>
<event>
 5   0  0.5622811E-06  0.3047614E+04  0.7818609E-02  0.8230264E-01
       -2   -1    0    0    0  501  0.00000000000E+00  0.00000000000E+00  0.15288758309E+04  0.15288758309E+04  0.25500000920E-02 0. -1.
        2   -1    0    0  501    0  0.00000000000E+00  0.00000000000E+00 -0.15187549012E+04  0.15187549012E+04  0.25500000920E-02 0.  1.
    10030    2    1    2    0    0  0.00000000000E+00  0.00000000000E+00  0.10120929723E+02  0.30476307321E+04  0.30476139267E+04 0.  0.
        1    1    3    3  502    0  0.49091561596E+03  0.65288732830E+03  0.12914297374E+04  0.15280872921E+04  0.50400001928E-02 0. -1.
       -1    1    3    3    0  502 -0.49091561596E+03 -0.65288732830E+03 -0.12813088077E+04  0.15195434400E+04  0.50400001928E-02 0.  1.
</event>
<event>
 5   0  0.5622811E-06  0.3329332E+04  0.7818609E-02  0.8155472E-01
        2   -1    0    0  501    0  0.00000000000E+00  0.00000000000E+00  0.31160677706E+04  0.31160677706E+04  0.25500000920E-02 0.  1.
       -2   -1    0    0    0  501  0.00000000000E+00  0.00000000000E+00 -0.88929786646E+03  0.88929786647E+03  0.25500000920E-02 0. -1.
    10030    2    1    2    0    0  0.00000000000E+00  0.00000000000E+00  0.22267699041E+04  0.40053656370E+04  0.33293317168E+04 0.  0.
        1    1    3    3  502    0  0.56175952149E+03 -0.44514048730E+03  0.29209263966E+04  0.30075795630E+04  0.50400001928E-02 0.  1.
       -1    1    3    3    0  502 -0.56175952149E+03  0.44514048730E+03 -0.69415649250E+03  0.99778607403E+03  0.50400001928E-02 0. -1.
</event>
<event>
 5   0  0.1878000E-06  0.3295972E+04  0.7818609E-02  0.8163921E-01
       -3   -1    0    0    0  501  0.00000000000E+00  0.00000000000E+00  0.10666568654E+04  0.10666568702E+04  0.10100000352E+00 0.  1.
        3   -1    0    0  501    0  0.00000000000E+00  0.00000000000E+00 -0.25461402228E+04  0.25461402248E+04  0.10100000352E+00 0. -1.
    10030    2    1    2    0    0  0.00000000000E+00  0.00000000000E+00 -0.14794833573E+04  0.36127970950E+04  0.32959720637E+04 0.  0.
        2    1    3    3  502    0  0.90910211211E+03  0.10712894832E+04  0.20428228008E+03  0.14198095144E+04  0.25500000920E-02 0.  1.
       -2    1    3    3    0  502 -0.90910211211E+03 -0.10712894832E+04 -0.16837656374E+04  0.21929875806E+04  0.25500000920E-02 0. -1.
</event>
<event>
 5   0  0.1878000E-06  0.1676050E+04  0.7818609E-02  0.8775143E-01
        3   -1    0    0  501    0  0.00000000000E+00  0.00000000000E+00  0.84966518021E+03  0.84966518622E+03  0.10100000352E+00 0.  1.
       -3   -1    0    0    0  501  0.00000000000E+00  0.00000000000E+00 -0.82654411652E+03  0.82654412269E+03  0.10100000352E+00 0. -1.
    10030    2    1    2    0    0  0.00000000000E+00  0.00000000000E+00  0.23121063694E+02  0.16762093089E+04  0.16760498393E+04 0.  0.
        4    1    3    3  502    0 -0.22402415226E+02 -0.14956644674E+03 -0.81278251315E+03  0.82673394559E+03  0.12699999809E+01 0. -1.
       -4    1    3    3    0  502  0.22402415226E+02  0.14956644674E+03  0.83590357685E+03  0.84947536332E+03  0.12699999809E+01 0.  1.
</event>
<event>
 5   0  0.5300268E-06  0.3037428E+04  0.7818609E-02  0.8233123E-01
        2   -1    0    0  501    0  0.00000000000E+00  0.00000000000E+00  0.17315752742E+04  0.17315752742E+04  0.25500000920E-02 0.  1.
       -2   -1    0    0    0  501  0.00000000000E+00  0.00000000000E+00 -0.13320194670E+04  0.13320194670E+04  0.25500000920E-02 0. -1.
    10030    2    1    2    0    0  0.00000000000E+00  0.00000000000E+00  0.39955580723E+03  0.30635947412E+04  0.30374278420E+04 0.  0.
        4    1    3    3  502    0 -0.11072656197E+04  0.10272375937E+04  0.39550512228E+02  0.15109004211E+04  0.12699999809E+01 0. -1.
       -4    1    3    3    0  502  0.11072656197E+04 -0.10272375937E+04  0.36000529501E+03  0.15526943201E+04  0.12699999809E+01 0.  1.
</event>
<event>
 5   0  0.2097842E-06  0.3341731E+04  0.7818609E-02  0.8152357E-01
       -1   -1    0    0    0  501  0.00000000000E+00  0.00000000000E+00  0.16224698498E+04  0.16224698498E+04  0.50400001928E-02 0. -1.
        1   -1    0    0  501    0  0.00000000000E+00  0.00000000000E+00 -0.17207045092E+04  0.17207045092E+04  0.50400001928E-02 0.  1.
    10030    2    1    2    0    0  0.00000000000E+00  0.00000000000E+00 -0.98234659387E+02  0.33431743590E+04  0.33417308010E+04 0.  0.
        4    1    3    3  502    0 -0.11612054115E+04  0.46321169296E+03  0.10598859966E+04  0.16390006159E+04  0.12699999809E+01 0. -1.
       -4    1    3    3    0  502  0.11612054115E+04 -0.46321169296E+03 -0.11581206560E+04  0.17041737432E+04  0.12699999809E+01 0.  1.
</event>
<event>
 5   0  0.5300268E-06  0.2494950E+04  0.7818609E-02  0.8404787E-01
        2   -1    0    0  501    0  0.00000000000E+00  0.00000000000E+00  0.13251320983E+04  0.13251320983E+04  0.25500000920E-02 0. -1.
       -2   -1    0    0    0  501  0.00000000000E+00  0.00000000000E+00 -0.11743685559E+04  0.11743685559E+04  0.25500000920E-02 0.  1.
    10030    2    1    2    0    0  0.00000000000E+00  0.00000000000E+00  0.15076354237E+03  0.24995006542E+04  0.24949496738E+04 0.  0.
        4    1    3    3  502    0 -0.11234251557E+04  0.27189621871E+03  0.54547134291E+03  0.12781049382E+04  0.12699999809E+01 0. -1.
       -4    1    3    3    0  502  0.11234251557E+04 -0.27189621871E+03 -0.39470780054E+03  0.12213957160E+04  0.12699999809E+01 0.  1.
</event>
<event>
 5   0  0.2730981E-06  0.2161527E+04  0.7818609E-02  0.8534614E-01
       -1   -1    0    0    0  501  0.00000000000E+00  0.00000000000E+00  0.17877474582E+04  0.17877474583E+04  0.50400001928E-02 0. -1.
        1   -1    0    0  501    0  0.00000000000E+00  0.00000000000E+00 -0.65336413496E+03  0.65336413498E+03  0.50400001928E-02 0.  1.
    10030    2    1    2    0    0  0.00000000000E+00  0.00000000000E+00  0.11343833233E+04  0.24411115932E+04  0.21615273041E+04 0.  0.
        3    1    3    3  502    0 -0.65437621160E+03  0.11495521357E+03 -0.39549003147E+03  0.77319810050E+03  0.10100000352E+00 0.  1.
       -3    1    3    3    0  502  0.65437621160E+03 -0.11495521357E+03  0.15298733548E+04  0.16679134927E+04  0.10100000352E+00 0. -1.
</event>
<event>
 5   0  0.2097842E-06  0.3135597E+04  0.7818609E-02  0.8206036E-01
       -1   -1    0    0    0  501  0.00000000000E+00  0.00000000000E+00  0.10504582276E+04  0.10504582276E+04  0.50400001928E-02 0. -1.
        1   -1    0    0  501    0  0.00000000000E+00  0.00000000000E+00 -0.23399231875E+04  0.23399231875E+04  0.50400001928E-02 0.  1.
    10030    2    1    2    0    0  0.00000000000E+00  0.00000000000E+00 -0.12894649598E+04  0.33903814151E+04  0.31355966350E+04 0.  0.
        4    1    3    3  502    0  0.39605836543E+03  0.31282524343E+03  0.96021949416E+03  0.10847787570E+04  0.12699999809E+01 0. -1.
       -4    1    3    3    0  502 -0.39605836543E+03 -0.31282524343E+03 -0.22496844540E+04  0.23056026581E+04  0.12699999809E+01 0.  1.
</event>
<event>
 5   0  0.2037109E-06  0.3239894E+04  0.7818609E-02  0.8178360E-01
        1   -1    0    0  501    0  0.00000000000E+00  0.00000000000E+00  0.17750749916E+04  0.17750749916E+04  0.50400001928E-02 0. -1.
       -1   -1    0    0    0  501  0.00000000000E+00  0.00000000000E+00 -0.14783764090E+04  0.14783764090E+04  0.50400001928E-02 0.  1.
    10030    2    1    2    0    0  0.00000000000E+00  0.00000000000E+00  0.29669858261E+03  0.32534514006E+04  0.32398944377E+04 0.  0.
        2    1    3    3  502    0 -0.14986624406E+04  0.31214016505E+03  0.68048022955E+03  0.16752533946E+04  0.25500000920E-02 0. -1.
       -2    1    3    3    0  502  0.14986624406E+04 -0.31214016505E+03 -0.38378164694E+03  0.15781980060E+04  0.25500000920E-02 0.  1.
</event>
<event>
 5   0  0.5622811E-06  0.3275162E+04  0.7818609E-02  0.8169244E-01
        2   -1    0    0  501    0  0.00000000000E+00  0.00000000000E+00  0.15804135314E+04  0.15804135314E+04  0.25500000920E-02 0.  1.
       -2   -1    0    0    0  501  0.00000000000E+00  0.00000000000E+00 -0.16968164000E+04  0.16968164000E+04  0.25500000920E-02 0. -1.
    10030    2    1    2    0    0  0.00000000000E+00  0.00000000000E+00 -0.11640286865E+03  0.32772299314E+04  0.32751620411E+04 0.  0.
        1    1    3    3  502    0  0.13574853614E+04  0.52802484650E+03  0.69066594317E+03  0.16120161879E+04  0.50400001928E-02 0.  1.
       -1    1    3    3    0  502 -0.13574853614E+04 -0.52802484650E+03 -0.80706881182E+03  0.16652137436E+04  0.50400001928E-02 0. -1.
</event>
<event>
 5   0  0.1925906E-06  0.3112122E+04  0.7818609E-02  0.8212419E-01
       -1   -1    0    0    0  501  0.00000000000E+00  0.00000000000E+00  0.11216085227E+04  0.11216085227E+04  0.50400001928E-02 0.  1.
        1   -1    0    0  501    0  0.00000000000E+00  0.00000000000E+00 -0.21587972330E+04  0.21587972330E+04  0.50400001928E-02 0. -1.
    10030    2    1    2    0    0  0.00000000000E+00  0.00000000000E+00 -0.10371887103E+04  0.32804057558E+04  0.31121217042E+04 0.  0.
        1    1    3    3  502    0 -0.64954324527E+03  0.19684127604E+03 -0.19945507166E+04  0.21068662692E+04  0.50400001928E-02 0. -1.
       -1    1    3    3    0  502  0.64954324527E+03 -0.19684127604E+03  0.95736200626E+03  0.11735394865E+04  0.50400001928E-02 0.  1.
</event>
<event>
 5   0  0.5622811E-06  0.3299103E+04  0.7818609E-02  0.8163124E-01
       -2   -1    0    0    0  501  0.00000000000E+00  0.00000000000E+00  0.11526869729E+04  0.11526869729E+04  0.25500000920E-02 0.  1.
        2   -1    0    0  501    0  0.00000000000E+00  0.00000000000E+00 -0.23605883688E+04  0.23605883688E+04  0.25500000920E-02 0. -1.
    10030    2    1    2    0    0  0.00000000000E+00  0.00000000000E+00 -0.12079013959E+04  0.35132753417E+04  0.32991025817E+04 0.  0.
        1    1    3    3  502    0 -0.41576503931E+03  0.10963939972E+04  0.63157464467E+03  0.13318509289E+04  0.50400001928E-02 0.  1.
       -1    1    3    3    0  502  0.41576503931E+03 -0.10963939972E+04 -0.18394760406E+04  0.21814244128E+04  0.50400001928E-02 0. -1.
</event>
<event>
 5   0  0.5637538E-06  0.3336073E+04  0.7818609E-02  0.8153777E-01
       -2   -1    0    0    0  501  0.00000000000E+00  0.00000000000E+00  0.13952783132E+04  0.13952783132E+04  0.25500000920E-02 0. -1.
        2   -1    0    0  501    0  0.00000000000E+00  0.00000000000E+00 -0.19941151588E+04  0.19941151588E+04  0.25500000920E-02 0.  1.
    10030    2    1    2    0    0  0.00000000000E+00  0.00000000000E+00 -0.59883684559E+03  0.33893934720E+04  0.33360729219E+04 0.  0.
        2    1    3    3  502    0  0.13549410802E+04 -0.62865547823E+03 -0.10537627953E+04  0.18279740342E+04  0.25500000920E-02 0.  1.
       -2    1    3    3    0  502 -0.13549410802E+04  0.62865547823E+03  0.45492594970E+03  0.15614194378E+04  0.25500000920E-02 0. -1.
</event>
<event>
 5   0  0.5300268E-06  0.3244988E+04  0.7818609E-02  0.8177036E-01
       -2   -1    0    0    0  501  0.00000000000E+00  0.00000000000E+00  0.18760048319E+04  0.18760048319E+04  0.25500000920E-02 0.  1.
        2   -1    0    0  501    0  0.00000000000E+00  0.00000000000E+00 -0.14032412086E+04  0.14032412086E+04  0.25500000920E-02 0. -1.
    10030    2    1    2    0    0  0.00000000000E+00  0.00000000000E+00  0.47276362329E+03  0.32792460406E+04  0.32449883130E+04 0.  0.
        4    1    3    3  502    0 -0.95990872456E+03  0.59524800036E+03  0.14134708026E+04  0.18093220454E+04  0.12699999809E+01 0.  1.
       -4    1    3    3    0  502  0.95990872456E+03 -0.59524800036E+03 -0.94070717930E+03  0.14699239951E+04  0.12699999809E+01 0. -1.
</event>
<event>
 5   0  0.2097842E-06  0.2932768E+04  0.7818609E-02  0.8263194E-01
        1   -1    0    0  501    0  0.00000000000E+00  0.00000000000E+00  0.17435148653E+04  0.17435148653E+04  0.50400001928E-02 0.  1.
       -1   -1    0    0    0  501  0.00000000000E+00  0.00000000000E+00 -0.12333031120E+04  0.12333031120E+04  0.50400001928E-02 0. -1.
    10030    2    1    2    0    0  0.00000000000E+00  0.00000000000E+00  0.51021175329E+03  0.29768179773E+04  0.29327681867E+04 0.  0.
        4    1    3    3  502    0  0.67989773218E+03 -0.72300004694E+03 -0.84059417918E+03  0.13006114643E+04  0.12699999809E+01 0. -1.
       -4    1    3    3    0  502 -0.67989773218E+03  0.72300004694E+03  0.13508059325E+04  0.16762065130E+04  0.12699999809E+01 0.  1.
</event>
<event>
 5   0  0.1925906E-06  0.2626075E+04  0.7818609E-02  0.8359398E-01
        1   -1    0    0  501    0  0.00000000000E+00  0.00000000000E+00  0.11009177435E+04  0.11009177435E+04  0.50400001928E-02 0.  1.
       -1   -1    0    0    0  501  0.00000000000E+00  0.00000000000E+00 -0.15660269538E+04  0.15660269538E+04  0.50400001928E-02 0. -1.
    10030    2    1    2    0    0  0.00000000000E+00  0.00000000000E+00 -0.46510921034E+03  0.26669446973E+04  0.26260745307E+04 0.  0.
        1    1    3    3  502    0  0.99284808516E+03  0.56713131434E+03  0.42300038915E+03  0.12191450189E+04  0.50400001928E-02 0.  1.
       -1    1    3    3    0  502 -0.99284808516E+03 -0.56713131434E+03 -0.88810959949E+03  0.14477996784E+04  0.50400001928E-02 0. -1.
</event>
<event>
 5   0  0.5300268E-06  0.3265899E+04  0.7818609E-02  0.8171627E-01
        2   -1    0    0  501    0  0.00000000000E+00  0.00000000000E+00  0.16807890245E+04  0.16807890245E+04  0.25500000920E-02 0. -1.
       -2   -1    0    0    0  501  0.00000000000E+00  0.00000000000E+00 -0.15864717719E+04  0.15864717719E+04  0.25500000920E-02 0.  1.
    10030    2    1    2    0    0  0.00000000000E+00  0.00000000000E+00  0.94317252594E+02  0.32672607963E+04  0.32658991667E+04 0.  0.
        4    1    3    3  502    0  0.10007730125E+04  0.61982947029E+03  0.11793493069E+04  0.16663137746E+04  0.12699999809E+01 0. -1.
       -4    1    3    3    0  502 -0.10007730125E+04 -0.61982947029E+03 -0.10850320543E+04  0.16009470218E+04  0.12699999809E+01 0.  1.
</event>
<event>
 5   0  0.5855568E-06  0.3294018E+04  0.7818609E-02  0.8164419E-01
       -2   -1    0    0    0  501  0.00000000000E+00  0.00000000000E+00  0.16597352300E+04  0.16597352300E+04  0.25500000920E-02 0.  1.
        2   -1    0    0  501    0  0.00000000000E+00  0.00000000000E+00 -0.16343800329E+04  0.16343800329E+04  0.25500000920E-02 0. -1.
    10030    2    1    2    0    0  0.00000000000E+00  0.00000000000E+00  0.25355197048E+02  0.32941152629E+04  0.32940176805E+04 0.  0.
        3    1    3    3  502    0  0.94970849408E+03 -0.24739052275E+03  0.13353995916E+04  0.16572387800E+04  0.10100000352E+00 0.  1.
       -3    1    3    3    0  502 -0.94970849408E+03  0.24739052275E+03 -0.13100443946E+04  0.16368764829E+04  0.10100000352E+00 0. -1.
</event>
<event>
 5   0  0.2037109E-06  0.3427921E+04  0.7818609E-02  0.8131087E-01
       -1   -1    0    0    0  501  0.00000000000E+00  0.00000000000E+00  0.15048575711E+04  0.15048575712E+04  0.50400001928E-02 0.  1.
        1   -1    0    0  501    0  0.00000000000E+00  0.00000000000E+00 -0.19521190348E+04  0.19521190348E+04  0.50400001928E-02 0. -1.
    10030    2    1    2    0    0  0.00000000000E+00  0.00000000000E+00 -0.44726146363E+03  0.34569766059E+04  0.34279212997E+04 0.  0.
        2    1    3    3  502    0 -0.16591112407E+04  0.29313005630E+03 -0.54107774333E+03  0.17695593981E+04  0.25500000920E-02 0. -1.
       -2    1    3    3    0  502  0.16591112407E+04 -0.29313005630E+03  0.93816279698E+02  0.16874172079E+04  0.25500000920E-02 0.  1.
</event>
<event>
 5   0  0.2730981E-06  0.3361311E+04  0.7818609E-02  0.8147468E-01
       -1   -1    0    0    0  501  0.00000000000E+00  0.00000000000E+00  0.13140867422E+04  0.13140867422E+04  0.50400001928E-02 0. -1.
        1   -1    0    0  501    0  0.00000000000E+00  0.00000000000E+00 -0.21494798421E+04  0.21494798421E+04  0.50400001928E-02 0.  1.
    10030    2    1    2    0    0  0.00000000000E+00  0.00000000000E+00 -0.83539309992E+03  0.34635665843E+04  0.33613110318E+04 0.  0.
        3    1    3    3  502    0 -0.13555072791E+04 -0.87749379651E+03  0.62536842588E+02  0.16159536545E+04  0.10100000352E+00 0. -1.
       -3    1    3    3    0  502  0.13555072791E+04  0.87749379651E+03 -0.89792994251E+03  0.18476129298E+04  0.10100000352E+00 0.  1.
</event>
<event>
 5   0  0.5637538E-06  0.3244121E+04  0.7818609E-02  0.8177261E-01
        2   -1    0    0  501    0  0.00000000000E+00  0.00000000000E+00  0.18727385178E+04  0.18727385178E+04  0.25500000920E-02 0. -1.
       -2   -1    0    0    0  501  0.00000000000E+00  0.00000000000E+00 -0.14049374420E+04  0.14049374420E+04  0.25500000920E-02 0.  1.
    10030    2    1    2    0    0  0.00000000000E+00  0.00000000000E+00  0.46780107577E+03  0.32776759599E+04  0.32441211216E+04 0.  0.
        2    1    3    3  502    0  0.12425854699E+04 -0.48782430160E+03  0.11648918538E+04  0.17717122312E+04  0.25500000920E-02 0. -1.
       -2    1    3    3    0  502 -0.12425854699E+04  0.48782430160E+03 -0.69709077798E+03  0.15059637287E+04  0.25500000920E-02 0.  1.
</event>
<event>
 5   0  0.5300268E-06  0.2537548E+04  0.7818609E-02  0.8389730E-01
       -2   -1    0    0    0  501  0.00000000000E+00  0.00000000000E+00  0.63407475973E+03  0.63407475974E+03  0.25500000920E-02 0. -1.
        2   -1    0    0  501    0  0.00000000000E+00  0.00000000000E+00 -0.25387970490E+04  0.25387970490E+04  0.25500000920E-02 0.  1.
    10030    2    1    2    0    0  0.00000000000E+00  0.00000000000E+00 -0.19047222893E+04  0.31728718088E+04  0.25375477366E+04 0.  0.
        4    1    3    3  502    0 -0.20741177775E+02 -0.74144389653E+03 -0.22394621027E+04  0.23591018144E+04  0.12699999809E+01 0.  1.
       -4    1    3    3    0  502  0.20741177775E+02  0.74144389653E+03  0.33473981344E+03  0.81376999438E+03  0.12699999809E+01 0. -1.
</event>
<event>
 5   0  0.1925906E-06  0.2585891E+04  0.7818609E-02  0.8373010E-01
        1   -1    0    0  501    0  0.00000000000E+00  0.00000000000E+00  0.93964569147E+03  0.93964569149E+03  0.50400001928E-02 0. -1.
       -1   -1    0    0    0  501  0.00000000000E+00  0.00000000000E+00 -0.17790830764E+04  0.17790830764E+04  0.50400001928E-02 0.  1.
    10030    2    1    2    0    0  0.00000000000E+00  0.00000000000E+00 -0.83943738491E+03  0.27187287679E+04  0.25858907537E+04 0.  0.
        1    1    3    3  502    0 -0.41666790190E+03 -0.48535612476E+03  0.76162348384E+03  0.99461200449E+03  0.50400001928E-02 0. -1.
       -1    1    3    3    0  502  0.41666790190E+03  0.48535612476E+03 -0.16010608687E+04  0.17241167634E+04  0.50400001928E-02 0.  1.
</event>
<event>
 5   0  0.1925906E-06  0.2994822E+04  0.7818609E-02  0.8245211E-01
        1   -1    0    0  501    0  0.00000000000E+00  0.00000000000E+00  0.19095713301E+04  0.19095713301E+04  0.50400001928E-02 0.  1.
       -1   -1    0    0    0  501  0.00000000000E+00  0.00000000000E+00 -0.11742109959E+04  0.11742109959E+04  0.50400001928E-02 0. -1.
    10030    2    1    2    0    0  0.00000000000E+00  0.00000000000E+00  0.73536033423E+03  0.30837823261E+04  0.29948219669E+04 0.  0.
        1    1    3    3  502    0 -0.36230394899E+02 -0.87130610833E+03  0.16211115535E+04  0.18407850621E+04  0.50400001928E-02 0.  1.
       -1    1    3    3    0  502  0.36230394899E+02  0.87130610833E+03 -0.88575121924E+03  0.12429972640E+04  0.50400001928E-02 0. -1.
</event>
<event>
 5   0  0.5855568E-06  0.3250923E+04  0.7818609E-02  0.8175497E-01
       -2   -1    0    0    0  501  0.00000000000E+00  0.00000000000E+00  0.11433846307E+04  0.11433846307E+04  0.25500000920E-02 0.  1.
        2   -1    0    0  501    0  0.00000000000E+00  0.00000000000E+00 -0.23107924692E+04  0.23107924692E+04  0.25500000920E-02 0. -1.
    10030    2    1    2    0    0  0.00000000000E+00  0.00000000000E+00 -0.11674078384E+04  0.34541770999E+04  0.32509226961E+04 0.  0.
        3    1    3    3  502    0  0.11762157867E+04  0.44104480562E+02  0.60740928811E+03  0.13245281558E+04  0.10100000352E+00 0.  1.
       -3    1    3    3    0  502 -0.11762157867E+04 -0.44104480562E+02 -0.17748171265E+04  0.21296489441E+04  0.10100000352E+00 0. -1.
</event>
<event>
 5   0  0.2097842E-06  0.3421673E+04  0.7818609E-02  0.8132608E-01
       -1   -1    0    0    0  501  0.00000000000E+00  0.00000000000E+00  0.27912039739E+04  0.27912039739E+04  0.50400001928E-02 0. -1.
        1   -1    0    0  501    0  0.00000000000E+00  0.00000000000E+00 -0.10486373332E+04  0.10486373332E+04  0.50400001928E-02 0.  1.
    10030    2    1    2    0    0  0.00000000000E+00  0.00000000000E+00  0.17425666406E+04  0.38398413071E+04  0.34216725102E+04 0.  0.
        4    1    3    3  502    0 -0.15287662121E+04 -0.55302792250E+03  0.14693212131E+04  0.21913175157E+04  0.12699999809E+01 0. -1.
       -4    1    3    3    0  502  0.15287662121E+04  0.55302792250E+03  0.27324542751E+03  0.16485237914E+04  0.12699999809E+01 0.  1.
</event>
<event>
 5   0  0.1925906E-06  0.2823075E+04  0.7818609E-02  0.8296140E-01
        1   -1    0    0  501    0  0.00000000000E+00  0.00000000000E+00  0.17472399488E+04  0.17472399488E+04  0.50400001928E-02 0.  1.
       -1   -1    0    0    0  501  0.00000000000E+00  0.00000000000E+00 -0.11403346668E+04  0.11403346668E+04  0.50400001928E-02 0. -1.
    10030    2    1    2    0    0  0.00000000000E+00  0.00000000000E+00  0.60690528206E+03  0.28875746156E+04  0.28230751211E+04 0.  0.
        1    1    3    3  502    0 -0.38215247887E+03  0.54586523213E+03 -0.96933636998E+03  0.11762747838E+04  0.50400001928E-02 0. -1.
       -1    1    3    3    0  502  0.38215247887E+03 -0.54586523213E+03  0.15762416520E+04  0.17112998318E+04  0.50400001928E-02 0.  1.
</event>
<event>
 5   0  0.1925906E-06  0.2100045E+04  0.7818609E-02  0.8561224E-01
       -1   -1    0    0    0  501  0.00000000000E+00  0.00000000000E+00  0.84083088843E+03  0.84083088844E+03  0.50400001928E-02 0. -1.
        1   -1    0    0  501    0  0.00000000000E+00  0.00000000000E+00 -0.13112587256E+04  0.13112587257E+04  0.50400001928E-02 0.  1.
    10030    2    1    2    0    0  0.00000000000E+00  0.00000000000E+00 -0.47042783722E+03  0.21520896141E+04  0.21000446084E+04 0.  0.
        1    1    3    3  502    0 -0.46615019742E+03 -0.26603965254E+03 -0.11600619444E+04  0.12782084408E+04  0.50400001928E-02 0.  1.
       -1    1    3    3    0  502  0.46615019742E+03  0.26603965254E+03  0.68963410716E+03  0.87388117331E+03  0.50400001928E-02 0. -1.
</event>
<event>
 5   0  0.2730981E-06  0.2970432E+04  0.7818609E-02  0.8252225E-01
        1   -1    0    0  501    0  0.00000000000E+00  0.00000000000E+00  0.21079410226E+04  0.21079410226E+04  0.50400001928E-02 0. -1.
       -1   -1    0    0    0  501  0.00000000000E+00  0.00000000000E+00 -0.10464555190E+04  0.10464555190E+04  0.50400001928E-02 0.  1.
    10030    2    1    2    0    0  0.00000000000E+00  0.00000000000E+00  0.10614855037E+04  0.31543965416E+04  0.29704319664E+04 0.  0.
        3    1    3    3  502    0  0.13700348775E+03  0.14768722585E+04  0.61262095994E+03  0.16047510942E+04  0.10100000352E+00 0.  1.
       -3    1    3    3    0  502 -0.13700348775E+03 -0.14768722585E+04  0.44886454372E+03  0.15496454474E+04  0.10100000352E+00 0. -1.
</event>
<event>
 5   0  0.5755250E-06  0.3293344E+04  0.7818609E-02  0.8164591E-01
       -2   -1    0    0    0  501  0.00000000000E+00  0.00000000000E+00  0.24620462942E+04  0.24620462942E+04  0.25500000920E-02 0.  1.
        2   -1    0    0  501    0  0.00000000000E+00  0.00000000000E+00 -0.11013316448E+04  0.11013316448E+04  0.25500000920E-02 0. -1.
    10030    2    1    2    0    0  0.00000000000E+00  0.00000000000E+00  0.13607146494E+04  0.35633779391E+04  0.32933444976E+04 0.  0.
        5    1    3    3  502    0  0.79554297871E+03  0.46476778869E+03  0.21570348065E+04  0.23455743379E+04  0.46999998093E+01 0.  1.
       -5    1    3    3    0  502 -0.79554297871E+03 -0.46476778869E+03 -0.79632015709E+03  0.12178036011E+04  0.46999998093E+01 0. -1.
</event>
<event>
 5   0  0.2097842E-06  0.1797845E+04  0.7818609E-02  0.8707447E-01
       -1   -1    0    0    0  501  0.00000000000E+00  0.00000000000E+00  0.16030045494E+04  0.16030045494E+04  0.50400001928E-02 0. -1.
        1   -1    0    0  501    0  0.00000000000E+00  0.00000000000E+00 -0.50409172364E+03  0.50409172366E+03  0.50400001928E-02 0.  1.
    10030    2    1    2    0    0  0.00000000000E+00  0.00000000000E+00  0.10989128258E+04  0.21070962731E+04  0.17978446277E+04 0.  0.
        4    1    3    3  502    0 -0.14028490667E+03  0.85843207349E+03  0.81536181886E+03  0.11922256449E+04  0.12699999809E+01 0. -1.
       -4    1    3    3    0  502  0.14028490667E+03 -0.85843207349E+03  0.28355100691E+03  0.91487062815E+03  0.12699999809E+01 0.  1.
</event>
<event>
 5   0  0.1925906E-06  0.2196152E+04  0.7818609E-02  0.8520031E-01
        1   -1    0    0  501    0  0.00000000000E+00  0.00000000000E+00  0.10952533086E+04  0.10952533086E+04  0.50400001928E-02 0. -1.
       -1   -1    0    0    0  501  0.00000000000E+00  0.00000000000E+00 -0.11009059188E+04  0.11009059189E+04  0.50400001928E-02 0.  1.
    10030    2    1    2    0    0  0.00000000000E+00  0.00000000000E+00 -0.56526102183E+01  0.21961592275E+04  0.21961519530E+04 0.  0.
        1    1    3    3  502    0  0.71483311792E+02 -0.16961803567E+03 -0.10853689009E+04  0.11008659287E+04  0.50400001928E-02 0.  1.
       -1    1    3    3    0  502 -0.71483311792E+02  0.16961803567E+03  0.10797162907E+04  0.10952932988E+04  0.50400001928E-02 0. -1.
</event>
<event>
 5   0  0.1925906E-06  0.3297950E+04  0.7818609E-02  0.8163417E-01
        1   -1    0    0  501    0  0.00000000000E+00  0.00000000000E+00  0.16601205553E+04  0.16601205553E+04  0.50400001928E-02 0.  1.
       -1   -1    0    0    0  501  0.00000000000E+00  0.00000000000E+00 -0.16379038143E+04  0.16379038143E+04  0.50400001928E-02 0. -1.
    10030    2    1    2    0    0  0.00000000000E+00  0.00000000000E+00  0.22216741081E+02  0.32980243696E+04  0.32979495386E+04 0.  0.
        1    1    3    3  502    0  0.85774201431E+03 -0.13543644724E+04 -0.37502640969E+03  0.16464110347E+04  0.50400001928E-02 0.  1.
       -1    1    3    3    0  502 -0.85774201431E+03  0.13543644724E+04  0.39724315077E+03  0.16516133349E+04  0.50400001928E-02 0. -1.
</event>
<event>
 5   0  0.5755250E-06  0.2025606E+04  0.7818609E-02  0.8594742E-01
       -2   -1    0    0    0  501  0.00000000000E+00  0.00000000000E+00  0.10503715979E+04  0.10503715979E+04  0.25500000920E-02 0. -1.
        2   -1    0    0  501    0  0.00000000000E+00  0.00000000000E+00 -0.97657855058E+03  0.97657855058E+03  0.25500000920E-02 0.  1.
    10030    2    1    2    0    0  0.00000000000E+00  0.00000000000E+00  0.73793047304E+02  0.20269501485E+04  0.20256064501E+04 0.  0.
        5    1    3    3  502    0  0.39244929268E+03 -0.86532289859E+02  0.96716045474E+03  0.10473422171E+04  0.46999998093E+01 0. -1.
       -5    1    3    3    0  502 -0.39244929268E+03  0.86532289859E+02 -0.89336740744E+03  0.97960793136E+03  0.46999998093E+01 0.  1.
</event>
<event>
 5   0  0.5300268E-06  0.3333074E+04  0.7818609E-02  0.8154530E-01
        2   -1    0    0  501    0  0.00000000000E+00  0.00000000000E+00  0.27820325165E+04  0.27820325165E+04  0.25500000920E-02 0. -1.
       -2   -1    0    0    0  501  0.00000000000E+00  0.00000000000E+00 -0.99831516873E+03  0.99831516873E+03  0.25500000920E-02 0.  1.
    10030    2    1    2    0    0  0.00000000000E+00  0.00000000000E+00  0.17837173478E+04  0.37803476852E+04  0.33330738132E+04 0.  0.
        4    1    3    3  502    0 -0.47407989534E+03 -0.12077132470E+04 -0.29445508015E+03  0.13304241584E+04  0.12699999809E+01 0. -1.
       -4    1    3    3    0  502  0.47407989534E+03  0.12077132470E+04  0.20781724279E+04  0.24499235268E+04  0.12699999809E+01 0.  1.
</event>
<event>
 5   0  0.1999849E-06  0.1826440E+04  0.7818609E-02  0.8692364E-01
       -1   -1    0    0    0  501  0.00000000000E+00  0.00000000000E+00  0.51125665232E+03  0.51125665234E+03  0.50400001928E-02 0.  1.
        1   -1    0    0  501    0  0.00000000000E+00  0.00000000000E+00 -0.16312169549E+04  0.16312169549E+04  0.50400001928E-02 0. -1.
    10030    2    1    2    0    0  0.00000000000E+00  0.00000000000E+00 -0.11199603025E+04  0.21424736072E+04  0.18264397275E+04 0.  0.
        5    1    3    3  502    0 -0.44017035937E+03 -0.38466941039E+03  0.26300739149E+03  0.64102689377E+03  0.46999998093E+01 0.  1.
       -5    1    3    3    0  502  0.44017035937E+03  0.38466941039E+03 -0.13829676940E+04  0.15014467134E+04  0.46999998093E+01 0. -1.
</event>
<event>
 5   0  0.5300268E-06  0.3273678E+04  0.7818609E-02  0.8169625E-01
        2   -1    0    0  501    0  0.00000000000E+00  0.00000000000E+00  0.23775712190E+04  0.23775712190E+04  0.25500000920E-02 0.  1.
       -2   -1    0    0    0  501  0.00000000000E+00  0.00000000000E+00 -0.11268819152E+04  0.11268819152E+04  0.25500000920E-02 0. -1.
    10030    2    1    2    0    0  0.00000000000E+00  0.00000000000E+00  0.12506893038E+04  0.35044531342E+04  0.32736780592E+04 0.  0.
        4    1    3    3  502    0  0.49706565304E+03  0.95907408715E+03  0.19418100330E+04  0.22220542714E+04  0.12699999809E+01 0.  1.
       -4    1    3    3    0  502 -0.49706565304E+03 -0.95907408715E+03 -0.69112072920E+03  0.12823988628E+04  0.12699999809E+01 0. -1.
</event>
<event>
 5   0  0.2730981E-06  0.3309041E+04  0.7818609E-02  0.8160599E-01
        1   -1    0    0  501    0  0.00000000000E+00  0.00000000000E+00  0.18812934582E+04  0.18812934582E+04  0.50400001928E-02 0.  1.
       -1   -1    0    0    0  501  0.00000000000E+00  0.00000000000E+00 -0.14550825417E+04  0.14550825417E+04  0.50400001928E-02 0. -1.
    10030    2    1    2    0    0  0.00000000000E+00  0.00000000000E+00  0.42621091645E+03  0.33363759999E+04  0.33090405055E+04 0.  0.
        3    1    3    3  502    0 -0.85010598382E+03 -0.14170047702E+04  0.29658162747E+03  0.16788518024E+04  0.10100000352E+00 0. -1.
       -3    1    3    3    0  502  0.85010598382E+03  0.14170047702E+04  0.12962928898E+03  0.16575241975E+04  0.10100000352E+00 0.  1.
</event>
<event>
 5   0  0.5637538E-06  0.3322770E+04  0.7818609E-02  0.8157126E-01
       -2   -1    0    0    0  501  0.00000000000E+00  0.00000000000E+00  0.14119165971E+04  0.14119165971E+04  0.25500000920E-02 0.  1.
        2   -1    0    0  501    0  0.00000000000E+00  0.00000000000E+00 -0.19549312321E+04  0.19549312321E+04  0.25500000920E-02 0. -1.
    10030    2    1    2    0    0  0.00000000000E+00  0.00000000000E+00 -0.54301463496E+03  0.33668478292E+04  0.33227698402E+04 0.  0.
        2    1    3    3  502    0 -0.96119483704E+03 -0.11805162492E+04  0.40266510956E+03  0.15746914999E+04  0.25500000920E-02 0.  1.
       -2    1    3    3    0  502  0.96119483704E+03  0.11805162492E+04 -0.94567974452E+03  0.17921563293E+04  0.25500000920E-02 0. -1.
</event>
<event>
 5   0  0.5622811E-06  0.3326835E+04  0.7818609E-02  0.8156101E-01
        2   -1    0    0  501    0  0.00000000000E+00  0.00000000000E+00  0.19976079306E+04  0.19976079306E+04  0.25500000920E-02 0. -1.
       -2   -1    0    0    0  501  0.00000000000E+00  0.00000000000E+00 -0.13851353472E+04  0.13851353472E+04  0.25500000920E-02 0.  1.
    10030    2    1    2    0    0  0.00000000000E+00  0.00000000000E+00  0.61247258342E+03  0.33827432778E+04  0.33268347446E+04 0.  0.
        1    1    3    3  502    0  0.67267379855E+03 -0.13440881741E+04 -0.41840733798E+03  0.15601691445E+04  0.50400001928E-02 0. -1.
       -1    1    3    3    0  502 -0.67267379855E+03  0.13440881741E+04  0.10308799214E+04  0.18225741333E+04  0.50400001928E-02 0.  1.
</event>
<event>
 5   0  0.2097842E-06  0.3405695E+04  0.7818609E-02  0.8136510E-01
       -1   -1    0    0    0  501  0.00000000000E+00  0.00000000000E+00  0.11769942125E+04  0.11769942125E+04  0.50400001928E-02 0.  1.
        1   -1    0    0  501    0  0.00000000000E+00  0.00000000000E+00 -0.24636399084E+04  0.24636399084E+04  0.50400001928E-02 0. -1.
    10030    2    1    2    0    0  0.00000000000E+00  0.00000000000E+00 -0.12866456959E+04  0.36406341209E+04  0.34056951795E+04 0.  0.
        4    1    3    3  502    0  0.53769459657E+03  0.80171751712E+03  0.85623819408E+03  0.12903534068E+04  0.12699999809E+01 0.  1.
       -4    1    3    3    0  502 -0.53769459657E+03 -0.80171751712E+03 -0.21428838900E+04  0.23502807141E+04  0.12699999809E+01 0. -1.
</event>
<event>
 5   0  0.5622811E-06  0.3172952E+04  0.7818609E-02  0.8195997E-01
        2   -1    0    0  501    0  0.00000000000E+00  0.00000000000E+00  0.19142176538E+04  0.19142176538E+04  0.25500000920E-02 0.  1.
       -2   -1    0    0    0  501  0.00000000000E+00  0.00000000000E+00 -0.13148482529E+04  0.13148482529E+04  0.25500000920E-02 0. -1.
    10030    2    1    2    0    0  0.00000000000E+00  0.00000000000E+00  0.59936940094E+03  0.32290659067E+04  0.31729517726E+04 0.  0.
        1    1    3    3  502    0 -0.11932501393E+04 -0.67219266345E+03 -0.51523704503E+03  0.14632696554E+04  0.50400001928E-02 0. -1.
       -1    1    3    3    0  502  0.11932501393E+04  0.67219266345E+03  0.11146064460E+04  0.17657962513E+04  0.50400001928E-02 0.  1.
</event>
<event>
 5   0  0.2037109E-06  0.2456168E+04  0.7818609E-02  0.8418769E-01
        1   -1    0    0  501    0  0.00000000000E+00  0.00000000000E+00  0.12675521449E+04  0.12675521449E+04  0.50400001928E-02 0.  1.
       -1   -1    0    0    0  501  0.00000000000E+00  0.00000000000E+00 -0.11898451455E+04  0.11898451455E+04  0.50400001928E-02 0. -1.
    10030    2    1    2    0    0  0.00000000000E+00  0.00000000000E+00  0.77706999422E+02  0.24573972904E+04  0.24561683707E+04 0.  0.
        2    1    3    3  502    0 -0.74890891055E+03  0.10897397596E+03  0.10065245203E+04  0.12592980162E+04  0.25500000920E-02 0.  1.
       -2    1    3    3    0  502  0.74890891055E+03 -0.10897397596E+03 -0.92881752085E+03  0.11980992742E+04  0.25500000920E-02 0. -1.
</event>
<event>
 5   0  0.5300268E-06  0.3278933E+04  0.7818609E-02  0.8168277E-01
        2   -1    0    0  501    0  0.00000000000E+00  0.00000000000E+00  0.15113957593E+04  0.15113957593E+04  0.25500000920E-02 0.  1.
       -2   -1    0    0    0  501  0.00000000000E+00  0.00000000000E+00 -0.17783892691E+04  0.17783892691E+04  0.25500000920E-02 0. -1.
    10030    2    1    2    0    0  0.00000000000E+00  0.00000000000E+00 -0.26699350980E+03  0.32897850284E+04  0.32789327530E+04 0.  0.
        4    1    3    3  502    0  0.13717213387E+04 -0.65779692681E+03  0.47969881541E+03  0.15951265763E+04  0.12699999809E+01 0.  1.
       -4    1    3    3    0  502 -0.13717213387E+04  0.65779692681E+03 -0.74669232521E+03  0.16946584521E+04  0.12699999809E+01 0. -1.
</event>
<event>
 5   0  0.5855568E-06  0.3325580E+04  0.7818609E-02  0.8156417E-01
        2   -1    0    0  501    0  0.00000000000E+00  0.00000000000E+00  0.17435728383E+04  0.17435728383E+04  0.25500000920E-02 0.  1.
       -2   -1    0    0    0  501  0.00000000000E+00  0.00000000000E+00 -0.15857497840E+04  0.15857497840E+04  0.25500000920E-02 0. -1.
    10030    2    1    2    0    0  0.00000000000E+00  0.00000000000E+00  0.15782305430E+03  0.33293226222E+04  0.33255798001E+04 0.  0.
        3    1    3    3  502    0  0.38961290252E+03  0.78074362131E+03 -0.13381360110E+04  0.15974876557E+04  0.10100000352E+00 0. -1.
       -3    1    3    3    0  502 -0.38961290252E+03 -0.78074362131E+03  0.14959590653E+04  0.17318349665E+04  0.10100000352E+00 0.  1.
</event>
<event>
 5   0  0.2037109E-06  0.2986369E+04  0.7818609E-02  0.8247634E-01
        1   -1    0    0  501    0  0.00000000000E+00  0.00000000000E+00  0.16388025236E+04  0.16388025237E+04  0.50400001928E-02 0.  1.
       -1   -1    0    0    0  501  0.00000000000E+00  0.00000000000E+00 -0.13605052474E+04  0.13605052474E+04  0.50400001928E-02 0. -1.
    10030    2    1    2    0    0  0.00000000000E+00  0.00000000000E+00  0.27829727623E+03  0.29993077711E+04  0.29863686530E+04 0.  0.
        2    1    3    3  502    0 -0.93150304198E+02 -0.59030121697E+03  0.15134585927E+04  0.16271722152E+04  0.25500000920E-02 0.  1.
       -2    1    3    3    0  502  0.93150304198E+02  0.59030121697E+03 -0.12351613165E+04  0.13721355559E+04  0.25500000920E-02 0. -1.
</event>
<event>
 5   0  0.2097842E-06  0.2973819E+04  0.7818609E-02  0.8251247E-01
       -1   -1    0    0    0  501  0.00000000000E+00  0.00000000000E+00  0.91613086219E+03  0.91613086220E+03  0.50400001928E-02 0. -1.
        1   -1    0    0  501    0  0.00000000000E+00  0.00000000000E+00 -0.24133018229E+04  0.24133018229E+04  0.50400001928E-02 0.  1.
    10030    2    1    2    0    0  0.00000000000E+00  0.00000000000E+00 -0.14971709607E+04  0.33294326851E+04  0.29738192815E+04 0.  0.
        4    1    3    3  502    0 -0.35638801427E+03  0.94652671204E+03 -0.19688641785E+04  0.22134482148E+04  0.12699999809E+01 0.  1.
       -4    1    3    3    0  502  0.35638801427E+03 -0.94652671204E+03  0.47169321780E+03  0.11159844703E+04  0.12699999809E+01 0. -1.
</event>
<event>
 5   0  0.2730981E-06  0.2359802E+04  0.7818609E-02  0.8454708E-01
        1   -1    0    0  501    0  0.00000000000E+00  0.00000000000E+00  0.21147575721E+04  0.21147575721E+04  0.50400001928E-02 0. -1.
       -1   -1    0    0    0  501  0.00000000000E+00  0.00000000000E+00 -0.65831039700E+03  0.65831039702E+03  0.50400001928E-02 0.  1.
    10030    2    1    2    0    0  0.00000000000E+00  0.00000000000E+00  0.14564471751E+04  0.27730679691E+04  0.23598024467E+04 0.  0.
        3    1    3    3  502    0  0.83206236732E+03 -0.72758139841E+03  0.24304488353E+03  0.11317125519E+04  0.10100000352E+00 0. -1.
       -3    1    3    3    0  502 -0.83206236732E+03  0.72758139841E+03  0.12134022915E+04  0.16413554173E+04  0.10100000352E+00 0.  1.
</event>
<event>
 5   0  0.2730981E-06  0.3138910E+04  0.7818609E-02  0.8205140E-01
       -1   -1    0    0    0  501  0.00000000000E+00  0.00000000000E+00  0.13528712737E+04  0.13528712737E+04  0.50400001928E-02 0.  1.
        1   -1    0    0  501    0  0.00000000000E+00  0.00000000000E+00 -0.18207115506E+04  0.18207115506E+04  0.50400001928E-02 0. -1.
    10030    2    1    2    0    0  0.00000000000E+00  0.00000000000E+00 -0.46784027688E+03  0.31735828244E+04  0.31389095907E+04 0.  0.
        3    1    3    3  502    0 -0.53106442665E+03  0.33241911540E+03 -0.16887930404E+04  0.18012645106E+04  0.10100000352E+00 0. -1.
       -3    1    3    3    0  502  0.53106442665E+03 -0.33241911540E+03  0.12209527635E+04  0.13723183138E+04  0.10100000352E+00 0.  1.
</event>
<event>
 5   0  0.5622811E-06  0.3361144E+04  0.7818609E-02  0.8147509E-01
        2   -1    0    0  501    0  0.00000000000E+00  0.00000000000E+00  0.22961489963E+04  0.22961489963E+04  0.25500000920E-02 0.  1.
       -2   -1    0    0    0  501  0.00000000000E+00  0.00000000000E+00 -0.12300258811E+04  0.12300258811E+04  0.25500000920E-02 0. -1.
    10030    2    1    2    0    0  0.00000000000E+00  0.00000000000E+00  0.10661231152E+04  0.35261748774E+04  0.33611442649E+04 0.  0.
        1    1    3    3  502    0  0.32386786803E+03 -0.14322882370E+04 -0.32436968063E+03  0.15038469601E+04  0.50400001928E-02 0. -1.
       -1    1    3    3    0  502 -0.32386786803E+03  0.14322882370E+04  0.13904927958E+04  0.20223279173E+04  0.50400001928E-02 0.  1.
</event>
<event>
 5   0  0.5755250E-06  0.3240858E+04  0.7818609E-02  0.8178109E-01
       -2   -1    0    0    0  501  0.00000000000E+00  0.00000000000E+00  0.12693057874E+04  0.12693057874E+04  0.25500000920E-02 0. -1.
        2   -1    0    0  501    0  0.00000000000E+00  0.00000000000E+00 -0.20686819666E+04  0.20686819666E+04  0.25500000920E-02 0.  1.
    10030    2    1    2    0    0  0.00000000000E+00  0.00000000000E+00 -0.79937617922E+03  0.33379877541E+04  0.32408579065E+04 0.  0.
        5    1    3    3  502    0  0.16197661037E+04 -0.24989944356E+00 -0.35220199194E+03  0.16576219793E+04  0.46999998093E+01 0. -1.
       -5    1    3    3    0  502 -0.16197661037E+04  0.24989944356E+00 -0.44717418727E+03  0.16803657747E+04  0.46999998093E+01 0.  1.
</event>
<event>
 5   0  0.5637538E-06  0.2140580E+04  0.7818609E-02  0.8543575E-01
        2   -1    0    0  501    0  0.00000000000E+00  0.00000000000E+00  0.17956715826E+04  0.17956715826E+04  0.25500000920E-02 0. -1.
       -2   -1    0    0    0  501  0.00000000000E+00  0.00000000000E+00 -0.63793414892E+03  0.63793414893E+03  0.25500000920E-02 0.  1.
    10030    2    1    2    0    0  0.00000000000E+00  0.00000000000E+00  0.11577374337E+04  0.24336057316E+04  0.21405795690E+04 0.  0.
        2    1    3    3  502    0 -0.56783393321E+02 -0.10063720339E+04  0.98800924799E+03  0.14114429845E+04  0.25500000920E-02 0.  1.
       -2    1    3    3    0  502  0.56783393321E+02  0.10063720339E+04  0.16972818571E+03  0.10221627470E+04  0.25500000920E-02 0. -1.
</event>
<event>
 5   0  0.1925906E-06  0.1874012E+04  0.7818609E-02  0.8667901E-01
        1   -1    0    0  501    0  0.00000000000E+00  0.00000000000E+00  0.10231357385E+04  0.10231357385E+04  0.50400001928E-02 0.  1.
       -1   -1    0    0    0  501  0.00000000000E+00  0.00000000000E+00 -0.85812686059E+03  0.85812686061E+03  0.50400001928E-02 0. -1.
    10030    2    1    2    0    0  0.00000000000E+00  0.00000000000E+00  0.16500887789E+03  0.18812625991E+04  0.18740120162E+04 0.  0.
        1    1    3    3  502    0 -0.43146829694E+03  0.62415083942E+03  0.63440520075E+03  0.98903949384E+03  0.50400001928E-02 0.  1.
       -1    1    3    3    0  502  0.43146829694E+03 -0.62415083942E+03 -0.46939632287E+03  0.89222310526E+03  0.50400001928E-02 0. -1.
</event>
<event>
 5   0  0.5637538E-06  0.3351614E+04  0.7818609E-02  0.8149885E-01
       -2   -1    0    0    0  501  0.00000000000E+00  0.00000000000E+00  0.13578546717E+04  0.13578546717E+04  0.25500000920E-02 0.  1.
        2   -1    0    0  501    0  0.00000000000E+00  0.00000000000E+00 -0.20682106059E+04  0.20682106059E+04  0.25500000920E-02 0. -1.
    10030    2    1    2    0    0  0.00000000000E+00  0.00000000000E+00 -0.71035593417E+03  0.34260652776E+04  0.33516141981E+04 0.  0.
        2    1    3    3  502    0 -0.82471037510E+03  0.12231301173E+04 -0.11679083807E+04  0.18815431094E+04  0.25500000920E-02 0. -1.
       -2    1    3    3    0  502  0.82471037510E+03 -0.12231301173E+04  0.45755244656E+03  0.15445221682E+04  0.25500000920E-02 0.  1.
</event>
<event>
 5   0  0.1925906E-06  0.2651905E+04  0.7818609E-02  0.8350781E-01
        1   -1    0    0  501    0  0.00000000000E+00  0.00000000000E+00  0.12144264342E+04  0.12144264342E+04  0.50400001928E-02 0. -1.
       -1   -1    0    0    0  501  0.00000000000E+00  0.00000000000E+00 -0.14477209368E+04  0.14477209368E+04  0.50400001928E-02 0.  1.
    10030    2    1    2    0    0  0.00000000000E+00  0.00000000000E+00 -0.23329450261E+03  0.26621473709E+04  0.26519054093E+04 0.  0.
        1    1    3    3  502    0 -0.10477450360E+04 -0.21450501005E+03 -0.90349107430E+03  0.14000279216E+04  0.50400001928E-02 0.  1.
       -1    1    3    3    0  502  0.10477450360E+04  0.21450501005E+03  0.67019657169E+03  0.12621194494E+04  0.50400001928E-02 0. -1.
</event>
<event>
 5   0  0.1999849E-06  0.3319530E+04  0.7818609E-02  0.8157944E-01
       -1   -1    0    0    0  501  0.00000000000E+00  0.00000000000E+00  0.13427580935E+04  0.13427580935E+04  0.50400001928E-02 0.  1.
        1   -1    0    0  501    0  0.00000000000E+00  0.00000000000E+00 -0.20516124031E+04  0.20516124031E+04  0.50400001928E-02 0. -1.
    10030    2    1    2    0    0  0.00000000000E+00  0.00000000000E+00 -0.70885430962E+03  0.33943704967E+04  0.33195295806E+04 0.  0.
        5    1    3    3  502    0  0.30500814611E+03 -0.15345609354E+04 -0.92089329184E+03  0.18154816932E+04  0.46999998093E+01 0. -1.
       -5    1    3    3    0  502 -0.30500814611E+03  0.15345609354E+04  0.21203898222E+03  0.15788888034E+04  0.46999998093E+01 0.  1.
</event>
<event>
 5   0  0.5300268E-06  0.3336651E+04  0.7818609E-02  0.8153632E-01
        2   -1    0    0  501    0  0.00000000000E+00  0.00000000000E+00  0.19220031048E+04  0.19220031048E+04  0.25500000920E-02 0. -1.
       -2   -1    0    0    0  501  0.00000000000E+00  0.00000000000E+00 -0.14481300611E+04  0.14481300611E+04  0.25500000920E-02 0.  1.
    10030    2    1    2    0    0  0.00000000000E+00  0.00000000000E+00  0.47387304371E+03  0.33701331659E+04  0.33366512995E+04 0.  0.
        4    1    3    3  502    0 -0.33686010673E+03 -0.15565922660E+04 -0.26489379258E+03  0.16145044281E+04  0.12699999809E+01 0. -1.
       -4    1    3    3    0  502  0.33686010673E+03  0.15565922660E+04  0.73876683628E+03  0.17556287379E+04  0.12699999809E+01 0.  1.
</event>
<event>
 5   0  0.1925906E-06  0.3250018E+04  0.7818609E-02  0.8175731E-01
       -1   -1    0    0    0  501  0.00000000000E+00  0.00000000000E+00  0.12636815270E+04  0.12636815270E+04  0.50400001928E-02 0.  1.
        1   -1    0    0  501    0  0.00000000000E+00  0.00000000000E+00 -0.20896516888E+04  0.20896516888E+04  0.50400001928E-02 0. -1.
    10030    2    1    2    0    0  0.00000000000E+00  0.00000000000E+00 -0.82597016184E+03  0.33533332158E+04  0.32500179919E+04 0.  0.
        1    1    3    3  502    0 -0.71536250004E+03  0.12114886276E+04  0.42600987575E+03  0.14700110936E+04  0.50400001928E-02 0.  1.
       -1    1    3    3    0  502  0.71536250004E+03 -0.12114886276E+04 -0.12519800376E+04  0.18833221221E+04  0.50400001928E-02 0. -1.
</event>
<event>
 5   0  0.1878000E-06  0.3297186E+04  0.7818609E-02  0.8163612E-01
       -3   -1    0    0    0  501  0.00000000000E+00  0.00000000000E+00  0.14480257849E+04  0.14480257885E+04  0.10100000352E+00 0.  1.
        3   -1    0    0  501    0  0.00000000000E+00  0.00000000000E+00 -0.18769408519E+04  0.18769408546E+04  0.10100000352E+00 0. -1.
    10030    2    1    2    0    0  0.00000000000E+00  0.00000000000E+00 -0.42891506697E+03  0.33249666431E+04  0.32971859279E+04 0.  0.
        5    1    3    3  502    0 -0.12561648429E+04 -0.47700098259E+03 -0.11776790361E+04  0.17867372644E+04  0.46999998093E+01 0. -1.
       -5    1    3    3    0  502  0.12561648429E+04  0.47700098259E+03  0.74876396912E+03  0.15382293787E+04  0.46999998093E+01 0.  1.
</event>
<event>
 5   0  0.1925906E-06  0.2365610E+04  0.7818609E-02  0.8452492E-01
        1   -1    0    0  501    0  0.00000000000E+00  0.00000000000E+00  0.73668174720E+03  0.73668174722E+03  0.50400001928E-02 0. -1.
       -1   -1    0    0    0  501  0.00000000000E+00  0.00000000000E+00 -0.18990935998E+04  0.18990935999E+04  0.50400001928E-02 0.  1.
    10030    2    1    2    0    0  0.00000000000E+00  0.00000000000E+00 -0.11624118526E+04  0.26357753471E+04  0.23656099351E+04 0.  0.
        1    1    3    3  502    0 -0.48854899431E+03  0.74572369712E+03 -0.14473124299E+04  0.16998521177E+04  0.50400001928E-02 0.  1.
       -1    1    3    3    0  502  0.48854899431E+03 -0.74572369712E+03  0.28490057728E+03  0.93592322935E+03  0.50400001928E-02 0. -1.
</event>
<event>
 5   0  0.2037109E-06  0.3252032E+04  0.7818609E-02  0.8175209E-01
       -1   -1    0    0    0  501  0.00000000000E+00  0.00000000000E+00  0.11481419384E+04  0.11481419384E+04  0.50400001928E-02 0.  1.
        1   -1    0    0  501    0  0.00000000000E+00  0.00000000000E+00 -0.23027885627E+04  0.23027885627E+04  0.50400001928E-02 0. -1.
    10030    2    1    2    0    0  0.00000000000E+00  0.00000000000E+00 -0.11546466244E+04  0.34509305011E+04  0.32520320565E+04 0.  0.
        2    1    3    3  502    0 -0.21505224847E+03 -0.76321577192E+03 -0.20837172851E+04  0.22294895174E+04  0.25500000920E-02 0. -1.
       -2    1    3    3    0  502  0.21505224847E+03  0.76321577192E+03  0.92907066072E+03  0.12214409837E+04  0.25500000920E-02 0.  1.
</event>
<event>
 5   0  0.2097842E-06  0.3271063E+04  0.7818609E-02  0.8170298E-01
       -1   -1    0    0    0  501  0.00000000000E+00  0.00000000000E+00  0.12336391892E+04  0.12336391893E+04  0.50400001928E-02 0.  1.
        1   -1    0    0  501    0  0.00000000000E+00  0.00000000000E+00 -0.21683514401E+04  0.21683514402E+04  0.50400001928E-02 0. -1.
    10030    2    1    2    0    0  0.00000000000E+00  0.00000000000E+00 -0.93471225090E+03  0.34019906294E+04  0.32710630154E+04 0.  0.
        4    1    3    3  502    0 -0.14175791783E+04 -0.75989055434E+03 -0.77587299889E+03  0.17857617155E+04  0.12699999809E+01 0.  1.
       -4    1    3    3    0  502  0.14175791783E+04  0.75989055434E+03 -0.15883925201E+03  0.16162289139E+04  0.12699999809E+01 0. -1.
</event>
<event>
 5   0  0.1878000E-06  0.2231955E+04  0.7818609E-02  0.8505244E-01
       -3   -1    0    0    0  501  0.00000000000E+00  0.00000000000E+00  0.55562949351E+03  0.55562950269E+03  0.10100000352E+00 0. -1.
        3   -1    0    0  501    0  0.00000000000E+00  0.00000000000E+00 -0.22414329149E+04  0.22414329172E+04  0.10100000352E+00 0.  1.
    10030    2    1    2    0    0  0.00000000000E+00  0.00000000000E+00 -0.16858034214E+04  0.27970624198E+04  0.22319554218E+04 0.  0.
        2    1    3    3  502    0 -0.39462311136E+02  0.10813490110E+04 -0.50077120544E+03  0.11923274541E+04  0.25500000920E-02 0. -1.
       -2    1    3    3    0  502  0.39462311136E+02 -0.10813490110E+04 -0.11850322159E+04  0.16047349658E+04  0.25500000920E-02 0.  1.
</event>
<event>
 5   0  0.5622811E-06  0.3312127E+04  0.7818609E-02  0.8159817E-01
        2   -1    0    0  501    0  0.00000000000E+00  0.00000000000E+00  0.19702443420E+04  0.19702443420E+04  0.25500000920E-02 0. -1.
       -2   -1    0    0    0  501  0.00000000000E+00  0.00000000000E+00 -0.13919825599E+04  0.13919825599E+04  0.25500000920E-02 0.  1.
    10030    2    1    2    0    0  0.00000000000E+00  0.00000000000E+00  0.57826178216E+03  0.33622269019E+04  0.33121266659E+04 0.  0.
        1    1    3    3  502    0 -0.43812798142E+03 -0.13951481188E+04 -0.49989810008E+03  0.15454101436E+04  0.50400001928E-02 0.  1.
       -1    1    3    3    0  502  0.43812798142E+03  0.13951481188E+04  0.10781598822E+04  0.18168167583E+04  0.50400001928E-02 0. -1.
</event>
<event>
 5   0  0.2037109E-06  0.3286348E+04  0.7818609E-02  0.8166378E-01
       -1   -1    0    0    0  501  0.00000000000E+00  0.00000000000E+00  0.12356424441E+04  0.12356424441E+04  0.50400001928E-02 0. -1.
        1   -1    0    0  501    0  0.00000000000E+00  0.00000000000E+00 -0.21851151892E+04  0.21851151893E+04  0.50400001928E-02 0.  1.
    10030    2    1    2    0    0  0.00000000000E+00  0.00000000000E+00 -0.94947274520E+03  0.34207576333E+04  0.32863481696E+04 0.  0.
        2    1    3    3  502    0 -0.35544129351E+03  0.16041762980E+04 -0.49279424864E+03  0.17153909990E+04  0.25500000920E-02 0. -1.
       -2    1    3    3    0  502  0.35544129351E+03 -0.16041762980E+04 -0.45667849656E+03  0.17053666343E+04  0.25500000920E-02 0.  1.
</event>
<event>
 5   0  0.5855568E-06  0.3344280E+04  0.7818609E-02  0.8151719E-01
        2   -1    0    0  501    0  0.00000000000E+00  0.00000000000E+00  0.20242228166E+04  0.20242228166E+04  0.25500000920E-02 0. -1.
       -2   -1    0    0    0  501  0.00000000000E+00  0.00000000000E+00 -0.13812963951E+04  0.13812963951E+04  0.25500000920E-02 0.  1.
    10030    2    1    2    0    0  0.00000000000E+00  0.00000000000E+00  0.64292642151E+03  0.34055192117E+04  0.33442797009E+04 0.  0.
        3    1    3    3  502    0 -0.12299675479E+04 -0.74369504726E+03 -0.54867159679E+03  0.15384872517E+04  0.10100000352E+00 0.  1.
       -3    1    3    3    0  502  0.12299675479E+04  0.74369504726E+03  0.11915980183E+04  0.18670319600E+04  0.10100000352E+00 0. -1.
</event>
<event>
 5   0  0.2097842E-06  0.3279533E+04  0.7818609E-02  0.8168123E-01
        1   -1    0    0  501    0  0.00000000000E+00  0.00000000000E+00  0.21321987964E+04  0.21321987964E+04  0.50400001928E-02 0.  1.
       -1   -1    0    0    0  501  0.00000000000E+00  0.00000000000E+00 -0.12610616367E+04  0.12610616367E+04  0.50400001928E-02 0. -1.
    10030    2    1    2    0    0  0.00000000000E+00  0.00000000000E+00  0.87113715976E+03  0.33932604331E+04  0.32795329569E+04 0.  0.
        4    1    3    3  502    0 -0.87770087359E+03 -0.55097459808E+03 -0.87928713841E+03  0.13590729619E+04  0.12699999809E+01 0. -1.
       -4    1    3    3    0  502  0.87770087359E+03  0.55097459808E+03  0.17504242982E+04  0.20341874711E+04  0.12699999809E+01 0.  1.
</event>
<event>
 5   0  0.5622811E-06  0.3044748E+04  0.7818609E-02  0.8231067E-01
       -2   -1    0    0    0  501  0.00000000000E+00  0.00000000000E+00  0.12884866234E+04  0.12884866234E+04  0.25500000920E-02 0. -1.
        2   -1    0    0  501    0  0.00000000000E+00  0.00000000000E+00 -0.17987168172E+04  0.17987168173E+04  0.25500000920E-02 0.  1.
    10030    2    1    2    0    0  0.00000000000E+00  0.00000000000E+00 -0.51023019389E+03  0.30872034406E+04  0.30447479753E+04 0.  0.
        1    1    3    3  502    0  0.10564665162E+04  0.10840076716E+04 -0.41995014205E+03  0.15708444397E+04  0.50400001928E-02 0.  1.
       -1    1    3    3    0  502 -0.10564665162E+04 -0.10840076716E+04 -0.90280051840E+02  0.15163590009E+04  0.50400001928E-02 0. -1.
</event>
<event>
 5   0  0.2730981E-06  0.3093645E+04  0.7818609E-02  0.8217484E-01
        1   -1    0    0  501    0  0.00000000000E+00  0.00000000000E+00  0.12786242282E+04  0.12786242283E+04  0.50400001928E-02 0.  1.
       -1   -1    0    0    0  501  0.00000000000E+00  0.00000000000E+00 -0.18712773908E+04  0.18712773908E+04  0.50400001928E-02 0. -1.
    10030    2    1    2    0    0  0.00000000000E+00  0.00000000000E+00 -0.59265316251E+03  0.31499016190E+04  0.30936454933E+04 0.  0.
        3    1    3    3  502    0  0.94392951080E+01 -0.31968990975E+03 -0.18372436084E+04  0.18648739435E+04  0.10100000352E+00 0. -1.
       -3    1    3    3    0  502 -0.94392951080E+01  0.31968990975E+03  0.12445904458E+04  0.12850276755E+04  0.10100000352E+00 0.  1.
</event>
<event>
 5   0  0.5300268E-06  0.3222247E+04  0.7818609E-02  0.8182966E-01
        2   -1    0    0  501    0  0.00000000000E+00  0.00000000000E+00  0.18444237332E+04  0.18444237332E+04  0.25500000920E-02 0. -1.
       -2   -1    0    0    0  501  0.00000000000E+00  0.00000000000E+00 -0.14073335290E+04  0.14073335290E+04  0.25500000920E-02 0.  1.
    10030    2    1    2    0    0  0.00000000000E+00  0.00000000000E+00  0.43709020412E+03  0.32517572622E+04  0.32222472664E+04 0.  0.
        4    1    3    3  502    0  0.52425131084E+03 -0.58396451839E+03 -0.12014175028E+04  0.14350120643E+04  0.12699999809E+01 0.  1.
       -4    1    3    3    0  502 -0.52425131084E+03  0.58396451839E+03  0.16385077069E+04  0.18167451979E+04  0.12699999809E+01 0. -1.
</event>
<event>
 5   0  0.5637538E-06  0.3067134E+04  0.7818609E-02  0.8224816E-01
       -2   -1    0    0    0  501  0.00000000000E+00  0.00000000000E+00  0.13099704518E+04  0.13099704518E+04  0.25500000920E-02 0. -1.
        2   -1    0    0  501    0  0.00000000000E+00  0.00000000000E+00 -0.17953293014E+04  0.17953293014E+04  0.25500000920E-02 0.  1.
    10030    2    1    2    0    0  0.00000000000E+00  0.00000000000E+00 -0.48535884965E+03  0.31052997532E+04  0.30671343864E+04 0.  0.
        2    1    3    3  502    0  0.30393098360E+03  0.12377887840E+04 -0.11061299055E+04  0.16876073253E+04  0.25500000920E-02 0.  1.
       -2    1    3    3    0  502 -0.30393098360E+03 -0.12377887840E+04  0.62077105583E+03  0.14176924280E+04  0.25500000920E-02 0. -1.
</event>
<event>
 5   0  0.5755250E-06  0.1674326E+04  0.7818609E-02  0.8776144E-01
       -2   -1    0    0    0  501  0.00000000000E+00  0.00000000000E+00  0.95511134982E+03  0.95511134983E+03  0.25500000920E-02 0. -1.
        2   -1    0    0  501    0  0.00000000000E+00  0.00000000000E+00 -0.73378059920E+03  0.73378059920E+03  0.25500000920E-02 0.  1.
    10030    2    1    2    0    0  0.00000000000E+00  0.00000000000E+00  0.22133075063E+03  0.16888919490E+04  0.16743263464E+04 0.  0.
        5    1    3    3  502    0 -0.40967613440E+03  0.15938896716E+03  0.82931021096E+03  0.93862500178E+03  0.46999998093E+01 0. -1.
       -5    1    3    3    0  502  0.40967613440E+03 -0.15938896716E+03 -0.60797946034E+03  0.75026694726E+03  0.46999998093E+01 0.  1.
</event>
<event>
 5   0  0.5637538E-06  0.3258542E+04  0.7818609E-02  0.8173525E-01
        2   -1    0    0  501    0  0.00000000000E+00  0.00000000000E+00  0.17519740299E+04  0.17519740299E+04  0.25500000920E-02 0. -1.
       -2   -1    0    0    0  501  0.00000000000E+00  0.00000000000E+00 -0.15151620245E+04  0.15151620245E+04  0.25500000920E-02 0.  1.
    10030    2    1    2    0    0  0.00000000000E+00  0.00000000000E+00  0.23681200538E+03  0.32671360544E+04  0.32585423232E+04 0.  0.
        2    1    3    3  502    0  0.60428252100E+03 -0.12885991634E+03  0.16299502340E+04  0.17431293723E+04  0.25500000920E-02 0. -1.
       -2    1    3    3    0  502 -0.60428252100E+03  0.12885991634E+03 -0.13931382286E+04  0.15240066821E+04  0.25500000920E-02 0.  1.
</event>
<event>
 5   0  0.5855568E-06  0.2590078E+04  0.7818609E-02  0.8371579E-01
        2   -1    0    0  501    0  0.00000000000E+00  0.00000000000E+00  0.20280296638E+04  0.20280296638E+04  0.25500000920E-02 0.  1.
       -2   -1    0    0    0  501  0.00000000000E+00  0.00000000000E+00 -0.82697325536E+03  0.82697325536E+03  0.25500000920E-02 0. -1.
    10030    2    1    2    0    0  0.00000000000E+00  0.00000000000E+00  0.12010564084E+04  0.28550029191E+04  0.25900782174E+04 0.  0.
        3    1    3    3  502    0 -0.55695799663E+01 -0.23383716646E+03  0.20045527901E+04  0.20181532993E+04  0.10100000352E+00 0.  1.
       -3    1    3    3    0  502  0.55695799663E+01  0.23383716646E+03 -0.80349638173E+03  0.83684961988E+03  0.10100000352E+00 0. -1.
</event>
<event>
 5   0  0.5855568E-06  0.3296911E+04  0.7818609E-02  0.8163682E-01
       -2   -1    0    0    0  501  0.00000000000E+00  0.00000000000E+00  0.11821383204E+04  0.11821383204E+04  0.25500000920E-02 0. -1.
        2   -1    0    0  501    0  0.00000000000E+00  0.00000000000E+00 -0.22987210509E+04  0.22987210509E+04  0.25500000920E-02 0.  1.
    10030    2    1    2    0    0  0.00000000000E+00  0.00000000000E+00 -0.11165827305E+04  0.34808593713E+04  0.32969114287E+04 0.  0.
        3    1    3    3  502    0  0.11783913622E+04 -0.11523706958E+04 -0.52765861492E+03  0.17306033766E+04  0.10100000352E+00 0.  1.
       -3    1    3    3    0  502 -0.11783913622E+04  0.11523706958E+04 -0.58892411556E+03  0.17502559947E+04  0.10100000352E+00 0. -1.
</event>
<event>
 5   0  0.5637538E-06  0.3471863E+04  0.7818609E-02  0.8120491E-01
        2   -1    0    0  501    0  0.00000000000E+00  0.00000000000E+00  0.15184919740E+04  0.15184919740E+04  0.25500000920E-02 0.  1.
       -2   -1    0    0    0  501  0.00000000000E+00  0.00000000000E+00 -0.19845070954E+04  0.19845070954E+04  0.25500000920E-02 0. -1.
    10030    2    1    2    0    0  0.00000000000E+00  0.00000000000E+00 -0.46601512133E+03  0.35029990694E+04  0.34718629563E+04 0.  0.
        2    1    3    3  502    0  0.12583569449E+04 -0.11835261075E+04 -0.40560260773E+03  0.17744604034E+04  0.25500000920E-02 0.  1.
       -2    1    3    3    0  502 -0.12583569449E+04  0.11835261075E+04 -0.60412513599E+02  0.17285386660E+04  0.25500000920E-02 0. -1.
</event>
<event>
 5   0  0.6553031E-06  0.1717641E+04  0.7818609E-02  0.8751366E-01
        2   -1    0    0  501    0  0.00000000000E+00  0.00000000000E+00  0.16071664132E+04  0.16071664132E+04  0.25500000920E-02 0.  1.
       -2   -1    0    0    0  501  0.00000000000E+00  0.00000000000E+00 -0.45892761342E+03  0.45892761343E+03  0.25500000920E-02 0. -1.
    10030    2    1    2    0    0  0.00000000000E+00  0.00000000000E+00  0.11482387998E+04  0.20660940266E+04  0.17176414601E+04 0.  0.
        5    1    3    3  502    0  0.53597381871E+03  0.66937898146E+03  0.51751047029E+03  0.10015864077E+04  0.46999998093E+01 0.  1.
       -5    1    3    3    0  502 -0.53597381871E+03 -0.66937898146E+03  0.63072832946E+03  0.10645076189E+04  0.46999998093E+01 0. -1.
</event>
<event>
 5   0  0.5855568E-06  0.3239292E+04  0.7818609E-02  0.8178517E-01
       -2   -1    0    0    0  501  0.00000000000E+00  0.00000000000E+00  0.16329821505E+04  0.16329821505E+04  0.25500000920E-02 0.  1.
        2   -1    0    0  501    0  0.00000000000E+00  0.00000000000E+00 -0.16064184731E+04  0.16064184731E+04  0.25500000920E-02 0. -1.
    10030    2    1    2    0    0  0.00000000000E+00  0.00000000000E+00  0.26563677325E+02  0.32394006236E+04  0.32392917083E+04 0.  0.
        3    1    3    3  502    0  0.38071714878E+03 -0.39764826013E+03 -0.15099840682E+04  0.16072092529E+04  0.10100000352E+00 0. -1.
       -3    1    3    3    0  502 -0.38071714878E+03  0.39764826013E+03  0.15365477455E+04  0.16321913707E+04  0.10100000352E+00 0.  1.
</event>
<event>
 5   0  0.2097842E-06  0.3301770E+04  0.7818609E-02  0.8162445E-01
       -1   -1    0    0    0  501  0.00000000000E+00  0.00000000000E+00  0.15616197992E+04  0.15616197992E+04  0.50400001928E-02 0.  1.
        1   -1    0    0  501    0  0.00000000000E+00  0.00000000000E+00 -0.17452524920E+04  0.17452524920E+04  0.50400001928E-02 0. -1.
    10030    2    1    2    0    0  0.00000000000E+00  0.00000000000E+00 -0.18363269280E+03  0.33068722912E+04  0.33017697352E+04 0.  0.
        4    1    3    3  502    0 -0.30411225232E+03  0.82119923250E+02 -0.17148735220E+04  0.17435655287E+04  0.12699999809E+01 0. -1.
       -4    1    3    3    0  502  0.30411225232E+03 -0.82119923250E+02  0.15312408292E+04  0.15633067625E+04  0.12699999809E+01 0.  1.
</event>
<event>
 5   0  0.5622811E-06  0.2282442E+04  0.7818609E-02  0.8484876E-01
        2   -1    0    0  501    0  0.00000000000E+00  0.00000000000E+00  0.15653485506E+04  0.15653485506E+04  0.25500000920E-02 0.  1.
       -2   -1    0    0    0  501  0.00000000000E+00  0.00000000000E+00 -0.83201012138E+03  0.83201012139E+03  0.25500000920E-02 0. -1.
    10030    2    1    2    0    0  0.00000000000E+00  0.00000000000E+00  0.73333842918E+03  0.23973586720E+04  0.22824424090E+04 0.  0.
        1    1    3    3  502    0  0.23542271364E+03  0.50378410841E+03 -0.68008224084E+03  0.87848399890E+03  0.50400001928E-02 0. -1.
       -1    1    3    3    0  502 -0.23542271364E+03 -0.50378410841E+03  0.14134206700E+04  0.15188746731E+04  0.50400001928E-02 0.  1.
</event>
<event>
 5   0  0.5637538E-06  0.3310196E+04  0.7818609E-02  0.8160306E-01
        2   -1    0    0  501    0  0.00000000000E+00  0.00000000000E+00  0.10068347230E+04  0.10068347230E+04  0.25500000920E-02 0.  1.
       -2   -1    0    0    0  501  0.00000000000E+00  0.00000000000E+00 -0.27207543781E+04  0.27207543781E+04  0.25500000920E-02 0. -1.
    10030    2    1    2    0    0  0.00000000000E+00  0.00000000000E+00 -0.17139196551E+04  0.37275891011E+04  0.33101963571E+04 0.  0.
        2    1    3    3  502    0 -0.66611526830E+03  0.14057741213E+04 -0.22050348391E+03  0.15711563312E+04  0.25500000920E-02 0.  1.
       -2    1    3    3    0  502  0.66611526830E+03 -0.14057741213E+04 -0.14934161712E+04  0.21564327699E+04  0.25500000920E-02 0. -1.
</event>
<event>
 5   0  0.2037109E-06  0.3296426E+04  0.7818609E-02  0.8163805E-01
        1   -1    0    0  501    0  0.00000000000E+00  0.00000000000E+00  0.22204709444E+04  0.22204709444E+04  0.50400001928E-02 0.  1.
       -1   -1    0    0    0  501  0.00000000000E+00  0.00000000000E+00 -0.12234367056E+04  0.12234367056E+04  0.50400001928E-02 0. -1.
    10030    2    1    2    0    0  0.00000000000E+00  0.00000000000E+00  0.99703423885E+03  0.34439076500E+04  0.32964257353E+04 0.  0.
        2    1    3    3  502    0  0.99650688664E+03 -0.71846655886E+03 -0.64945456629E+03  0.13896083639E+04  0.25500000920E-02 0. -1.
       -2    1    3    3    0  502 -0.99650688664E+03  0.71846655886E+03  0.16464888051E+04  0.20542992861E+04  0.25500000920E-02 0.  1.
</event>
<event>
 5   0  0.5755250E-06  0.3286170E+04  0.7818609E-02  0.8166423E-01
       -2   -1    0    0    0  501  0.00000000000E+00  0.00000000000E+00  0.11538181459E+04  0.11538181459E+04  0.25500000920E-02 0. -1.
        2   -1    0    0  501    0  0.00000000000E+00  0.00000000000E+00 -0.23398208350E+04  0.23398208350E+04  0.25500000920E-02 0.  1.
    10030    2    1    2    0    0  0.00000000000E+00  0.00000000000E+00 -0.11860026891E+04  0.34936389809E+04  0.32861696472E+04 0.  0.
        5    1    3    3  502    0  0.93809370933E+03  0.73320819631E+03  0.61077988982E+03  0.13381659951E+04  0.46999998093E+01 0. -1.
       -5    1    3    3    0  502 -0.93809370933E+03 -0.73320819631E+03 -0.17967825789E+04  0.21554729858E+04  0.46999998093E+01 0.  1.
</event>
<event>
 5   0  0.2730981E-06  0.1865186E+04  0.7818609E-02  0.8672382E-01
        1   -1    0    0  501    0  0.00000000000E+00  0.00000000000E+00  0.11780239020E+04  0.11780239021E+04  0.50400001928E-02 0.  1.
       -1   -1    0    0    0  501  0.00000000000E+00  0.00000000000E+00 -0.73829533139E+03  0.73829533141E+03  0.50400001928E-02 0. -1.
    10030    2    1    2    0    0  0.00000000000E+00  0.00000000000E+00  0.43972857066E+03  0.19163192335E+04  0.18651858322E+04 0.  0.
        3    1    3    3  502    0 -0.21054229882E+03 -0.62193668409E+03  0.90028605770E+03  0.11142927329E+04  0.10100000352E+00 0.  1.
       -3    1    3    3    0  502  0.21054229882E+03  0.62193668409E+03 -0.46055748704E+03  0.80202650061E+03  0.10100000352E+00 0. -1.
</event>
<event>
 5   0  0.2730981E-06  0.3179798E+04  0.7818609E-02  0.8194173E-01
       -1   -1    0    0    0  501  0.00000000000E+00  0.00000000000E+00  0.14445844993E+04  0.14445844993E+04  0.50400001928E-02 0. -1.
        1   -1    0    0  501    0  0.00000000000E+00  0.00000000000E+00 -0.17498315703E+04  0.17498315703E+04  0.50400001928E-02 0.  1.
    10030    2    1    2    0    0  0.00000000000E+00  0.00000000000E+00 -0.30524707098E+03  0.31944160697E+04  0.31797984609E+04 0.  0.
        3    1    3    3  502    0 -0.11994675433E+04 -0.10219338170E+04 -0.36503924889E+03  0.16175057271E+04  0.10100000352E+00 0.  1.
       -3    1    3    3    0  502  0.11994675433E+04  0.10219338170E+04  0.59792177910E+02  0.15769103426E+04  0.10100000352E+00 0. -1.
</event>
<event>
 5   0  0.2097842E-06  0.2640962E+04  0.7818609E-02  0.8354419E-01
        1   -1    0    0  501    0  0.00000000000E+00  0.00000000000E+00  0.16504017926E+04  0.16504017926E+04  0.50400001928E-02 0.  1.
       -1   -1    0    0    0  501  0.00000000000E+00  0.00000000000E+00 -0.10565125453E+04  0.10565125454E+04  0.50400001928E-02 0. -1.
    10030    2    1    2    0    0  0.00000000000E+00  0.00000000000E+00  0.59388924727E+03  0.27069143380E+04  0.26409620965E+04 0.  0.
        4    1    3    3  502    0  0.12917281752E+04 -0.20771967359E+02  0.16852292364E+02  0.12920057143E+04  0.12699999809E+01 0. -1.
       -4    1    3    3    0  502 -0.12917281752E+04  0.20771967359E+02  0.57703695491E+03  0.14149086237E+04  0.12699999809E+01 0.  1.
</event>
<event>
 5   0  0.5300268E-06  0.2383206E+04  0.7818609E-02  0.8445818E-01
       -2   -1    0    0    0  501  0.00000000000E+00  0.00000000000E+00  0.11871567472E+04  0.11871567472E+04  0.25500000920E-02 0.  1.
        2   -1    0    0  501    0  0.00000000000E+00  0.00000000000E+00 -0.11960657263E+04  0.11960657263E+04  0.25500000920E-02 0. -1.
    10030    2    1    2    0    0  0.00000000000E+00  0.00000000000E+00 -0.89089790695E+01  0.23832224735E+04  0.23832058216E+04 0.  0.
        4    1    3    3  502    0  0.38610765513E+03  0.26567650270E+03 -0.11000226214E+04  0.11957066973E+04  0.12699999809E+01 0. -1.
       -4    1    3    3    0  502 -0.38610765513E+03 -0.26567650270E+03  0.10911136423E+04  0.11875157762E+04  0.12699999809E+01 0.  1.
</event>
<event>
 5   0  0.5637538E-06  0.3248110E+04  0.7818609E-02  0.8176226E-01
       -2   -1    0    0    0  501  0.00000000000E+00  0.00000000000E+00  0.17482605260E+04  0.17482605260E+04  0.25500000920E-02 0.  1.
        2   -1    0    0  501    0  0.00000000000E+00  0.00000000000E+00 -0.15086740139E+04  0.15086740139E+04  0.25500000920E-02 0. -1.
    10030    2    1    2    0    0  0.00000000000E+00  0.00000000000E+00  0.23958651207E+03  0.32569345400E+04  0.32481103585E+04 0.  0.
        2    1    3    3  502    0 -0.72640728641E+03  0.13324212109E+04 -0.46017361425E+03  0.15858037660E+04  0.25500000920E-02 0. -1.
       -2    1    3    3    0  502  0.72640728641E+03 -0.13324212109E+04  0.69976012632E+03  0.16711307739E+04  0.25500000920E-02 0.  1.
</event>
<event>
 5   0  0.5300268E-06  0.3150629E+04  0.7818609E-02  0.8201979E-01
       -2   -1    0    0    0  501  0.00000000000E+00  0.00000000000E+00  0.20954600129E+04  0.20954600129E+04  0.25500000920E-02 0.  1.
        2   -1    0    0  501    0  0.00000000000E+00  0.00000000000E+00 -0.11842823483E+04  0.11842823483E+04  0.25500000920E-02 0. -1.
    10030    2    1    2    0    0  0.00000000000E+00  0.00000000000E+00  0.91117766460E+03  0.32797423612E+04  0.31506293370E+04 0.  0.
        4    1    3    3  502    0 -0.12646686402E+04  0.64768613459E+03  0.11637082827E+04  0.18366008490E+04  0.12699999809E+01 0.  1.
       -4    1    3    3    0  502  0.12646686402E+04 -0.64768613459E+03 -0.25253061806E+03  0.14431415122E+04  0.12699999809E+01 0. -1.
</event>
<event>
 5   0  0.5622811E-06  0.3349731E+04  0.7818609E-02  0.8150355E-01
        2   -1    0    0  501    0  0.00000000000E+00  0.00000000000E+00  0.89709070900E+03  0.89709070900E+03  0.25500000920E-02 0.  1.
       -2   -1    0    0    0  501  0.00000000000E+00  0.00000000000E+00 -0.31269689601E+04  0.31269689601E+04  0.25500000920E-02 0. -1.
    10030    2    1    2    0    0  0.00000000000E+00  0.00000000000E+00 -0.22298782511E+04  0.40240596691E+04  0.33497312139E+04 0.  0.
        1    1    3    3  502    0  0.14726508282E+04 -0.33131955654E+03 -0.19867791605E+04  0.24951482006E+04  0.50400001928E-02 0. -1.
       -1    1    3    3    0  502 -0.14726508282E+04  0.33131955654E+03 -0.24309909053E+03  0.15289114684E+04  0.50400001928E-02 0.  1.
</event>
<event>
 5   0  0.5855568E-06  0.3264336E+04  0.7818609E-02  0.8172030E-01
        2   -1    0    0  501    0  0.00000000000E+00  0.00000000000E+00  0.15711239145E+04  0.15711239145E+04  0.25500000920E-02 0.  1.
       -2   -1    0    0    0  501  0.00000000000E+00  0.00000000000E+00 -0.16955842464E+04  0.16955842464E+04  0.25500000920E-02 0. -1.
    10030    2    1    2    0    0  0.00000000000E+00  0.00000000000E+00 -0.12446033193E+03  0.32667081609E+04  0.32643363544E+04 0.  0.
        3    1    3    3  502    0  0.11439307233E+04  0.11641207089E+04 -0.47440260469E+02  0.16327905907E+04  0.10100000352E+00 0. -1.
       -3    1    3    3    0  502 -0.11439307233E+04 -0.11641207089E+04 -0.77020071460E+02  0.16339175702E+04  0.10100000352E+00 0.  1.
</event>
<event>
 5   0  0.1925906E-06  0.3367266E+04  0.7818609E-02  0.8145987E-01
        1   -1    0    0  501    0  0.00000000000E+00  0.00000000000E+00  0.22404875190E+04  0.22404875190E+04  0.50400001928E-02 0.  1.
       -1   -1    0    0    0  501  0.00000000000E+00  0.00000000000E+00 -0.12651800227E+04  0.12651800227E+04  0.50400001928E-02 0. -1.
    10030    2    1    2    0    0  0.00000000000E+00  0.00000000000E+00  0.97530749630E+03  0.35056675417E+04  0.33672659830E+04 0.  0.
        1    1    3    3  502    0  0.11028675910E+04 -0.47823144786E+03 -0.73960988429E+03  0.14113982507E+04  0.50400001928E-02 0. -1.
       -1    1    3    3    0  502 -0.11028675910E+04  0.47823144786E+03  0.17149173806E+04  0.20942692910E+04  0.50400001928E-02 0.  1.
</event>
<event>
 5   0  0.5637538E-06  0.3284563E+04  0.7818609E-02  0.8166835E-01
        2   -1    0    0  501    0  0.00000000000E+00  0.00000000000E+00  0.23869599524E+04  0.23869599524E+04  0.25500000920E-02 0.  1.
       -2   -1    0    0    0  501  0.00000000000E+00  0.00000000000E+00 -0.11299259359E+04  0.11299259359E+04  0.25500000920E-02 0. -1.
    10030    2    1    2    0    0  0.00000000000E+00  0.00000000000E+00  0.12570340165E+04  0.35168858883E+04  0.32845626547E+04 0.  0.
        2    1    3    3  502    0 -0.13092158016E+04  0.33184804718E+03  0.16289031205E+04  0.21160091014E+04  0.25500000920E-02 0.  1.
       -2    1    3    3    0  502  0.13092158016E+04 -0.33184804718E+03 -0.37186910399E+03  0.14008767869E+04  0.25500000920E-02 0. -1.
</event>
<event>
 5   0  0.2037109E-06  0.3278929E+04  0.7818609E-02  0.8168278E-01
        1   -1    0    0  501    0  0.00000000000E+00  0.00000000000E+00  0.28594617974E+04  0.28594617974E+04  0.50400001928E-02 0.  1.
       -1   -1    0    0    0  501  0.00000000000E+00  0.00000000000E+00 -0.93998222822E+03  0.93998222823E+03  0.50400001928E-02 0. -1.
    10030    2    1    2    0    0  0.00000000000E+00  0.00000000000E+00  0.19194795692E+04  0.37994440257E+04  0.32789286494E+04 0.  0.
        2    1    3    3  502    0 -0.12004925033E+03  0.13483395589E+04  0.20314459372E+04  0.24411480873E+04  0.25500000920E-02 0.  1.
       -2    1    3    3    0  502  0.12004925033E+03 -0.13483395589E+04 -0.11196636799E+03  0.13582959383E+04  0.25500000920E-02 0. -1.
</event>
<event>
 5   0  0.5637538E-06  0.3870402E+04  0.7818609E-02  0.8031213E-01
       -2   -1    0    0    0  501  0.00000000000E+00  0.00000000000E+00  0.11961977495E+04  0.11961977495E+04  0.25500000920E-02 0.  1.
        2   -1    0    0  501    0  0.00000000000E+00  0.00000000000E+00 -0.31307551951E+04  0.31307551951E+04  0.25500000920E-02 0. -1.
    10030    2    1    2    0    0  0.00000000000E+00  0.00000000000E+00 -0.19345574455E+04  0.43269529446E+04  0.38704016942E+04 0.  0.
        2    1    3    3  502    0  0.14992925863E+04 -0.12215741975E+04 -0.10453803431E+04  0.21983952877E+04  0.25500000920E-02 0. -1.
       -2    1    3    3    0  502 -0.14992925863E+04  0.12215741975E+04 -0.88917710248E+03  0.21285576569E+04  0.25500000920E-02 0.  1.
</event>
<event>
 5   0  0.5300268E-06  0.2288061E+04  0.7818609E-02  0.8482643E-01
       -2   -1    0    0    0  501  0.00000000000E+00  0.00000000000E+00  0.12061667945E+04  0.12061667945E+04  0.25500000920E-02 0. -1.
        2   -1    0    0  501    0  0.00000000000E+00  0.00000000000E+00 -0.10850953641E+04  0.10850953641E+04  0.25500000920E-02 0.  1.
    10030    2    1    2    0    0  0.00000000000E+00  0.00000000000E+00  0.12107143039E+03  0.22912621586E+04  0.22880611854E+04 0.  0.
        4    1    3    3  502    0 -0.10720672380E+04  0.32752066007E+03 -0.16827121944E+03  0.11335408072E+04  0.12699999809E+01 0.  1.
       -4    1    3    3    0  502  0.10720672380E+04 -0.32752066007E+03  0.28934264983E+03  0.11577213514E+04  0.12699999809E+01 0. -1.
</event>
<event>
 5   0  0.1925906E-06  0.1699283E+04  0.7818609E-02  0.8761774E-01
        1   -1    0    0  501    0  0.00000000000E+00  0.00000000000E+00  0.36971339291E+03  0.36971339294E+03  0.50400001928E-02 0. -1.
       -1   -1    0    0    0  501  0.00000000000E+00  0.00000000000E+00 -0.19525674921E+04  0.19525674921E+04  0.50400001928E-02 0.  1.
    10030    2    1    2    0    0  0.00000000000E+00  0.00000000000E+00 -0.15828540992E+04  0.23222808851E+04  0.16992826162E+04 0.  0.
        1    1    3    3  502    0 -0.57019597762E+03  0.31315815406E+03 -0.44521093345E+02  0.65205337982E+03  0.50400001928E-02 0. -1.
       -1    1    3    3    0  502  0.57019597762E+03 -0.31315815406E+03 -0.15383330059E+04  0.16702275052E+04  0.50400001928E-02 0.  1.
</event>
<event>
 5   0  0.2730981E-06  0.3357643E+04  0.7818609E-02  0.8148381E-01
       -1   -1    0    0    0  501  0.00000000000E+00  0.00000000000E+00  0.16084681460E+04  0.16084681460E+04  0.50400001928E-02 0.  1.
        1   -1    0    0  501    0  0.00000000000E+00  0.00000000000E+00 -0.17522516414E+04  0.17522516414E+04  0.50400001928E-02 0. -1.
    10030    2    1    2    0    0  0.00000000000E+00  0.00000000000E+00 -0.14378349538E+03  0.33607197874E+04  0.33576425950E+04 0.  0.
        3    1    3    3  502    0 -0.15059878229E+04  0.12426587859E+03 -0.80399876399E+03  0.17116820248E+04  0.10100000352E+00 0. -1.
       -3    1    3    3    0  502  0.15059878229E+04 -0.12426587859E+03  0.66021526861E+03  0.16490377626E+04  0.10100000352E+00 0.  1.
</event>
<event>
 5   0  0.5855568E-06  0.3267944E+04  0.7818609E-02  0.8171100E-01
        2   -1    0    0  501    0  0.00000000000E+00  0.00000000000E+00  0.18069344318E+04  0.18069344318E+04  0.25500000920E-02 0.  1.
       -2   -1    0    0    0  501  0.00000000000E+00  0.00000000000E+00 -0.14775661384E+04  0.14775661384E+04  0.25500000920E-02 0. -1.
    10030    2    1    2    0    0  0.00000000000E+00  0.00000000000E+00  0.32936829343E+03  0.32845005702E+04  0.32679443880E+04 0.  0.
        3    1    3    3  502    0 -0.11636843496E+04  0.77873872781E+03  0.10111324396E+04  0.17271317530E+04  0.10100000352E+00 0.  1.
       -3    1    3    3    0  502  0.11636843496E+04 -0.77873872781E+03 -0.68176414613E+03  0.15573688172E+04  0.10100000352E+00 0. -1.
</event>
<event>
 5   0  0.1999849E-06  0.3381604E+04  0.7818609E-02  0.8142436E-01
        1   -1    0    0  501    0  0.00000000000E+00  0.00000000000E+00  0.19333816542E+04  0.19333816542E+04  0.50400001928E-02 0. -1.
       -1   -1    0    0    0  501  0.00000000000E+00  0.00000000000E+00 -0.14786590295E+04  0.14786590295E+04  0.50400001928E-02 0.  1.
    10030    2    1    2    0    0  0.00000000000E+00  0.00000000000E+00  0.45472262465E+03  0.34120406837E+04  0.33816044952E+04 0.  0.
        5    1    3    3  502    0  0.37420686909E+03 -0.25964050113E+03  0.18703122963E+04  0.19249764016E+04  0.46999998093E+01 0. -1.
       -5    1    3    3    0  502 -0.37420686909E+03  0.25964050113E+03 -0.14155896717E+04  0.14870642822E+04  0.46999998093E+01 0.  1.
</event>
<event>
 5   0  0.2097842E-06  0.3284111E+04  0.7818609E-02  0.8166950E-01
       -1   -1    0    0    0  501  0.00000000000E+00  0.00000000000E+00  0.14706350193E+04  0.14706350193E+04  0.50400001928E-02 0. -1.
        1   -1    0    0  501    0  0.00000000000E+00  0.00000000000E+00 -0.18334566888E+04  0.18334566889E+04  0.50400001928E-02 0.  1.
    10030    2    1    2    0    0  0.00000000000E+00  0.00000000000E+00 -0.36282166957E+03  0.33040917081E+04  0.32841106029E+04 0.  0.
        4    1    3    3  502    0 -0.14120950082E+04 -0.81661713776E+03 -0.37088653223E+03  0.16728521437E+04  0.12699999809E+01 0. -1.
       -4    1    3    3    0  502  0.14120950082E+04  0.81661713776E+03  0.80648626543E+01  0.16312395645E+04  0.12699999809E+01 0.  1.
</event>
<event>
 5   0  0.5300268E-06  0.3265534E+04  0.7818609E-02  0.8171721E-01
       -2   -1    0    0    0  501  0.00000000000E+00  0.00000000000E+00  0.22950297382E+04  0.22950297382E+04  0.25500000920E-02 0. -1.
        2   -1    0    0  501    0  0.00000000000E+00  0.00000000000E+00 -0.11616093986E+04  0.11616093986E+04  0.25500000920E-02 0.  1.
    10030    2    1    2    0    0  0.00000000000E+00  0.00000000000E+00  0.11334203396E+04  0.34566391368E+04  0.32655340231E+04 0.  0.
        4    1    3    3  502    0 -0.33169575711E+03 -0.11540369934E+04 -0.60442984175E+03  0.13443067001E+04  0.12699999809E+01 0.  1.
       -4    1    3    3    0  502  0.33169575711E+03  0.11540369934E+04  0.17378501814E+04  0.21123324367E+04  0.12699999809E+01 0. -1.
</event>
<event>
 5   0  0.5622811E-06  0.3361872E+04  0.7818609E-02  0.8147328E-01
       -2   -1    0    0    0  501  0.00000000000E+00  0.00000000000E+00  0.14786942652E+04  0.14786942652E+04  0.25500000920E-02 0. -1.
        2   -1    0    0  501    0  0.00000000000E+00  0.00000000000E+00 -0.19108380208E+04  0.19108380208E+04  0.25500000920E-02 0.  1.
    10030    2    1    2    0    0  0.00000000000E+00  0.00000000000E+00 -0.43214375568E+03  0.33895322860E+04  0.33618716353E+04 0.  0.
        1    1    3    3  502    0 -0.51885638012E+03  0.99940344692E+03 -0.14743490128E+04  0.18551884553E+04  0.50400001928E-02 0.  1.
       -1    1    3    3    0  502  0.51885638012E+03 -0.99940344692E+03  0.10422052571E+04  0.15343438307E+04  0.50400001928E-02 0. -1.
</event>
<event>
 5   0  0.2037109E-06  0.1670923E+04  0.7818609E-02  0.8778124E-01
       -1   -1    0    0    0  501  0.00000000000E+00  0.00000000000E+00  0.67882820726E+03  0.67882820727E+03  0.50400001928E-02 0.  1.
        1   -1    0    0  501    0  0.00000000000E+00  0.00000000000E+00 -0.10282359364E+04  0.10282359364E+04  0.50400001928E-02 0. -1.
    10030    2    1    2    0    0  0.00000000000E+00  0.00000000000E+00 -0.34940772911E+03  0.17070641436E+04  0.16709225683E+04 0.  0.
        2    1    3    3  502    0  0.74870720473E+03  0.32739202506E+03  0.29761378071E+01  0.81716392106E+03  0.25500000920E-02 0.  1.
       -2    1    3    3    0  502 -0.74870720473E+03 -0.32739202506E+03 -0.35238386692E+03  0.88990022258E+03  0.25500000920E-02 0. -1.
</event>
<event>
 5   0  0.5637538E-06  0.3313488E+04  0.7818609E-02  0.8159472E-01
        2   -1    0    0  501    0  0.00000000000E+00  0.00000000000E+00  0.14249527701E+04  0.14249527701E+04  0.25500000920E-02 0. -1.
       -2   -1    0    0    0  501  0.00000000000E+00  0.00000000000E+00 -0.19262393669E+04  0.19262393669E+04  0.25500000920E-02 0.  1.
    10030    2    1    2    0    0  0.00000000000E+00  0.00000000000E+00 -0.50128659673E+03  0.33511921370E+04  0.33134876621E+04 0.  0.
        2    1    3    3  502    0 -0.74042129572E+02 -0.95216987708E+02  0.14205062137E+04  0.14256179063E+04  0.25500000920E-02 0. -1.
       -2    1    3    3    0  502  0.74042129572E+02  0.95216987708E+02 -0.19217928104E+04  0.19255742307E+04  0.25500000920E-02 0.  1.
</event>
<event>
 5   0  0.5622811E-06  0.2124772E+04  0.7818609E-02  0.8550409E-01
        2   -1    0    0  501    0  0.00000000000E+00  0.00000000000E+00  0.22288350831E+04  0.22288350831E+04  0.25500000920E-02 0.  1.
       -2   -1    0    0    0  501  0.00000000000E+00  0.00000000000E+00 -0.50639190132E+03  0.50639190133E+03  0.25500000920E-02 0. -1.
    10030    2    1    2    0    0  0.00000000000E+00  0.00000000000E+00  0.17224431818E+04  0.27352269845E+04  0.21247720212E+04 0.  0.
        1    1    3    3  502    0  0.91003628796E+03  0.15274974909E+03  0.18350109171E+03  0.94083536389E+03  0.50400001928E-02 0. -1.
       -1    1    3    3    0  502 -0.91003628796E+03 -0.15274974909E+03  0.15389420901E+04  0.17943916206E+04  0.50400001928E-02 0.  1.
</event>
<event>
 5   0  0.5855568E-06  0.3263042E+04  0.7818609E-02  0.8172363E-01
       -2   -1    0    0    0  501  0.00000000000E+00  0.00000000000E+00  0.93470124383E+03  0.93470124384E+03  0.25500000920E-02 0. -1.
        2   -1    0    0  501    0  0.00000000000E+00  0.00000000000E+00 -0.28478202649E+04  0.28478202649E+04  0.25500000920E-02 0.  1.
    10030    2    1    2    0    0  0.00000000000E+00  0.00000000000E+00 -0.19131190211E+04  0.37825215087E+04  0.32630422270E+04 0.  0.
        3    1    3    3  502    0 -0.94766497675E+02 -0.52273105259E+03 -0.27447495667E+04  0.27956892955E+04  0.10100000352E+00 0.  1.
       -3    1    3    3    0  502  0.94766497675E+02  0.52273105259E+03  0.83163054569E+03  0.98683221327E+03  0.10100000352E+00 0. -1.
</event>
<event>
 5   0  0.5637538E-06  0.3466291E+04  0.7818609E-02  0.8121825E-01
        2   -1    0    0  501    0  0.00000000000E+00  0.00000000000E+00  0.19961886764E+04  0.19961886764E+04  0.25500000920E-02 0.  1.
       -2   -1    0    0    0  501  0.00000000000E+00  0.00000000000E+00 -0.15047642130E+04  0.15047642130E+04  0.25500000920E-02 0. -1.
    10030    2    1    2    0    0  0.00000000000E+00  0.00000000000E+00  0.49142446341E+03  0.35009528894E+04  0.34662909760E+04 0.  0.
        2    1    3    3  502    0 -0.94840186078E+03 -0.31927979665E+03  0.16749198558E+04  0.19510925660E+04  0.25500000920E-02 0.  1.
       -2    1    3    3    0  502  0.94840186078E+03  0.31927979665E+03 -0.11834953923E+04  0.15498603233E+04  0.25500000920E-02 0. -1.
</event>
<event>
 5   0  0.1999849E-06  0.1635135E+04  0.7818609E-02  0.8799249E-01
        1   -1    0    0  501    0  0.00000000000E+00  0.00000000000E+00  0.21224633963E+04  0.21224633963E+04  0.50400001928E-02 0.  1.
       -1   -1    0    0    0  501  0.00000000000E+00  0.00000000000E+00 -0.31492508766E+03  0.31492508770E+03  0.50400001928E-02 0. -1.
    10030    2    1    2    0    0  0.00000000000E+00  0.00000000000E+00  0.18075383087E+04  0.24373884840E+04  0.16351354332E+04 0.  0.
        5    1    3    3  502    0 -0.14754262888E+03  0.17310601048E+03  0.20743301322E+04  0.20867683402E+04  0.46999998093E+01 0.  1.
       -5    1    3    3    0  502  0.14754262888E+03 -0.17310601048E+03 -0.26679182352E+03  0.35062014388E+03  0.46999998093E+01 0. -1.
</event>
<event>
 5   0  0.5300268E-06  0.3318276E+04  0.7818609E-02  0.8158261E-01
       -2   -1    0    0    0  501  0.00000000000E+00  0.00000000000E+00  0.11343848843E+04  0.11343848843E+04  0.25500000920E-02 0. -1.
        2   -1    0    0  501    0  0.00000000000E+00  0.00000000000E+00 -0.24266361373E+04  0.24266361373E+04  0.25500000920E-02 0.  1.
    10030    2    1    2    0    0  0.00000000000E+00  0.00000000000E+00 -0.12922512530E+04  0.35610210215E+04  0.33182762716E+04 0.  0.
        4    1    3    3  502    0 -0.36753759460E+03 -0.16149539352E+04 -0.75115030287E+03  0.18186226895E+04  0.12699999809E+01 0. -1.
       -4    1    3    3    0  502  0.36753759460E+03  0.16149539352E+04 -0.54110095013E+03  0.17423983320E+04  0.12699999809E+01 0.  1.
</event>
<event>
 5   0  0.2730981E-06  0.3222307E+04  0.7818609E-02  0.8182951E-01
       -1   -1    0    0    0  501  0.00000000000E+00  0.00000000000E+00  0.21458371703E+04  0.21458371703E+04  0.50400001928E-02 0.  1.
        1   -1    0    0  501    0  0.00000000000E+00  0.00000000000E+00 -0.12096982708E+04  0.12096982708E+04  0.50400001928E-02 0. -1.
    10030    2    1    2    0    0  0.00000000000E+00  0.00000000000E+00  0.93613889951E+03  0.33555354411E+04  0.32223069465E+04 0.  0.
        3    1    3    3  502    0  0.14328893200E+04 -0.64987809378E+03  0.82925606026E+03  0.17785328121E+04  0.10100000352E+00 0. -1.
       -3    1    3    3    0  502 -0.14328893200E+04  0.64987809378E+03  0.10688283925E+03  0.15770026290E+04  0.10100000352E+00 0.  1.
</event>
<event>
 5   0  0.1925906E-06  0.1837678E+04  0.7818609E-02  0.8686516E-01
        1   -1    0    0  501    0  0.00000000000E+00  0.00000000000E+00  0.81387670490E+03  0.81387670491E+03  0.50400001928E-02 0.  1.
       -1   -1    0    0    0  501  0.00000000000E+00  0.00000000000E+00 -0.10373377261E+04  0.10373377261E+04  0.50400001928E-02 0. -1.
    10030    2    1    2    0    0  0.00000000000E+00  0.00000000000E+00 -0.22346102117E+03  0.18512144310E+04  0.18376778938E+04 0.  0.
        1    1    3    3  502    0  0.14032152453E+03  0.27513330707E+03  0.76002048073E+03  0.82037771670E+03  0.50400001928E-02 0.  1.
       -1    1    3    3    0  502 -0.14032152453E+03 -0.27513330707E+03 -0.98348150190E+03  0.10308367143E+04  0.50400001928E-02 0. -1.
</event>
<event>
 5   0  0.5855568E-06  0.3474492E+04  0.7818609E-02  0.8119862E-01
       -2   -1    0    0    0  501  0.00000000000E+00  0.00000000000E+00  0.12871987790E+04  0.12871987790E+04  0.25500000920E-02 0. -1.
        2   -1    0    0  501    0  0.00000000000E+00  0.00000000000E+00 -0.23446442104E+04  0.23446442104E+04  0.25500000920E-02 0.  1.
    10030    2    1    2    0    0  0.00000000000E+00  0.00000000000E+00 -0.10574454314E+04  0.36318429894E+04  0.34744917124E+04 0.  0.
        3    1    3    3  502    0 -0.88344121286E+03 -0.66766150474E+03  0.87047303593E+03  0.14085324199E+04  0.10100000352E+00 0. -1.
       -3    1    3    3    0  502  0.88344121286E+03  0.66766150474E+03 -0.19279184674E+04  0.22233105695E+04  0.10100000352E+00 0.  1.
</event>
<event>
 5   0  0.1878000E-06  0.3384293E+04  0.7818609E-02  0.8141772E-01
       -3   -1    0    0    0  501  0.00000000000E+00  0.00000000000E+00  0.20435125342E+04  0.20435125367E+04  0.10100000352E+00 0. -1.
        3   -1    0    0  501    0  0.00000000000E+00  0.00000000000E+00 -0.14011948045E+04  0.14011948082E+04  0.10100000352E+00 0.  1.
    10030    2    1    2    0    0  0.00000000000E+00  0.00000000000E+00  0.64231772967E+03  0.34447073449E+04  0.33842926331E+04 0.  0.
        5    1    3    3  502    0  0.14833696965E+04  0.23552706749E+03  0.11144815012E+04  0.18702806641E+04  0.46999998093E+01 0. -1.
       -5    1    3    3    0  502 -0.14833696965E+04 -0.23552706749E+03 -0.47216377158E+03  0.15744266808E+04  0.46999998093E+01 0.  1.
</event>
<event>
 5   0  0.2730981E-06  0.2308563E+04  0.7818609E-02  0.8474552E-01
        1   -1    0    0  501    0  0.00000000000E+00  0.00000000000E+00  0.31989677511E+04  0.31989677511E+04  0.50400001928E-02 0.  1.
       -1   -1    0    0    0  501  0.00000000000E+00  0.00000000000E+00 -0.41649867065E+03  0.41649867069E+03  0.50400001928E-02 0. -1.
    10030    2    1    2    0    0  0.00000000000E+00  0.00000000000E+00  0.27824690805E+04  0.36154664218E+04  0.23085630300E+04 0.  0.
        3    1    3    3  502    0 -0.14007411419E+03 -0.92036993726E+03  0.32252660537E+03  0.98525377454E+03  0.10100000352E+00 0. -1.
       -3    1    3    3    0  502  0.14007411419E+03  0.92036993726E+03  0.24599424751E+04  0.26302126473E+04  0.10100000352E+00 0.  1.
</event>
<event>
 5   0  0.2097842E-06  0.1710155E+04  0.7818609E-02  0.8755594E-01
       -1   -1    0    0    0  501  0.00000000000E+00  0.00000000000E+00  0.82486990003E+03  0.82486990004E+03  0.50400001928E-02 0.  1.
        1   -1    0    0  501    0  0.00000000000E+00  0.00000000000E+00 -0.88639090890E+03  0.88639090891E+03  0.50400001928E-02 0. -1.
    10030    2    1    2    0    0  0.00000000000E+00  0.00000000000E+00 -0.61521008872E+02  0.17112608090E+04  0.17101545900E+04 0.  0.
        4    1    3    3  502    0  0.12897088011E+03  0.10877291773E+02  0.81501032254E+03  0.82522435867E+03  0.12699999809E+01 0.  1.
       -4    1    3    3    0  502 -0.12897088011E+03 -0.10877291773E+02 -0.87653133141E+03  0.88603645029E+03  0.12699999809E+01 0. -1.
</event>
<event>
 5   0  0.1999849E-06  0.3409843E+04  0.7818609E-02  0.8135495E-01
        1   -1    0    0  501    0  0.00000000000E+00  0.00000000000E+00  0.20329162927E+04  0.20329162927E+04  0.50400001928E-02 0.  1.
       -1   -1    0    0    0  501  0.00000000000E+00  0.00000000000E+00 -0.14298458364E+04  0.14298458364E+04  0.50400001928E-02 0. -1.
    10030    2    1    2    0    0  0.00000000000E+00  0.00000000000E+00  0.60307045630E+03  0.34627621292E+04  0.34098427512E+04 0.  0.
        5    1    3    3  502    0  0.65706000344E+02 -0.11009103294E+04  0.16218723838E+04  0.19613293837E+04  0.46999998093E+01 0.  1.
       -5    1    3    3    0  502 -0.65706000344E+02  0.11009103294E+04 -0.10188019275E+04  0.15014327455E+04  0.46999998093E+01 0. -1.
</event>
<event>
 5   0  0.2097842E-06  0.3235443E+04  0.7818609E-02  0.8179519E-01
        1   -1    0    0  501    0  0.00000000000E+00  0.00000000000E+00  0.25036488694E+04  0.25036488694E+04  0.50400001928E-02 0.  1.
       -1   -1    0    0    0  501  0.00000000000E+00  0.00000000000E+00 -0.10452832283E+04  0.10452832284E+04  0.50400001928E-02 0. -1.
    10030    2    1    2    0    0  0.00000000000E+00  0.00000000000E+00  0.14583656410E+04  0.35489320977E+04  0.32354425805E+04 0.  0.
        4    1    3    3  502    0 -0.41581982169E+03 -0.91070008758E+03  0.21230303393E+04  0.23472409778E+04  0.12699999809E+01 0.  1.
       -4    1    3    3    0  502  0.41581982169E+03  0.91070008758E+03 -0.66466469826E+03  0.12016911199E+04  0.12699999809E+01 0. -1.
</event>
<event>
 5   0  0.5622811E-06  0.1867997E+04  0.7818609E-02  0.8670953E-01
       -2   -1    0    0    0  501  0.00000000000E+00  0.00000000000E+00  0.95724395478E+03  0.95724395479E+03  0.25500000920E-02 0. -1.
        2   -1    0    0  501    0  0.00000000000E+00  0.00000000000E+00 -0.91131721436E+03  0.91131721436E+03  0.25500000920E-02 0.  1.
    10030    2    1    2    0    0  0.00000000000E+00  0.00000000000E+00  0.45926740427E+02  0.18685611691E+04  0.18679966749E+04 0.  0.
        1    1    3    3  502    0  0.72467992007E+03 -0.58256832576E+03  0.11134194318E+03  0.93645281198E+03  0.50400001928E-02 0. -1.
       -1    1    3    3    0  502 -0.72467992007E+03  0.58256832576E+03 -0.65415202758E+02  0.93210835717E+03  0.50400001928E-02 0.  1.
</event>
<event>
 5   0  0.1925906E-06  0.3321233E+04  0.7818609E-02  0.8157514E-01
        1   -1    0    0  501    0  0.00000000000E+00  0.00000000000E+00  0.22415513525E+04  0.22415513525E+04  0.50400001928E-02 0.  1.
       -1   -1    0    0    0  501  0.00000000000E+00  0.00000000000E+00 -0.12302401649E+04  0.12302401649E+04  0.50400001928E-02 0. -1.
    10030    2    1    2    0    0  0.00000000000E+00  0.00000000000E+00  0.10113111876E+04  0.34717915174E+04  0.33212326059E+04 0.  0.
        1    1    3    3  502    0  0.13908358346E+03  0.16100266130E+04  0.90523590075E+03  0.18522910067E+04  0.50400001928E-02 0.  1.
       -1    1    3    3    0  502 -0.13908358346E+03 -0.16100266130E+04  0.10607528680E+03  0.16195005107E+04  0.50400001928E-02 0. -1.
</event>
<event>
 5   0  0.5855568E-06  0.3169009E+04  0.7818609E-02  0.8197050E-01
       -2   -1    0    0    0  501  0.00000000000E+00  0.00000000000E+00  0.13487755935E+04  0.13487755935E+04  0.25500000920E-02 0. -1.
        2   -1    0    0  501    0  0.00000000000E+00  0.00000000000E+00 -0.18614326161E+04  0.18614326161E+04  0.25500000920E-02 0.  1.
    10030    2    1    2    0    0  0.00000000000E+00  0.00000000000E+00 -0.51265702259E+03  0.32102082096E+04  0.31690092342E+04 0.  0.
        3    1    3    3  502    0  0.33627990560E+03  0.20475747005E+03 -0.18110930417E+04  0.18533935935E+04  0.10100000352E+00 0.  1.
       -3    1    3    3    0  502 -0.33627990560E+03 -0.20475747005E+03  0.12984360192E+04  0.13568146161E+04  0.10100000352E+00 0. -1.
</event>
<event>
 5   0  0.5300268E-06  0.2319144E+04  0.7818609E-02  0.8470411E-01
       -2   -1    0    0    0  501  0.00000000000E+00  0.00000000000E+00  0.61155900989E+03  0.61155900989E+03  0.25500000920E-02 0.  1.
        2   -1    0    0  501    0  0.00000000000E+00  0.00000000000E+00 -0.21986554168E+04  0.21986554168E+04  0.25500000920E-02 0. -1.
    10030    2    1    2    0    0  0.00000000000E+00  0.00000000000E+00 -0.15870964069E+04  0.28102144267E+04  0.23191442644E+04 0.  0.
        4    1    3    3  502    0  0.10513002540E+04 -0.27531850257E+03 -0.30346699069E+03  0.11283289987E+04  0.12699999809E+01 0.  1.
       -4    1    3    3    0  502 -0.10513002540E+04  0.27531850257E+03 -0.12836294162E+04  0.16818854280E+04  0.12699999809E+01 0. -1.
</event>
<event>
 5   0  0.2097842E-06  0.3336941E+04  0.7818609E-02  0.8153559E-01
        1   -1    0    0  501    0  0.00000000000E+00  0.00000000000E+00  0.21722669442E+04  0.21722669442E+04  0.50400001928E-02 0.  1.
       -1   -1    0    0    0  501  0.00000000000E+00  0.00000000000E+00 -0.12815152532E+04  0.12815152532E+04  0.50400001928E-02 0. -1.
    10030    2    1    2    0    0  0.00000000000E+00  0.00000000000E+00  0.89075169097E+03  0.34537821974E+04  0.33369406486E+04 0.  0.
        4    1    3    3  502    0 -0.49072069544E+02 -0.14241383146E+04 -0.45289135431E+03  0.14952224580E+04  0.12699999809E+01 0. -1.
       -4    1    3    3    0  502  0.49072069544E+02  0.14241383146E+04  0.13436430453E+04  0.19585597395E+04  0.12699999809E+01 0.  1.
</event>
<event>
 5   0  0.1925906E-06  0.3281616E+04  0.7818609E-02  0.8167589E-01
        1   -1    0    0  501    0  0.00000000000E+00  0.00000000000E+00  0.20535003917E+04  0.20535003917E+04  0.50400001928E-02 0.  1.
       -1   -1    0    0    0  501  0.00000000000E+00  0.00000000000E+00 -0.13110545005E+04  0.13110545005E+04  0.50400001928E-02 0. -1.
    10030    2    1    2    0    0  0.00000000000E+00  0.00000000000E+00  0.74244589120E+03  0.33645548922E+04  0.32816160229E+04 0.  0.
        1    1    3    3  502    0  0.14585855379E+04 -0.59769155279E+03  0.83830685982E+03  0.17853474046E+04  0.50400001928E-02 0.  1.
       -1    1    3    3    0  502 -0.14585855379E+04  0.59769155279E+03 -0.95860968625E+02  0.15792074877E+04  0.50400001928E-02 0. -1.
</event>
<event>
 5   0  0.5637538E-06  0.2140216E+04  0.7818609E-02  0.8543732E-01
       -2   -1    0    0    0  501  0.00000000000E+00  0.00000000000E+00  0.58841453703E+03  0.58841453704E+03  0.25500000920E-02 0. -1.
        2   -1    0    0  501    0  0.00000000000E+00  0.00000000000E+00 -0.19461300655E+04  0.19461300655E+04  0.25500000920E-02 0.  1.
    10030    2    1    2    0    0  0.00000000000E+00  0.00000000000E+00 -0.13577155285E+04  0.25345446026E+04  0.21402160840E+04 0.  0.
        2    1    3    3  502    0 -0.38602632183E+03  0.36967843511E+02 -0.18599910619E+04  0.18999867612E+04  0.25500000920E-02 0.  1.
       -2    1    3    3    0  502  0.38602632183E+03 -0.36967843511E+02  0.50227553336E+03  0.63455784135E+03  0.25500000920E-02 0. -1.
</event>
<event>
 5   0  0.5855568E-06  0.2754416E+04  0.7818609E-02  0.8317562E-01
       -2   -1    0    0    0  501  0.00000000000E+00  0.00000000000E+00  0.13532516662E+04  0.13532516662E+04  0.25500000920E-02 0. -1.
        2   -1    0    0  501    0  0.00000000000E+00  0.00000000000E+00 -0.14015879217E+04  0.14015879217E+04  0.25500000920E-02 0.  1.
    10030    2    1    2    0    0  0.00000000000E+00  0.00000000000E+00 -0.48336255495E+02  0.27548395878E+04  0.27544155026E+04 0.  0.
        3    1    3    3  502    0 -0.70078516530E+02 -0.10299163620E+04 -0.93593476378E+03  0.13934175984E+04  0.10100000352E+00 0.  1.
       -3    1    3    3    0  502  0.70078516530E+02  0.10299163620E+04  0.88759850829E+03  0.13614219894E+04  0.10100000352E+00 0. -1.
</event>
<event>
 5   0  0.2097842E-06  0.3016305E+04  0.7818609E-02  0.8239090E-01
        1   -1    0    0  501    0  0.00000000000E+00  0.00000000000E+00  0.19451806585E+04  0.19451806585E+04  0.50400001928E-02 0.  1.
       -1   -1    0    0    0  501  0.00000000000E+00  0.00000000000E+00 -0.11693125429E+04  0.11693125429E+04  0.50400001928E-02 0. -1.
    10030    2    1    2    0    0  0.00000000000E+00  0.00000000000E+00  0.77586811561E+03  0.31144932015E+04  0.30163051187E+04 0.  0.
        4    1    3    3  502    0  0.92688942503E+03 -0.28916793134E+03  0.15795283949E+04  0.18540910608E+04  0.12699999809E+01 0.  1.
       -4    1    3    3    0  502 -0.92688942503E+03  0.28916793134E+03 -0.80366027927E+03  0.12604021406E+04  0.12699999809E+01 0. -1.
</event>
<event>
 5   0  0.2037109E-06  0.3180883E+04  0.7818609E-02  0.8193884E-01
       -1   -1    0    0    0  501  0.00000000000E+00  0.00000000000E+00  0.19074287814E+04  0.19074287815E+04  0.50400001928E-02 0. -1.
        1   -1    0    0  501    0  0.00000000000E+00  0.00000000000E+00 -0.13261332145E+04  0.13261332145E+04  0.50400001928E-02 0.  1.
    10030    2    1    2    0    0  0.00000000000E+00  0.00000000000E+00  0.58129556694E+03  0.32335619960E+04  0.31808833122E+04 0.  0.
        2    1    3    3  502    0 -0.15835319291E+03 -0.10820692186E+04 -0.88327340684E+03  0.14057458656E+04  0.25500000920E-02 0.  1.
       -2    1    3    3    0  502  0.15835319291E+03  0.10820692186E+04  0.14645689738E+04  0.18278161304E+04  0.25500000920E-02 0. -1.
</event>
<event>
 5   0  0.1925906E-06  0.3399494E+04  0.7818609E-02  0.8138031E-01
       -1   -1    0    0    0  501  0.00000000000E+00  0.00000000000E+00  0.16141249522E+04  0.16141249522E+04  0.50400001928E-02 0.  1.
        1   -1    0    0  501    0  0.00000000000E+00  0.00000000000E+00 -0.17899105509E+04  0.17899105509E+04  0.50400001928E-02 0. -1.
    10030    2    1    2    0    0  0.00000000000E+00  0.00000000000E+00 -0.17578559863E+03  0.34040355031E+04  0.33994936578E+04 0.  0.
        1    1    3    3  502    0 -0.51504085844E+03 -0.16017192164E+04  0.15402416004E+03  0.16895250741E+04  0.50400001928E-02 0.  1.
       -1    1    3    3    0  502  0.51504085844E+03  0.16017192164E+04 -0.32980975867E+03  0.17145104290E+04  0.50400001928E-02 0. -1.
</event>
<event>
 5   0  0.5637538E-06  0.1908964E+04  0.7818609E-02  0.8650407E-01
       -2   -1    0    0    0  501  0.00000000000E+00  0.00000000000E+00  0.54436311415E+03  0.54436311415E+03  0.25500000920E-02 0.  1.
        2   -1    0    0  501    0  0.00000000000E+00  0.00000000000E+00 -0.16735812981E+04  0.16735812981E+04  0.25500000920E-02 0. -1.
    10030    2    1    2    0    0  0.00000000000E+00  0.00000000000E+00 -0.11292181839E+04  0.22179444122E+04  0.19089640407E+04 0.  0.
        2    1    3    3  502    0 -0.11486375502E+03  0.51671531318E+03 -0.14874250865E+04  0.15788039096E+04  0.25500000920E-02 0. -1.
       -2    1    3    3    0  502  0.11486375502E+03 -0.51671531318E+03  0.35820690253E+03  0.63914050264E+03  0.25500000920E-02 0.  1.
</event>
<event>
 5   0  0.1999849E-06  0.3331149E+04  0.7818609E-02  0.8155014E-01
        1   -1    0    0  501    0  0.00000000000E+00  0.00000000000E+00  0.15250928363E+04  0.15250928364E+04  0.50400001928E-02 0. -1.
       -1   -1    0    0    0  501  0.00000000000E+00  0.00000000000E+00 -0.18189969231E+04  0.18189969231E+04  0.50400001928E-02 0.  1.
    10030    2    1    2    0    0  0.00000000000E+00  0.00000000000E+00 -0.29390408670E+03  0.33440897594E+04  0.33311494573E+04 0.  0.
        5    1    3    3  502    0 -0.15179847485E+03  0.13704136190E+04  0.79104416568E+03  0.15896066263E+04  0.46999998093E+01 0. -1.
       -5    1    3    3    0  502  0.15179847485E+03 -0.13704136190E+04 -0.10849482524E+04  0.17544831332E+04  0.46999998093E+01 0.  1.
</event>
<event>
 5   0  0.2730981E-06  0.3273768E+04  0.7818609E-02  0.8169602E-01
        1   -1    0    0  501    0  0.00000000000E+00  0.00000000000E+00  0.18342281129E+04  0.18342281129E+04  0.50400001928E-02 0.  1.
       -1   -1    0    0    0  501  0.00000000000E+00  0.00000000000E+00 -0.14607719650E+04  0.14607719650E+04  0.50400001928E-02 0. -1.
    10030    2    1    2    0    0  0.00000000000E+00  0.00000000000E+00  0.37345614793E+03  0.32950000779E+04  0.32737678627E+04 0.  0.
        3    1    3    3  502    0  0.80148168251E+03 -0.77682555677E+03 -0.10183500617E+04  0.15109161762E+04  0.10100000352E+00 0. -1.
       -3    1    3    3    0  502 -0.80148168251E+03  0.77682555677E+03  0.13918062097E+04  0.17840839017E+04  0.10100000352E+00 0.  1.
</event>
<event>
 5   0  0.5855568E-06  0.3195407E+04  0.7818609E-02  0.8190031E-01
        2   -1    0    0  501    0  0.00000000000E+00  0.00000000000E+00  0.24117299905E+04  0.24117299905E+04  0.25500000920E-02 0. -1.
       -2   -1    0    0    0  501  0.00000000000E+00  0.00000000000E+00 -0.10584334686E+04  0.10584334686E+04  0.25500000920E-02 0.  1.
    10030    2    1    2    0    0  0.00000000000E+00  0.00000000000E+00  0.13532965219E+04  0.34701634591E+04  0.31954065401E+04 0.  0.
        3    1    3    3  502    0 -0.96759548644E+03  0.95084863332E+03 -0.23990090489E+03  0.13776453111E+04  0.10100000352E+00 0.  1.
       -3    1    3    3    0  502  0.96759548644E+03 -0.95084863332E+03  0.15931974267E+04  0.20925181480E+04  0.10100000352E+00 0. -1.
</event>
<event>
 5   0  0.5855568E-06  0.3459586E+04  0.7818609E-02  0.8123435E-01
        2   -1    0    0  501    0  0.00000000000E+00  0.00000000000E+00  0.12611256299E+04  0.12611256299E+04  0.25500000920E-02 0. -1.
       -2   -1    0    0    0  501  0.00000000000E+00  0.00000000000E+00 -0.23726292959E+04  0.23726292959E+04  0.25500000920E-02 0.  1.
    10030    2    1    2    0    0  0.00000000000E+00  0.00000000000E+00 -0.11115036660E+04  0.36337549257E+04  0.34595858800E+04 0.  0.
        3    1    3    3  502    0 -0.60072932677E+03  0.31537419145E+03  0.11155321322E+04  0.13056601981E+04  0.10100000352E+00 0. -1.
       -3    1    3    3    0  502  0.60072932677E+03 -0.31537419145E+03 -0.22270357981E+04  0.23280947277E+04  0.10100000352E+00 0.  1.
</event>
<event>
 5   0  0.1925906E-06  0.3277677E+04  0.7818609E-02  0.8168599E-01
        1   -1    0    0  501    0  0.00000000000E+00  0.00000000000E+00  0.17168769562E+04  0.17168769562E+04  0.50400001928E-02 0. -1.
       -1   -1    0    0    0  501  0.00000000000E+00  0.00000000000E+00 -0.15643475415E+04  0.15643475415E+04  0.50400001928E-02 0.  1.
    10030    2    1    2    0    0  0.00000000000E+00  0.00000000000E+00  0.15252941466E+03  0.32812244977E+04  0.32776773761E+04 0.  0.
        1    1    3    3  502    0 -0.74410669936E+03 -0.10320887031E+04  0.11102863772E+04  0.16886792800E+04  0.50400001928E-02 0. -1.
       -1    1    3    3    0  502  0.74410669936E+03  0.10320887031E+04 -0.95775696254E+03  0.15925452177E+04  0.50400001928E-02 0.  1.
</event>
<event>
 5   0  0.5622811E-06  0.3051594E+04  0.7818609E-02  0.8229150E-01
        2   -1    0    0  501    0  0.00000000000E+00  0.00000000000E+00  0.12787057562E+04  0.12787057562E+04  0.25500000920E-02 0. -1.
       -2   -1    0    0    0  501  0.00000000000E+00  0.00000000000E+00 -0.18206346717E+04  0.18206346717E+04  0.25500000920E-02 0.  1.
    10030    2    1    2    0    0  0.00000000000E+00  0.00000000000E+00 -0.54192891546E+03  0.30993404279E+04  0.30515937047E+04 0.  0.
        1    1    3    3  502    0  0.13053234960E+04  0.70132392913E+03  0.98501088762E+02  0.14850680615E+04  0.50400001928E-02 0.  1.
       -1    1    3    3    0  502 -0.13053234960E+04 -0.70132392913E+03 -0.64043000422E+03  0.16142723664E+04  0.50400001928E-02 0. -1.
</event>
<event>
 5   0  0.2037109E-06  0.3302241E+04  0.7818609E-02  0.8162325E-01
        1   -1    0    0  501    0  0.00000000000E+00  0.00000000000E+00  0.12368160330E+04  0.12368160330E+04  0.50400001928E-02 0.  1.
       -1   -1    0    0    0  501  0.00000000000E+00  0.00000000000E+00 -0.22042078055E+04  0.22042078055E+04  0.50400001928E-02 0. -1.
    10030    2    1    2    0    0  0.00000000000E+00  0.00000000000E+00 -0.96739177254E+03  0.34410238385E+04  0.33022413927E+04 0.  0.
        2    1    3    3  502    0  0.13929363954E+02  0.16469429495E+04 -0.60514654147E+03  0.17546559328E+04  0.25500000920E-02 0.  1.
       -2    1    3    3    0  502 -0.13929363954E+02 -0.16469429495E+04 -0.36224523107E+03  0.16863679057E+04  0.25500000920E-02 0. -1.
</event>
<event>
 5   0  0.1925906E-06  0.3044545E+04  0.7818609E-02  0.8231124E-01
        1   -1    0    0  501    0  0.00000000000E+00  0.00000000000E+00  0.13120312663E+04  0.13120312663E+04  0.50400001928E-02 0.  1.
       -1   -1    0    0    0  501  0.00000000000E+00  0.00000000000E+00 -0.17662034722E+04  0.17662034722E+04  0.50400001928E-02 0. -1.
    10030    2    1    2    0    0  0.00000000000E+00  0.00000000000E+00 -0.45417220589E+03  0.30782347386E+04  0.30445454033E+04 0.  0.
        1    1    3    3  502    0 -0.70644626553E+03 -0.75786563753E+03  0.90055224464E+03  0.13727421447E+04  0.50400001928E-02 0.  1.
       -1    1    3    3    0  502  0.70644626553E+03  0.75786563753E+03 -0.13547244505E+04  0.17054925938E+04  0.50400001928E-02 0. -1.
</event>
<event>
 5   0  0.1878000E-06  0.1879292E+04  0.7818609E-02  0.8665233E-01
       -4   -1    0    0    0  501  0.00000000000E+00  0.00000000000E+00  0.15525327048E+04  0.15525332242E+04  0.12699999809E+01 0. -1.
        4   -1    0    0  501    0  0.00000000000E+00  0.00000000000E+00 -0.56870439745E+03  0.56870581550E+03  0.12699999809E+01 0.  1.
    10030    2    1    2    0    0  0.00000000000E+00  0.00000000000E+00  0.98382830731E+03  0.21212390397E+04  0.18792916020E+04 0.  0.
        1    1    3    3  502    0  0.74121674626E+03  0.57138571666E+03  0.39713776966E+03  0.10166623384E+04  0.50400001928E-02 0.  1.
       -1    1    3    3    0  502 -0.74121674626E+03 -0.57138571666E+03  0.58669053765E+03  0.11045767013E+04  0.50400001928E-02 0. -1.
</event>
<event>
 5   0  0.5622811E-06  0.2497036E+04  0.7818609E-02  0.8404042E-01
        2   -1    0    0  501    0  0.00000000000E+00  0.00000000000E+00  0.87518994506E+03  0.87518994507E+03  0.25500000920E-02 0.  1.
       -2   -1    0    0    0  501  0.00000000000E+00  0.00000000000E+00 -0.17810965662E+04  0.17810965662E+04  0.25500000920E-02 0. -1.
    10030    2    1    2    0    0  0.00000000000E+00  0.00000000000E+00 -0.90590662113E+03  0.26562865113E+04  0.24970364883E+04 0.  0.
        1    1    3    3  502    0  0.50276272883E+03  0.19067053529E+03  0.74570619061E+03  0.91934940979E+03  0.50400001928E-02 0.  1.
       -1    1    3    3    0  502 -0.50276272883E+03 -0.19067053529E+03 -0.16516128117E+04  0.17369371015E+04  0.50400001928E-02 0. -1.
</event>
<event>
 5   0  0.2037109E-06  0.1897158E+04  0.7818609E-02  0.8656272E-01
        1   -1    0    0  501    0  0.00000000000E+00  0.00000000000E+00  0.10730668102E+04  0.10730668102E+04  0.50400001928E-02 0.  1.
       -1   -1    0    0    0  501  0.00000000000E+00  0.00000000000E+00 -0.83853324239E+03  0.83853324241E+03  0.50400001928E-02 0. -1.
    10030    2    1    2    0    0  0.00000000000E+00  0.00000000000E+00  0.23453356777E+03  0.19116000526E+04  0.18971580763E+04 0.  0.
        2    1    3    3  502    0 -0.14826130755E+02  0.56952917566E+03  0.88147215679E+03  0.10495601266E+04  0.25500000920E-02 0.  1.
       -2    1    3    3    0  502  0.14826130755E+02 -0.56952917566E+03 -0.64693858902E+03  0.86203992602E+03  0.25500000920E-02 0. -1.
</event>
<event>
 5   0  0.2037109E-06  0.1939241E+04  0.7818609E-02  0.8635567E-01
        1   -1    0    0  501    0  0.00000000000E+00  0.00000000000E+00  0.13882334191E+04  0.13882334191E+04  0.50400001928E-02 0.  1.
       -1   -1    0    0    0  501  0.00000000000E+00  0.00000000000E+00 -0.67723738797E+03  0.67723738799E+03  0.50400001928E-02 0. -1.
    10030    2    1    2    0    0  0.00000000000E+00  0.00000000000E+00  0.71099603114E+03  0.20654708071E+04  0.19392406500E+04 0.  0.
        2    1    3    3  502    0 -0.58503516217E+03 -0.11115246026E+03  0.11705148702E+04  0.13132882669E+04  0.25500000920E-02 0.  1.
       -2    1    3    3    0  502  0.58503516217E+03  0.11115246026E+03 -0.45951883910E+03  0.75218254027E+03  0.25500000920E-02 0. -1.
</event>
<event>
 5   0  0.5637538E-06  0.3238431E+04  0.7818609E-02  0.8178741E-01
       -2   -1    0    0    0  501  0.00000000000E+00  0.00000000000E+00  0.90564786804E+03  0.90564786805E+03  0.25500000920E-02 0.  1.
        2   -1    0    0  501    0  0.00000000000E+00  0.00000000000E+00 -0.28950100015E+04  0.28950100015E+04  0.25500000920E-02 0. -1.
    10030    2    1    2    0    0  0.00000000000E+00  0.00000000000E+00 -0.19893621334E+04  0.38006578695E+04  0.32384314943E+04 0.  0.
        2    1    3    3  502    0  0.71763647225E+03 -0.46838198910E+03 -0.26070512677E+04  0.27442849900E+04  0.25500000920E-02 0. -1.
       -2    1    3    3    0  502 -0.71763647225E+03  0.46838198910E+03  0.61768913425E+03  0.10563728795E+04  0.25500000920E-02 0.  1.
</event>
<event>
 5   0  0.2730981E-06  0.3249129E+04  0.7818609E-02  0.8175961E-01
        1   -1    0    0  501    0  0.00000000000E+00  0.00000000000E+00  0.25495425950E+04  0.25495425950E+04  0.50400001928E-02 0.  1.
       -1   -1    0    0    0  501  0.00000000000E+00  0.00000000000E+00 -0.10351700061E+04  0.10351700061E+04  0.50400001928E-02 0. -1.
    10030    2    1    2    0    0  0.00000000000E+00  0.00000000000E+00  0.15143725889E+04  0.35847126011E+04  0.32491291287E+04 0.  0.
        3    1    3    3  502    0  0.19799849176E+03  0.45096431100E+03 -0.95081648591E+03  0.10708054037E+04  0.10100000352E+00 0. -1.
       -3    1    3    3    0  502 -0.19799849176E+03 -0.45096431100E+03  0.24651890748E+04  0.25139071974E+04  0.10100000352E+00 0.  1.
</event>
<event>
 5   0  0.5755250E-06  0.2045366E+04  0.7818609E-02  0.8585699E-01
        2   -1    0    0  501    0  0.00000000000E+00  0.00000000000E+00  0.10727846541E+04  0.10727846542E+04  0.25500000920E-02 0.  1.
       -2   -1    0    0    0  501  0.00000000000E+00  0.00000000000E+00 -0.97492142011E+03  0.97492142011E+03  0.25500000920E-02 0. -1.
    10030    2    1    2    0    0  0.00000000000E+00  0.00000000000E+00  0.97863234039E+02  0.20477060743E+04  0.20453662151E+04 0.  0.
        5    1    3    3  502    0  0.79448934518E+03 -0.16148185076E+03 -0.57513446915E+03  0.99402789464E+03  0.46999998093E+01 0. -1.
       -5    1    3    3    0  502 -0.79448934518E+03  0.16148185076E+03  0.67299770318E+03  0.10536781796E+04  0.46999998093E+01 0.  1.
</event>
<event>
 5   0  0.2730981E-06  0.3285047E+04  0.7818609E-02  0.8166711E-01
        1   -1    0    0  501    0  0.00000000000E+00  0.00000000000E+00  0.20427375585E+04  0.20427375585E+04  0.50400001928E-02 0. -1.
       -1   -1    0    0    0  501  0.00000000000E+00  0.00000000000E+00 -0.13207197729E+04  0.13207197729E+04  0.50400001928E-02 0.  1.
    10030    2    1    2    0    0  0.00000000000E+00  0.00000000000E+00  0.72201778555E+03  0.33634573314E+04  0.32850472657E+04 0.  0.
        3    1    3    3  502    0  0.46368138319E+03  0.58157153017E+03 -0.11384111918E+04  0.13598551105E+04  0.10100000352E+00 0.  1.
       -3    1    3    3    0  502 -0.46368138319E+03 -0.58157153017E+03  0.18604289773E+04  0.20036022209E+04  0.10100000352E+00 0. -1.
</event>
<event>
 5   0  0.5637538E-06  0.3210055E+04  0.7818609E-02  0.8186167E-01
        2   -1    0    0  501    0  0.00000000000E+00  0.00000000000E+00  0.18760099276E+04  0.18760099276E+04  0.25500000920E-02 0. -1.
       -2   -1    0    0    0  501  0.00000000000E+00  0.00000000000E+00 -0.13731871180E+04  0.13731871180E+04  0.25500000920E-02 0.  1.
    10030    2    1    2    0    0  0.00000000000E+00  0.00000000000E+00  0.50282280958E+03  0.32491970455E+04  0.32100546199E+04 0.  0.
        2    1    3    3  502    0 -0.93899715570E+03 -0.10034404767E+04 -0.58785784421E+03  0.14947191354E+04  0.25500000920E-02 0.  1.
       -2    1    3    3    0  502  0.93899715570E+03  0.10034404767E+04  0.10906806538E+04  0.17544779102E+04  0.25500000920E-02 0. -1.
</event>
<event>
 5   0  0.5637538E-06  0.3296655E+04  0.7818609E-02  0.8163747E-01
       -2   -1    0    0    0  501  0.00000000000E+00  0.00000000000E+00  0.21382014600E+04  0.21382014600E+04  0.25500000920E-02 0.  1.
        2   -1    0    0  501    0  0.00000000000E+00  0.00000000000E+00 -0.12706862276E+04  0.12706862276E+04  0.25500000920E-02 0. -1.
    10030    2    1    2    0    0  0.00000000000E+00  0.00000000000E+00  0.86751523241E+03  0.34088876877E+04  0.32966547573E+04 0.  0.
        2    1    3    3  502    0 -0.75243352604E+03  0.11941642917E+04 -0.44657722807E+03  0.14804106820E+04  0.25500000920E-02 0. -1.
       -2    1    3    3    0  502  0.75243352604E+03 -0.11941642917E+04  0.13140924605E+04  0.19284770057E+04  0.25500000920E-02 0.  1.
</event>
<event>
 5   0  0.1925906E-06  0.3181706E+04  0.7818609E-02  0.8193665E-01
        1   -1    0    0  501    0  0.00000000000E+00  0.00000000000E+00  0.14004386846E+04  0.14004386846E+04  0.50400001928E-02 0.  1.
       -1   -1    0    0    0  501  0.00000000000E+00  0.00000000000E+00 -0.18071575145E+04  0.18071575145E+04  0.50400001928E-02 0. -1.
    10030    2    1    2    0    0  0.00000000000E+00  0.00000000000E+00 -0.40671882988E+03  0.32075961992E+04  0.31817060157E+04 0.  0.
        1    1    3    3  502    0  0.73311946137E+03 -0.14101269795E+04 -0.13285429136E+03  0.15948581459E+04  0.50400001928E-02 0. -1.
       -1    1    3    3    0  502 -0.73311946137E+03  0.14101269795E+04 -0.27386453852E+03  0.16127380532E+04  0.50400001928E-02 0.  1.
</event>
<event>
 5   0  0.5855568E-06  0.3272833E+04  0.7818609E-02  0.8169843E-01
       -2   -1    0    0    0  501  0.00000000000E+00  0.00000000000E+00  0.14444782449E+04  0.14444782449E+04  0.25500000920E-02 0.  1.
        2   -1    0    0  501    0  0.00000000000E+00  0.00000000000E+00 -0.18538588538E+04  0.18538588538E+04  0.25500000920E-02 0. -1.
    10030    2    1    2    0    0  0.00000000000E+00  0.00000000000E+00 -0.40938060888E+03  0.32983370988E+04  0.32728328913E+04 0.  0.
        3    1    3    3  502    0 -0.15242160210E+04 -0.10730892106E+03  0.38562945535E+03  0.15758996701E+04  0.10100000352E+00 0.  1.
       -3    1    3    3    0  502  0.15242160210E+04  0.10730892106E+03 -0.79501006423E+03  0.17224374287E+04  0.10100000352E+00 0. -1.
</event>
<event>
 5   0  0.5637538E-06  0.3099687E+04  0.7818609E-02  0.8215824E-01
        2   -1    0    0  501    0  0.00000000000E+00  0.00000000000E+00  0.13527766734E+04  0.13527766735E+04  0.25500000920E-02 0. -1.
       -2   -1    0    0    0  501  0.00000000000E+00  0.00000000000E+00 -0.17756187107E+04  0.17756187107E+04  0.25500000920E-02 0.  1.
    10030    2    1    2    0    0  0.00000000000E+00  0.00000000000E+00 -0.42284203728E+03  0.31283953842E+04  0.30996874506E+04 0.  0.
        2    1    3    3  502    0  0.10084344985E+04 -0.78536502611E+02 -0.13965654790E+04  0.17243848924E+04  0.25500000920E-02 0.  1.
       -2    1    3    3    0  502 -0.10084344985E+04  0.78536502611E+02  0.97372344170E+03  0.14040104918E+04  0.25500000920E-02 0. -1.
</event>
<event>
 5   0  0.2730981E-06  0.3261206E+04  0.7818609E-02  0.8172837E-01
        1   -1    0    0  501    0  0.00000000000E+00  0.00000000000E+00  0.12903824591E+04  0.12903824591E+04  0.50400001928E-02 0.  1.
       -1   -1    0    0    0  501  0.00000000000E+00  0.00000000000E+00 -0.20605250465E+04  0.20605250465E+04  0.50400001928E-02 0. -1.
    10030    2    1    2    0    0  0.00000000000E+00  0.00000000000E+00 -0.77014258739E+03  0.33509075057E+04  0.32612055297E+04 0.  0.
        3    1    3    3  502    0  0.12166727924E+04  0.24045716410E+03  0.70270410375E+03  0.14254491921E+04  0.10100000352E+00 0.  1.
       -3    1    3    3    0  502 -0.12166727924E+04 -0.24045716410E+03 -0.14728466911E+04  0.19254583136E+04  0.10100000352E+00 0. -1.
</event>
<event>
 5   0  0.2730981E-06  0.3112424E+04  0.7818609E-02  0.8212336E-01
       -1   -1    0    0    0  501  0.00000000000E+00  0.00000000000E+00  0.13083575009E+04  0.13083575009E+04  0.50400001928E-02 0. -1.
        1   -1    0    0  501    0  0.00000000000E+00  0.00000000000E+00 -0.18510201747E+04  0.18510201747E+04  0.50400001928E-02 0.  1.
    10030    2    1    2    0    0  0.00000000000E+00  0.00000000000E+00 -0.54266267383E+03  0.31593776756E+04  0.31124242190E+04 0.  0.
        3    1    3    3  502    0  0.45083751579E+03 -0.87333012159E+02  0.12380144356E+04  0.13204398031E+04  0.10100000352E+00 0. -1.
       -3    1    3    3    0  502 -0.45083751579E+03  0.87333012159E+02 -0.17806771094E+04  0.18389378725E+04  0.10100000352E+00 0.  1.
</event>
<event>
 5   0  0.2097842E-06  0.3306004E+04  0.7818609E-02  0.8161369E-01
        1   -1    0    0  501    0  0.00000000000E+00  0.00000000000E+00  0.14700854432E+04  0.14700854433E+04  0.50400001928E-02 0.  1.
       -1   -1    0    0    0  501  0.00000000000E+00  0.00000000000E+00 -0.18586783623E+04  0.18586783623E+04  0.50400001928E-02 0. -1.
    10030    2    1    2    0    0  0.00000000000E+00  0.00000000000E+00 -0.38859291904E+03  0.33287638055E+04  0.33060042372E+04 0.  0.
        4    1    3    3  502    0 -0.88236813608E+03  0.13690781056E+04 -0.47813427985E+03  0.16975165358E+04  0.12699999809E+01 0. -1.
       -4    1    3    3    0  502  0.88236813608E+03 -0.13690781056E+04  0.89541360814E+02  0.16312472697E+04  0.12699999809E+01 0.  1.
</event>
<event>
 5   0  0.5855568E-06  0.3264758E+04  0.7818609E-02  0.8171921E-01
       -2   -1    0    0    0  501  0.00000000000E+00  0.00000000000E+00  0.17821228454E+04  0.17821228454E+04  0.25500000920E-02 0. -1.
        2   -1    0    0  501    0  0.00000000000E+00  0.00000000000E+00 -0.14952175203E+04  0.14952175203E+04  0.25500000920E-02 0.  1.
    10030    2    1    2    0    0  0.00000000000E+00  0.00000000000E+00  0.28690532516E+03  0.32773403657E+04  0.32647580626E+04 0.  0.
        3    1    3    3  502    0  0.24870087449E+03 -0.12503982910E+04 -0.87994349576E+03  0.15490799131E+04  0.10100000352E+00 0.  1.
       -3    1    3    3    0  502 -0.24870087449E+03  0.12503982910E+04  0.11668488209E+04  0.17282604526E+04  0.10100000352E+00 0. -1.
</event>
<event>
 5   0  0.5637538E-06  0.3495512E+04  0.7818609E-02  0.8114854E-01
        2   -1    0    0  501    0  0.00000000000E+00  0.00000000000E+00  0.16380172949E+04  0.16380172949E+04  0.25500000920E-02 0. -1.
       -2   -1    0    0    0  501  0.00000000000E+00  0.00000000000E+00 -0.18648462676E+04  0.18648462676E+04  0.25500000920E-02 0.  1.
    10030    2    1    2    0    0  0.00000000000E+00  0.00000000000E+00 -0.22682897271E+03  0.35028635624E+04  0.34955116584E+04 0.  0.
        2    1    3    3  502    0  0.14173820547E+04  0.10055166705E+04 -0.29985625861E+03  0.17635048737E+04  0.25500000920E-02 0. -1.
       -2    1    3    3    0  502 -0.14173820547E+04 -0.10055166705E+04  0.73027285905E+02  0.17393586888E+04  0.25500000920E-02 0.  1.
</event>
<event>
 5   0  0.5300268E-06  0.3275556E+04  0.7818609E-02  0.8169143E-01
       -2   -1    0    0    0  501  0.00000000000E+00  0.00000000000E+00  0.14400631876E+04  0.14400631876E+04  0.25500000920E-02 0.  1.
        2   -1    0    0  501    0  0.00000000000E+00  0.00000000000E+00 -0.18626378697E+04  0.18626378697E+04  0.25500000920E-02 0. -1.
    10030    2    1    2    0    0  0.00000000000E+00  0.00000000000E+00 -0.42257468211E+03  0.33027010573E+04  0.32755556646E+04 0.  0.
        4    1    3    3  502    0  0.84829559061E+02 -0.16192033859E+04 -0.44406625232E+03  0.16811341732E+04  0.12699999809E+01 0. -1.
       -4    1    3    3    0  502 -0.84829559061E+02  0.16192033859E+04  0.21491570207E+02  0.16215668841E+04  0.12699999809E+01 0.  1.
</event>
<event>
 5   0  0.2037109E-06  0.3199547E+04  0.7818609E-02  0.8188937E-01
       -1   -1    0    0    0  501  0.00000000000E+00  0.00000000000E+00  0.26635072757E+04  0.26635072757E+04  0.50400001928E-02 0.  1.
        1   -1    0    0  501    0  0.00000000000E+00  0.00000000000E+00 -0.96086668882E+03  0.96086668883E+03  0.50400001928E-02 0. -1.
    10030    2    1    2    0    0  0.00000000000E+00  0.00000000000E+00  0.17026405868E+04  0.36243739645E+04  0.31995471033E+04 0.  0.
        2    1    3    3  502    0 -0.71360184706E+02 -0.13663364201E+04 -0.87797719111E+02  0.13710127382E+04  0.25500000920E-02 0.  1.
       -2    1    3    3    0  502  0.71360184706E+02  0.13663364201E+04  0.17904383059E+04  0.22533612263E+04  0.25500000920E-02 0. -1.
</event>
<event>
 5   0  0.5622811E-06  0.2329669E+04  0.7818609E-02  0.8466314E-01
       -2   -1    0    0    0  501  0.00000000000E+00  0.00000000000E+00  0.15067162476E+04  0.15067162476E+04  0.25500000920E-02 0. -1.
        2   -1    0    0  501    0  0.00000000000E+00  0.00000000000E+00 -0.90052713366E+03  0.90052713367E+03  0.25500000920E-02 0.  1.
    10030    2    1    2    0    0  0.00000000000E+00  0.00000000000E+00  0.60618911390E+03  0.24072433812E+04  0.23296685289E+04 0.  0.
        1    1    3    3  502    0  0.60738441813E+03  0.30327212959E+03  0.12811591211E+04  0.14499167251E+04  0.50400001928E-02 0. -1.
       -1    1    3    3    0  502 -0.60738441813E+03 -0.30327212959E+03 -0.67497000721E+03  0.95732665618E+03  0.50400001928E-02 0.  1.
</event>
<event>
 5   0  0.5637538E-06  0.1708135E+04  0.7818609E-02  0.8756738E-01
       -2   -1    0    0    0  501  0.00000000000E+00  0.00000000000E+00  0.97799864125E+03  0.97799864125E+03  0.25500000920E-02 0. -1.
        2   -1    0    0  501    0  0.00000000000E+00  0.00000000000E+00 -0.74584075414E+03  0.74584075414E+03  0.25500000920E-02 0.  1.
    10030    2    1    2    0    0  0.00000000000E+00  0.00000000000E+00  0.23215788711E+03  0.17238393954E+04  0.17081349410E+04 0.  0.
        2    1    3    3  502    0  0.27836976864E+03  0.74423713011E+02  0.92746246144E+03  0.97119268662E+03  0.25500000920E-02 0. -1.
       -2    1    3    3    0  502 -0.27836976864E+03 -0.74423713011E+02 -0.69530457433E+03  0.75264670878E+03  0.25500000920E-02 0.  1.
</event>
<event>
 5   0  0.1925906E-06  0.3169437E+04  0.7818609E-02  0.8196936E-01
        1   -1    0    0  501    0  0.00000000000E+00  0.00000000000E+00  0.17002228048E+04  0.17002228048E+04  0.50400001928E-02 0. -1.
       -1   -1    0    0    0  501  0.00000000000E+00  0.00000000000E+00 -0.14770607914E+04  0.14770607914E+04  0.50400001928E-02 0.  1.
    10030    2    1    2    0    0  0.00000000000E+00  0.00000000000E+00  0.22316201337E+03  0.31772835962E+04  0.31694368217E+04 0.  0.
        1    1    3    3  502    0  0.79597617202E+03 -0.44642903644E+03 -0.11871786688E+04  0.14974211641E+04  0.50400001928E-02 0.  1.
       -1    1    3    3    0  502 -0.79597617202E+03  0.44642903644E+03  0.14103406822E+04  0.16798624321E+04  0.50400001928E-02 0. -1.
</event>
<event>
 5   0  0.1999849E-06  0.3391496E+04  0.7818609E-02  0.8139997E-01
        1   -1    0    0  501    0  0.00000000000E+00  0.00000000000E+00  0.26457270256E+04  0.26457270256E+04  0.50400001928E-02 0. -1.
       -1   -1    0    0    0  501  0.00000000000E+00  0.00000000000E+00 -0.10868700740E+04  0.10868700740E+04  0.50400001928E-02 0.  1.
    10030    2    1    2    0    0  0.00000000000E+00  0.00000000000E+00  0.15588569516E+04  0.37325970996E+04  0.33914961467E+04 0.  0.
        5    1    3    3  502    0 -0.92488610911E+03  0.14091677666E+04  0.98346971314E+03  0.19515129710E+04  0.46999998093E+01 0.  1.
       -5    1    3    3    0  502  0.92488610911E+03 -0.14091677666E+04  0.57538723845E+03  0.17810841287E+04  0.46999998093E+01 0. -1.
</event>
<event>
 5   0  0.2097842E-06  0.2382271E+04  0.7818609E-02  0.8446171E-01
       -1   -1    0    0    0  501  0.00000000000E+00  0.00000000000E+00  0.66037273696E+03  0.66037273698E+03  0.50400001928E-02 0. -1.
        1   -1    0    0  501    0  0.00000000000E+00  0.00000000000E+00 -0.21484895081E+04  0.21484895081E+04  0.50400001928E-02 0.  1.
    10030    2    1    2    0    0  0.00000000000E+00  0.00000000000E+00 -0.14881167711E+04  0.28088622451E+04  0.23822710986E+04 0.  0.
        4    1    3    3  502    0  0.52275310101E+03  0.62893389541E+03  0.27702746154E+03  0.86346654640E+03  0.12699999809E+01 0. -1.
       -4    1    3    3    0  502 -0.52275310101E+03 -0.62893389541E+03 -0.17651442327E+04  0.19453956987E+04  0.12699999809E+01 0.  1.
</event>
<event>
 5   0  0.1925906E-06  0.2420105E+04  0.7818609E-02  0.8432015E-01
       -1   -1    0    0    0  501  0.00000000000E+00  0.00000000000E+00  0.16096803482E+04  0.16096803482E+04  0.50400001928E-02 0. -1.
        1   -1    0    0  501    0  0.00000000000E+00  0.00000000000E+00 -0.90963858285E+03  0.90963858287E+03  0.50400001928E-02 0.  1.
    10030    2    1    2    0    0  0.00000000000E+00  0.00000000000E+00  0.70004176532E+03  0.25193189310E+04  0.24201052463E+04 0.  0.
        1    1    3    3  502    0 -0.11372823990E+04 -0.86079162985E+02  0.77082843495E+03  0.13765890286E+04  0.50400001928E-02 0. -1.
       -1    1    3    3    0  502  0.11372823990E+04  0.86079162985E+02 -0.70786669630E+02  0.11427299025E+04  0.50400001928E-02 0.  1.
</event>
<event>
 5   0  0.5855568E-06  0.3239432E+04  0.7818609E-02  0.8178480E-01
        2   -1    0    0  501    0  0.00000000000E+00  0.00000000000E+00  0.17069820393E+04  0.17069820393E+04  0.25500000920E-02 0. -1.
       -2   -1    0    0    0  501  0.00000000000E+00  0.00000000000E+00 -0.15369116068E+04  0.15369116068E+04  0.25500000920E-02 0.  1.
    10030    2    1    2    0    0  0.00000000000E+00  0.00000000000E+00  0.17007043256E+03  0.32438936461E+04  0.32394323631E+04 0.  0.
        3    1    3    3  502    0  0.86010999374E+03  0.13368717723E+04 -0.22598093185E+03  0.16056409090E+04  0.10100000352E+00 0.  1.
       -3    1    3    3    0  502 -0.86010999374E+03 -0.13368717723E+04  0.39605136442E+03  0.16382527371E+04  0.10100000352E+00 0. -1.
</event>
<event>
 5   0  0.2037109E-06  0.3026479E+04  0.7818609E-02  0.8236210E-01
        1   -1    0    0  501    0  0.00000000000E+00  0.00000000000E+00  0.10758891458E+04  0.10758891458E+04  0.50400001928E-02 0. -1.
       -1   -1    0    0    0  501  0.00000000000E+00  0.00000000000E+00 -0.21283733633E+04  0.21283733633E+04  0.50400001928E-02 0.  1.
    10030    2    1    2    0    0  0.00000000000E+00  0.00000000000E+00 -0.10524842175E+04  0.32042625091E+04  0.30264790102E+04 0.  0.
        2    1    3    3  502    0 -0.82558732019E+03 -0.10018247646E+04 -0.13495100428E+04  0.18725449628E+04  0.25500000920E-02 0.  1.
       -2    1    3    3    0  502  0.82558732019E+03  0.10018247646E+04  0.29702582526E+03  0.13317175463E+04  0.25500000920E-02 0. -1.
</event>
<event>
 5   0  0.5622811E-06  0.3459934E+04  0.7818609E-02  0.8123351E-01
        2   -1    0    0  501    0  0.00000000000E+00  0.00000000000E+00  0.14966916551E+04  0.14966916551E+04  0.25500000920E-02 0.  1.
       -2   -1    0    0    0  501  0.00000000000E+00  0.00000000000E+00 -0.19996008349E+04  0.19996008349E+04  0.25500000920E-02 0. -1.
    10030    2    1    2    0    0  0.00000000000E+00  0.00000000000E+00 -0.50290917988E+03  0.34962924900E+04  0.34599340358E+04 0.  0.
        1    1    3    3  502    0  0.49502092725E+03 -0.58991215145E+02 -0.19254435211E+04  0.19889339946E+04  0.50400001928E-02 0. -1.
       -1    1    3    3    0  502 -0.49502092725E+03  0.58991215145E+02  0.14225343412E+04  0.15073584954E+04  0.50400001928E-02 0.  1.
</event>
<event>
 5   0  0.2037109E-06  0.3276020E+04  0.7818609E-02  0.8169024E-01
        1   -1    0    0  501    0  0.00000000000E+00  0.00000000000E+00  0.24786940120E+04  0.24786940120E+04  0.50400001928E-02 0. -1.
       -1   -1    0    0    0  501  0.00000000000E+00  0.00000000000E+00 -0.10824559695E+04  0.10824559695E+04  0.50400001928E-02 0.  1.
    10030    2    1    2    0    0  0.00000000000E+00  0.00000000000E+00  0.13962380425E+04  0.35611499815E+04  0.32760202257E+04 0.  0.
        2    1    3    3  502    0 -0.11769430019E+04  0.11365366488E+03 -0.53410412985E+03  0.12974510422E+04  0.25500000920E-02 0. -1.
       -2    1    3    3    0  502  0.11769430019E+04 -0.11365366488E+03  0.19303421724E+04  0.22636989393E+04  0.25500000920E-02 0.  1.
</event>
<event>
 5   0  0.2730981E-06  0.2983706E+04  0.7818609E-02  0.8248399E-01
       -1   -1    0    0    0  501  0.00000000000E+00  0.00000000000E+00  0.13194161893E+04  0.13194161893E+04  0.50400001928E-02 0. -1.
        1   -1    0    0  501    0  0.00000000000E+00  0.00000000000E+00 -0.16868256794E+04  0.16868256794E+04  0.50400001928E-02 0.  1.
    10030    2    1    2    0    0  0.00000000000E+00  0.00000000000E+00 -0.36740949012E+03  0.30062418687E+04  0.29837058233E+04 0.  0.
        3    1    3    3  502    0  0.94236649988E+03  0.22053131147E+03 -0.13275931685E+04  0.16429218821E+04  0.10100000352E+00 0.  1.
       -3    1    3    3    0  502 -0.94236649988E+03 -0.22053131147E+03  0.96018367840E+03  0.13633199866E+04  0.10100000352E+00 0. -1.
</event>
<event>
 5   0  0.5300268E-06  0.3136795E+04  0.7818609E-02  0.8205712E-01
       -2   -1    0    0    0  501  0.00000000000E+00  0.00000000000E+00  0.14002653218E+04  0.14002653218E+04  0.25500000920E-02 0.  1.
        2   -1    0    0  501    0  0.00000000000E+00  0.00000000000E+00 -0.17567178049E+04  0.17567178049E+04  0.25500000920E-02 0. -1.
    10030    2    1    2    0    0  0.00000000000E+00  0.00000000000E+00 -0.35645248310E+03  0.31569831267E+04  0.31367951941E+04 0.  0.
        4    1    3    3  502    0 -0.11022610521E+03 -0.42885790057E+01 -0.17528083024E+04  0.17562763861E+04  0.12699999809E+01 0. -1.
       -4    1    3    3    0  502  0.11022610521E+03  0.42885790057E+01  0.13963558193E+04  0.14007067406E+04  0.12699999809E+01 0.  1.
</event>
<event>
 5   0  0.2097842E-06  0.2714193E+04  0.7818609E-02  0.8330414E-01
       -1   -1    0    0    0  501  0.00000000000E+00  0.00000000000E+00  0.14326052834E+04  0.14326052834E+04  0.50400001928E-02 0. -1.
        1   -1    0    0  501    0  0.00000000000E+00  0.00000000000E+00 -0.12855679935E+04  0.12855679935E+04  0.50400001928E-02 0.  1.
    10030    2    1    2    0    0  0.00000000000E+00  0.00000000000E+00  0.14703728991E+03  0.27181732770E+04  0.27141934344E+04 0.  0.
        4    1    3    3  502    0  0.36673537728E+03 -0.13059577767E+04  0.11468043655E+03  0.13613132509E+04  0.12699999809E+01 0.  1.
       -4    1    3    3    0  502 -0.36673537728E+03  0.13059577767E+04  0.32356853358E+02  0.13568600261E+04  0.12699999809E+01 0. -1.
</event>
<event>
 5   0  0.5637538E-06  0.3333477E+04  0.7818609E-02  0.8154429E-01
       -2   -1    0    0    0  501  0.00000000000E+00  0.00000000000E+00  0.13698138255E+04  0.13698138255E+04  0.25500000920E-02 0. -1.
        2   -1    0    0  501    0  0.00000000000E+00  0.00000000000E+00 -0.20280257738E+04  0.20280257738E+04  0.25500000920E-02 0.  1.
    10030    2    1    2    0    0  0.00000000000E+00  0.00000000000E+00 -0.65821194828E+03  0.33978395993E+04  0.33334773097E+04 0.  0.
        2    1    3    3  502    0 -0.11132057751E+04 -0.11392994105E+04 -0.82928138545E+03  0.17958111986E+04  0.25500000920E-02 0.  1.
       -2    1    3    3    0  502  0.11132057751E+04  0.11392994105E+04  0.17106943718E+03  0.16020284008E+04  0.25500000920E-02 0. -1.
</event>
<event>
 5   0  0.1999849E-06  0.1718832E+04  0.7818609E-02  0.8750696E-01
        1   -1    0    0  501    0  0.00000000000E+00  0.00000000000E+00  0.63558687833E+03  0.63558687835E+03  0.50400001928E-02 0.  1.
       -1   -1    0    0    0  501  0.00000000000E+00  0.00000000000E+00 -0.11620686597E+04  0.11620686598E+04  0.50400001928E-02 0. -1.
    10030    2    1    2    0    0  0.00000000000E+00  0.00000000000E+00 -0.52648178142E+03  0.17976555381E+04  0.17188316868E+04 0.  0.
        5    1    3    3  502    0  0.46497607985E+03  0.54725664981E+03  0.23051189423E+03  0.75422173064E+03  0.46999998093E+01 0.  1.
       -5    1    3    3    0  502 -0.46497607985E+03 -0.54725664981E+03 -0.75699367564E+03  0.10434338075E+04  0.46999998093E+01 0. -1.
</event>
<event>
 5   0  0.5855568E-06  0.2033303E+04  0.7818609E-02  0.8591207E-01
       -2   -1    0    0    0  501  0.00000000000E+00  0.00000000000E+00  0.11166219675E+04  0.11166219675E+04  0.25500000920E-02 0.  1.
        2   -1    0    0  501    0  0.00000000000E+00  0.00000000000E+00 -0.92563096582E+03  0.92563096583E+03  0.25500000920E-02 0. -1.
    10030    2    1    2    0    0  0.00000000000E+00  0.00000000000E+00  0.19099100163E+03  0.20422529333E+04  0.20333026043E+04 0.  0.
        3    1    3    3  502    0  0.36390967211E+03  0.94150794243E+03  0.21732412670E+03  0.10325198503E+04  0.10100000352E+00 0. -1.
       -3    1    3    3    0  502 -0.36390967211E+03 -0.94150794243E+03 -0.26333125072E+02  0.10097330829E+04  0.10100000352E+00 0.  1.
</event>
<event>
 5   0  0.2037109E-06  0.3277336E+04  0.7818609E-02  0.8168686E-01
        1   -1    0    0  501    0  0.00000000000E+00  0.00000000000E+00  0.18644323508E+04  0.18644323508E+04  0.50400001928E-02 0. -1.
       -1   -1    0    0    0  501  0.00000000000E+00  0.00000000000E+00 -0.14402415115E+04  0.14402415115E+04  0.50400001928E-02 0.  1.
    10030    2    1    2    0    0  0.00000000000E+00  0.00000000000E+00  0.42419083928E+03  0.33046738624E+04  0.32773360323E+04 0.  0.
        2    1    3    3  502    0 -0.68028586095E+03 -0.69162390375E+03  0.15437554736E+04  0.18232699852E+04  0.25500000920E-02 0. -1.
       -2    1    3    3    0  502  0.68028586095E+03  0.69162390375E+03 -0.11195646343E+04  0.14814038771E+04  0.25500000920E-02 0.  1.
</event>
<event>
 5   0  0.5637538E-06  0.3192964E+04  0.7818609E-02  0.8190678E-01
        2   -1    0    0  501    0  0.00000000000E+00  0.00000000000E+00  0.23611117404E+04  0.23611117404E+04  0.25500000920E-02 0. -1.
       -2   -1    0    0    0  501  0.00000000000E+00  0.00000000000E+00 -0.10794721898E+04  0.10794721899E+04  0.25500000920E-02 0.  1.
    10030    2    1    2    0    0  0.00000000000E+00  0.00000000000E+00  0.12816395506E+04  0.34405839303E+04  0.31929638024E+04 0.  0.
        2    1    3    3  502    0 -0.69960652409E+03 -0.78494782467E+03  0.19353008835E+04  0.22024944689E+04  0.25500000920E-02 0. -1.
       -2    1    3    3    0  502  0.69960652409E+03  0.78494782467E+03 -0.65366133295E+03  0.12380894613E+04  0.25500000920E-02 0.  1.
</event>
<event>
 5   0  0.5622811E-06  0.3301150E+04  0.7818609E-02  0.8162603E-01
        2   -1    0    0  501    0  0.00000000000E+00  0.00000000000E+00  0.19497436748E+04  0.19497436748E+04  0.25500000920E-02 0.  1.
       -2   -1    0    0    0  501  0.00000000000E+00  0.00000000000E+00 -0.13973110937E+04  0.13973110937E+04  0.25500000920E-02 0. -1.
    10030    2    1    2    0    0  0.00000000000E+00  0.00000000000E+00  0.55243258102E+03  0.33470547685E+04  0.33011503854E+04 0.  0.
        1    1    3    3  502    0  0.16302779435E+03 -0.38639048446E+03 -0.13423920395E+04  0.14063755032E+04  0.50400001928E-02 0. -1.
       -1    1    3    3    0  502 -0.16302779435E+03  0.38639048446E+03  0.18948246205E+04  0.19406792653E+04  0.50400001928E-02 0.  1.
</event>
<event>
 5   0  0.3483594E-06  0.1730734E+04  0.7818609E-02  0.8744027E-01
        1   -1    0    0  501    0  0.00000000000E+00  0.00000000000E+00  0.92019622670E+03  0.92019622672E+03  0.50400001928E-02 0.  1.
       -1   -1    0    0    0  501  0.00000000000E+00  0.00000000000E+00 -0.81380450336E+03  0.81380450338E+03  0.50400001928E-02 0. -1.
    10030    2    1    2    0    0  0.00000000000E+00  0.00000000000E+00  0.10639172334E+03  0.17340007301E+04  0.17307337557E+04 0.  0.
        3    1    3    3  502    0  0.52542132561E+03  0.88435582866E+02  0.73637112496E+03  0.90891741407E+03  0.10100000352E+00 0.  1.
       -3    1    3    3    0  502 -0.52542132561E+03 -0.88435582866E+02 -0.62997940162E+03  0.82508331603E+03  0.10100000352E+00 0. -1.
</event>
<event>
 5   0  0.2097842E-06  0.1878964E+04  0.7818609E-02  0.8665399E-01
       -1   -1    0    0    0  501  0.00000000000E+00  0.00000000000E+00  0.63238009398E+03  0.63238009400E+03  0.50400001928E-02 0. -1.
        1   -1    0    0  501    0  0.00000000000E+00  0.00000000000E+00 -0.13957210053E+04  0.13957210053E+04  0.50400001928E-02 0.  1.
    10030    2    1    2    0    0  0.00000000000E+00  0.00000000000E+00 -0.76334091131E+03  0.20281010993E+04  0.18789637362E+04 0.  0.
        4    1    3    3  502    0  0.42043606200E+03 -0.10691678267E+03 -0.12811358640E+04  0.13525932114E+04  0.12699999809E+01 0.  1.
       -4    1    3    3    0  502 -0.42043606200E+03  0.10691678267E+03  0.51779495270E+03  0.67550788788E+03  0.12699999809E+01 0. -1.
</event>
<event>
 5   0  0.5637538E-06  0.3007491E+04  0.7818609E-02  0.8241595E-01
        2   -1    0    0  501    0  0.00000000000E+00  0.00000000000E+00  0.32009295020E+04  0.32009295020E+04  0.25500000920E-02 0.  1.
       -2   -1    0    0    0  501  0.00000000000E+00  0.00000000000E+00 -0.70643576022E+03  0.70643576023E+03  0.25500000920E-02 0. -1.
    10030    2    1    2    0    0  0.00000000000E+00  0.00000000000E+00  0.24944937417E+04  0.39073652622E+04  0.30074913574E+04 0.  0.
        2    1    3    3  502    0  0.13205489932E+04  0.24506907208E+02  0.31325902179E+03  0.13574171970E+04  0.25500000920E-02 0. -1.
       -2    1    3    3    0  502 -0.13205489932E+04 -0.24506907208E+02  0.21812347199E+04  0.25499480652E+04  0.25500000920E-02 0.  1.
</event>
<event>
 5   0  0.5300268E-06  0.2991074E+04  0.7818609E-02  0.8246284E-01
        2   -1    0    0  501    0  0.00000000000E+00  0.00000000000E+00  0.16528499549E+04  0.16528499549E+04  0.25500000920E-02 0. -1.
       -2   -1    0    0    0  501  0.00000000000E+00  0.00000000000E+00 -0.13531963020E+04  0.13531963020E+04  0.25500000920E-02 0.  1.
    10030    2    1    2    0    0  0.00000000000E+00  0.00000000000E+00  0.29965365293E+03  0.30060462569E+04  0.29910736847E+04 0.  0.
        4    1    3    3  502    0  0.22549339389E+03 -0.14178431716E+04 -0.27120018388E+03  0.14610536207E+04  0.12699999809E+01 0.  1.
       -4    1    3    3    0  502 -0.22549339389E+03  0.14178431716E+04  0.57085383680E+03  0.15449926362E+04  0.12699999809E+01 0. -1.
</event>
<event>
 5   0  0.5855568E-06  0.3326877E+04  0.7818609E-02  0.8156090E-01
        2   -1    0    0  501    0  0.00000000000E+00  0.00000000000E+00  0.25160929724E+04  0.25160929724E+04  0.25500000920E-02 0.  1.
       -2   -1    0    0    0  501  0.00000000000E+00  0.00000000000E+00 -0.10997320695E+04  0.10997320695E+04  0.25500000920E-02 0. -1.
    10030    2    1    2    0    0  0.00000000000E+00  0.00000000000E+00  0.14163609029E+04  0.36158250419E+04  0.33268772936E+04 0.  0.
        3    1    3    3  502    0  0.74817504719E+03  0.32181898024E+03  0.22845643429E+04  0.24254005039E+04  0.10100000352E+00 0. -1.
       -3    1    3    3    0  502 -0.74817504719E+03 -0.32181898024E+03 -0.86820344002E+03  0.11904245380E+04  0.10100000352E+00 0.  1.
</event>
<event>
 5   0  0.5755250E-06  0.3340840E+04  0.7818609E-02  0.8152581E-01
        2   -1    0    0  501    0  0.00000000000E+00  0.00000000000E+00  0.20032468565E+04  0.20032468565E+04  0.25500000920E-02 0.  1.
       -2   -1    0    0    0  501  0.00000000000E+00  0.00000000000E+00 -0.13928900361E+04  0.13928900361E+04  0.25500000920E-02 0. -1.
    10030    2    1    2    0    0  0.00000000000E+00  0.00000000000E+00  0.61035682044E+03  0.33961368925E+04  0.33408397664E+04 0.  0.
        5    1    3    3  502    0  0.16113972378E+04  0.39613003183E+03  0.50008201394E+03  0.17330966997E+04  0.46999998093E+01 0. -1.
       -5    1    3    3    0  502 -0.16113972378E+04 -0.39613003183E+03  0.11027480650E+03  0.16630401928E+04  0.46999998093E+01 0.  1.
</event>
<event>
 5   0  0.2097842E-06  0.3339468E+04  0.7818609E-02  0.8152925E-01
        1   -1    0    0  501    0  0.00000000000E+00  0.00000000000E+00  0.16528358717E+04  0.16528358717E+04  0.50400001928E-02 0. -1.
       -1   -1    0    0    0  501  0.00000000000E+00  0.00000000000E+00 -0.16868044710E+04  0.16868044711E+04  0.50400001928E-02 0.  1.
    10030    2    1    2    0    0  0.00000000000E+00  0.00000000000E+00 -0.33968599305E+02  0.33396403428E+04  0.33394675853E+04 0.  0.
        4    1    3    3  502    0  0.93966227481E+03 -0.13789721599E+04 -0.75978173469E+02  0.16704202178E+04  0.12699999809E+01 0.  1.
       -4    1    3    3    0  502 -0.93966227481E+03  0.13789721599E+04  0.42009574164E+02  0.16692201250E+04  0.12699999809E+01 0. -1.
</event>
<event>
 5   0  0.1999849E-06  0.3238239E+04  0.7818609E-02  0.8178791E-01
       -1   -1    0    0    0  501  0.00000000000E+00  0.00000000000E+00  0.17048813464E+04  0.17048813464E+04  0.50400001928E-02 0. -1.
        1   -1    0    0  501    0  0.00000000000E+00  0.00000000000E+00 -0.15376715034E+04  0.15376715034E+04  0.50400001928E-02 0.  1.
    10030    2    1    2    0    0  0.00000000000E+00  0.00000000000E+00  0.16720984305E+03  0.32425528498E+04  0.32382386960E+04 0.  0.
        5    1    3    3  502    0 -0.19580650705E+03  0.13893322202E+04  0.89272919602E+03  0.16630008159E+04  0.46999998093E+01 0. -1.
       -5    1    3    3    0  502  0.19580650705E+03 -0.13893322202E+04 -0.72551935298E+03  0.15795520339E+04  0.46999998093E+01 0.  1.
</event>
<event>
 5   0  0.1925906E-06  0.2982122E+04  0.7818609E-02  0.8248854E-01
        1   -1    0    0  501    0  0.00000000000E+00  0.00000000000E+00  0.17259528611E+04  0.17259528611E+04  0.50400001928E-02 0.  1.
       -1   -1    0    0    0  501  0.00000000000E+00  0.00000000000E+00 -0.12881368462E+04  0.12881368462E+04  0.50400001928E-02 0. -1.
    10030    2    1    2    0    0  0.00000000000E+00  0.00000000000E+00  0.43781601488E+03  0.30140897073E+04  0.29821223819E+04 0.  0.
        1    1    3    3  502    0  0.31360489721E+03 -0.11375384813E+04  0.11402285366E+04  0.16408726165E+04  0.50400001928E-02 0.  1.
       -1    1    3    3    0  502 -0.31360489721E+03  0.11375384813E+04 -0.70241252167E+03  0.13732170908E+04  0.50400001928E-02 0. -1.
</event>
<event>
 5   0  0.5300268E-06  0.3284907E+04  0.7818609E-02  0.8166747E-01
        2   -1    0    0  501    0  0.00000000000E+00  0.00000000000E+00  0.21058653801E+04  0.21058653801E+04  0.25500000920E-02 0. -1.
       -2   -1    0    0    0  501  0.00000000000E+00  0.00000000000E+00 -0.12810187664E+04  0.12810187664E+04  0.25500000920E-02 0.  1.
    10030    2    1    2    0    0  0.00000000000E+00  0.00000000000E+00  0.82484661369E+03  0.33868841465E+04  0.32849067393E+04 0.  0.
        4    1    3    3  502    0 -0.58929671022E+03  0.57579127391E+03  0.18773935819E+04  0.20502230313E+04  0.12699999809E+01 0. -1.
       -4    1    3    3    0  502  0.58929671022E+03 -0.57579127391E+03 -0.10525469682E+04  0.13366611152E+04  0.12699999809E+01 0.  1.
</event>
<event>
 5   0  0.5300268E-06  0.3324586E+04  0.7818609E-02  0.8156668E-01
        2   -1    0    0  501    0  0.00000000000E+00  0.00000000000E+00  0.11207097110E+04  0.11207097110E+04  0.25500000920E-02 0. -1.
       -2   -1    0    0    0  501  0.00000000000E+00  0.00000000000E+00 -0.24655964501E+04  0.24655964501E+04  0.25500000920E-02 0.  1.
    10030    2    1    2    0    0  0.00000000000E+00  0.00000000000E+00 -0.13448867390E+04  0.35863061611E+04  0.33245859202E+04 0.  0.
        4    1    3    3  502    0  0.91190950847E+03 -0.75135526943E+03  0.58883327093E+03  0.13201666283E+04  0.12699999809E+01 0.  1.
       -4    1    3    3    0  502 -0.91190950847E+03  0.75135526943E+03 -0.19337200099E+04  0.22661395328E+04  0.12699999809E+01 0. -1.
</event>
<event>
 5   0  0.1878000E-06  0.3288994E+04  0.7818609E-02  0.8165701E-01
        3   -1    0    0  501    0  0.00000000000E+00  0.00000000000E+00  0.18267145885E+04  0.18267145913E+04  0.10100000352E+00 0. -1.
       -3   -1    0    0    0  501  0.00000000000E+00  0.00000000000E+00 -0.14804560381E+04  0.14804560416E+04  0.10100000352E+00 0.  1.
    10030    2    1    2    0    0  0.00000000000E+00  0.00000000000E+00  0.34625855040E+03  0.33071706329E+04  0.32889941641E+04 0.  0.
        1    1    3    3  502    0  0.53791775999E+03  0.89313667325E+03 -0.11056386945E+04  0.15196991664E+04  0.50400001928E-02 0.  1.
       -1    1    3    3    0  502 -0.53791775999E+03 -0.89313667325E+03  0.14518972449E+04  0.17874714665E+04  0.50400001928E-02 0. -1.
</event>
<event>
 5   0  0.5637538E-06  0.3318390E+04  0.7818609E-02  0.8158232E-01
       -2   -1    0    0    0  501  0.00000000000E+00  0.00000000000E+00  0.16595049825E+04  0.16595049825E+04  0.25500000920E-02 0. -1.
        2   -1    0    0  501    0  0.00000000000E+00  0.00000000000E+00 -0.16588854038E+04  0.16588854038E+04  0.25500000920E-02 0.  1.
    10030    2    1    2    0    0  0.00000000000E+00  0.00000000000E+00  0.61957868537E+00  0.33183903864E+04  0.33183903285E+04 0.  0.
        2    1    3    3  502    0 -0.10702189030E+04  0.61715615167E+03  0.11078649437E+04  0.16594019855E+04  0.25500000920E-02 0. -1.
       -2    1    3    3    0  502  0.10702189030E+04 -0.61715615167E+03 -0.11072453650E+04  0.16589884009E+04  0.25500000920E-02 0.  1.
</event>
<event>
 5   0  0.2037109E-06  0.3028327E+04  0.7818609E-02  0.8235688E-01
        1   -1    0    0  501    0  0.00000000000E+00  0.00000000000E+00  0.14597546164E+04  0.14597546164E+04  0.50400001928E-02 0.  1.
       -1   -1    0    0    0  501  0.00000000000E+00  0.00000000000E+00 -0.15706006721E+04  0.15706006721E+04  0.50400001928E-02 0. -1.
    10030    2    1    2    0    0  0.00000000000E+00  0.00000000000E+00 -0.11084605576E+03  0.30303552885E+04  0.30283273150E+04 0.  0.
        2    1    3    3  502    0  0.11581579460E+04 -0.87715257257E+03  0.37143633080E+03  0.14995637403E+04  0.25500000920E-02 0. -1.
       -2    1    3    3    0  502 -0.11581579460E+04  0.87715257257E+03 -0.48228238656E+03  0.15307915482E+04  0.25500000920E-02 0.  1.
</event>
<event>
 5   0  0.2730981E-06  0.3235459E+04  0.7818609E-02  0.8179515E-01
        1   -1    0    0  501    0  0.00000000000E+00  0.00000000000E+00  0.22185300776E+04  0.22185300776E+04  0.50400001928E-02 0. -1.
       -1   -1    0    0    0  501  0.00000000000E+00  0.00000000000E+00 -0.11796319698E+04  0.11796319698E+04  0.50400001928E-02 0.  1.
    10030    2    1    2    0    0  0.00000000000E+00  0.00000000000E+00  0.10388981078E+04  0.33981620474E+04  0.32354591671E+04 0.  0.
        3    1    3    3  502    0 -0.92198454465E+03  0.24465964486E+03  0.18917270971E+04  0.21186187157E+04  0.10100000352E+00 0. -1.
       -3    1    3    3    0  502  0.92198454465E+03 -0.24465964486E+03 -0.85282898933E+03  0.12795433317E+04  0.10100000352E+00 0.  1.
</event>
<event>
 5   0  0.5755250E-06  0.3279583E+04  0.7818609E-02  0.8168110E-01
       -2   -1    0    0    0  501  0.00000000000E+00  0.00000000000E+00  0.21768617184E+04  0.21768617184E+04  0.25500000920E-02 0.  1.
        2   -1    0    0  501    0  0.00000000000E+00  0.00000000000E+00 -0.12352257724E+04  0.12352257724E+04  0.25500000920E-02 0. -1.
    10030    2    1    2    0    0  0.00000000000E+00  0.00000000000E+00  0.94163594606E+03  0.34120874908E+04  0.32795827159E+04 0.  0.
        5    1    3    3  502    0 -0.10539026586E+04 -0.12343734980E+04  0.22792262992E+03  0.16390117637E+04  0.46999998093E+01 0.  1.
       -5    1    3    3    0  502  0.10539026586E+04  0.12343734980E+04  0.71371331615E+03  0.17730757271E+04  0.46999998093E+01 0. -1.
</event>
<event>
 5   0  0.5622811E-06  0.1783843E+04  0.7818609E-02  0.8714939E-01
       -2   -1    0    0    0  501  0.00000000000E+00  0.00000000000E+00  0.79952311428E+03  0.79952311429E+03  0.25500000920E-02 0. -1.
        2   -1    0    0  501    0  0.00000000000E+00  0.00000000000E+00 -0.99499762724E+03  0.99499762725E+03  0.25500000920E-02 0.  1.
    10030    2    1    2    0    0  0.00000000000E+00  0.00000000000E+00 -0.19547451296E+03  0.17945207415E+04  0.17838425958E+04 0.  0.
        1    1    3    3  502    0 -0.35366199856E+03 -0.44639209065E+03  0.59279789027E+03  0.82204138981E+03  0.50400001928E-02 0. -1.
       -1    1    3    3    0  502  0.35366199856E+03  0.44639209065E+03 -0.78827240323E+03  0.97247935173E+03  0.50400001928E-02 0.  1.
</event>
<event>
 5   0  0.2097842E-06  0.3665956E+04  0.7818609E-02  0.8075548E-01
        1   -1    0    0  501    0  0.00000000000E+00  0.00000000000E+00  0.12796251629E+04  0.12796251629E+04  0.50400001928E-02 0.  1.
       -1   -1    0    0    0  501  0.00000000000E+00  0.00000000000E+00 -0.26256195243E+04  0.26256195243E+04  0.50400001928E-02 0. -1.
    10030    2    1    2    0    0  0.00000000000E+00  0.00000000000E+00 -0.13459943614E+04  0.39052446872E+04  0.36659562526E+04 0.  0.
        4    1    3    3  502    0  0.65788185011E+03  0.81547181402E+03  0.92916949347E+03  0.14004143561E+04  0.12699999809E+01 0.  1.
       -4    1    3    3    0  502 -0.65788185011E+03 -0.81547181402E+03 -0.22751638549E+04  0.25048303311E+04  0.12699999809E+01 0. -1.
</event>
<event>
 5   0  0.2097842E-06  0.2074952E+04  0.7818609E-02  0.8572358E-01
       -1   -1    0    0    0  501  0.00000000000E+00  0.00000000000E+00  0.47408128659E+03  0.47408128662E+03  0.50400001928E-02 0.  1.
        1   -1    0    0  501    0  0.00000000000E+00  0.00000000000E+00 -0.22704056601E+04  0.22704056601E+04  0.50400001928E-02 0. -1.
    10030    2    1    2    0    0  0.00000000000E+00  0.00000000000E+00 -0.17963243735E+04  0.27444869467E+04  0.20749523720E+04 0.  0.
        4    1    3    3  502    0 -0.66796533455E+03 -0.63016859193E+03 -0.25961699012E+03  0.95430222512E+03  0.12699999809E+01 0.  1.
       -4    1    3    3    0  502  0.66796533455E+03  0.63016859193E+03 -0.15367073834E+04  0.17901847216E+04  0.12699999809E+01 0. -1.
</event>
<event>
 5   0  0.1999849E-06  0.2141209E+04  0.7818609E-02  0.8543305E-01
        1   -1    0    0  501    0  0.00000000000E+00  0.00000000000E+00  0.18130314418E+04  0.18130314418E+04  0.50400001928E-02 0. -1.
       -1   -1    0    0    0  501  0.00000000000E+00  0.00000000000E+00 -0.63219760000E+03  0.63219760002E+03  0.50400001928E-02 0.  1.
    10030    2    1    2    0    0  0.00000000000E+00  0.00000000000E+00  0.11808338418E+04  0.24452290418E+04  0.21412091222E+04 0.  0.
        5    1    3    3  502    0  0.27005718495E+03  0.10266116526E+04  0.74910630036E+03  0.12992477468E+04  0.46999998093E+01 0. -1.
       -5    1    3    3    0  502 -0.27005718495E+03 -0.10266116526E+04  0.43172754145E+03  0.11459812950E+04  0.46999998093E+01 0.  1.
</event>
<event>
 5   0  0.5300268E-06  0.3291577E+04  0.7818609E-02  0.8165042E-01
        2   -1    0    0  501    0  0.00000000000E+00  0.00000000000E+00  0.24761750688E+04  0.24761750688E+04  0.25500000920E-02 0.  1.
       -2   -1    0    0    0  501  0.00000000000E+00  0.00000000000E+00 -0.10938721866E+04  0.10938721866E+04  0.25500000920E-02 0. -1.
    10030    2    1    2    0    0  0.00000000000E+00  0.00000000000E+00  0.13823028822E+04  0.35700472554E+04  0.32915765444E+04 0.  0.
        4    1    3    3  502    0  0.70565905634E+03  0.46135561430E+03  0.22241703132E+04  0.23786001979E+04  0.12699999809E+01 0.  1.
       -4    1    3    3    0  502 -0.70565905634E+03 -0.46135561430E+03 -0.84186743094E+03  0.11914470575E+04  0.12699999809E+01 0. -1.
</event>
<event>
 5   0  0.1999849E-06  0.3418063E+04  0.7818609E-02  0.8133487E-01
       -1   -1    0    0    0  501  0.00000000000E+00  0.00000000000E+00  0.10772872734E+04  0.10772872735E+04  0.50400001928E-02 0. -1.
        1   -1    0    0  501    0  0.00000000000E+00  0.00000000000E+00 -0.27112434807E+04  0.27112434807E+04  0.50400001928E-02 0.  1.
    10030    2    1    2    0    0  0.00000000000E+00  0.00000000000E+00 -0.16339562072E+04  0.37885307541E+04  0.34180626659E+04 0.  0.
        5    1    3    3  502    0  0.43303577899E+03 -0.10232880696E+04 -0.22562273420E+04  0.25149994767E+04  0.46999998093E+01 0.  1.
       -5    1    3    3    0  502 -0.43303577899E+03  0.10232880696E+04  0.62227113477E+03  0.12735312774E+04  0.46999998093E+01 0. -1.
</event>
<event>
 5   0  0.5855568E-06  0.1787781E+04  0.7818609E-02  0.8712824E-01
        2   -1    0    0  501    0  0.00000000000E+00  0.00000000000E+00  0.12116079219E+04  0.12116079219E+04  0.25500000920E-02 0. -1.
       -2   -1    0    0    0  501  0.00000000000E+00  0.00000000000E+00 -0.65948767340E+03  0.65948767340E+03  0.25500000920E-02 0.  1.
    10030    2    1    2    0    0  0.00000000000E+00  0.00000000000E+00  0.55212024853E+03  0.18710955953E+04  0.17877812948E+04 0.  0.
        3    1    3    3  502    0  0.33059840304E+03 -0.76348646684E+03 -0.66026031778E+02  0.83460549735E+03  0.10100000352E+00 0.  1.
       -3    1    3    3    0  502 -0.33059840304E+03  0.76348646684E+03  0.61814628031E+03  0.10364900980E+04  0.10100000352E+00 0. -1.
</event>
<event>
 5   0  0.5855568E-06  0.3255878E+04  0.7818609E-02  0.8174214E-01
       -2   -1    0    0    0  501  0.00000000000E+00  0.00000000000E+00  0.15345399200E+04  0.15345399200E+04  0.25500000920E-02 0.  1.
        2   -1    0    0  501    0  0.00000000000E+00  0.00000000000E+00 -0.17270231453E+04  0.17270231453E+04  0.25500000920E-02 0. -1.
    10030    2    1    2    0    0  0.00000000000E+00  0.00000000000E+00 -0.19248322533E+03  0.32615630653E+04  0.32558783511E+04 0.  0.
        3    1    3    3  502    0 -0.24446857719E+03  0.15784601520E+04  0.21876666652E+03  0.16121911181E+04  0.10100000352E+00 0.  1.
       -3    1    3    3    0  502  0.24446857719E+03 -0.15784601520E+04 -0.41124989185E+03  0.16493719473E+04  0.10100000352E+00 0. -1.
</event>
<event>
 5   0  0.1878000E-06  0.3262008E+04  0.7818609E-02  0.8172630E-01
       -3   -1    0    0    0  501  0.00000000000E+00  0.00000000000E+00  0.22985525886E+04  0.22985525908E+04  0.10100000352E+00 0.  1.
        3   -1    0    0  501    0  0.00000000000E+00  0.00000000000E+00 -0.11573255691E+04  0.11573255735E+04  0.10100000352E+00 0. -1.
    10030    2    1    2    0    0  0.00000000000E+00  0.00000000000E+00  0.11412270195E+04  0.34558781644E+04  0.32620077831E+04 0.  0.
        5    1    3    3  502    0  0.42240643672E+03 -0.32671591017E+03 -0.10620756568E+04  0.11887797418E+04  0.46999998093E+01 0. -1.
       -5    1    3    3    0  502 -0.42240643672E+03  0.32671591017E+03  0.22033026764E+04  0.22670984225E+04  0.46999998093E+01 0.  1.
</event>
<event>
 5   0  0.1999849E-06  0.2851047E+04  0.7818609E-02  0.8287593E-01
       -1   -1    0    0    0  501  0.00000000000E+00  0.00000000000E+00  0.16920288613E+04  0.16920288613E+04  0.50400001928E-02 0. -1.
        1   -1    0    0  501    0  0.00000000000E+00  0.00000000000E+00 -0.12009946238E+04  0.12009946239E+04  0.50400001928E-02 0.  1.
    10030    2    1    2    0    0  0.00000000000E+00  0.00000000000E+00  0.49103423747E+03  0.28930234852E+04  0.28510472222E+04 0.  0.
        5    1    3    3  502    0  0.12583803745E+04 -0.63214350683E+03  0.20969887837E+02  0.14083992354E+04  0.46999998093E+01 0.  1.
       -5    1    3    3    0  502 -0.12583803745E+04  0.63214350683E+03  0.47006434963E+03  0.14846242498E+04  0.46999998093E+01 0. -1.
</event>
<event>
 5   0  0.5855568E-06  0.3200348E+04  0.7818609E-02  0.8188725E-01
        2   -1    0    0  501    0  0.00000000000E+00  0.00000000000E+00  0.26237139733E+04  0.26237139733E+04  0.25500000920E-02 0.  1.
       -2   -1    0    0    0  501  0.00000000000E+00  0.00000000000E+00 -0.97592840692E+03  0.97592840693E+03  0.25500000920E-02 0. -1.
    10030    2    1    2    0    0  0.00000000000E+00  0.00000000000E+00  0.16477855664E+04  0.35996423802E+04  0.32003481049E+04 0.  0.
        3    1    3    3  502    0 -0.65759282317E+03 -0.44474195228E+02  0.24639506058E+04  0.25505801052E+04  0.10100000352E+00 0.  1.
       -3    1    3    3    0  502  0.65759282317E+03  0.44474195228E+02 -0.81616503940E+03  0.10490622750E+04  0.10100000352E+00 0. -1.
</event>
<event>
 5   0  0.5637538E-06  0.3282550E+04  0.7818609E-02  0.8167350E-01
       -2   -1    0    0    0  501  0.00000000000E+00  0.00000000000E+00  0.10594101709E+04  0.10594101709E+04  0.25500000920E-02 0.  1.
        2   -1    0    0  501    0  0.00000000000E+00  0.00000000000E+00 -0.25427196916E+04  0.25427196916E+04  0.25500000920E-02 0. -1.
    10030    2    1    2    0    0  0.00000000000E+00  0.00000000000E+00 -0.14833095207E+04  0.36021298625E+04  0.32825496816E+04 0.  0.
        2    1    3    3  502    0  0.14250822722E+04 -0.21201576908E+03  0.12099158175E+03  0.14458385566E+04  0.25500000920E-02 0.  1.
       -2    1    3    3    0  502 -0.14250822722E+04  0.21201576908E+03 -0.16043011024E+04  0.21562913059E+04  0.25500000920E-02 0. -1.
</event>
<event>
 5   0  0.5622811E-06  0.3321201E+04  0.7818609E-02  0.8157522E-01
        2   -1    0    0  501    0  0.00000000000E+00  0.00000000000E+00  0.17208916784E+04  0.17208916784E+04  0.25500000920E-02 0. -1.
       -2   -1    0    0    0  501  0.00000000000E+00  0.00000000000E+00 -0.16024215682E+04  0.16024215682E+04  0.25500000920E-02 0.  1.
    10030    2    1    2    0    0  0.00000000000E+00  0.00000000000E+00  0.11847011017E+03  0.33233132465E+04  0.33212009526E+04 0.  0.
        1    1    3    3  502    0  0.38853631455E+02  0.44371773324E+03  0.16600021406E+04  0.17187210764E+04  0.50400001928E-02 0. -1.
       -1    1    3    3    0  502 -0.38853631455E+02 -0.44371773324E+03 -0.15415320305E+04  0.16045921701E+04  0.50400001928E-02 0.  1.
</event>
<event>
 5   0  0.1925906E-06  0.1752623E+04  0.7818609E-02  0.8731908E-01
       -1   -1    0    0    0  501  0.00000000000E+00  0.00000000000E+00  0.42054555637E+03  0.42054555640E+03  0.50400001928E-02 0. -1.
        1   -1    0    0  501    0  0.00000000000E+00  0.00000000000E+00 -0.18260144726E+04  0.18260144726E+04  0.50400001928E-02 0.  1.
    10030    2    1    2    0    0  0.00000000000E+00  0.00000000000E+00 -0.14054689162E+04  0.22465600290E+04  0.17526234877E+04 0.  0.
        1    1    3    3  502    0  0.14777812521E+03 -0.77216157898E+03 -0.11989362687E+04  0.14337084971E+04  0.50400001928E-02 0.  1.
       -1    1    3    3    0  502 -0.14777812521E+03  0.77216157898E+03 -0.20653264752E+03  0.81285153186E+03  0.50400001928E-02 0. -1.
</event>
<event>
 5   0  0.5300268E-06  0.3301044E+04  0.7818609E-02  0.8162630E-01
       -2   -1    0    0    0  501  0.00000000000E+00  0.00000000000E+00  0.13215516339E+04  0.13215516339E+04  0.25500000920E-02 0.  1.
        2   -1    0    0  501    0  0.00000000000E+00  0.00000000000E+00 -0.20613825671E+04  0.20613825671E+04  0.25500000920E-02 0. -1.
    10030    2    1    2    0    0  0.00000000000E+00  0.00000000000E+00 -0.73983093321E+03  0.33829342010E+04  0.33010443799E+04 0.  0.
        4    1    3    3  502    0  0.13939914311E+04  0.82011822852E+03 -0.32481642795E+02  0.16176719966E+04  0.12699999809E+01 0.  1.
       -4    1    3    3    0  502 -0.13939914311E+04 -0.82011822852E+03 -0.70734929041E+03  0.17652622044E+04  0.12699999809E+01 0. -1.
</event>
<event>
 5   0  0.5300268E-06  0.3350215E+04  0.7818609E-02  0.8150234E-01
        2   -1    0    0  501    0  0.00000000000E+00  0.00000000000E+00  0.23956377872E+04  0.23956377872E+04  0.25500000920E-02 0. -1.
       -2   -1    0    0    0  501  0.00000000000E+00  0.00000000000E+00 -0.11712892433E+04  0.11712892433E+04  0.25500000920E-02 0.  1.
    10030    2    1    2    0    0  0.00000000000E+00  0.00000000000E+00  0.12243485439E+04  0.35669270305E+04  0.33502147818E+04 0.  0.
        4    1    3    3  502    0 -0.72901598325E+03  0.78153306487E+03  0.19854645188E+04  0.22548457162E+04  0.12699999809E+01 0. -1.
       -4    1    3    3    0  502  0.72901598325E+03 -0.78153306487E+03 -0.76111597493E+03  0.13120813144E+04  0.12699999809E+01 0.  1.
</event>
<event>
 5   0  0.5855568E-06  0.3086367E+04  0.7818609E-02  0.8219489E-01
       -2   -1    0    0    0  501  0.00000000000E+00  0.00000000000E+00  0.15464441102E+04  0.15464441102E+04  0.25500000920E-02 0.  1.
        2   -1    0    0  501    0  0.00000000000E+00  0.00000000000E+00 -0.15399297664E+04  0.15399297664E+04  0.25500000920E-02 0. -1.
    10030    2    1    2    0    0  0.00000000000E+00  0.00000000000E+00  0.65143437925E+01  0.30863738766E+04  0.30863670017E+04 0.  0.
        3    1    3    3  502    0 -0.67040915971E+03 -0.12108054105E+04 -0.67932556985E+03  0.15417462254E+04  0.10100000352E+00 0. -1.
       -3    1    3    3    0  502  0.67040915971E+03  0.12108054105E+04  0.68583991364E+03  0.15446276512E+04  0.10100000352E+00 0.  1.
</event>
<event>
 5   0  0.2097842E-06  0.3090231E+04  0.7818609E-02  0.8218424E-01
        1   -1    0    0  501    0  0.00000000000E+00  0.00000000000E+00  0.15234352390E+04  0.15234352390E+04  0.50400001928E-02 0. -1.
       -1   -1    0    0    0  501  0.00000000000E+00  0.00000000000E+00 -0.15671044376E+04  0.15671044376E+04  0.50400001928E-02 0.  1.
    10030    2    1    2    0    0  0.00000000000E+00  0.00000000000E+00 -0.43669198654E+02  0.30905396766E+04  0.30902311392E+04 0.  0.
        4    1    3    3  502    0  0.32523663177E+03 -0.14989605593E+04  0.16451404872E+03  0.15426367396E+04  0.12699999809E+01 0. -1.
       -4    1    3    3    0  502 -0.32523663177E+03  0.14989605593E+04 -0.20818324737E+03  0.15479029370E+04  0.12699999809E+01 0.  1.
</event>
<event>
 5   0  0.2037109E-06  0.3200531E+04  0.7818609E-02  0.8188677E-01
        1   -1    0    0  501    0  0.00000000000E+00  0.00000000000E+00  0.94437289670E+03  0.94437289672E+03  0.50400001928E-02 0. -1.
       -1   -1    0    0    0  501  0.00000000000E+00  0.00000000000E+00 -0.27116940435E+04  0.27116940435E+04  0.50400001928E-02 0.  1.
    10030    2    1    2    0    0  0.00000000000E+00  0.00000000000E+00 -0.17673211468E+04  0.36560669402E+04  0.32005314302E+04 0.  0.
        2    1    3    3  502    0 -0.10488103491E+04 -0.12082770056E+04 -0.84912723543E+03  0.18113402587E+04  0.25500000920E-02 0.  1.
       -2    1    3    3    0  502  0.10488103491E+04  0.12082770056E+04 -0.91819391137E+03  0.18447266816E+04  0.25500000920E-02 0. -1.
</event>
<event>
 5   0  0.5855568E-06  0.3275199E+04  0.7818609E-02  0.8169235E-01
        2   -1    0    0  501    0  0.00000000000E+00  0.00000000000E+00  0.15051791939E+04  0.15051791939E+04  0.25500000920E-02 0. -1.
       -2   -1    0    0    0  501  0.00000000000E+00  0.00000000000E+00 -0.17816698522E+04  0.17816698522E+04  0.25500000920E-02 0.  1.
    10030    2    1    2    0    0  0.00000000000E+00  0.00000000000E+00 -0.27649065833E+03  0.32868490462E+04  0.32751991646E+04 0.  0.
        3    1    3    3  502    0  0.16368631219E+03  0.13319526252E+04 -0.10801151855E+04  0.17226548780E+04  0.10100000352E+00 0.  1.
       -3    1    3    3    0  502 -0.16368631219E+03 -0.13319526252E+04  0.80362452722E+03  0.15641941681E+04  0.10100000352E+00 0. -1.
</event>
<event>
 5   0  0.5300268E-06  0.3394562E+04  0.7818609E-02  0.8139242E-01
        2   -1    0    0  501    0  0.00000000000E+00  0.00000000000E+00  0.21354476695E+04  0.21354476695E+04  0.25500000920E-02 0. -1.
       -2   -1    0    0    0  501  0.00000000000E+00  0.00000000000E+00 -0.13490208405E+04  0.13490208405E+04  0.25500000920E-02 0.  1.
    10030    2    1    2    0    0  0.00000000000E+00  0.00000000000E+00  0.78642682904E+03  0.34844685100E+04  0.33945623635E+04 0.  0.
        4    1    3    3  502    0  0.62030765881E+03  0.12317555094E+04  0.14087382322E+04  0.19714330438E+04  0.12699999809E+01 0. -1.
       -4    1    3    3    0  502 -0.62030765881E+03 -0.12317555094E+04 -0.62231140312E+03  0.15130354662E+04  0.12699999809E+01 0.  1.
</event>
<event>
 5   0  0.5300268E-06  0.2975679E+04  0.7818609E-02  0.8250710E-01
       -2   -1    0    0    0  501  0.00000000000E+00  0.00000000000E+00  0.83364298242E+03  0.83364298242E+03  0.25500000920E-02 0. -1.
        2   -1    0    0  501    0  0.00000000000E+00  0.00000000000E+00 -0.26554126533E+04  0.26554126533E+04  0.25500000920E-02 0.  1.
    10030    2    1    2    0    0  0.00000000000E+00  0.00000000000E+00 -0.18217696709E+04  0.34890556357E+04  0.29756788294E+04 0.  0.
        4    1    3    3  502    0 -0.47590317532E+03 -0.76290011014E+03  0.47902094918E+03  0.10188047374E+04  0.12699999809E+01 0.  1.
       -4    1    3    3    0  502  0.47590317532E+03  0.76290011014E+03 -0.23007906201E+04  0.24702508983E+04  0.12699999809E+01 0. -1.
</event>
<event>
 5   0  0.2730981E-06  0.2254949E+04  0.7818609E-02  0.8495899E-01
       -1   -1    0    0    0  501  0.00000000000E+00  0.00000000000E+00  0.14401172420E+04  0.14401172420E+04  0.50400001928E-02 0.  1.
        1   -1    0    0  501    0  0.00000000000E+00  0.00000000000E+00 -0.88270501935E+03  0.88270501937E+03  0.50400001928E-02 0. -1.
    10030    2    1    2    0    0  0.00000000000E+00  0.00000000000E+00  0.55741222267E+03  0.23228222614E+04  0.22549489733E+04 0.  0.
        3    1    3    3  502    0  0.38083397635E+03 -0.10812240187E+02  0.13718002733E+04  0.14237230848E+04  0.10100000352E+00 0.  1.
       -3    1    3    3    0  502 -0.38083397635E+03  0.10812240187E+02 -0.81438805067E+03  0.89909917659E+03  0.10100000352E+00 0. -1.
</event>
<event>
 5   0  0.1925906E-06  0.3312073E+04  0.7818609E-02  0.8159830E-01
        1   -1    0    0  501    0  0.00000000000E+00  0.00000000000E+00  0.19619080300E+04  0.19619080300E+04  0.50400001928E-02 0.  1.
       -1   -1    0    0    0  501  0.00000000000E+00  0.00000000000E+00 -0.13978521013E+04  0.13978521013E+04  0.50400001928E-02 0. -1.
    10030    2    1    2    0    0  0.00000000000E+00  0.00000000000E+00  0.56405592876E+03  0.33597601313E+04  0.33120732252E+04 0.  0.
        1    1    3    3  502    0  0.12989917343E+04  0.69038226036E+03  0.10535374707E+04  0.18094055360E+04  0.50400001928E-02 0.  1.
       -1    1    3    3    0  502 -0.12989917343E+04 -0.69038226036E+03 -0.48948154198E+03  0.15503545953E+04  0.50400001928E-02 0. -1.
</event>
<event>
 5   0  0.2037109E-06  0.3350036E+04  0.7818609E-02  0.8150279E-01
       -1   -1    0    0    0  501  0.00000000000E+00  0.00000000000E+00  0.15000117745E+04  0.15000117745E+04  0.50400001928E-02 0. -1.
        1   -1    0    0  501    0  0.00000000000E+00  0.00000000000E+00 -0.18704424049E+04  0.18704424049E+04  0.50400001928E-02 0.  1.
    10030    2    1    2    0    0  0.00000000000E+00  0.00000000000E+00 -0.37043063044E+03  0.33704541794E+04  0.33500361973E+04 0.  0.
        2    1    3    3  502    0  0.33141523203E+03  0.25589121888E+03  0.14465108885E+04  0.15058918030E+04  0.25500000920E-02 0. -1.
       -2    1    3    3    0  502 -0.33141523203E+03 -0.25589121888E+03 -0.18169415189E+04  0.18645623763E+04  0.25500000920E-02 0.  1.
</event>
<event>
 5   0  0.5622811E-06  0.3337104E+04  0.7818609E-02  0.8153518E-01
       -2   -1    0    0    0  501  0.00000000000E+00  0.00000000000E+00  0.15218225902E+04  0.15218225902E+04  0.25500000920E-02 0. -1.
        2   -1    0    0  501    0  0.00000000000E+00  0.00000000000E+00 -0.18294287477E+04  0.18294287477E+04  0.25500000920E-02 0.  1.
    10030    2    1    2    0    0  0.00000000000E+00  0.00000000000E+00 -0.30760615749E+03  0.33512513379E+04  0.33371041310E+04 0.  0.
        1    1    3    3  502    0  0.23139934720E+03 -0.15511906333E+04  0.41810921825E+03  0.16231307271E+04  0.50400001928E-02 0. -1.
       -1    1    3    3    0  502 -0.23139934720E+03  0.15511906333E+04 -0.72571537574E+03  0.17281206108E+04  0.50400001928E-02 0.  1.
</event>
<event>
 5   0  0.5300268E-06  0.3261288E+04  0.7818609E-02  0.8172816E-01
       -2   -1    0    0    0  501  0.00000000000E+00  0.00000000000E+00  0.14711249044E+04  0.14711249044E+04  0.25500000920E-02 0. -1.
        2   -1    0    0  501    0  0.00000000000E+00  0.00000000000E+00 -0.18074605705E+04  0.18074605705E+04  0.25500000920E-02 0.  1.
    10030    2    1    2    0    0  0.00000000000E+00  0.00000000000E+00 -0.33633566607E+03  0.32785854749E+04  0.32612882479E+04 0.  0.
        4    1    3    3  502    0  0.14081628418E+04  0.11803919548E+02 -0.99468208453E+03  0.17240811998E+04  0.12699999809E+01 0.  1.
       -4    1    3    3    0  502 -0.14081628418E+04 -0.11803919548E+02  0.65834641846E+03  0.15545042750E+04  0.12699999809E+01 0. -1.
</event>
<event>
 5   0  0.1999849E-06  0.3416039E+04  0.7818609E-02  0.8133981E-01
       -1   -1    0    0    0  501  0.00000000000E+00  0.00000000000E+00  0.13925517533E+04  0.13925517533E+04  0.50400001928E-02 0.  1.
        1   -1    0    0  501    0  0.00000000000E+00  0.00000000000E+00 -0.20949532294E+04  0.20949532294E+04  0.50400001928E-02 0. -1.
    10030    2    1    2    0    0  0.00000000000E+00  0.00000000000E+00 -0.70240147611E+03  0.34875049827E+04  0.34160391056E+04 0.  0.
        5    1    3    3  502    0  0.11760858673E+04 -0.33232194936E+03  0.86694754151E+03  0.14984111502E+04  0.46999998093E+01 0.  1.
       -5    1    3    3    0  502 -0.11760858673E+04  0.33232194936E+03 -0.15693490176E+04  0.19890938325E+04  0.46999998093E+01 0. -1.
</event>
<event>
 5   0  0.5300268E-06  0.3255743E+04  0.7818609E-02  0.8174249E-01
       -2   -1    0    0    0  501  0.00000000000E+00  0.00000000000E+00  0.11578410398E+04  0.11578410398E+04  0.25500000920E-02 0.  1.
        2   -1    0    0  501    0  0.00000000000E+00  0.00000000000E+00 -0.22887128090E+04  0.22887128090E+04  0.25500000920E-02 0. -1.
    10030    2    1    2    0    0  0.00000000000E+00  0.00000000000E+00 -0.11308717692E+04  0.34465538488E+04  0.32557429988E+04 0.  0.
        4    1    3    3  502    0 -0.44176969590E+03 -0.46622586512E+03 -0.21489077787E+04  0.22428404481E+04  0.12699999809E+01 0. -1.
       -4    1    3    3    0  502  0.44176969590E+03  0.46622586512E+03  0.10180360095E+04  0.12037134007E+04  0.12699999809E+01 0.  1.
</event>
<event>
 5   0  0.2730981E-06  0.3342665E+04  0.7818609E-02  0.8152123E-01
       -1   -1    0    0    0  501  0.00000000000E+00  0.00000000000E+00  0.10227330740E+04  0.10227330740E+04  0.50400001928E-02 0.  1.
        1   -1    0    0  501    0  0.00000000000E+00  0.00000000000E+00 -0.27312630655E+04  0.27312630655E+04  0.50400001928E-02 0. -1.
    10030    2    1    2    0    0  0.00000000000E+00  0.00000000000E+00 -0.17085299916E+04  0.37539961395E+04  0.33426654460E+04 0.  0.
        3    1    3    3  502    0 -0.97052459001E+03  0.19900404833E+03 -0.23659452102E+04  0.25649985066E+04  0.10100000352E+00 0. -1.
       -3    1    3    3    0  502  0.97052459001E+03 -0.19900404833E+03  0.65741521868E+03  0.11889976329E+04  0.10100000352E+00 0.  1.
</event>
<event>
 5   0  0.1878000E-06  0.3278689E+04  0.7818609E-02  0.8168339E-01
        3   -1    0    0  501    0  0.00000000000E+00  0.00000000000E+00  0.11713701784E+04  0.11713701828E+04  0.10100000352E+00 0. -1.
       -3   -1    0    0    0  501  0.00000000000E+00  0.00000000000E+00 -0.22942792656E+04  0.22942792678E+04  0.10100000352E+00 0.  1.
    10030    2    1    2    0    0  0.00000000000E+00  0.00000000000E+00 -0.11229090872E+04  0.34656494506E+04  0.32786889600E+04 0.  0.
        2    1    3    3  502    0  0.16154879986E+04 -0.25510777389E+03 -0.67995843247E+03  0.17712213074E+04  0.25500000920E-02 0. -1.
       -2    1    3    3    0  502 -0.16154879986E+04  0.25510777389E+03 -0.44295065469E+03  0.16944281432E+04  0.25500000920E-02 0.  1.
</event>
<event>
 5   0  0.1999849E-06  0.3275184E+04  0.7818609E-02  0.8169239E-01
        1   -1    0    0  501    0  0.00000000000E+00  0.00000000000E+00  0.13794258407E+04  0.13794258407E+04  0.50400001928E-02 0. -1.
       -1   -1    0    0    0  501  0.00000000000E+00  0.00000000000E+00 -0.19440750936E+04  0.19440750936E+04  0.50400001928E-02 0.  1.
    10030    2    1    2    0    0  0.00000000000E+00  0.00000000000E+00 -0.56464925290E+03  0.33235009342E+04  0.32751839156E+04 0.  0.
        5    1    3    3  502    0  0.44648813369E+03 -0.12930658761E+04 -0.11957790194E+04  0.18169426427E+04  0.46999998093E+01 0. -1.
       -5    1    3    3    0  502 -0.44648813369E+03  0.12930658761E+04  0.63112976653E+03  0.15065582915E+04  0.46999998093E+01 0.  1.
</event>
<event>
 5   0  0.5755250E-06  0.2008717E+04  0.7818609E-02  0.8602556E-01
        2   -1    0    0  501    0  0.00000000000E+00  0.00000000000E+00  0.11912634409E+04  0.11912634409E+04  0.25500000920E-02 0.  1.
       -2   -1    0    0    0  501  0.00000000000E+00  0.00000000000E+00 -0.84677834791E+03  0.84677834791E+03  0.25500000920E-02 0. -1.
    10030    2    1    2    0    0  0.00000000000E+00  0.00000000000E+00  0.34448509302E+03  0.20380417888E+04  0.20087170915E+04 0.  0.
        5    1    3    3  502    0 -0.96524101157E+03  0.27615868820E+03  0.14426891800E+03  0.10142925821E+04  0.46999998093E+01 0.  1.
       -5    1    3    3    0  502  0.96524101157E+03 -0.27615868820E+03  0.20021617502E+03  0.10237492067E+04  0.46999998093E+01 0. -1.
</event>
<event>
 5   0  0.5755250E-06  0.3318765E+04  0.7818609E-02  0.8158137E-01
       -2   -1    0    0    0  501  0.00000000000E+00  0.00000000000E+00  0.11341995721E+04  0.11341995721E+04  0.25500000920E-02 0.  1.
        2   -1    0    0  501    0  0.00000000000E+00  0.00000000000E+00 -0.24277480972E+04  0.24277480972E+04  0.25500000920E-02 0. -1.
    10030    2    1    2    0    0  0.00000000000E+00  0.00000000000E+00 -0.12935485251E+04  0.35619476693E+04  0.33187653445E+04 0.  0.
        5    1    3    3  502    0 -0.48784303289E+03  0.13775864074E+03  0.10490546498E+04  0.11651206015E+04  0.46999998093E+01 0.  1.
       -5    1    3    3    0  502  0.48784303289E+03 -0.13775864074E+03 -0.23426031749E+04  0.23968270678E+04  0.46999998093E+01 0. -1.
</event>
<event>
 5   0  0.5637538E-06  0.3752598E+04  0.7818609E-02  0.8056404E-01
        2   -1    0    0  501    0  0.00000000000E+00  0.00000000000E+00  0.24473990523E+04  0.24473990523E+04  0.25500000920E-02 0.  1.
       -2   -1    0    0    0  501  0.00000000000E+00  0.00000000000E+00 -0.14384652395E+04  0.14384652395E+04  0.25500000920E-02 0. -1.
    10030    2    1    2    0    0  0.00000000000E+00  0.00000000000E+00  0.10089338128E+04  0.38858642918E+04  0.37525982806E+04 0.  0.
        2    1    3    3  502    0  0.85430195973E+02 -0.73424424838E+03 -0.12813308833E+04  0.14792639275E+04  0.25500000920E-02 0. -1.
       -2    1    3    3    0  502 -0.85430195973E+02  0.73424424838E+03  0.22902646962E+04  0.24066003642E+04  0.25500000920E-02 0.  1.
</event>
<event>
 5   0  0.1925906E-06  0.1631063E+04  0.7818609E-02  0.8801689E-01
       -1   -1    0    0    0  501  0.00000000000E+00  0.00000000000E+00  0.16482869123E+04  0.16482869123E+04  0.50400001928E-02 0.  1.
        1   -1    0    0  501    0  0.00000000000E+00  0.00000000000E+00 -0.40350469838E+03  0.40350469841E+03  0.50400001928E-02 0. -1.
    10030    2    1    2    0    0  0.00000000000E+00  0.00000000000E+00  0.12447822139E+04  0.20517916107E+04  0.16310628601E+04 0.  0.
        1    1    3    3  502    0 -0.27254985297E+03 -0.25233242573E+03  0.15357134240E+04  0.15799907582E+04  0.50400001928E-02 0.  1.
       -1    1    3    3    0  502  0.27254985297E+03  0.25233242573E+03 -0.29093121005E+03  0.47180085251E+03  0.50400001928E-02 0. -1.
</event>
<event>
 5   0  0.5755250E-06  0.3337817E+04  0.7818609E-02  0.8153339E-01
        2   -1    0    0  501    0  0.00000000000E+00  0.00000000000E+00  0.25069861624E+04  0.25069861624E+04  0.25500000920E-02 0. -1.
       -2   -1    0    0    0  501  0.00000000000E+00  0.00000000000E+00 -0.11109974033E+04  0.11109974033E+04  0.25500000920E-02 0.  1.
    10030    2    1    2    0    0  0.00000000000E+00  0.00000000000E+00  0.13959887591E+04  0.36179835657E+04  0.33378167215E+04 0.  0.
        5    1    3    3  502    0 -0.38647884647E+03 -0.14057765445E+04 -0.18237310291E+03  0.14693044717E+04  0.46999998093E+01 0.  1.
       -5    1    3    3    0  502  0.38647884647E+03  0.14057765445E+04  0.15783618620E+04  0.21486790941E+04  0.46999998093E+01 0. -1.
</event>
<event>
 5   0  0.1999849E-06  0.3514111E+04  0.7818609E-02  0.8110454E-01
        1   -1    0    0  501    0  0.00000000000E+00  0.00000000000E+00  0.11310013147E+04  0.11310013147E+04  0.50400001928E-02 0. -1.
       -1   -1    0    0    0  501  0.00000000000E+00  0.00000000000E+00 -0.27296558781E+04  0.27296558781E+04  0.50400001928E-02 0.  1.
    10030    2    1    2    0    0  0.00000000000E+00  0.00000000000E+00 -0.15986545634E+04  0.38606571928E+04  0.35141112030E+04 0.  0.
        5    1    3    3  502    0  0.67788852200E+03 -0.24986470875E+03 -0.25589160727E+04  0.26589544521E+04  0.46999998093E+01 0.  1.
       -5    1    3    3    0  502 -0.67788852200E+03  0.24986470875E+03  0.96026150929E+03  0.12017027408E+04  0.46999998093E+01 0. -1.
</event>
<event>
 5   0  0.5855568E-06  0.3187402E+04  0.7818609E-02  0.8192152E-01
        2   -1    0    0  501    0  0.00000000000E+00  0.00000000000E+00  0.15340117254E+04  0.15340117254E+04  0.25500000920E-02 0. -1.
       -2   -1    0    0    0  501  0.00000000000E+00  0.00000000000E+00 -0.16557131898E+04  0.16557131898E+04  0.25500000920E-02 0.  1.
    10030    2    1    2    0    0  0.00000000000E+00  0.00000000000E+00 -0.12170146445E+03  0.31897249152E+04  0.31874023575E+04 0.  0.
        3    1    3    3  502    0  0.14778860320E+04 -0.25689919371E+03 -0.59951715843E+03  0.16154148547E+04  0.10100000352E+00 0.  1.
       -3    1    3    3    0  502 -0.14778860320E+04  0.25689919371E+03  0.47781569398E+03  0.15743100606E+04  0.10100000352E+00 0. -1.
</event>
<event>
 5   0  0.5755250E-06  0.3244163E+04  0.7818609E-02  0.8177250E-01
        2   -1    0    0  501    0  0.00000000000E+00  0.00000000000E+00  0.22401926785E+04  0.22401926785E+04  0.25500000920E-02 0.  1.
       -2   -1    0    0    0  501  0.00000000000E+00  0.00000000000E+00 -0.11745188725E+04  0.11745188725E+04  0.25500000920E-02 0. -1.
    10030    2    1    2    0    0  0.00000000000E+00  0.00000000000E+00  0.10656738060E+04  0.34147115510E+04  0.32441631148E+04 0.  0.
        5    1    3    3  502    0  0.38380916784E+03 -0.15449083918E+04  0.20488873931E+03  0.16050086921E+04  0.46999998093E+01 0.  1.
       -5    1    3    3    0  502 -0.38380916784E+03  0.15449083918E+04  0.86078506672E+03  0.18097028589E+04  0.46999998093E+01 0. -1.
</event>
<event>
 5   0  0.2097842E-06  0.3304069E+04  0.7818609E-02  0.8161861E-01
       -1   -1    0    0    0  501  0.00000000000E+00  0.00000000000E+00  0.10897187641E+04  0.10897187641E+04  0.50400001928E-02 0.  1.
        1   -1    0    0  501    0  0.00000000000E+00  0.00000000000E+00 -0.25045155267E+04  0.25045155267E+04  0.50400001928E-02 0. -1.
    10030    2    1    2    0    0  0.00000000000E+00  0.00000000000E+00 -0.14147967626E+04  0.35942342909E+04  0.33040687430E+04 0.  0.
        4    1    3    3  502    0  0.16204363293E+04  0.31256484348E+03 -0.62523174276E+03  0.17647739299E+04  0.12699999809E+01 0.  1.
       -4    1    3    3    0  502 -0.16204363293E+04 -0.31256484348E+03 -0.78956501982E+03  0.18294603609E+04  0.12699999809E+01 0. -1.
</event>
<event>
 5   0  0.5855568E-06  0.3184821E+04  0.7818609E-02  0.8192837E-01
        2   -1    0    0  501    0  0.00000000000E+00  0.00000000000E+00  0.13355896984E+04  0.13355896984E+04  0.25500000920E-02 0. -1.
       -2   -1    0    0    0  501  0.00000000000E+00  0.00000000000E+00 -0.18986156092E+04  0.18986156092E+04  0.25500000920E-02 0.  1.
    10030    2    1    2    0    0  0.00000000000E+00  0.00000000000E+00 -0.56302591086E+03  0.32342053076E+04  0.31848211560E+04 0.  0.
        3    1    3    3  502    0  0.95455045529E+03  0.12621666607E+04 -0.46186234282E+03  0.16484987368E+04  0.10100000352E+00 0. -1.
       -3    1    3    3    0  502 -0.95455045529E+03 -0.12621666607E+04 -0.10116356804E+03  0.15857065709E+04  0.10100000352E+00 0.  1.
</event>
<event>
 5   0  0.5637538E-06  0.3287897E+04  0.7818609E-02  0.8165982E-01
       -2   -1    0    0    0  501  0.00000000000E+00  0.00000000000E+00  0.13992949131E+04  0.13992949131E+04  0.25500000920E-02 0.  1.
        2   -1    0    0  501    0  0.00000000000E+00  0.00000000000E+00 -0.19313776624E+04  0.19313776624E+04  0.25500000920E-02 0. -1.
    10030    2    1    2    0    0  0.00000000000E+00  0.00000000000E+00 -0.53208274924E+03  0.33306725755E+04  0.32878971628E+04 0.  0.
        2    1    3    3  502    0 -0.74103038678E+03 -0.19315693092E+03  0.12075769778E+04  0.14299223026E+04  0.25500000920E-02 0.  1.
       -2    1    3    3    0  502  0.74103038678E+03  0.19315693092E+03 -0.17396597271E+04  0.19007502729E+04  0.25500000920E-02 0. -1.
</event>
<event>
 5   0  0.5300268E-06  0.3300496E+04  0.7818609E-02  0.8162769E-01
       -2   -1    0    0    0  501  0.00000000000E+00  0.00000000000E+00  0.13893308515E+04  0.13893308515E+04  0.25500000920E-02 0.  1.
        2   -1    0    0  501    0  0.00000000000E+00  0.00000000000E+00 -0.19601656171E+04  0.19601656172E+04  0.25500000920E-02 0. -1.
    10030    2    1    2    0    0  0.00000000000E+00  0.00000000000E+00 -0.57083476567E+03  0.33494964686E+04  0.33004960633E+04 0.  0.
        4    1    3    3  502    0 -0.13601301697E+04  0.27943758537E+03 -0.11904404649E+04  0.18289859366E+04  0.12699999809E+01 0. -1.
       -4    1    3    3    0  502  0.13601301697E+04 -0.27943758537E+03  0.61960569926E+03  0.15205105321E+04  0.12699999809E+01 0.  1.
</event>
<event>
 5   0  0.5855568E-06  0.3324512E+04  0.7818609E-02  0.8156686E-01
        2   -1    0    0  501    0  0.00000000000E+00  0.00000000000E+00  0.20417430810E+04  0.20417430810E+04  0.25500000920E-02 0. -1.
       -2   -1    0    0    0  501  0.00000000000E+00  0.00000000000E+00 -0.13533020571E+04  0.13533020571E+04  0.25500000920E-02 0.  1.
    10030    2    1    2    0    0  0.00000000000E+00  0.00000000000E+00  0.68844102390E+03  0.33950451381E+04  0.33245120614E+04 0.  0.
        3    1    3    3  502    0  0.15515252382E+04  0.59623783914E+03  0.36373016952E+03  0.17014787016E+04  0.10100000352E+00 0.  1.
       -3    1    3    3    0  502 -0.15515252382E+04 -0.59623783914E+03  0.32471085438E+03  0.16935664365E+04  0.10100000352E+00 0. -1.
</event>
<event>
 5   0  0.5622811E-06  0.2825333E+04  0.7818609E-02  0.8295446E-01
       -2   -1    0    0    0  501  0.00000000000E+00  0.00000000000E+00  0.21695448050E+04  0.21695448050E+04  0.25500000920E-02 0. -1.
        2   -1    0    0  501    0  0.00000000000E+00  0.00000000000E+00 -0.91983640694E+03  0.91983640695E+03  0.25500000920E-02 0.  1.
    10030    2    1    2    0    0  0.00000000000E+00  0.00000000000E+00  0.12497083980E+04  0.30893812119E+04  0.28253327578E+04 0.  0.
        1    1    3    3  502    0  0.61896169358E+03  0.10266754035E+04 -0.19228148135E+03  0.12141450203E+04  0.50400001928E-02 0.  1.
       -1    1    3    3    0  502 -0.61896169358E+03 -0.10266754035E+04  0.14419898794E+04  0.18752361916E+04  0.50400001928E-02 0. -1.
</event>
<event>
 5   0  0.5622811E-06  0.3271179E+04  0.7818609E-02  0.8170268E-01
       -2   -1    0    0    0  501  0.00000000000E+00  0.00000000000E+00  0.16381780777E+04  0.16381780777E+04  0.25500000920E-02 0. -1.
        2   -1    0    0  501    0  0.00000000000E+00  0.00000000000E+00 -0.16330051981E+04  0.16330051981E+04  0.25500000920E-02 0.  1.
    10030    2    1    2    0    0  0.00000000000E+00  0.00000000000E+00  0.51728796681E+01  0.32711832758E+04  0.32711791858E+04 0.  0.
        1    1    3    3  502    0  0.11294572038E+04  0.13179776843E+03 -0.11730463878E+04  0.16337325531E+04  0.50400001928E-02 0.  1.
       -1    1    3    3    0  502 -0.11294572038E+04 -0.13179776843E+03  0.11782192675E+04  0.16374507227E+04  0.50400001928E-02 0. -1.
</event>
<event>
 5   0  0.1925906E-06  0.3035060E+04  0.7818609E-02  0.8233790E-01
        1   -1    0    0  501    0  0.00000000000E+00  0.00000000000E+00  0.97652162844E+03  0.97652162845E+03  0.50400001928E-02 0.  1.
       -1   -1    0    0    0  501  0.00000000000E+00  0.00000000000E+00 -0.23582652883E+04  0.23582652883E+04  0.50400001928E-02 0. -1.
    10030    2    1    2    0    0  0.00000000000E+00  0.00000000000E+00 -0.13817436598E+04  0.33347869167E+04  0.30350598410E+04 0.  0.
        1    1    3    3  502    0 -0.14395919555E+04 -0.12858721213E+03 -0.11990829664E+04  0.18779668873E+04  0.50400001928E-02 0. -1.
       -1    1    3    3    0  502  0.14395919555E+04  0.12858721213E+03 -0.18266069344E+03  0.14568200295E+04  0.50400001928E-02 0.  1.
</event>
<event>
 5   0  0.2037109E-06  0.3223791E+04  0.7818609E-02  0.8182562E-01
       -1   -1    0    0    0  501  0.00000000000E+00  0.00000000000E+00  0.10284309130E+04  0.10284309130E+04  0.50400001928E-02 0.  1.
        1   -1    0    0  501    0  0.00000000000E+00  0.00000000000E+00 -0.25263795987E+04  0.25263795988E+04  0.50400001928E-02 0. -1.
    10030    2    1    2    0    0  0.00000000000E+00  0.00000000000E+00 -0.14979486857E+04  0.35548105118E+04  0.32237908601E+04 0.  0.
        2    1    3    3  502    0  0.12148577900E+04  0.10479622504E+04 -0.92016540421E+03  0.18495428352E+04  0.25500000920E-02 0. -1.
       -2    1    3    3    0  502 -0.12148577900E+04 -0.10479622504E+04 -0.57778328151E+03  0.17052676766E+04  0.25500000920E-02 0.  1.
</event>
<event>
 5   0  0.5622811E-06  0.3208189E+04  0.7818609E-02  0.8186658E-01
        2   -1    0    0  501    0  0.00000000000E+00  0.00000000000E+00  0.16753037736E+04  0.16753037736E+04  0.25500000920E-02 0. -1.
       -2   -1    0    0    0  501  0.00000000000E+00  0.00000000000E+00 -0.15359122052E+04  0.15359122052E+04  0.25500000920E-02 0.  1.
    10030    2    1    2    0    0  0.00000000000E+00  0.00000000000E+00  0.13939156835E+03  0.32112159788E+04  0.32081892171E+04 0.  0.
        1    1    3    3  502    0  0.48461785565E+03 -0.47697910670E+03 -0.13845189996E+04  0.15424838393E+04  0.50400001928E-02 0.  1.
       -1    1    3    3    0  502 -0.48461785565E+03  0.47697910670E+03  0.15239105679E+04  0.16687321395E+04  0.50400001928E-02 0. -1.
</event>
<event>
 5   0  0.1999849E-06  0.3287825E+04  0.7818609E-02  0.8166000E-01
        1   -1    0    0  501    0  0.00000000000E+00  0.00000000000E+00  0.24870518826E+04  0.24870518826E+04  0.50400001928E-02 0.  1.
       -1   -1    0    0    0  501  0.00000000000E+00  0.00000000000E+00 -0.10866068328E+04  0.10866068328E+04  0.50400001928E-02 0. -1.
    10030    2    1    2    0    0  0.00000000000E+00  0.00000000000E+00  0.14004450498E+04  0.35736587154E+04  0.32878245507E+04 0.  0.
        5    1    3    3  502    0 -0.91507862674E+02 -0.50321162274E+03  0.23983613601E+04  0.24522958488E+04  0.46999998093E+01 0.  1.
       -5    1    3    3    0  502  0.91507862674E+02  0.50321162274E+03 -0.99791631033E+03  0.11213628666E+04  0.46999998093E+01 0. -1.
</event>
<event>
 5   0  0.5755250E-06  0.3298479E+04  0.7818609E-02  0.8163283E-01
       -2   -1    0    0    0  501  0.00000000000E+00  0.00000000000E+00  0.27462006364E+04  0.27462006364E+04  0.25500000920E-02 0.  1.
        2   -1    0    0  501    0  0.00000000000E+00  0.00000000000E+00 -0.99045600629E+03  0.99045600629E+03  0.25500000920E-02 0. -1.
    10030    2    1    2    0    0  0.00000000000E+00  0.00000000000E+00  0.17557446301E+04  0.37366566427E+04  0.32984789918E+04 0.  0.
        5    1    3    3  502    0 -0.13188908186E+04 -0.63618605304E+03  0.18282226461E+02  0.14644323185E+04  0.46999998093E+01 0. -1.
       -5    1    3    3    0  502  0.13188908186E+04  0.63618605304E+03  0.17374624037E+04  0.22722243242E+04  0.46999998093E+01 0.  1.
</event>
<event>
 5   0  0.3013290E-06  0.1625019E+04  0.7818609E-02  0.8805324E-01
        1   -1    0    0  501    0  0.00000000000E+00  0.00000000000E+00  0.93303386839E+03  0.93303386840E+03  0.50400001928E-02 0. -1.
       -1   -1    0    0    0  501  0.00000000000E+00  0.00000000000E+00 -0.70755343453E+03  0.70755343454E+03  0.50400001928E-02 0.  1.
    10030    2    1    2    0    0  0.00000000000E+00  0.00000000000E+00  0.22548043386E+03  0.16405873029E+04  0.16250185453E+04 0.  0.
        3    1    3    3  502    0  0.12179640958E+03 -0.74477419188E+03 -0.19122295350E+03  0.77851730259E+03  0.10100000352E+00 0.  1.
       -3    1    3    3    0  502 -0.12179640958E+03  0.74477419188E+03  0.41670338737E+03  0.86207000036E+03  0.10100000352E+00 0. -1.
</event>
<event>
 5   0  0.5637538E-06  0.3071886E+04  0.7818609E-02  0.8223496E-01
       -2   -1    0    0    0  501  0.00000000000E+00  0.00000000000E+00  0.12476671621E+04  0.12476671621E+04  0.25500000920E-02 0.  1.
        2   -1    0    0  501    0  0.00000000000E+00  0.00000000000E+00 -0.18908251352E+04  0.18908251352E+04  0.25500000920E-02 0. -1.
    10030    2    1    2    0    0  0.00000000000E+00  0.00000000000E+00 -0.64315797316E+03  0.31384922973E+04  0.30718856947E+04 0.  0.
        2    1    3    3  502    0 -0.44575544893E+03 -0.13958926233E+04  0.14873505376E+03  0.14728666784E+04  0.25500000920E-02 0.  1.
       -2    1    3    3    0  502  0.44575544893E+03  0.13958926233E+04 -0.79189302692E+03  0.16656256189E+04  0.25500000920E-02 0. -1.
</event>
<event>
 5   0  0.2097842E-06  0.3294455E+04  0.7818609E-02  0.8164308E-01
        1   -1    0    0  501    0  0.00000000000E+00  0.00000000000E+00  0.23425493864E+04  0.23425493864E+04  0.50400001928E-02 0. -1.
       -1   -1    0    0    0  501  0.00000000000E+00  0.00000000000E+00 -0.11582930302E+04  0.11582930302E+04  0.50400001928E-02 0.  1.
    10030    2    1    2    0    0  0.00000000000E+00  0.00000000000E+00  0.11842563562E+04  0.35008424166E+04  0.32944551156E+04 0.  0.
        4    1    3    3  502    0 -0.12525589745E+04  0.30496652837E+03  0.16817679813E+04  0.21190218791E+04  0.12699999809E+01 0. -1.
       -4    1    3    3    0  502  0.12525589745E+04 -0.30496652837E+03 -0.49751162513E+03  0.13818205376E+04  0.12699999809E+01 0.  1.
</event>
<event>
 5   0  0.1999849E-06  0.3253442E+04  0.7818609E-02  0.8174844E-01
       -1   -1    0    0    0  501  0.00000000000E+00  0.00000000000E+00  0.16954828305E+04  0.16954828305E+04  0.50400001928E-02 0. -1.
        1   -1    0    0  501    0  0.00000000000E+00  0.00000000000E+00 -0.15607475916E+04  0.15607475916E+04  0.50400001928E-02 0.  1.
    10030    2    1    2    0    0  0.00000000000E+00  0.00000000000E+00  0.13473523885E+03  0.32562304221E+04  0.32534417126E+04 0.  0.
        5    1    3    3  502    0  0.60127811064E+03  0.66184375068E+02 -0.14439873063E+04  0.15655788606E+04  0.46999998093E+01 0.  1.
       -5    1    3    3    0  502 -0.60127811064E+03 -0.66184375068E+02  0.15787225452E+04  0.16906515615E+04  0.46999998093E+01 0. -1.
</event>
<event>
 5   0  0.1925906E-06  0.2305867E+04  0.7818609E-02  0.8475611E-01
       -1   -1    0    0    0  501  0.00000000000E+00  0.00000000000E+00  0.67274640335E+03  0.67274640337E+03  0.50400001928E-02 0. -1.
        1   -1    0    0  501    0  0.00000000000E+00  0.00000000000E+00 -0.19758642764E+04  0.19758642765E+04  0.50400001928E-02 0.  1.
    10030    2    1    2    0    0  0.00000000000E+00  0.00000000000E+00 -0.13031178731E+04  0.26486106798E+04  0.23058669394E+04 0.  0.
        1    1    3    3  502    0 -0.11373937305E+04  0.68521187466E+02 -0.85345811347E+03  0.14236398431E+04  0.50400001928E-02 0.  1.
       -1    1    3    3    0  502  0.11373937305E+04 -0.68521187466E+02 -0.44965975962E+03  0.12249708367E+04  0.50400001928E-02 0. -1.
</event>
<event>
 5   0  0.2037109E-06  0.3250819E+04  0.7818609E-02  0.8175524E-01
        1   -1    0    0  501    0  0.00000000000E+00  0.00000000000E+00  0.24375271964E+04  0.24375271964E+04  0.50400001928E-02 0. -1.
       -1   -1    0    0    0  501  0.00000000000E+00  0.00000000000E+00 -0.10838670202E+04  0.10838670202E+04  0.50400001928E-02 0.  1.
    10030    2    1    2    0    0  0.00000000000E+00  0.00000000000E+00  0.13536601762E+04  0.35213942167E+04  0.32508185672E+04 0.  0.
        2    1    3    3  502    0 -0.15172774067E+04 -0.27501597869E+03  0.12005374037E+03  0.15466665504E+04  0.25500000920E-02 0. -1.
       -2    1    3    3    0  502  0.15172774067E+04  0.27501597869E+03  0.12336064358E+04  0.19747276663E+04  0.25500000920E-02 0.  1.
</event>
<event>
 5   0  0.5855568E-06  0.3329440E+04  0.7818609E-02  0.8155445E-01
       -2   -1    0    0    0  501  0.00000000000E+00  0.00000000000E+00  0.89897148360E+03  0.89897148361E+03  0.25500000920E-02 0.  1.
        2   -1    0    0  501    0  0.00000000000E+00  0.00000000000E+00 -0.30827361813E+04  0.30827361814E+04  0.25500000920E-02 0. -1.
    10030    2    1    2    0    0  0.00000000000E+00  0.00000000000E+00 -0.21837646977E+04  0.39817076650E+04  0.33294395435E+04 0.  0.
        3    1    3    3  502    0 -0.15321620584E+04 -0.43013903417E+03 -0.16762302874E+04  0.23113390380E+04  0.10100000352E+00 0. -1.
       -3    1    3    3    0  502  0.15321620584E+04  0.43013903417E+03 -0.50753441031E+03  0.16703686269E+04  0.10100000352E+00 0.  1.
</event>
<event>
 5   0  0.5622811E-06  0.1856676E+04  0.7818609E-02  0.8676727E-01
       -2   -1    0    0    0  501  0.00000000000E+00  0.00000000000E+00  0.52981015475E+03  0.52981015476E+03  0.25500000920E-02 0. -1.
        2   -1    0    0  501    0  0.00000000000E+00  0.00000000000E+00 -0.16266425704E+04  0.16266425704E+04  0.25500000920E-02 0.  1.
    10030    2    1    2    0    0  0.00000000000E+00  0.00000000000E+00 -0.10968324156E+04  0.21564527251E+04  0.18566763336E+04 0.  0.
        1    1    3    3  502    0  0.82213424371E+03  0.35100585111E+03 -0.25758286600E+03  0.93030035746E+03  0.50400001928E-02 0. -1.
       -1    1    3    3    0  502 -0.82213424371E+03 -0.35100585111E+03 -0.83924954964E+03  0.12261523677E+04  0.50400001928E-02 0.  1.
</event>
<event>
 5   0  0.2037109E-06  0.3402391E+04  0.7818609E-02  0.8137320E-01
       -1   -1    0    0    0  501  0.00000000000E+00  0.00000000000E+00  0.11436470387E+04  0.11436470387E+04  0.50400001928E-02 0. -1.
        1   -1    0    0  501    0  0.00000000000E+00  0.00000000000E+00 -0.25305589815E+04  0.25305589816E+04  0.50400001928E-02 0.  1.
    10030    2    1    2    0    0  0.00000000000E+00  0.00000000000E+00 -0.13869119428E+04  0.36742060203E+04  0.34023910919E+04 0.  0.
        2    1    3    3  502    0 -0.60226342384E+03  0.10910922479E+04 -0.19439206718E+04  0.23091191185E+04  0.25500000920E-02 0.  1.
       -2    1    3    3    0  502  0.60226342384E+03 -0.10910922479E+04  0.55700872897E+03  0.13650869018E+04  0.25500000920E-02 0. -1.
</event>
<event>
 5   0  0.2097842E-06  0.3361259E+04  0.7818609E-02  0.8147481E-01
       -1   -1    0    0    0  501  0.00000000000E+00  0.00000000000E+00  0.16505942127E+04  0.16505942128E+04  0.50400001928E-02 0. -1.
        1   -1    0    0  501    0  0.00000000000E+00  0.00000000000E+00 -0.17112109167E+04  0.17112109167E+04  0.50400001928E-02 0.  1.
    10030    2    1    2    0    0  0.00000000000E+00  0.00000000000E+00 -0.60616703975E+02  0.33618051295E+04  0.33612585952E+04 0.  0.
        4    1    3    3  502    0 -0.87098634861E+03  0.11300368203E+04 -0.91866039966E+03  0.16969204394E+04  0.12699999809E+01 0.  1.
       -4    1    3    3    0  502  0.87098634861E+03 -0.11300368203E+04  0.85804369569E+03  0.16648846901E+04  0.12699999809E+01 0. -1.
</event>
<event>
 5   0  0.2730981E-06  0.3292257E+04  0.7818609E-02  0.8164868E-01
       -1   -1    0    0    0  501  0.00000000000E+00  0.00000000000E+00  0.20017386661E+04  0.20017386661E+04  0.50400001928E-02 0.  1.
        1   -1    0    0  501    0  0.00000000000E+00  0.00000000000E+00 -0.13536924891E+04  0.13536924892E+04  0.50400001928E-02 0. -1.
    10030    2    1    2    0    0  0.00000000000E+00  0.00000000000E+00  0.64804617699E+03  0.33554311553E+04  0.32922567322E+04 0.  0.
        3    1    3    3  502    0  0.13473900343E+03 -0.10117954521E+04  0.16402587323E+04  0.19319247798E+04  0.10100000352E+00 0.  1.
       -3    1    3    3    0  502 -0.13473900343E+03  0.10117954521E+04 -0.99221255527E+03  0.14235063755E+04  0.10100000352E+00 0. -1.
</event>
<event>
 5   0  0.2097842E-06  0.2511505E+04  0.7818609E-02  0.8398898E-01
        1   -1    0    0  501    0  0.00000000000E+00  0.00000000000E+00  0.13713716211E+04  0.13713716211E+04  0.50400001928E-02 0. -1.
       -1   -1    0    0    0  501  0.00000000000E+00  0.00000000000E+00 -0.11498808953E+04  0.11498808953E+04  0.50400001928E-02 0.  1.
    10030    2    1    2    0    0  0.00000000000E+00  0.00000000000E+00  0.22149072587E+03  0.25212525164E+04  0.25115047501E+04 0.  0.
        4    1    3    3  502    0 -0.16556176927E+03  0.75215196590E+03  0.11064463491E+04  0.13480980734E+04  0.12699999809E+01 0. -1.
       -4    1    3    3    0  502  0.16556176927E+03 -0.75215196590E+03 -0.88495562320E+03  0.11731544430E+04  0.12699999809E+01 0.  1.
</event>
<event>
 5   0  0.5637538E-06  0.3224724E+04  0.7818609E-02  0.8182318E-01
        2   -1    0    0  501    0  0.00000000000E+00  0.00000000000E+00  0.16638875740E+04  0.16638875740E+04  0.25500000920E-02 0. -1.
       -2   -1    0    0    0  501  0.00000000000E+00  0.00000000000E+00 -0.15624315901E+04  0.15624315901E+04  0.25500000920E-02 0.  1.
    10030    2    1    2    0    0  0.00000000000E+00  0.00000000000E+00  0.10145598385E+03  0.32263191641E+04  0.32247235590E+04 0.  0.
        2    1    3    3  502    0 -0.11379383785E+04 -0.18828654945E+03 -0.10764860090E+04  0.15777128083E+04  0.25500000920E-02 0.  1.
       -2    1    3    3    0  502  0.11379383785E+04  0.18828654945E+03  0.11779419928E+04  0.16486063558E+04  0.25500000920E-02 0. -1.
</event>
<event>
 5   0  0.5622811E-06  0.2911466E+04  0.7818609E-02  0.8269474E-01
        2   -1    0    0  501    0  0.00000000000E+00  0.00000000000E+00  0.21556370128E+04  0.21556370128E+04  0.25500000920E-02 0. -1.
       -2   -1    0    0    0  501  0.00000000000E+00  0.00000000000E+00 -0.98307750573E+03  0.98307750574E+03  0.25500000920E-02 0.  1.
    10030    2    1    2    0    0  0.00000000000E+00  0.00000000000E+00  0.11725595070E+04  0.31387145185E+04  0.29114657874E+04 0.  0.
        1    1    3    3  502    0 -0.18425975817E+03  0.14375652465E+04  0.43920249398E+03  0.15144122052E+04  0.50400001928E-02 0.  1.
       -1    1    3    3    0  502  0.18425975817E+03 -0.14375652465E+04  0.73335701306E+03  0.16243023133E+04  0.50400001928E-02 0. -1.
</event>
<event>
 5   0  0.1925906E-06  0.3265586E+04  0.7818609E-02  0.8171708E-01
        1   -1    0    0  501    0  0.00000000000E+00  0.00000000000E+00  0.14252109980E+04  0.14252109980E+04  0.50400001928E-02 0.  1.
       -1   -1    0    0    0  501  0.00000000000E+00  0.00000000000E+00 -0.18706091984E+04  0.18706091984E+04  0.50400001928E-02 0. -1.
    10030    2    1    2    0    0  0.00000000000E+00  0.00000000000E+00 -0.44539820032E+03  0.32958201964E+04  0.32655858908E+04 0.  0.
        1    1    3    3  502    0  0.63593852791E+02  0.16277880343E+04 -0.11088191696E+03  0.16327990881E+04  0.50400001928E-02 0.  1.
       -1    1    3    3    0  502 -0.63593852791E+02 -0.16277880343E+04 -0.33451628336E+03  0.16630211083E+04  0.50400001928E-02 0. -1.
</event>
<event>
 5   0  0.5637538E-06  0.3315998E+04  0.7818609E-02  0.8158837E-01
       -2   -1    0    0    0  501  0.00000000000E+00  0.00000000000E+00  0.14945747240E+04  0.14945747240E+04  0.25500000920E-02 0. -1.
        2   -1    0    0  501    0  0.00000000000E+00  0.00000000000E+00 -0.18392923923E+04  0.18392923923E+04  0.25500000920E-02 0.  1.
    10030    2    1    2    0    0  0.00000000000E+00  0.00000000000E+00 -0.34471766823E+03  0.33338671163E+04  0.33159975390E+04 0.  0.
        2    1    3    3  502    0 -0.15967070589E+04 -0.38947876782E+03  0.47434855096E+02  0.16442071670E+04  0.25500000920E-02 0. -1.
       -2    1    3    3    0  502  0.15967070589E+04  0.38947876782E+03 -0.39215252332E+03  0.16896599493E+04  0.25500000920E-02 0.  1.
</event>
<event>
 5   0  0.2730981E-06  0.3025264E+04  0.7818609E-02  0.8236553E-01
       -1   -1    0    0    0  501  0.00000000000E+00  0.00000000000E+00  0.13665095147E+04  0.13665095147E+04  0.50400001928E-02 0.  1.
        1   -1    0    0  501    0  0.00000000000E+00  0.00000000000E+00 -0.16743800782E+04  0.16743800782E+04  0.50400001928E-02 0. -1.
    10030    2    1    2    0    0  0.00000000000E+00  0.00000000000E+00 -0.30787056349E+03  0.30408895930E+04  0.30252644897E+04 0.  0.
        3    1    3    3  502    0 -0.38200344687E+03  0.11124030762E+04 -0.11099992964E+04  0.16172401447E+04  0.10100000352E+00 0. -1.
       -3    1    3    3    0  502  0.38200344687E+03 -0.11124030762E+04  0.80212873286E+03  0.14236494483E+04  0.10100000352E+00 0.  1.
</event>
<event>
 5   0  0.5622811E-06  0.3442738E+04  0.7818609E-02  0.8127496E-01
       -2   -1    0    0    0  501  0.00000000000E+00  0.00000000000E+00  0.12843679937E+04  0.12843679937E+04  0.25500000920E-02 0.  1.
        2   -1    0    0  501    0  0.00000000000E+00  0.00000000000E+00 -0.23070575164E+04  0.23070575164E+04  0.25500000920E-02 0. -1.
    10030    2    1    2    0    0  0.00000000000E+00  0.00000000000E+00 -0.10226895226E+04  0.35914255101E+04  0.34427377674E+04 0.  0.
        1    1    3    3  502    0 -0.28690736337E+03  0.23536664599E+03 -0.22648323679E+04  0.22950335396E+04  0.50400001928E-02 0. -1.
       -1    1    3    3    0  502  0.28690736337E+03 -0.23536664599E+03  0.12421428453E+04  0.12963919705E+04  0.50400001928E-02 0.  1.
</event>
<event>
 5   0  0.2730981E-06  0.2936450E+04  0.7818609E-02  0.8262114E-01
       -1   -1    0    0    0  501  0.00000000000E+00  0.00000000000E+00  0.13794500329E+04  0.13794500329E+04  0.50400001928E-02 0. -1.
        1   -1    0    0  501    0  0.00000000000E+00  0.00000000000E+00 -0.15627136121E+04  0.15627136121E+04  0.50400001928E-02 0.  1.
    10030    2    1    2    0    0  0.00000000000E+00  0.00000000000E+00 -0.18326357921E+03  0.29421636451E+04  0.29364504721E+04 0.  0.
        3    1    3    3  502    0 -0.93983271564E+02  0.65030620476E+03  0.12239171881E+04  0.13891379733E+04  0.10100000352E+00 0. -1.
       -3    1    3    3    0  502  0.93983271564E+02 -0.65030620476E+03 -0.14071807673E+04  0.15530256718E+04  0.10100000352E+00 0.  1.
</event>
<event>
 5   0  0.5755250E-06  0.3265449E+04  0.7818609E-02  0.8171743E-01
       -2   -1    0    0    0  501  0.00000000000E+00  0.00000000000E+00  0.15839041945E+04  0.15839041945E+04  0.25500000920E-02 0. -1.
        2   -1    0    0  501    0  0.00000000000E+00  0.00000000000E+00 -0.16830500778E+04  0.16830500778E+04  0.25500000920E-02 0.  1.
    10030    2    1    2    0    0  0.00000000000E+00  0.00000000000E+00 -0.99145883306E+02  0.32669542724E+04  0.32654494808E+04 0.  0.
        5    1    3    3  502    0 -0.24909991608E+03  0.49170502338E+03 -0.15871427004E+04  0.16801394703E+04  0.46999998093E+01 0.  1.
       -5    1    3    3    0  502  0.24909991608E+03 -0.49170502338E+03  0.14879968171E+04  0.15868148020E+04  0.46999998093E+01 0. -1.
</event>
<event>
 5   0  0.5622811E-06  0.3282437E+04  0.7818609E-02  0.8167379E-01
        2   -1    0    0  501    0  0.00000000000E+00  0.00000000000E+00  0.22412988272E+04  0.22412988272E+04  0.25500000920E-02 0. -1.
       -2   -1    0    0    0  501  0.00000000000E+00  0.00000000000E+00 -0.12018026903E+04  0.12018026903E+04  0.25500000920E-02 0.  1.
    10030    2    1    2    0    0  0.00000000000E+00  0.00000000000E+00  0.10394961369E+04  0.34431015176E+04  0.32824374848E+04 0.  0.
        1    1    3    3  502    0 -0.10101861483E+04 -0.20804566041E+03 -0.81939148654E+03  0.13172552749E+04  0.50400001928E-02 0.  1.
       -1    1    3    3    0  502  0.10101861483E+04  0.20804566041E+03  0.18588876234E+04  0.21258462427E+04  0.50400001928E-02 0. -1.
</event>
<event>
 5   0  0.2037109E-06  0.3023335E+04  0.7818609E-02  0.8237099E-01
       -1   -1    0    0    0  501  0.00000000000E+00  0.00000000000E+00  0.11178070633E+04  0.11178070634E+04  0.50400001928E-02 0.  1.
        1   -1    0    0  501    0  0.00000000000E+00  0.00000000000E+00 -0.20443048135E+04  0.20443048135E+04  0.50400001928E-02 0. -1.
    10030    2    1    2    0    0  0.00000000000E+00  0.00000000000E+00 -0.92649775018E+03  0.31621118769E+04  0.30233348212E+04 0.  0.
        2    1    3    3  502    0  0.14063958208E+04 -0.22208613308E+03 -0.99436414673E+03  0.17366725401E+04  0.25500000920E-02 0. -1.
       -2    1    3    3    0  502 -0.14063958208E+04  0.22208613308E+03  0.67866396552E+02  0.14254393368E+04  0.25500000920E-02 0.  1.
</event>
<event>
 5   0  0.5637538E-06  0.3137816E+04  0.7818609E-02  0.8205436E-01
        2   -1    0    0  501    0  0.00000000000E+00  0.00000000000E+00  0.10144233638E+04  0.10144233638E+04  0.25500000920E-02 0.  1.
       -2   -1    0    0    0  501  0.00000000000E+00  0.00000000000E+00 -0.24264748283E+04  0.24264748283E+04  0.25500000920E-02 0. -1.
    10030    2    1    2    0    0  0.00000000000E+00  0.00000000000E+00 -0.14120514645E+04  0.34408981921E+04  0.31378162837E+04 0.  0.
        2    1    3    3  502    0 -0.13467776682E+04 -0.79997135275E+03 -0.60974721741E+03  0.16809390001E+04  0.25500000920E-02 0.  1.
       -2    1    3    3    0  502  0.13467776682E+04  0.79997135275E+03 -0.80230424713E+03  0.17599591921E+04  0.25500000920E-02 0. -1.
</event>
<event>
 5   0  0.5622811E-06  0.2106385E+04  0.7818609E-02  0.8558436E-01
        2   -1    0    0  501    0  0.00000000000E+00  0.00000000000E+00  0.19091743209E+04  0.19091743209E+04  0.25500000920E-02 0.  1.
       -2   -1    0    0    0  501  0.00000000000E+00  0.00000000000E+00 -0.58099164652E+03  0.58099164652E+03  0.25500000920E-02 0. -1.
    10030    2    1    2    0    0  0.00000000000E+00  0.00000000000E+00  0.13281826744E+04  0.24901659674E+04  0.21063848957E+04 0.  0.
        1    1    3    3  502    0 -0.70247584595E+03 -0.70603928910E+03  0.10688983129E+04  0.14609953440E+04  0.50400001928E-02 0.  1.
       -1    1    3    3    0  502  0.70247584595E+03  0.70603928910E+03  0.25928436144E+03  0.10291706234E+04  0.50400001928E-02 0. -1.
</event>
<event>
 5   0  0.2037109E-06  0.3052346E+04  0.7818609E-02  0.8228939E-01
        1   -1    0    0  501    0  0.00000000000E+00  0.00000000000E+00  0.15995644434E+04  0.15995644434E+04  0.50400001928E-02 0. -1.
       -1   -1    0    0    0  501  0.00000000000E+00  0.00000000000E+00 -0.14561488259E+04  0.14561488259E+04  0.50400001928E-02 0.  1.
    10030    2    1    2    0    0  0.00000000000E+00  0.00000000000E+00  0.14341561753E+03  0.30557132693E+04  0.30523459084E+04 0.  0.
        2    1    3    3  502    0 -0.11715163511E+04  0.13514187557E+03 -0.89811786274E+03  0.14823392267E+04  0.25500000920E-02 0.  1.
       -2    1    3    3    0  502  0.11715163511E+04 -0.13514187557E+03  0.10415334803E+04  0.15733740426E+04  0.25500000920E-02 0. -1.
</event>
<event>
 5   0  0.2097842E-06  0.3175364E+04  0.7818609E-02  0.8195354E-01
       -1   -1    0    0    0  501  0.00000000000E+00  0.00000000000E+00  0.20104075093E+04  0.20104075093E+04  0.50400001928E-02 0. -1.
        1   -1    0    0  501    0  0.00000000000E+00  0.00000000000E+00 -0.12538420114E+04  0.12538420115E+04  0.50400001928E-02 0.  1.
    10030    2    1    2    0    0  0.00000000000E+00  0.00000000000E+00  0.75656549785E+03  0.32642495208E+04  0.31753635353E+04 0.  0.
        4    1    3    3  502    0  0.11511906710E+04 -0.10296564706E+04  0.75640983630E+03  0.17197644786E+04  0.12699999809E+01 0. -1.
       -4    1    3    3    0  502 -0.11511906710E+04  0.10296564706E+04  0.15566155189E+00  0.15444850422E+04  0.12699999809E+01 0.  1.
</event>
<event>
 5   0  0.5755250E-06  0.3089583E+04  0.7818609E-02  0.8218602E-01
       -2   -1    0    0    0  501  0.00000000000E+00  0.00000000000E+00  0.81392247191E+03  0.81392247191E+03  0.25500000920E-02 0.  1.
        2   -1    0    0  501    0  0.00000000000E+00  0.00000000000E+00 -0.29319517248E+04  0.29319517248E+04  0.25500000920E-02 0. -1.
    10030    2    1    2    0    0  0.00000000000E+00  0.00000000000E+00 -0.21180292529E+04  0.37458741967E+04  0.30895833994E+04 0.  0.
        5    1    3    3  502    0 -0.14113146995E+04  0.95679997503E+02 -0.18116880183E+04  0.22985211351E+04  0.46999998093E+01 0.  1.
       -5    1    3    3    0  502  0.14113146995E+04 -0.95679997503E+02 -0.30634123462E+03  0.14473530616E+04  0.46999998093E+01 0. -1.
</event>
<event>
 5   0  0.1999849E-06  0.3294671E+04  0.7818609E-02  0.8164253E-01
       -1   -1    0    0    0  501  0.00000000000E+00  0.00000000000E+00  0.13439190495E+04  0.13439190495E+04  0.50400001928E-02 0.  1.
        1   -1    0    0  501    0  0.00000000000E+00  0.00000000000E+00 -0.20192542081E+04  0.20192542081E+04  0.50400001928E-02 0. -1.
    10030    2    1    2    0    0  0.00000000000E+00  0.00000000000E+00 -0.67533515864E+03  0.33631732576E+04  0.32946709675E+04 0.  0.
        5    1    3    3  502    0 -0.54863778786E+03 -0.14535469167E+04  0.22134066974E+03  0.15693361155E+04  0.46999998093E+01 0.  1.
       -5    1    3    3    0  502  0.54863778786E+03  0.14535469167E+04 -0.89667582838E+03  0.17938371421E+04  0.46999998093E+01 0. -1.
</event>
<event>
 5   0  0.2730981E-06  0.3258104E+04  0.7818609E-02  0.8173638E-01
       -1   -1    0    0    0  501  0.00000000000E+00  0.00000000000E+00  0.11203679185E+04  0.11203679185E+04  0.50400001928E-02 0.  1.
        1   -1    0    0  501    0  0.00000000000E+00  0.00000000000E+00 -0.23686954410E+04  0.23686954410E+04  0.50400001928E-02 0. -1.
    10030    2    1    2    0    0  0.00000000000E+00  0.00000000000E+00 -0.12483275225E+04  0.34890633595E+04  0.32581039768E+04 0.  0.
        3    1    3    3  502    0  0.71694777158E+03  0.44444995800E+03 -0.21166064229E+04  0.22785022783E+04  0.10100000352E+00 0. -1.
       -3    1    3    3    0  502 -0.71694777158E+03 -0.44444995800E+03  0.86827890044E+03  0.12105610813E+04  0.10100000352E+00 0.  1.
</event>
<event>
 5   0  0.5855568E-06  0.3326257E+04  0.7818609E-02  0.8156246E-01
        2   -1    0    0  501    0  0.00000000000E+00  0.00000000000E+00  0.28222949892E+04  0.28222949892E+04  0.25500000920E-02 0.  1.
       -2   -1    0    0    0  501  0.00000000000E+00  0.00000000000E+00 -0.98005193480E+03  0.98005193480E+03  0.25500000920E-02 0. -1.
    10030    2    1    2    0    0  0.00000000000E+00  0.00000000000E+00  0.18422430544E+04  0.38023469240E+04  0.33262565534E+04 0.  0.
        3    1    3    3  502    0  0.49756275665E+03  0.30313651342E+03  0.27018155251E+04  0.27639224997E+04  0.10100000352E+00 0.  1.
       -3    1    3    3    0  502 -0.49756275665E+03 -0.30313651342E+03 -0.85957247064E+03  0.10384244243E+04  0.10100000352E+00 0. -1.
</event>
<event>
 5   0  0.5755250E-06  0.2279579E+04  0.7818609E-02  0.8486017E-01
        2   -1    0    0  501    0  0.00000000000E+00  0.00000000000E+00  0.14503480376E+04  0.14503480376E+04  0.25500000920E-02 0. -1.
       -2   -1    0    0    0  501  0.00000000000E+00  0.00000000000E+00 -0.89572979708E+03  0.89572979709E+03  0.25500000920E-02 0.  1.
    10030    2    1    2    0    0  0.00000000000E+00  0.00000000000E+00  0.55461824053E+03  0.23460778347E+04  0.22795788676E+04 0.  0.
        5    1    3    3  502    0 -0.44903424661E+03  0.30643775289E+03  0.13083120537E+04  0.14167704017E+04  0.46999998093E+01 0. -1.
       -5    1    3    3    0  502  0.44903424661E+03 -0.30643775289E+03 -0.75369381322E+03  0.92930743304E+03  0.46999998093E+01 0.  1.
</event>
<event>
 5   0  0.1999849E-06  0.1970353E+04  0.7818609E-02  0.8620608E-01
        1   -1    0    0  501    0  0.00000000000E+00  0.00000000000E+00  0.17315456820E+04  0.17315456820E+04  0.50400001928E-02 0. -1.
       -1   -1    0    0    0  501  0.00000000000E+00  0.00000000000E+00 -0.56052402229E+03  0.56052402231E+03  0.50400001928E-02 0.  1.
    10030    2    1    2    0    0  0.00000000000E+00  0.00000000000E+00  0.11710216597E+04  0.22920697043E+04  0.19703532176E+04 0.  0.
        5    1    3    3  502    0 -0.50864031526E+02  0.62359975173E+03 -0.29971823318E+03  0.69377006952E+03  0.46999998093E+01 0.  1.
       -5    1    3    3    0  502  0.50864031526E+02 -0.62359975173E+03  0.14707398929E+04  0.15982996348E+04  0.46999998093E+01 0. -1.
</event>
<event>
 5   0  0.2037109E-06  0.2504999E+04  0.7818609E-02  0.8401207E-01
        1   -1    0    0  501    0  0.00000000000E+00  0.00000000000E+00  0.15227011422E+04  0.15227011422E+04  0.50400001928E-02 0.  1.
       -1   -1    0    0    0  501  0.00000000000E+00  0.00000000000E+00 -0.10302449573E+04  0.10302449573E+04  0.50400001928E-02 0. -1.
    10030    2    1    2    0    0  0.00000000000E+00  0.00000000000E+00  0.49245618494E+03  0.25529460995E+04  0.25049991403E+04 0.  0.
        2    1    3    3  502    0 -0.29731478285E+03  0.51406407616E+03 -0.87764742869E+03  0.10596805951E+04  0.25500000920E-02 0. -1.
       -2    1    3    3    0  502  0.29731478285E+03 -0.51406407616E+03  0.13701036136E+04  0.14932655044E+04  0.25500000920E-02 0.  1.
</event>
<event>
 5   0  0.5300268E-06  0.2949648E+04  0.7818609E-02  0.8258257E-01
       -2   -1    0    0    0  501  0.00000000000E+00  0.00000000000E+00  0.90358766887E+03  0.90358766887E+03  0.25500000920E-02 0.  1.
        2   -1    0    0  501    0  0.00000000000E+00  0.00000000000E+00 -0.24071877732E+04  0.24071877732E+04  0.25500000920E-02 0. -1.
    10030    2    1    2    0    0  0.00000000000E+00  0.00000000000E+00 -0.15036001044E+04  0.33107754421E+04  0.29496475644E+04 0.  0.
        4    1    3    3  502    0 -0.11662683913E+04 -0.53170147494E+03 -0.15706479086E+04  0.20272703038E+04  0.12699999809E+01 0. -1.
       -4    1    3    3    0  502  0.11662683913E+04  0.53170147494E+03  0.67047804272E+02  0.12835051383E+04  0.12699999809E+01 0.  1.
</event>
<event>
 5   0  0.5755250E-06  0.3287623E+04  0.7818609E-02  0.8166052E-01
        2   -1    0    0  501    0  0.00000000000E+00  0.00000000000E+00  0.23832374983E+04  0.23832374983E+04  0.25500000920E-02 0. -1.
       -2   -1    0    0    0  501  0.00000000000E+00  0.00000000000E+00 -0.11338006934E+04  0.11338006934E+04  0.25500000920E-02 0.  1.
    10030    2    1    2    0    0  0.00000000000E+00  0.00000000000E+00  0.12494368049E+04  0.35170381918E+04  0.32876230491E+04 0.  0.
        5    1    3    3  502    0 -0.84344290145E+03  0.10713861943E+04  0.16068395065E+04  0.21074201278E+04  0.46999998093E+01 0.  1.
       -5    1    3    3    0  502  0.84344290145E+03 -0.10713861943E+04 -0.35740270158E+03  0.14096180640E+04  0.46999998093E+01 0. -1.
</event>
<event>
 5   0  0.1925906E-06  0.2879948E+04  0.7818609E-02  0.8278869E-01
        1   -1    0    0  501    0  0.00000000000E+00  0.00000000000E+00  0.85589655344E+03  0.85589655346E+03  0.50400001928E-02 0. -1.
       -1   -1    0    0    0  501  0.00000000000E+00  0.00000000000E+00 -0.24226354872E+04  0.24226354872E+04  0.50400001928E-02 0.  1.
    10030    2    1    2    0    0  0.00000000000E+00  0.00000000000E+00 -0.15667389337E+04  0.32785320406E+04  0.28799481688E+04 0.  0.
        1    1    3    3  502    0  0.54952175441E+03 -0.50032155934E+03 -0.21874503812E+04  0.23102456561E+04  0.50400001928E-02 0.  1.
       -1    1    3    3    0  502 -0.54952175441E+03  0.50032155934E+03  0.62071144751E+03  0.96828638450E+03  0.50400001928E-02 0. -1.
</event>
<event>
 5   0  0.5637538E-06  0.3286237E+04  0.7818609E-02  0.8166406E-01
        2   -1    0    0  501    0  0.00000000000E+00  0.00000000000E+00  0.15601294775E+04  0.15601294775E+04  0.25500000920E-02 0.  1.
       -2   -1    0    0    0  501  0.00000000000E+00  0.00000000000E+00 -0.17305216028E+04  0.17305216028E+04  0.25500000920E-02 0. -1.
    10030    2    1    2    0    0  0.00000000000E+00  0.00000000000E+00 -0.17039212532E+03  0.32906510804E+04  0.32862366099E+04 0.  0.
        2    1    3    3  502    0 -0.13620014986E+04 -0.25102312157E+02  0.83481971635E+03  0.15976865046E+04  0.25500000920E-02 0.  1.
       -2    1    3    3    0  502  0.13620014986E+04  0.25102312157E+02 -0.10052118417E+04  0.16929645758E+04  0.25500000920E-02 0. -1.
</event>
<event>
 5   0  0.2037109E-06  0.3058151E+04  0.7818609E-02  0.8227318E-01
       -1   -1    0    0    0  501  0.00000000000E+00  0.00000000000E+00  0.15627372523E+04  0.15627372523E+04  0.50400001928E-02 0.  1.
        1   -1    0    0  501    0  0.00000000000E+00  0.00000000000E+00 -0.14961390082E+04  0.14961390082E+04  0.50400001928E-02 0. -1.
    10030    2    1    2    0    0  0.00000000000E+00  0.00000000000E+00  0.66598244041E+02  0.30588762605E+04  0.30581511818E+04 0.  0.
        2    1    3    3  502    0 -0.15372408236E+03 -0.14836894615E+04  0.36969218382E+03  0.15367621229E+04  0.25500000920E-02 0.  1.
       -2    1    3    3    0  502  0.15372408236E+03  0.14836894615E+04 -0.30309393978E+03  0.15221141376E+04  0.25500000920E-02 0. -1.
</event>
<event>
 5   0  0.5622811E-06  0.3172918E+04  0.7818609E-02  0.8196006E-01
       -2   -1    0    0    0  501  0.00000000000E+00  0.00000000000E+00  0.21986948784E+04  0.21986948784E+04  0.25500000920E-02 0.  1.
        2   -1    0    0  501    0  0.00000000000E+00  0.00000000000E+00 -0.11447028440E+04  0.11447028441E+04  0.25500000920E-02 0. -1.
    10030    2    1    2    0    0  0.00000000000E+00  0.00000000000E+00  0.10539920344E+04  0.33433977225E+04  0.31729180768E+04 0.  0.
        1    1    3    3  502    0 -0.50140428511E+03 -0.42887490166E+02 -0.10583704478E+04  0.11719187680E+04  0.50400001928E-02 0. -1.
       -1    1    3    3    0  502  0.50140428511E+03  0.42887490166E+02  0.21123624822E+04  0.21714789545E+04  0.50400001928E-02 0.  1.
</event>
<event>
 5   0  0.1925906E-06  0.1727768E+04  0.7818609E-02  0.8745684E-01
       -1   -1    0    0    0  501  0.00000000000E+00  0.00000000000E+00  0.61967849914E+03  0.61967849916E+03  0.50400001928E-02 0. -1.
        1   -1    0    0  501    0  0.00000000000E+00  0.00000000000E+00 -0.12043276236E+04  0.12043276237E+04  0.50400001928E-02 0.  1.
    10030    2    1    2    0    0  0.00000000000E+00  0.00000000000E+00 -0.58464912450E+03  0.18240061228E+04  0.17277684270E+04 0.  0.
        1    1    3    3  502    0  0.71034656638E+03  0.45077169542E+03 -0.85158101842E+02  0.84559994566E+03  0.50400001928E-02 0. -1.
       -1    1    3    3    0  502 -0.71034656638E+03 -0.45077169542E+03 -0.49949102266E+03  0.97840617716E+03  0.50400001928E-02 0.  1.
</event>
<event>
 5   0  0.2730981E-06  0.1968196E+04  0.7818609E-02  0.8621636E-01
       -1   -1    0    0    0  501  0.00000000000E+00  0.00000000000E+00  0.13952332928E+04  0.13952332928E+04  0.50400001928E-02 0. -1.
        1   -1    0    0  501    0  0.00000000000E+00  0.00000000000E+00 -0.69411226943E+03  0.69411226945E+03  0.50400001928E-02 0.  1.
    10030    2    1    2    0    0  0.00000000000E+00  0.00000000000E+00  0.70112102335E+03  0.20893455623E+04  0.19681956684E+04 0.  0.
        3    1    3    3  502    0  0.72876216190E+02  0.34667078317E+03 -0.62408055011E+03  0.71761279115E+03  0.10100000352E+00 0.  1.
       -3    1    3    3    0  502 -0.72876216190E+02 -0.34667078317E+03  0.13252015735E+04  0.13717327711E+04  0.10100000352E+00 0. -1.
</event>
<event>
 5   0  0.5300268E-06  0.1686115E+04  0.7818609E-02  0.8769324E-01
       -2   -1    0    0    0  501  0.00000000000E+00  0.00000000000E+00  0.15530085800E+04  0.15530085800E+04  0.25500000920E-02 0.  1.
        2   -1    0    0  501    0  0.00000000000E+00  0.00000000000E+00 -0.45765720700E+03  0.45765720701E+03  0.25500000920E-02 0. -1.
    10030    2    1    2    0    0  0.00000000000E+00  0.00000000000E+00  0.10953513730E+04  0.20106657870E+04  0.16861145503E+04 0.  0.
        4    1    3    3  502    0  0.61386496512E+03 -0.57288611523E+03  0.63782673913E+03  0.10544445260E+04  0.12699999809E+01 0.  1.
       -4    1    3    3    0  502 -0.61386496512E+03  0.57288611523E+03  0.45752463386E+03  0.95622126096E+03  0.12699999809E+01 0. -1.
</event>
<event>
 5   0  0.5622811E-06  0.3293824E+04  0.7818609E-02  0.8164469E-01
       -2   -1    0    0    0  501  0.00000000000E+00  0.00000000000E+00  0.21037392743E+04  0.21037392743E+04  0.25500000920E-02 0. -1.
        2   -1    0    0  501    0  0.00000000000E+00  0.00000000000E+00 -0.12892849750E+04  0.12892849750E+04  0.25500000920E-02 0.  1.
    10030    2    1    2    0    0  0.00000000000E+00  0.00000000000E+00  0.81445429933E+03  0.33930242493E+04  0.32938241833E+04 0.  0.
        1    1    3    3  502    0  0.41684155379E+03  0.99449445652E+02  0.20452985608E+04  0.20897112902E+04  0.50400001928E-02 0. -1.
       -1    1    3    3    0  502 -0.41684155379E+03 -0.99449445652E+02 -0.12308442615E+04  0.13033129591E+04  0.50400001928E-02 0.  1.
</event>
<event>
 5   0  0.1878000E-06  0.3156455E+04  0.7818609E-02  0.8200413E-01
       -4   -1    0    0    0  501  0.00000000000E+00  0.00000000000E+00  0.21311090495E+04  0.21311094279E+04  0.12699999809E+01 0. -1.
        4   -1    0    0  501    0  0.00000000000E+00  0.00000000000E+00 -0.11687810467E+04  0.11687817367E+04  0.12699999809E+01 0.  1.
    10030    2    1    2    0    0  0.00000000000E+00  0.00000000000E+00  0.96232800277E+03  0.32998911645E+04  0.31564547380E+04 0.  0.
        3    1    3    3  502    0  0.35660556434E+03  0.15291842188E+04  0.64722063050E+03  0.16983717079E+04  0.10100000352E+00 0. -1.
       -3    1    3    3    0  502 -0.35660556434E+03 -0.15291842188E+04  0.31510737227E+03  0.16015194566E+04  0.10100000352E+00 0.  1.
</event>
<event>
 5   0  0.2097842E-06  0.1631168E+04  0.7818609E-02  0.8801626E-01
        1   -1    0    0  501    0  0.00000000000E+00  0.00000000000E+00  0.69359002275E+03  0.69359002277E+03  0.50400001928E-02 0.  1.
       -1   -1    0    0    0  501  0.00000000000E+00  0.00000000000E+00 -0.95903498998E+03  0.95903498999E+03  0.50400001928E-02 0. -1.
    10030    2    1    2    0    0  0.00000000000E+00  0.00000000000E+00 -0.26544496723E+03  0.16526250128E+04  0.16311678032E+04 0.  0.
        4    1    3    3  502    0 -0.55825110551E+03 -0.23378709472E+03  0.42116342899E+03  0.73734723792E+03  0.12699999809E+01 0.  1.
       -4    1    3    3    0  502  0.55825110551E+03  0.23378709472E+03 -0.68660839621E+03  0.91527777484E+03  0.12699999809E+01 0. -1.
</event>
<event>
 5   0  0.1999849E-06  0.3335495E+04  0.7818609E-02  0.8153922E-01
        1   -1    0    0  501    0  0.00000000000E+00  0.00000000000E+00  0.24706805391E+04  0.24706805391E+04  0.50400001928E-02 0.  1.
       -1   -1    0    0    0  501  0.00000000000E+00  0.00000000000E+00 -0.11257549795E+04  0.11257549795E+04  0.50400001928E-02 0. -1.
    10030    2    1    2    0    0  0.00000000000E+00  0.00000000000E+00  0.13449255596E+04  0.35964355186E+04  0.33354945178E+04 0.  0.
        5    1    3    3  502    0  0.21343822875E+03  0.86586813595E+03 -0.84706941005E+03  0.12299724313E+04  0.46999998093E+01 0. -1.
       -5    1    3    3    0  502 -0.21343822875E+03 -0.86586813595E+03  0.21919949697E+04  0.23664630873E+04  0.46999998093E+01 0.  1.
</event>
<event>
 5   0  0.5637538E-06  0.3126066E+04  0.7818609E-02  0.8208621E-01
        2   -1    0    0  501    0  0.00000000000E+00  0.00000000000E+00  0.20347888055E+04  0.20347888055E+04  0.25500000920E-02 0.  1.
       -2   -1    0    0    0  501  0.00000000000E+00  0.00000000000E+00 -0.12006515394E+04  0.12006515394E+04  0.25500000920E-02 0. -1.
    10030    2    1    2    0    0  0.00000000000E+00  0.00000000000E+00  0.83413726613E+03  0.32354403449E+04  0.31260660976E+04 0.  0.
        2    1    3    3  502    0  0.44377975913E+03  0.60192049927E+02 -0.11328264972E+04  0.12181376894E+04  0.25500000920E-02 0. -1.
       -2    1    3    3    0  502 -0.44377975913E+03 -0.60192049927E+02  0.19669637634E+04  0.20173026555E+04  0.25500000920E-02 0.  1.
</event>
<event>
 5   0  0.2097842E-06  0.3260055E+04  0.7818609E-02  0.8173134E-01
       -1   -1    0    0    0  501  0.00000000000E+00  0.00000000000E+00  0.13311475079E+04  0.13311475079E+04  0.50400001928E-02 0.  1.
        1   -1    0    0  501    0  0.00000000000E+00  0.00000000000E+00 -0.19960145141E+04  0.19960145141E+04  0.50400001928E-02 0. -1.
    10030    2    1    2    0    0  0.00000000000E+00  0.00000000000E+00 -0.66486700615E+03  0.33271620220E+04  0.32600550586E+04 0.  0.
        4    1    3    3  502    0 -0.12489345229E+04 -0.10433267375E+04 -0.23767833877E+03  0.16446460803E+04  0.12699999809E+01 0.  1.
       -4    1    3    3    0  502  0.12489345229E+04  0.10433267375E+04 -0.42718866738E+03  0.16825159417E+04  0.12699999809E+01 0. -1.
</event>
<event>
 5   0  0.5755250E-06  0.3277605E+04  0.7818609E-02  0.8168617E-01
        2   -1    0    0  501    0  0.00000000000E+00  0.00000000000E+00  0.18484840519E+04  0.18484840519E+04  0.25500000920E-02 0.  1.
       -2   -1    0    0    0  501  0.00000000000E+00  0.00000000000E+00 -0.14529064333E+04  0.14529064333E+04  0.25500000920E-02 0. -1.
    10030    2    1    2    0    0  0.00000000000E+00  0.00000000000E+00  0.39557761859E+03  0.33013904852E+04  0.32776054496E+04 0.  0.
        5    1    3    3  502    0 -0.23318855899E+03  0.14394436179E+04  0.95106436738E+03  0.17409538633E+04  0.46999998093E+01 0. -1.
       -5    1    3    3    0  502  0.23318855899E+03 -0.14394436179E+04 -0.55548674879E+03  0.15604366220E+04  0.46999998093E+01 0.  1.
</event>
<event>
 5   0  0.1999849E-06  0.2926016E+04  0.7818609E-02  0.8265179E-01
        1   -1    0    0  501    0  0.00000000000E+00  0.00000000000E+00  0.19199861859E+04  0.19199861859E+04  0.50400001928E-02 0.  1.
       -1   -1    0    0    0  501  0.00000000000E+00  0.00000000000E+00 -0.11147960128E+04  0.11147960128E+04  0.50400001928E-02 0. -1.
    10030    2    1    2    0    0  0.00000000000E+00  0.00000000000E+00  0.80519017309E+03  0.30347821986E+04  0.29260163667E+04 0.  0.
        5    1    3    3  502    0  0.14262348445E+04  0.20944037323E+03  0.14359317473E+03  0.14486725619E+04  0.46999998093E+01 0. -1.
       -5    1    3    3    0  502 -0.14262348445E+04 -0.20944037323E+03  0.66159699836E+03  0.15861096368E+04  0.46999998093E+01 0.  1.
</event>
<event>
 5   0  0.1925906E-06  0.3150770E+04  0.7818609E-02  0.8201941E-01
        1   -1    0    0  501    0  0.00000000000E+00  0.00000000000E+00  0.11499272018E+04  0.11499272018E+04  0.50400001928E-02 0. -1.
       -1   -1    0    0    0  501  0.00000000000E+00  0.00000000000E+00 -0.21582559711E+04  0.21582559711E+04  0.50400001928E-02 0.  1.
    10030    2    1    2    0    0  0.00000000000E+00  0.00000000000E+00 -0.10083287692E+04  0.33081831729E+04  0.31507695883E+04 0.  0.
        1    1    3    3  502    0  0.13401734393E+04  0.11080165338E+03  0.35750411969E+03  0.13914564490E+04  0.50400001928E-02 0. -1.
       -1    1    3    3    0  502 -0.13401734393E+04 -0.11080165338E+03 -0.13658328889E+04  0.19167267239E+04  0.50400001928E-02 0.  1.
</event>
<event>
 5   0  0.5637538E-06  0.2641906E+04  0.7818609E-02  0.8354105E-01
       -2   -1    0    0    0  501  0.00000000000E+00  0.00000000000E+00  0.12369132814E+04  0.12369132814E+04  0.25500000920E-02 0.  1.
        2   -1    0    0  501    0  0.00000000000E+00  0.00000000000E+00 -0.14107021969E+04  0.14107021969E+04  0.25500000920E-02 0. -1.
    10030    2    1    2    0    0  0.00000000000E+00  0.00000000000E+00 -0.17378891548E+03  0.26476154783E+04  0.26419055876E+04 0.  0.
        2    1    3    3  502    0  0.54574537441E+03  0.11947010854E+04  0.54006660234E+02  0.13145590198E+04  0.25500000920E-02 0.  1.
       -2    1    3    3    0  502 -0.54574537441E+03 -0.11947010854E+04 -0.22779557572E+03  0.13330564585E+04  0.25500000920E-02 0. -1.
</event>
<event>
 5   0  0.1999849E-06  0.2088160E+04  0.7818609E-02  0.8566477E-01
        1   -1    0    0  501    0  0.00000000000E+00  0.00000000000E+00  0.10301702989E+04  0.10301702989E+04  0.50400001928E-02 0.  1.
       -1   -1    0    0    0  501  0.00000000000E+00  0.00000000000E+00 -0.10581772975E+04  0.10581772975E+04  0.50400001928E-02 0. -1.
    10030    2    1    2    0    0  0.00000000000E+00  0.00000000000E+00 -0.28006998630E+02  0.20883475964E+04  0.20881597859E+04 0.  0.
        5    1    3    3  502    0  0.20687143532E+03  0.70881486605E+02  0.10070000505E+04  0.10304810369E+04  0.46999998093E+01 0.  1.
       -5    1    3    3    0  502 -0.20687143532E+03 -0.70881486605E+02 -0.10350070491E+04  0.10578665594E+04  0.46999998093E+01 0. -1.
</event>
<event>
 5   0  0.5622811E-06  0.3210883E+04  0.7818609E-02  0.8185949E-01
        2   -1    0    0  501    0  0.00000000000E+00  0.00000000000E+00  0.16753229369E+04  0.16753229369E+04  0.25500000920E-02 0.  1.
       -2   -1    0    0    0  501  0.00000000000E+00  0.00000000000E+00 -0.15384747721E+04  0.15384747721E+04  0.25500000920E-02 0. -1.
    10030    2    1    2    0    0  0.00000000000E+00  0.00000000000E+00  0.13684816477E+03  0.32137977090E+04  0.32108827905E+04 0.  0.
        1    1    3    3  502    0  0.81829127647E+03  0.41712954437E+03  0.13863747210E+04  0.16630191030E+04  0.50400001928E-02 0.  1.
       -1    1    3    3    0  502 -0.81829127647E+03 -0.41712954437E+03 -0.12495265563E+04  0.15507786060E+04  0.50400001928E-02 0. -1.
</event>
<event>
 5   0  0.1925906E-06  0.1807642E+04  0.7818609E-02  0.8702246E-01
        1   -1    0    0  501    0  0.00000000000E+00  0.00000000000E+00  0.11438093593E+04  0.11438093593E+04  0.50400001928E-02 0.  1.
       -1   -1    0    0    0  501  0.00000000000E+00  0.00000000000E+00 -0.71418576372E+03  0.71418576373E+03  0.50400001928E-02 0. -1.
    10030    2    1    2    0    0  0.00000000000E+00  0.00000000000E+00  0.42962359557E+03  0.18579951230E+04  0.18076419566E+04 0.  0.
        1    1    3    3  502    0 -0.80409584933E+03  0.27207580286E+03 -0.10414987328E+03  0.85524416019E+03  0.50400001928E-02 0. -1.
       -1    1    3    3    0  502  0.80409584933E+03 -0.27207580286E+03  0.53377346885E+03  0.10027509628E+04  0.50400001928E-02 0.  1.
</event>
<event>
 5   0  0.2037109E-06  0.3320289E+04  0.7818609E-02  0.8157752E-01
       -1   -1    0    0    0  501  0.00000000000E+00  0.00000000000E+00  0.10777701762E+04  0.10777701762E+04  0.50400001928E-02 0. -1.
        1   -1    0    0  501    0  0.00000000000E+00  0.00000000000E+00 -0.25572053542E+04  0.25572053542E+04  0.50400001928E-02 0.  1.
    10030    2    1    2    0    0  0.00000000000E+00  0.00000000000E+00 -0.14794351780E+04  0.36349755305E+04  0.33202889424E+04 0.  0.
        2    1    3    3  502    0  0.52294190545E+03  0.90558678748E+03  0.67187566502E+03  0.12429692576E+04  0.25500000920E-02 0. -1.
       -2    1    3    3    0  502 -0.52294190545E+03 -0.90558678748E+03 -0.21513108430E+04  0.23920062729E+04  0.25500000920E-02 0.  1.
</event>
<event>
 5   0  0.5300268E-06  0.3356408E+04  0.7818609E-02  0.8148689E-01
        2   -1    0    0  501    0  0.00000000000E+00  0.00000000000E+00  0.18262085662E+04  0.18262085662E+04  0.25500000920E-02 0. -1.
       -2   -1    0    0    0  501  0.00000000000E+00  0.00000000000E+00 -0.15421948335E+04  0.15421948335E+04  0.25500000920E-02 0.  1.
    10030    2    1    2    0    0  0.00000000000E+00  0.00000000000E+00  0.28401373273E+03  0.33684033997E+04  0.33564084470E+04 0.  0.
        4    1    3    3  502    0  0.10020418637E+04 -0.94881893631E+03  0.11004184976E+04  0.17650121114E+04  0.12699999809E+01 0. -1.
       -4    1    3    3    0  502 -0.10020418637E+04  0.94881893631E+03 -0.81640476487E+03  0.16033912883E+04  0.12699999809E+01 0.  1.
</event>
<event>
 5   0  0.5637538E-06  0.3312233E+04  0.7818609E-02  0.8159790E-01
       -2   -1    0    0    0  501  0.00000000000E+00  0.00000000000E+00  0.23436857864E+04  0.23436857864E+04  0.25500000920E-02 0. -1.
        2   -1    0    0  501    0  0.00000000000E+00  0.00000000000E+00 -0.11702603655E+04  0.11702603655E+04  0.25500000920E-02 0.  1.
    10030    2    1    2    0    0  0.00000000000E+00  0.00000000000E+00  0.11734254209E+04  0.35139461520E+04  0.33122334369E+04 0.  0.
        2    1    3    3  502    0 -0.91244161168E+03 -0.97798461452E+02  0.20492955772E+04  0.22453789427E+04  0.25500000920E-02 0. -1.
       -2    1    3    3    0  502  0.91244161168E+03  0.97798461452E+02 -0.87587015626E+03  0.12685672093E+04  0.25500000920E-02 0.  1.
</event>
<event>
 5   0  0.5300268E-06  0.3135976E+04  0.7818609E-02  0.8205933E-01
       -2   -1    0    0    0  501  0.00000000000E+00  0.00000000000E+00  0.92894382849E+03  0.92894382850E+03  0.25500000920E-02 0.  1.
        2   -1    0    0  501    0  0.00000000000E+00  0.00000000000E+00 -0.26466467944E+04  0.26466467944E+04  0.25500000920E-02 0. -1.
    10030    2    1    2    0    0  0.00000000000E+00  0.00000000000E+00 -0.17177029660E+04  0.35755906229E+04  0.31359758965E+04 0.  0.
        4    1    3    3  502    0 -0.40845018666E+03  0.11566909381E+04  0.25469431587E+03  0.12528512636E+04  0.12699999809E+01 0.  1.
       -4    1    3    3    0  502  0.40845018666E+03 -0.11566909381E+04 -0.19723972818E+04  0.23227393594E+04  0.12699999809E+01 0. -1.
</event>
<event>
 5   0  0.2037109E-06  0.3326886E+04  0.7818609E-02  0.8156088E-01
       -1   -1    0    0    0  501  0.00000000000E+00  0.00000000000E+00  0.12801932720E+04  0.12801932721E+04  0.50400001928E-02 0.  1.
        1   -1    0    0  501    0  0.00000000000E+00  0.00000000000E+00 -0.21614263139E+04  0.21614263139E+04  0.50400001928E-02 0. -1.
    10030    2    1    2    0    0  0.00000000000E+00  0.00000000000E+00 -0.88123304183E+03  0.34416195859E+04  0.33268864874E+04 0.  0.
        2    1    3    3  502    0 -0.81131122035E+03 -0.14437452934E+04 -0.60226496806E+03  0.17622001760E+04  0.25500000920E-02 0. -1.
       -2    1    3    3    0  502  0.81131122035E+03  0.14437452934E+04 -0.27896807377E+03  0.16794194100E+04  0.25500000920E-02 0.  1.
</event>
<event>
 5   0  0.5622811E-06  0.1668654E+04  0.7818609E-02  0.8779447E-01
       -2   -1    0    0    0  501  0.00000000000E+00  0.00000000000E+00  0.66691425175E+03  0.66691425175E+03  0.25500000920E-02 0.  1.
        2   -1    0    0  501    0  0.00000000000E+00  0.00000000000E+00 -0.10437647285E+04  0.10437647285E+04  0.25500000920E-02 0. -1.
    10030    2    1    2    0    0  0.00000000000E+00  0.00000000000E+00 -0.37685047673E+03  0.17106789802E+04  0.16686540359E+04 0.  0.
        1    1    3    3  502    0  0.17318088941E+03  0.80190872764E+03 -0.32771422939E+02  0.82105005579E+03  0.50400001928E-02 0. -1.
       -1    1    3    3    0  502 -0.17318088941E+03 -0.80190872764E+03 -0.34407905379E+03  0.88962892444E+03  0.50400001928E-02 0.  1.
</event>
<event>
 5   0  0.2097842E-06  0.2567182E+04  0.7818609E-02  0.8379435E-01
        1   -1    0    0  501    0  0.00000000000E+00  0.00000000000E+00  0.11855421930E+04  0.11855421930E+04  0.50400001928E-02 0. -1.
       -1   -1    0    0    0  501  0.00000000000E+00  0.00000000000E+00 -0.13897488893E+04  0.13897488893E+04  0.50400001928E-02 0.  1.
    10030    2    1    2    0    0  0.00000000000E+00  0.00000000000E+00 -0.20420669636E+03  0.25752910823E+04  0.25671820706E+04 0.  0.
        4    1    3    3  502    0 -0.66010433226E+03  0.10976772938E+04 -0.18346128810E+02  0.12810040453E+04  0.12699999809E+01 0.  1.
       -4    1    3    3    0  502  0.66010433226E+03 -0.10976772938E+04 -0.18586056755E+03  0.12942870370E+04  0.12699999809E+01 0. -1.
</event>
<event>
 5   0  0.2037109E-06  0.3255134E+04  0.7818609E-02  0.8174406E-01
        1   -1    0    0  501    0  0.00000000000E+00  0.00000000000E+00  0.87521017768E+03  0.87521017770E+03  0.50400001928E-02 0. -1.
       -1   -1    0    0    0  501  0.00000000000E+00  0.00000000000E+00 -0.30266728466E+04  0.30266728466E+04  0.50400001928E-02 0.  1.
    10030    2    1    2    0    0  0.00000000000E+00  0.00000000000E+00 -0.21514626689E+04  0.39018830243E+04  0.32551343320E+04 0.  0.
        2    1    3    3  502    0  0.10464910621E+04 -0.12378089932E+04 -0.89931577290E+03  0.18536675825E+04  0.25500000920E-02 0. -1.
       -2    1    3    3    0  502 -0.10464910621E+04  0.12378089932E+04 -0.12521468960E+04  0.20482154418E+04  0.25500000920E-02 0.  1.
</event>
<event>
 5   0  0.1925906E-06  0.3211073E+04  0.7818609E-02  0.8185899E-01
       -1   -1    0    0    0  501  0.00000000000E+00  0.00000000000E+00  0.12084251732E+04  0.12084251732E+04  0.50400001928E-02 0.  1.
        1   -1    0    0  501    0  0.00000000000E+00  0.00000000000E+00 -0.21331466142E+04  0.21331466142E+04  0.50400001928E-02 0. -1.
    10030    2    1    2    0    0  0.00000000000E+00  0.00000000000E+00 -0.92472144105E+03  0.33415717874E+04  0.32110733824E+04 0.  0.
        1    1    3    3  502    0  0.15987126612E+04 -0.13554082180E+03 -0.52387812522E+03  0.16878097576E+04  0.50400001928E-02 0. -1.
       -1    1    3    3    0  502 -0.15987126612E+04  0.13554082180E+03 -0.40084331583E+03  0.16537620299E+04  0.50400001928E-02 0.  1.
</event>
<event>
 5   0  0.5300268E-06  0.3226333E+04  0.7818609E-02  0.8181897E-01
        2   -1    0    0  501    0  0.00000000000E+00  0.00000000000E+00  0.18910547901E+04  0.18910547901E+04  0.25500000920E-02 0.  1.
       -2   -1    0    0    0  501  0.00000000000E+00  0.00000000000E+00 -0.13761138639E+04  0.13761138639E+04  0.25500000920E-02 0. -1.
    10030    2    1    2    0    0  0.00000000000E+00  0.00000000000E+00  0.51494092617E+03  0.32671686540E+04  0.32263333454E+04 0.  0.
        4    1    3    3  502    0  0.67753668481E+03  0.12638656085E+04 -0.49072664651E+03  0.15156604138E+04  0.12699999809E+01 0. -1.
       -4    1    3    3    0  502 -0.67753668481E+03 -0.12638656085E+04  0.10056675727E+04  0.17515082401E+04  0.12699999809E+01 0.  1.
</event>
<event>
 5   0  0.2730981E-06  0.2128337E+04  0.7818609E-02  0.8548862E-01
        1   -1    0    0  501    0  0.00000000000E+00  0.00000000000E+00  0.15918295823E+04  0.15918295823E+04  0.50400001928E-02 0. -1.
       -1   -1    0    0    0  501  0.00000000000E+00  0.00000000000E+00 -0.71141703661E+03  0.71141703662E+03  0.50400001928E-02 0.  1.
    10030    2    1    2    0    0  0.00000000000E+00  0.00000000000E+00  0.88041254571E+03  0.23032466189E+04  0.21283370826E+04 0.  0.
        3    1    3    3  502    0 -0.44067554196E+03 -0.83707716544E+03 -0.87252007503E+02  0.95000317746E+03  0.10100000352E+00 0.  1.
       -3    1    3    3    0  502  0.44067554196E+03  0.83707716544E+03  0.96766455321E+03  0.13532434415E+04  0.10100000352E+00 0. -1.
</event>
<event>
 5   0  0.1999849E-06  0.3339410E+04  0.7818609E-02  0.8152939E-01
        1   -1    0    0  501    0  0.00000000000E+00  0.00000000000E+00  0.27777520791E+04  0.27777520791E+04  0.50400001928E-02 0.  1.
       -1   -1    0    0    0  501  0.00000000000E+00  0.00000000000E+00 -0.10036583813E+04  0.10036583813E+04  0.50400001928E-02 0. -1.
    10030    2    1    2    0    0  0.00000000000E+00  0.00000000000E+00  0.17740936978E+04  0.37814104605E+04  0.33394096218E+04 0.  0.
        5    1    3    3  502    0 -0.27020521642E+03  0.15658483175E+04  0.14677607339E+04  0.21631540570E+04  0.46999998093E+01 0. -1.
       -5    1    3    3    0  502  0.27020521642E+03 -0.15658483175E+04  0.30633296394E+03  0.16182564034E+04  0.46999998093E+01 0.  1.
</event>
<event>
 5   0  0.2730981E-06  0.3372293E+04  0.7818609E-02  0.8144740E-01
        1   -1    0    0  501    0  0.00000000000E+00  0.00000000000E+00  0.16808840200E+04  0.16808840200E+04  0.50400001928E-02 0.  1.
       -1   -1    0    0    0  501  0.00000000000E+00  0.00000000000E+00 -0.16914258385E+04  0.16914258385E+04  0.50400001928E-02 0. -1.
    10030    2    1    2    0    0  0.00000000000E+00  0.00000000000E+00 -0.10541818500E+02  0.33723098585E+04  0.33722933816E+04 0.  0.
        3    1    3    3  502    0 -0.14766850086E+04 -0.67435503785E+03  0.45051341595E+03  0.16847301504E+04  0.10100000352E+00 0.  1.
       -3    1    3    3    0  502  0.14766850086E+04  0.67435503785E+03 -0.46105523445E+03  0.16875797080E+04  0.10100000352E+00 0. -1.
</event>
<event>
 5   0  0.5637538E-06  0.3477045E+04  0.7818609E-02  0.8119252E-01
       -2   -1    0    0    0  501  0.00000000000E+00  0.00000000000E+00  0.19630073511E+04  0.19630073511E+04  0.25500000920E-02 0. -1.
        2   -1    0    0  501    0  0.00000000000E+00  0.00000000000E+00 -0.15397092013E+04  0.15397092014E+04  0.25500000920E-02 0.  1.
    10030    2    1    2    0    0  0.00000000000E+00  0.00000000000E+00  0.42329814975E+03  0.35027165524E+04  0.34770449987E+04 0.  0.
        2    1    3    3  502    0 -0.24911701511E+03 -0.12518671826E+04  0.14007153273E+04  0.18950551860E+04  0.25500000920E-02 0. -1.
       -2    1    3    3    0  502  0.24911701511E+03  0.12518671826E+04 -0.97741717751E+03  0.16076613664E+04  0.25500000920E-02 0.  1.
</event>
<event>
 5   0  0.5637538E-06  0.3074639E+04  0.7818609E-02  0.8222733E-01
        2   -1    0    0  501    0  0.00000000000E+00  0.00000000000E+00  0.18954526261E+04  0.18954526261E+04  0.25500000920E-02 0. -1.
       -2   -1    0    0    0  501  0.00000000000E+00  0.00000000000E+00 -0.12468533088E+04  0.12468533088E+04  0.25500000920E-02 0.  1.
    10030    2    1    2    0    0  0.00000000000E+00  0.00000000000E+00  0.64859931728E+03  0.31423059350E+04  0.30746390869E+04 0.  0.
        2    1    3    3  502    0  0.12502020818E+04  0.83778294716E+03  0.36009763093E+01  0.15049579659E+04  0.25500000920E-02 0.  1.
       -2    1    3    3    0  502 -0.12502020818E+04 -0.83778294716E+03  0.64499834097E+03  0.16373479691E+04  0.25500000920E-02 0. -1.
</event>
<event>
 5   0  0.5300268E-06  0.3280557E+04  0.7818609E-02  0.8167860E-01
        2   -1    0    0  501    0  0.00000000000E+00  0.00000000000E+00  0.11470211584E+04  0.11470211584E+04  0.25500000920E-02 0.  1.
       -2   -1    0    0    0  501  0.00000000000E+00  0.00000000000E+00 -0.23456533738E+04  0.23456533738E+04  0.25500000920E-02 0. -1.
    10030    2    1    2    0    0  0.00000000000E+00  0.00000000000E+00 -0.11986322154E+04  0.34926745322E+04  0.32805573003E+04 0.  0.
        4    1    3    3  502    0 -0.10948363243E+04  0.15178370230E+03 -0.18896227720E+04  0.21891506807E+04  0.12699999809E+01 0. -1.
       -4    1    3    3    0  502  0.10948363243E+04 -0.15178370230E+03  0.69099055666E+03  0.13035238516E+04  0.12699999809E+01 0.  1.
</event>
<event>
 5   0  0.1878000E-06  0.3433629E+04  0.7818609E-02  0.8129702E-01
       -3   -1    0    0    0  501  0.00000000000E+00  0.00000000000E+00  0.29692957574E+04  0.29692957592E+04  0.10100000352E+00 0.  1.
        3   -1    0    0  501    0  0.00000000000E+00  0.00000000000E+00 -0.99264329990E+03  0.99264330504E+03  0.10100000352E+00 0. -1.
    10030    2    1    2    0    0  0.00000000000E+00  0.00000000000E+00  0.19766524575E+04  0.39619390642E+04  0.34336287235E+04 0.  0.
        3    1    3    3  502    0  0.16863748442E+04 -0.29959524046E+03  0.85261049012E+03  0.19132595436E+04  0.10100000352E+00 0. -1.
       -3    1    3    3    0  502 -0.16863748442E+04  0.29959524046E+03  0.11240419674E+04  0.20486795206E+04  0.10100000352E+00 0.  1.
</event>
<event>
 5   0  0.2730981E-06  0.1859757E+04  0.7818609E-02  0.8675151E-01
       -1   -1    0    0    0  501  0.00000000000E+00  0.00000000000E+00  0.58902582462E+03  0.58902582464E+03  0.50400001928E-02 0. -1.
        1   -1    0    0  501    0  0.00000000000E+00  0.00000000000E+00 -0.14679727056E+04  0.14679727056E+04  0.50400001928E-02 0.  1.
    10030    2    1    2    0    0  0.00000000000E+00  0.00000000000E+00 -0.87894688101E+03  0.20569985303E+04  0.18597567943E+04 0.  0.
        3    1    3    3  502    0  0.21429638724E+03 -0.49430305455E+03 -0.12777568173E+04  0.13866942510E+04  0.10100000352E+00 0.  1.
       -3    1    3    3    0  502 -0.21429638724E+03  0.49430305455E+03  0.39880993632E+03  0.67030427929E+03  0.10100000352E+00 0. -1.
</event>
<event>
 5   0  0.2097842E-06  0.2023245E+04  0.7818609E-02  0.8595829E-01
        1   -1    0    0  501    0  0.00000000000E+00  0.00000000000E+00  0.11574092635E+04  0.11574092635E+04  0.50400001928E-02 0. -1.
       -1   -1    0    0    0  501  0.00000000000E+00  0.00000000000E+00 -0.88419929735E+03  0.88419929736E+03  0.50400001928E-02 0.  1.
    10030    2    1    2    0    0  0.00000000000E+00  0.00000000000E+00  0.27320996611E+03  0.20416085608E+04  0.20232453707E+04 0.  0.
        4    1    3    3  502    0  0.80908690831E+02  0.37355919959E+03 -0.80853157039E+03  0.89432522332E+03  0.12699999809E+01 0.  1.
       -4    1    3    3    0  502 -0.80908690831E+02 -0.37355919959E+03  0.10817415365E+04  0.11472833375E+04  0.12699999809E+01 0. -1.
</event>
<event>
 5   0  0.6286154E-06  0.1769486E+04  0.7818609E-02  0.8722697E-01
        2   -1    0    0  501    0  0.00000000000E+00  0.00000000000E+00  0.15305786234E+04  0.15305786234E+04  0.25500000920E-02 0.  1.
       -2   -1    0    0    0  501  0.00000000000E+00  0.00000000000E+00 -0.51142109982E+03  0.51142109982E+03  0.25500000920E-02 0. -1.
    10030    2    1    2    0    0  0.00000000000E+00  0.00000000000E+00  0.10191575236E+04  0.20419997232E+04  0.17694860304E+04 0.  0.
        5    1    3    3  502    0 -0.47866866234E+03 -0.63176468062E+02 -0.34597046496E+03  0.59399714397E+03  0.46999998093E+01 0. -1.
       -5    1    3    3    0  502  0.47866866234E+03  0.63176468062E+02  0.13651279885E+04  0.14480025792E+04  0.46999998093E+01 0.  1.
</event>
<event>
 5   0  0.1999849E-06  0.3211577E+04  0.7818609E-02  0.8185766E-01
        1   -1    0    0  501    0  0.00000000000E+00  0.00000000000E+00  0.19230893820E+04  0.19230893821E+04  0.50400001928E-02 0. -1.
       -1   -1    0    0    0  501  0.00000000000E+00  0.00000000000E+00 -0.13408407046E+04  0.13408407046E+04  0.50400001928E-02 0.  1.
    10030    2    1    2    0    0  0.00000000000E+00  0.00000000000E+00  0.58224867742E+03  0.32639300867E+04  0.32115768850E+04 0.  0.
        5    1    3    3  502    0 -0.37658518416E+03  0.97949015660E+03 -0.94413851388E+03  0.14116079453E+04  0.46999998093E+01 0.  1.
       -5    1    3    3    0  502  0.37658518416E+03 -0.97949015660E+03  0.15263871913E+04  0.18523221414E+04  0.46999998093E+01 0. -1.
</event>
<event>
 5   0  0.2037109E-06  0.2103924E+04  0.7818609E-02  0.8559517E-01
        1   -1    0    0  501    0  0.00000000000E+00  0.00000000000E+00  0.91778718931E+03  0.91778718932E+03  0.50400001928E-02 0. -1.
       -1   -1    0    0    0  501  0.00000000000E+00  0.00000000000E+00 -0.12057520469E+04  0.12057520469E+04  0.50400001928E-02 0.  1.
    10030    2    1    2    0    0  0.00000000000E+00  0.00000000000E+00 -0.28796485762E+03  0.21235392363E+04  0.21039237459E+04 0.  0.
        2    1    3    3  502    0  0.42386244994E+03  0.16526663925E+03  0.81336022912E+03  0.93194812132E+03  0.25500000920E-02 0. -1.
       -2    1    3    3    0  502 -0.42386244994E+03 -0.16526663925E+03 -0.11013250867E+04  0.11915911149E+04  0.25500000920E-02 0.  1.
</event>
<event>
 5   0  0.5855568E-06  0.1957343E+04  0.7818609E-02  0.8626828E-01
       -2   -1    0    0    0  501  0.00000000000E+00  0.00000000000E+00  0.60488476213E+03  0.60488476214E+03  0.25500000920E-02 0. -1.
        2   -1    0    0  501    0  0.00000000000E+00  0.00000000000E+00 -0.15834393580E+04  0.15834393580E+04  0.25500000920E-02 0.  1.
    10030    2    1    2    0    0  0.00000000000E+00  0.00000000000E+00 -0.97855459591E+03  0.21883241202E+04  0.19573434440E+04 0.  0.
        3    1    3    3  502    0  0.76859228962E+03 -0.38339134465E+03  0.35204307690E+02  0.85962921327E+03  0.10100000352E+00 0. -1.
       -3    1    3    3    0  502 -0.76859228962E+03  0.38339134465E+03 -0.10137589036E+04  0.13286949069E+04  0.10100000352E+00 0.  1.
</event>
<event>
 5   0  0.2730981E-06  0.3513973E+04  0.7818609E-02  0.8110487E-01
       -1   -1    0    0    0  501  0.00000000000E+00  0.00000000000E+00  0.12613522755E+04  0.12613522755E+04  0.50400001928E-02 0. -1.
        1   -1    0    0  501    0  0.00000000000E+00  0.00000000000E+00 -0.24473743095E+04  0.24473743095E+04  0.50400001928E-02 0.  1.
    10030    2    1    2    0    0  0.00000000000E+00  0.00000000000E+00 -0.11860220340E+04  0.37087265850E+04  0.35139727685E+04 0.  0.
        3    1    3    3  502    0 -0.44508815759E+03 -0.15757825505E+04  0.79324739498E+02  0.16393555255E+04  0.10100000352E+00 0. -1.
       -3    1    3    3    0  502  0.44508815759E+03  0.15757825505E+04 -0.12653467735E+04  0.20693710595E+04  0.10100000352E+00 0.  1.
</event>
<event>
 5   0  0.2730981E-06  0.3319300E+04  0.7818609E-02  0.8158002E-01
        1   -1    0    0  501    0  0.00000000000E+00  0.00000000000E+00  0.14785018466E+04  0.14785018466E+04  0.50400001928E-02 0.  1.
       -1   -1    0    0    0  501  0.00000000000E+00  0.00000000000E+00 -0.18629923818E+04  0.18629923818E+04  0.50400001928E-02 0. -1.
    10030    2    1    2    0    0  0.00000000000E+00  0.00000000000E+00 -0.38449053521E+03  0.33414942284E+04  0.33192997314E+04 0.  0.
        3    1    3    3  502    0 -0.35609328906E+03  0.63933500564E+03 -0.16917979852E+04  0.18432938216E+04  0.10100000352E+00 0. -1.
       -3    1    3    3    0  502  0.35609328906E+03 -0.63933500564E+03  0.13073074500E+04  0.14982004068E+04  0.10100000352E+00 0.  1.
</event>
<event>
 5   0  0.2730981E-06  0.2052500E+04  0.7818609E-02  0.8582461E-01
        1   -1    0    0  501    0  0.00000000000E+00  0.00000000000E+00  0.27624014921E+04  0.27624014921E+04  0.50400001928E-02 0.  1.
       -1   -1    0    0    0  501  0.00000000000E+00  0.00000000000E+00 -0.38125868078E+03  0.38125868081E+03  0.50400001928E-02 0. -1.
    10030    2    1    2    0    0  0.00000000000E+00  0.00000000000E+00  0.23811428113E+04  0.31436601729E+04  0.20525004738E+04 0.  0.
        3    1    3    3  502    0 -0.87535594656E+03 -0.25167649298E+02  0.20101094904E+04  0.21925833205E+04  0.10100000352E+00 0. -1.
       -3    1    3    3    0  502  0.87535594656E+03  0.25167649298E+02  0.37103332090E+03  0.95107685240E+03  0.10100000352E+00 0.  1.
</event>
<event>
 5   0  0.1878000E-06  0.1816686E+04  0.7818609E-02  0.8697476E-01
        4   -1    0    0  501    0  0.00000000000E+00  0.00000000000E+00  0.52422722971E+03  0.52422876807E+03  0.12699999809E+01 0.  1.
       -4   -1    0    0    0  501  0.00000000000E+00  0.00000000000E+00 -0.15739074461E+04  0.15739079585E+04  0.12699999809E+01 0. -1.
    10030    2    1    2    0    0  0.00000000000E+00  0.00000000000E+00 -0.10496802164E+04  0.20981367265E+04  0.18166863149E+04 0.  0.
        3    1    3    3  502    0 -0.19776405628E+03 -0.88650593604E+03 -0.51426230127E+03  0.10437763751E+04  0.10100000352E+00 0.  1.
       -3    1    3    3    0  502  0.19776405628E+03  0.88650593604E+03 -0.53541791509E+03  0.10543603514E+04  0.10100000352E+00 0. -1.
</event>
<event>
 5   0  0.2097842E-06  0.3295642E+04  0.7818609E-02  0.8164005E-01
       -1   -1    0    0    0  501  0.00000000000E+00  0.00000000000E+00  0.11664651729E+04  0.11664651729E+04  0.50400001928E-02 0. -1.
        1   -1    0    0  501    0  0.00000000000E+00  0.00000000000E+00 -0.23278145621E+04  0.23278145621E+04  0.50400001928E-02 0.  1.
    10030    2    1    2    0    0  0.00000000000E+00  0.00000000000E+00 -0.11613493892E+04  0.34942797350E+04  0.32956423444E+04 0.  0.
        4    1    3    3  502    0 -0.86235101942E+03  0.10403722288E+04 -0.15805345697E+04  0.20794505991E+04  0.12699999809E+01 0.  1.
       -4    1    3    3    0  502  0.86235101942E+03 -0.10403722288E+04  0.41918518054E+03  0.14148291359E+04  0.12699999809E+01 0. -1.
</event>
<event>
 5   0  0.2097842E-06  0.2055203E+04  0.7818609E-02  0.8581237E-01
        1   -1    0    0  501    0  0.00000000000E+00  0.00000000000E+00  0.11483630174E+04  0.11483630174E+04  0.50400001928E-02 0. -1.
       -1   -1    0    0    0  501  0.00000000000E+00  0.00000000000E+00 -0.91953965975E+03  0.91953965976E+03  0.50400001928E-02 0.  1.
    10030    2    1    2    0    0  0.00000000000E+00  0.00000000000E+00  0.22882335763E+03  0.20679026772E+04  0.20552034822E+04 0.  0.
        4    1    3    3  502    0  0.95682581915E+03  0.18998162399E+03  0.43944809728E+03  0.10699181785E+04  0.12699999809E+01 0. -1.
       -4    1    3    3    0  502 -0.95682581915E+03 -0.18998162399E+03 -0.21062473965E+03  0.99798449863E+03  0.12699999809E+01 0.  1.
</event>
<event>
 5   0  0.5855568E-06  0.3439373E+04  0.7818609E-02  0.8128310E-01
        2   -1    0    0  501    0  0.00000000000E+00  0.00000000000E+00  0.23207811519E+04  0.23207811519E+04  0.25500000920E-02 0.  1.
       -2   -1    0    0    0  501  0.00000000000E+00  0.00000000000E+00 -0.12742784753E+04  0.12742784753E+04  0.25500000920E-02 0. -1.
    10030    2    1    2    0    0  0.00000000000E+00  0.00000000000E+00  0.10465026766E+04  0.35950596271E+04  0.34393728891E+04 0.  0.
        3    1    3    3  502    0 -0.16732731730E+04  0.29865888156E+03  0.79638640741E+03  0.18770379749E+04  0.10100000352E+00 0.  1.
       -3    1    3    3    0  502  0.16732731730E+04 -0.29865888156E+03  0.25011626921E+03  0.17180216522E+04  0.10100000352E+00 0. -1.
</event>
<event>
 5   0  0.5300268E-06  0.3339431E+04  0.7818609E-02  0.8152934E-01
       -2   -1    0    0    0  501  0.00000000000E+00  0.00000000000E+00  0.13406727309E+04  0.13406727309E+04  0.25500000920E-02 0. -1.
        2   -1    0    0  501    0  0.00000000000E+00  0.00000000000E+00 -0.20795154940E+04  0.20795154940E+04  0.25500000920E-02 0.  1.
    10030    2    1    2    0    0  0.00000000000E+00  0.00000000000E+00 -0.73884276315E+03  0.34201882249E+04  0.33394309193E+04 0.  0.
        4    1    3    3  502    0  0.12988465458E+04 -0.64330973244E+03  0.47953816011E+03  0.15266984709E+04  0.12699999809E+01 0. -1.
       -4    1    3    3    0  502 -0.12988465458E+04  0.64330973244E+03 -0.12183809233E+04  0.18934897540E+04  0.12699999809E+01 0.  1.
</event>
<event>
 5   0  0.5300268E-06  0.1778840E+04  0.7818609E-02  0.8717634E-01
        2   -1    0    0  501    0  0.00000000000E+00  0.00000000000E+00  0.29752904238E+03  0.29752904239E+03  0.25500000920E-02 0.  1.
       -2   -1    0    0    0  501  0.00000000000E+00  0.00000000000E+00 -0.26587927071E+04  0.26587927071E+04  0.25500000920E-02 0. -1.
    10030    2    1    2    0    0  0.00000000000E+00  0.00000000000E+00 -0.23612636648E+04  0.29563217495E+04  0.17788401255E+04 0.  0.
        4    1    3    3  502    0  0.40064435522E+03 -0.66651383583E+03 -0.46327922629E+03  0.90519934111E+03  0.12699999809E+01 0.  1.
       -4    1    3    3    0  502 -0.40064435522E+03  0.66651383583E+03 -0.18979844385E+04  0.20511224084E+04  0.12699999809E+01 0. -1.
</event>
<event>
 5   0  0.1999849E-06  0.3406887E+04  0.7818609E-02  0.8136218E-01
        1   -1    0    0  501    0  0.00000000000E+00  0.00000000000E+00  0.31850979596E+04  0.31850979596E+04  0.50400001928E-02 0.  1.
       -1   -1    0    0    0  501  0.00000000000E+00  0.00000000000E+00 -0.91102989557E+03  0.91102989558E+03  0.50400001928E-02 0. -1.
    10030    2    1    2    0    0  0.00000000000E+00  0.00000000000E+00  0.22740680640E+04  0.40961278552E+04  0.34068868261E+04 0.  0.
        5    1    3    3  502    0  0.72127825997E+03 -0.75690102604E+03  0.27539288277E+04  0.29457236071E+04  0.46999998093E+01 0.  1.
       -5    1    3    3    0  502 -0.72127825997E+03  0.75690102604E+03 -0.47986076365E+03  0.11504042481E+04  0.46999998093E+01 0. -1.
</event>
<event>
 5   0  0.2730981E-06  0.2102833E+04  0.7818609E-02  0.8559997E-01
        1   -1    0    0  501    0  0.00000000000E+00  0.00000000000E+00  0.15433109967E+04  0.15433109967E+04  0.50400001928E-02 0. -1.
       -1   -1    0    0    0  501  0.00000000000E+00  0.00000000000E+00 -0.71630174946E+03  0.71630174948E+03  0.50400001928E-02 0.  1.
    10030    2    1    2    0    0  0.00000000000E+00  0.00000000000E+00  0.82700924723E+03  0.22596127462E+04  0.21028327246E+04 0.  0.
        3    1    3    3  502    0  0.62365874611E+03 -0.30760890682E+03  0.12609087508E+04  0.14399529017E+04  0.10100000352E+00 0. -1.
       -3    1    3    3    0  502 -0.62365874611E+03  0.30760890682E+03 -0.43389950359E+03  0.81965984443E+03  0.10100000352E+00 0.  1.
</event>
<event>
 5   0  0.5300268E-06  0.2013885E+04  0.7818609E-02  0.8600157E-01
       -2   -1    0    0    0  501  0.00000000000E+00  0.00000000000E+00  0.83525303391E+03  0.83525303391E+03  0.25500000920E-02 0.  1.
        2   -1    0    0  501    0  0.00000000000E+00  0.00000000000E+00 -0.12139228809E+04  0.12139228809E+04  0.25500000920E-02 0. -1.
    10030    2    1    2    0    0  0.00000000000E+00  0.00000000000E+00 -0.37866984703E+03  0.20491759148E+04  0.20138845739E+04 0.  0.
        4    1    3    3  502    0 -0.71767338545E+03 -0.69065258932E+02 -0.90457980215E+03  0.11567589764E+04  0.12699999809E+01 0. -1.
       -4    1    3    3    0  502  0.71767338545E+03  0.69065258932E+02  0.52590995513E+03  0.89241693842E+03  0.12699999809E+01 0.  1.
</event>
<event>
 5   0  0.5755250E-06  0.1856464E+04  0.7818609E-02  0.8676836E-01
        2   -1    0    0  501    0  0.00000000000E+00  0.00000000000E+00  0.14204362013E+04  0.14204362013E+04  0.25500000920E-02 0.  1.
       -2   -1    0    0    0  501  0.00000000000E+00  0.00000000000E+00 -0.60658456579E+03  0.60658456579E+03  0.25500000920E-02 0. -1.
    10030    2    1    2    0    0  0.00000000000E+00  0.00000000000E+00  0.81385163551E+03  0.20270207671E+04  0.18564640329E+04 0.  0.
        5    1    3    3  502    0  0.48817809752E+03 -0.36404341584E+03  0.11718185590E+04  0.13206158748E+04  0.46999998093E+01 0.  1.
       -5    1    3    3    0  502 -0.48817809752E+03  0.36404341584E+03 -0.35796692352E+03  0.70640489228E+03  0.46999998093E+01 0. -1.
</event>
<event>
 5   0  0.1999849E-06  0.2884614E+04  0.7818609E-02  0.8277470E-01
       -1   -1    0    0    0  501  0.00000000000E+00  0.00000000000E+00  0.13833996560E+04  0.13833996560E+04  0.50400001928E-02 0.  1.
        1   -1    0    0  501    0  0.00000000000E+00  0.00000000000E+00 -0.15037222520E+04  0.15037222520E+04  0.50400001928E-02 0. -1.
    10030    2    1    2    0    0  0.00000000000E+00  0.00000000000E+00 -0.12032259602E+03  0.28871219079E+04  0.28846135589E+04 0.  0.
        5    1    3    3  502    0 -0.94042328901E+03 -0.33209324189E+03 -0.11029621367E+04  0.14870203256E+04  0.46999998093E+01 0. -1.
       -5    1    3    3    0  502  0.94042328901E+03  0.33209324189E+03  0.98263954070E+03  0.14001015823E+04  0.46999998093E+01 0.  1.
</event>
<event>
 5   0  0.2730981E-06  0.3221826E+04  0.7818609E-02  0.8183077E-01
        1   -1    0    0  501    0  0.00000000000E+00  0.00000000000E+00  0.16816173041E+04  0.16816173041E+04  0.50400001928E-02 0. -1.
       -1   -1    0    0    0  501  0.00000000000E+00  0.00000000000E+00 -0.15431816084E+04  0.15431816084E+04  0.50400001928E-02 0.  1.
    10030    2    1    2    0    0  0.00000000000E+00  0.00000000000E+00  0.13843569565E+03  0.32247989125E+04  0.32218261257E+04 0.  0.
        3    1    3    3  502    0  0.13601910494E+04  0.86284808956E+03  0.89592693331E+02  0.16132741173E+04  0.10100000352E+00 0.  1.
       -3    1    3    3    0  502 -0.13601910494E+04 -0.86284808956E+03  0.48843002321E+02  0.16115247952E+04  0.10100000352E+00 0. -1.
</event>
<event>
 5   0  0.5637538E-06  0.2365856E+04  0.7818609E-02  0.8452398E-01
        2   -1    0    0  501    0  0.00000000000E+00  0.00000000000E+00  0.15801509380E+04  0.15801509380E+04  0.25500000920E-02 0.  1.
       -2   -1    0    0    0  501  0.00000000000E+00  0.00000000000E+00 -0.88555991702E+03  0.88555991702E+03  0.25500000920E-02 0. -1.
    10030    2    1    2    0    0  0.00000000000E+00  0.00000000000E+00  0.69459102095E+03  0.24657108550E+04  0.23658557298E+04 0.  0.
        2    1    3    3  502    0  0.98543560065E+03  0.63401521782E+03  0.17840747437E+03  0.11852796490E+04  0.25500000920E-02 0.  1.
       -2    1    3    3    0  502 -0.98543560065E+03 -0.63401521782E+03  0.51618354657E+03  0.12804312060E+04  0.25500000920E-02 0. -1.
</event>
<event>
 5   0  0.5755250E-06  0.3122286E+04  0.7818609E-02  0.8209648E-01
       -2   -1    0    0    0  501  0.00000000000E+00  0.00000000000E+00  0.15849990158E+04  0.15849990158E+04  0.25500000920E-02 0. -1.
        2   -1    0    0  501    0  0.00000000000E+00  0.00000000000E+00 -0.15376456046E+04  0.15376456047E+04  0.25500000920E-02 0.  1.
    10030    2    1    2    0    0  0.00000000000E+00  0.00000000000E+00  0.47353411184E+02  0.31226446205E+04  0.31222855539E+04 0.  0.
        5    1    3    3  502    0 -0.20689759635E+03 -0.24850398208E+03  0.15511322258E+04  0.15844854422E+04  0.46999998093E+01 0. -1.
       -5    1    3    3    0  502  0.20689759635E+03  0.24850398208E+03 -0.15037788146E+04  0.15381591783E+04  0.46999998093E+01 0.  1.
</event>
<event>
 5   0  0.5622811E-06  0.3308965E+04  0.7818609E-02  0.8160618E-01
        2   -1    0    0  501    0  0.00000000000E+00  0.00000000000E+00  0.21038421504E+04  0.21038421504E+04  0.25500000920E-02 0.  1.
       -2   -1    0    0    0  501  0.00000000000E+00  0.00000000000E+00 -0.13011018277E+04  0.13011018277E+04  0.25500000920E-02 0. -1.
    10030    2    1    2    0    0  0.00000000000E+00  0.00000000000E+00  0.80274032280E+03  0.34049439781E+04  0.33089653169E+04 0.  0.
        1    1    3    3  502    0  0.40700255433E+02  0.13328151412E+04 -0.60645676787E+03  0.14648694559E+04  0.50400001928E-02 0.  1.
       -1    1    3    3    0  502 -0.40700255433E+02 -0.13328151412E+04  0.14091970907E+04  0.19400745222E+04  0.50400001928E-02 0. -1.
</event>
<event>
 5   0  0.5300268E-06  0.2256742E+04  0.7818609E-02  0.8495175E-01
       -2   -1    0    0    0  501  0.00000000000E+00  0.00000000000E+00  0.98530665295E+03  0.98530665295E+03  0.25500000920E-02 0. -1.
        2   -1    0    0  501    0  0.00000000000E+00  0.00000000000E+00 -0.12922080076E+04  0.12922080076E+04  0.25500000920E-02 0.  1.
    10030    2    1    2    0    0  0.00000000000E+00  0.00000000000E+00 -0.30690135469E+03  0.22775146606E+04  0.22567420295E+04 0.  0.
        4    1    3    3  502    0  0.73416533836E+03  0.74515706443E+03 -0.58038331840E+03  0.11962876761E+04  0.12699999809E+01 0.  1.
       -4    1    3    3    0  502 -0.73416533836E+03 -0.74515706443E+03  0.27348196371E+03  0.10812269845E+04  0.12699999809E+01 0. -1.
</event>
<event>
 5   0  0.5755250E-06  0.3320644E+04  0.7818609E-02  0.8157662E-01
        2   -1    0    0  501    0  0.00000000000E+00  0.00000000000E+00  0.22467599524E+04  0.22467599524E+04  0.25500000920E-02 0.  1.
       -2   -1    0    0    0  501  0.00000000000E+00  0.00000000000E+00 -0.12269531190E+04  0.12269531190E+04  0.25500000920E-02 0. -1.
    10030    2    1    2    0    0  0.00000000000E+00  0.00000000000E+00  0.10198068334E+04  0.34737130713E+04  0.33206439924E+04 0.  0.
        5    1    3    3  502    0  0.38998323395E+03 -0.16121081917E+04  0.43115177847E+03  0.17137367623E+04  0.46999998093E+01 0. -1.
       -5    1    3    3    0  502 -0.38998323395E+03  0.16121081917E+04  0.58865505495E+03  0.17599763090E+04  0.46999998093E+01 0.  1.
</event>
<event>
 5   0  0.5855568E-06  0.3322509E+04  0.7818609E-02  0.8157191E-01
       -2   -1    0    0    0  501  0.00000000000E+00  0.00000000000E+00  0.11079767437E+04  0.11079767437E+04  0.25500000920E-02 0. -1.
        2   -1    0    0  501    0  0.00000000000E+00  0.00000000000E+00 -0.24908163877E+04  0.24908163877E+04  0.25500000920E-02 0.  1.
    10030    2    1    2    0    0  0.00000000000E+00  0.00000000000E+00 -0.13828396439E+04  0.35987931314E+04  0.33225090703E+04 0.  0.
        3    1    3    3  502    0 -0.46145918537E+02 -0.15071890413E+04 -0.14465416932E+04  0.20895528546E+04  0.10100000352E+00 0.  1.
       -3    1    3    3    0  502  0.46145918537E+02  0.15071890413E+04  0.63702049254E+02  0.15092402768E+04  0.10100000352E+00 0. -1.
</event>
<event>
 5   0  0.2097842E-06  0.2816665E+04  0.7818609E-02  0.8298113E-01
        1   -1    0    0  501    0  0.00000000000E+00  0.00000000000E+00  0.18383790132E+04  0.18383790132E+04  0.50400001928E-02 0.  1.
       -1   -1    0    0    0  501  0.00000000000E+00  0.00000000000E+00 -0.10788857406E+04  0.10788857406E+04  0.50400001928E-02 0. -1.
    10030    2    1    2    0    0  0.00000000000E+00  0.00000000000E+00  0.75949327267E+03  0.29172647538E+04  0.28166653356E+04 0.  0.
        4    1    3    3  502    0  0.52580968533E+02  0.56446669963E+03 -0.95548820877E+03  0.11110115856E+04  0.12699999809E+01 0. -1.
       -4    1    3    3    0  502 -0.52580968533E+02 -0.56446669963E+03  0.17149814814E+04  0.18062531683E+04  0.12699999809E+01 0.  1.
</event>
<event>
 5   0  0.5755250E-06  0.3259294E+04  0.7818609E-02  0.8173331E-01
        2   -1    0    0  501    0  0.00000000000E+00  0.00000000000E+00  0.22198778433E+04  0.22198778433E+04  0.25500000920E-02 0.  1.
       -2   -1    0    0    0  501  0.00000000000E+00  0.00000000000E+00 -0.11963491630E+04  0.11963491630E+04  0.25500000920E-02 0. -1.
    10030    2    1    2    0    0  0.00000000000E+00  0.00000000000E+00  0.10235286803E+04  0.34162270063E+04  0.32592937884E+04 0.  0.
        5    1    3    3  502    0 -0.10200025089E+03  0.65960708313E+03 -0.10465069272E+04  0.12412430842E+04  0.46999998093E+01 0. -1.
       -5    1    3    3    0  502  0.10200025089E+03 -0.65960708313E+03  0.20700356075E+04  0.21749839222E+04  0.46999998093E+01 0.  1.
</event>
<event>
 5   0  0.1999849E-06  0.1700435E+04  0.7818609E-02  0.8761116E-01
        1   -1    0    0  501    0  0.00000000000E+00  0.00000000000E+00  0.13515462141E+04  0.13515462141E+04  0.50400001928E-02 0. -1.
       -1   -1    0    0    0  501  0.00000000000E+00  0.00000000000E+00 -0.53484635142E+03  0.53484635144E+03  0.50400001928E-02 0.  1.
    10030    2    1    2    0    0  0.00000000000E+00  0.00000000000E+00  0.81669986271E+03  0.18863925656E+04  0.17004347226E+04 0.  0.
        5    1    3    3  502    0  0.70372818969E+03 -0.25934519011E+02 -0.12013070462E+03  0.71439445717E+03  0.46999998093E+01 0. -1.
       -5    1    3    3    0  502 -0.70372818969E+03  0.25934519011E+02  0.93683056733E+03  0.11719981084E+04  0.46999998093E+01 0.  1.
</event>
<event>
 5   0  0.1999849E-06  0.2438387E+04  0.7818609E-02  0.8425270E-01
       -1   -1    0    0    0  501  0.00000000000E+00  0.00000000000E+00  0.10297183969E+04  0.10297183970E+04  0.50400001928E-02 0.  1.
        1   -1    0    0  501    0  0.00000000000E+00  0.00000000000E+00 -0.14435335844E+04  0.14435335844E+04  0.50400001928E-02 0. -1.
    10030    2    1    2    0    0  0.00000000000E+00  0.00000000000E+00 -0.41381518746E+03  0.24732519814E+04  0.24383872445E+04 0.  0.
        5    1    3    3  502    0  0.11147458252E+04  0.17094931702E+03 -0.67670300184E+03  0.13152303854E+04  0.46999998093E+01 0. -1.
       -5    1    3    3    0  502 -0.11147458252E+04 -0.17094931702E+03  0.26288781438E+03  0.11580215960E+04  0.46999998093E+01 0.  1.
</event>
<event>
 5   0  0.1999849E-06  0.3218768E+04  0.7818609E-02  0.8183878E-01
       -1   -1    0    0    0  501  0.00000000000E+00  0.00000000000E+00  0.16342066027E+04  0.16342066027E+04  0.50400001928E-02 0. -1.
        1   -1    0    0  501    0  0.00000000000E+00  0.00000000000E+00 -0.15849385866E+04  0.15849385866E+04  0.50400001928E-02 0.  1.
    10030    2    1    2    0    0  0.00000000000E+00  0.00000000000E+00  0.49268016076E+02  0.32191451893E+04  0.32187681513E+04 0.  0.
        5    1    3    3  502    0  0.22136025101E+03 -0.10334906447E+04 -0.11891768687E+04  0.15909955966E+04  0.46999998093E+01 0.  1.
       -5    1    3    3    0  502 -0.22136025101E+03  0.10334906447E+04  0.12384448848E+04  0.16281495926E+04  0.46999998093E+01 0. -1.
</event>
<event>
 5   0  0.1925906E-06  0.3308309E+04  0.7818609E-02  0.8160784E-01
        1   -1    0    0  501    0  0.00000000000E+00  0.00000000000E+00  0.19675434340E+04  0.19675434340E+04  0.50400001928E-02 0.  1.
       -1   -1    0    0    0  501  0.00000000000E+00  0.00000000000E+00 -0.13906823231E+04  0.13906823231E+04  0.50400001928E-02 0. -1.
    10030    2    1    2    0    0  0.00000000000E+00  0.00000000000E+00  0.57686111086E+03  0.33582257571E+04  0.33083094617E+04 0.  0.
        1    1    3    3  502    0 -0.13699361257E+04  0.68110509790E+03  0.92688689836E+03  0.17887840746E+04  0.50400001928E-02 0.  1.
       -1    1    3    3    0  502  0.13699361257E+04 -0.68110509790E+03 -0.35002578750E+03  0.15694416826E+04  0.50400001928E-02 0. -1.
</event>
<event>
 5   0  0.5855568E-06  0.3294702E+04  0.7818609E-02  0.8164245E-01
       -2   -1    0    0    0  501  0.00000000000E+00  0.00000000000E+00  0.12506537165E+04  0.12506537165E+04  0.25500000920E-02 0.  1.
        2   -1    0    0  501    0  0.00000000000E+00  0.00000000000E+00 -0.21698777993E+04  0.21698777993E+04  0.25500000920E-02 0. -1.
    10030    2    1    2    0    0  0.00000000000E+00  0.00000000000E+00 -0.91922408277E+03  0.34205315159E+04  0.32947022531E+04 0.  0.
        3    1    3    3  502    0 -0.58721912896E+03 -0.76216713564E+03  0.92863296671E+03  0.13371926732E+04  0.10100000352E+00 0.  1.
       -3    1    3    3    0  502  0.58721912896E+03  0.76216713564E+03 -0.18478570495E+04  0.20833388427E+04  0.10100000352E+00 0. -1.
</event>
<event>
 5   0  0.5755250E-06  0.2964254E+04  0.7818609E-02  0.8254013E-01
       -2   -1    0    0    0  501  0.00000000000E+00  0.00000000000E+00  0.12164119725E+04  0.12164119725E+04  0.25500000920E-02 0. -1.
        2   -1    0    0  501    0  0.00000000000E+00  0.00000000000E+00 -0.18058857195E+04  0.18058857195E+04  0.25500000920E-02 0.  1.
    10030    2    1    2    0    0  0.00000000000E+00  0.00000000000E+00 -0.58947374708E+03  0.30222976920E+04  0.29642543819E+04 0.  0.
        5    1    3    3  502    0 -0.42349342329E+03  0.52441984050E+03 -0.16405514886E+04  0.17736386683E+04  0.46999998093E+01 0.  1.
       -5    1    3    3    0  502  0.42349342329E+03 -0.52441984050E+03  0.10510777416E+04  0.12486590237E+04  0.46999998093E+01 0. -1.
</event>
<event>
 5   0  0.2097842E-06  0.3366632E+04  0.7818609E-02  0.8146145E-01
       -1   -1    0    0    0  501  0.00000000000E+00  0.00000000000E+00  0.10077243769E+04  0.10077243769E+04  0.50400001928E-02 0. -1.
        1   -1    0    0  501    0  0.00000000000E+00  0.00000000000E+00 -0.28118323496E+04  0.28118323496E+04  0.50400001928E-02 0.  1.
    10030    2    1    2    0    0  0.00000000000E+00  0.00000000000E+00 -0.18041079727E+04  0.38195567265E+04  0.33666315524E+04 0.  0.
        4    1    3    3  502    0 -0.65578465271E+03  0.12456628911E+04 -0.19491620539E+04  0.24043635071E+04  0.12699999809E+01 0.  1.
       -4    1    3    3    0  502  0.65578465271E+03 -0.12456628911E+04  0.14505408120E+03  0.14151932194E+04  0.12699999809E+01 0. -1.
</event>
<event>
 5   0  0.5637538E-06  0.2823318E+04  0.7818609E-02  0.8296065E-01
        2   -1    0    0  501    0  0.00000000000E+00  0.00000000000E+00  0.21146980071E+04  0.21146980071E+04  0.25500000920E-02 0. -1.
       -2   -1    0    0    0  501  0.00000000000E+00  0.00000000000E+00 -0.94234788311E+03  0.94234788312E+03  0.25500000920E-02 0.  1.
    10030    2    1    2    0    0  0.00000000000E+00  0.00000000000E+00  0.11723501240E+04  0.30570458903E+04  0.28233180412E+04 0.  0.
        2    1    3    3  502    0 -0.83480674692E+03 -0.39168862009E+03 -0.57116889790E+03  0.10846917487E+04  0.25500000920E-02 0.  1.
       -2    1    3    3    0  502  0.83480674692E+03  0.39168862009E+03  0.17435190219E+04  0.19723541415E+04  0.25500000920E-02 0. -1.
</event>
<event>
 5   0  0.5637538E-06  0.2239592E+04  0.7818609E-02  0.8502127E-01
       -2   -1    0    0    0  501  0.00000000000E+00  0.00000000000E+00  0.11644533383E+04  0.11644533383E+04  0.25500000920E-02 0. -1.
        2   -1    0    0  501    0  0.00000000000E+00  0.00000000000E+00 -0.10768514540E+04  0.10768514540E+04  0.25500000920E-02 0.  1.
    10030    2    1    2    0    0  0.00000000000E+00  0.00000000000E+00  0.87601884282E+02  0.22413047922E+04  0.22395921686E+04 0.  0.
        2    1    3    3  502    0 -0.65930202231E+03 -0.87388361294E+03 -0.19215795130E+03  0.11114298916E+04  0.25500000920E-02 0.  1.
       -2    1    3    3    0  502  0.65930202231E+03  0.87388361294E+03  0.27975983558E+03  0.11298749007E+04  0.25500000920E-02 0. -1.
</event>
<event>
 5   0  0.1925906E-06  0.3242639E+04  0.7818609E-02  0.8177646E-01
        1   -1    0    0  501    0  0.00000000000E+00  0.00000000000E+00  0.18522307611E+04  0.18522307612E+04  0.50400001928E-02 0.  1.
       -1   -1    0    0    0  501  0.00000000000E+00  0.00000000000E+00 -0.14191951555E+04  0.14191951556E+04  0.50400001928E-02 0. -1.
    10030    2    1    2    0    0  0.00000000000E+00  0.00000000000E+00  0.43303560560E+03  0.32714259167E+04  0.32426390013E+04 0.  0.
        1    1    3    3  502    0 -0.70254854891E+03  0.73573268774E+03 -0.10571476872E+04  0.14671190422E+04  0.50400001928E-02 0. -1.
       -1    1    3    3    0  502  0.70254854891E+03 -0.73573268774E+03  0.14901832928E+04  0.18043068745E+04  0.50400001928E-02 0.  1.
</event>
<event>
 5   0  0.5755250E-06  0.3314554E+04  0.7818609E-02  0.8159202E-01
       -2   -1    0    0    0  501  0.00000000000E+00  0.00000000000E+00  0.13707287161E+04  0.13707287161E+04  0.25500000920E-02 0.  1.
        2   -1    0    0  501    0  0.00000000000E+00  0.00000000000E+00 -0.20037277533E+04  0.20037277533E+04  0.25500000920E-02 0. -1.
    10030    2    1    2    0    0  0.00000000000E+00  0.00000000000E+00 -0.63299903722E+03  0.33744564694E+04  0.33145540699E+04 0.  0.
        5    1    3    3  502    0  0.86658300904E+03 -0.12158627534E+04 -0.10487030157E+04  0.18245789793E+04  0.46999998093E+01 0.  1.
       -5    1    3    3    0  502 -0.86658300904E+03  0.12158627534E+04  0.41570397844E+03  0.15498774901E+04  0.46999998093E+01 0. -1.
</event>
<event>
 5   0  0.2730981E-06  0.2199030E+04  0.7818609E-02  0.8518832E-01
       -1   -1    0    0    0  501  0.00000000000E+00  0.00000000000E+00  0.74269458331E+03  0.74269458333E+03  0.50400001928E-02 0.  1.
        1   -1    0    0  501    0  0.00000000000E+00  0.00000000000E+00 -0.16277660512E+04  0.16277660512E+04  0.50400001928E-02 0. -1.
    10030    2    1    2    0    0  0.00000000000E+00  0.00000000000E+00 -0.88507146788E+03  0.23704606345E+04  0.21990298126E+04 0.  0.
        3    1    3    3  502    0 -0.61618719599E+03  0.57285710522E+03 -0.12055903772E+04  0.14701360792E+04  0.10100000352E+00 0. -1.
       -3    1    3    3    0  502  0.61618719599E+03 -0.57285710522E+03  0.32051890933E+03  0.90032455534E+03  0.10100000352E+00 0.  1.
</event>
<event>
 5   0  0.5300268E-06  0.3089920E+04  0.7818609E-02  0.8218510E-01
        2   -1    0    0  501    0  0.00000000000E+00  0.00000000000E+00  0.22151241600E+04  0.22151241600E+04  0.25500000920E-02 0. -1.
       -2   -1    0    0    0  501  0.00000000000E+00  0.00000000000E+00 -0.10775474717E+04  0.10775474717E+04  0.25500000920E-02 0.  1.
    10030    2    1    2    0    0  0.00000000000E+00  0.00000000000E+00  0.11375766883E+04  0.32926716318E+04  0.30899200237E+04 0.  0.
        4    1    3    3  502    0 -0.50189634013E+03  0.14505938863E+04  0.38184233321E+03  0.15817483174E+04  0.12699999809E+01 0.  1.
       -4    1    3    3    0  502  0.50189634013E+03 -0.14505938863E+04  0.75573435506E+03  0.17109233144E+04  0.12699999809E+01 0. -1.
</event>
<event>
 5   0  0.5755250E-06  0.2153762E+04  0.7818609E-02  0.8537924E-01
       -2   -1    0    0    0  501  0.00000000000E+00  0.00000000000E+00  0.14771143196E+04  0.14771143196E+04  0.25500000920E-02 0.  1.
        2   -1    0    0  501    0  0.00000000000E+00  0.00000000000E+00 -0.78509354471E+03  0.78509354472E+03  0.25500000920E-02 0. -1.
    10030    2    1    2    0    0  0.00000000000E+00  0.00000000000E+00  0.69202077490E+03  0.22622078643E+04  0.21537622126E+04 0.  0.
        5    1    3    3  502    0 -0.41622889207E+03 -0.65804438907E+03 -0.43534252827E+03  0.89208414149E+03  0.46999998093E+01 0. -1.
       -5    1    3    3    0  502  0.41622889207E+03  0.65804438907E+03  0.11273633032E+04  0.13701237228E+04  0.46999998093E+01 0.  1.
</event>
<event>
 5   0  0.1925906E-06  0.3302825E+04  0.7818609E-02  0.8162177E-01
       -1   -1    0    0    0  501  0.00000000000E+00  0.00000000000E+00  0.14757936456E+04  0.14757936456E+04  0.50400001928E-02 0. -1.
        1   -1    0    0  501    0  0.00000000000E+00  0.00000000000E+00 -0.18479300310E+04  0.18479300310E+04  0.50400001928E-02 0.  1.
    10030    2    1    2    0    0  0.00000000000E+00  0.00000000000E+00 -0.37213638535E+03  0.33237236766E+04  0.33028250921E+04 0.  0.
        1    1    3    3  502    0 -0.48874494153E+03 -0.10070654924E+03 -0.17702430928E+04  0.18392319143E+04  0.50400001928E-02 0.  1.
       -1    1    3    3    0  502  0.48874494153E+03  0.10070654924E+03  0.13981067074E+04  0.14844917623E+04  0.50400001928E-02 0. -1.
</event>
<event>
 5   0  0.1925906E-06  0.2561947E+04  0.7818609E-02  0.8381243E-01
       -1   -1    0    0    0  501  0.00000000000E+00  0.00000000000E+00  0.10516791481E+04  0.10516791481E+04  0.50400001928E-02 0. -1.
        1   -1    0    0  501    0  0.00000000000E+00  0.00000000000E+00 -0.15602601659E+04  0.15602601659E+04  0.50400001928E-02 0.  1.
    10030    2    1    2    0    0  0.00000000000E+00  0.00000000000E+00 -0.50858101778E+03  0.26119393141E+04  0.25619469801E+04 0.  0.
        1    1    3    3  502    0 -0.55164152969E+03 -0.25341883595E+03 -0.14042924210E+04  0.15298910704E+04  0.50400001928E-02 0.  1.
       -1    1    3    3    0  502  0.55164152969E+03  0.25341883595E+03  0.89571140320E+03  0.10820482436E+04  0.50400001928E-02 0. -1.
</event>
<event>
 5   0  0.2730981E-06  0.3310783E+04  0.7818609E-02  0.8160157E-01
       -1   -1    0    0    0  501  0.00000000000E+00  0.00000000000E+00  0.13598274308E+04  0.13598274308E+04  0.50400001928E-02 0. -1.
        1   -1    0    0  501    0  0.00000000000E+00  0.00000000000E+00 -0.20151972579E+04  0.20151972579E+04  0.50400001928E-02 0.  1.
    10030    2    1    2    0    0  0.00000000000E+00  0.00000000000E+00 -0.65536982705E+03  0.33750246887E+04  0.33107826928E+04 0.  0.
        3    1    3    3  502    0 -0.16220006182E+03 -0.37321530155E+03 -0.19634142697E+04  0.20051419216E+04  0.10100000352E+00 0.  1.
       -3    1    3    3    0  502  0.16220006182E+03  0.37321530155E+03  0.13080444426E+04  0.13698827671E+04  0.10100000352E+00 0. -1.
</event>
<event>
 5   0  0.5300268E-06  0.3291429E+04  0.7818609E-02  0.8165080E-01
        2   -1    0    0  501    0  0.00000000000E+00  0.00000000000E+00  0.18830943990E+04  0.18830943990E+04  0.25500000920E-02 0. -1.
       -2   -1    0    0    0  501  0.00000000000E+00  0.00000000000E+00 -0.14382586554E+04  0.14382586554E+04  0.25500000920E-02 0.  1.
    10030    2    1    2    0    0  0.00000000000E+00  0.00000000000E+00  0.44483574360E+03  0.33213530544E+04  0.32914293663E+04 0.  0.
        4    1    3    3  502    0  0.13189326317E+04 -0.27274226999E+03 -0.73190924851E+03  0.15328615051E+04  0.12699999809E+01 0.  1.
       -4    1    3    3    0  502 -0.13189326317E+04  0.27274226999E+03  0.11767449921E+04  0.17884915493E+04  0.12699999809E+01 0. -1.
</event>
<event>
 5   0  0.5622811E-06  0.3330218E+04  0.7818609E-02  0.8155249E-01
        2   -1    0    0  501    0  0.00000000000E+00  0.00000000000E+00  0.22462515697E+04  0.22462515697E+04  0.25500000920E-02 0.  1.
       -2   -1    0    0    0  501  0.00000000000E+00  0.00000000000E+00 -0.12343175629E+04  0.12343175629E+04  0.25500000920E-02 0. -1.
    10030    2    1    2    0    0  0.00000000000E+00  0.00000000000E+00  0.10119340068E+04  0.34805691326E+04  0.33302178687E+04 0.  0.
        1    1    3    3  502    0  0.12300833518E+04 -0.10022458199E+04  0.10337261989E+04  0.18937242645E+04  0.50400001928E-02 0.  1.
       -1    1    3    3    0  502 -0.12300833518E+04  0.10022458199E+04 -0.21792192051E+02  0.15868448681E+04  0.50400001928E-02 0. -1.
</event>
<event>
 5   0  0.1878000E-06  0.3191908E+04  0.7818609E-02  0.8190958E-01
        4   -1    0    0  501    0  0.00000000000E+00  0.00000000000E+00  0.22408642403E+04  0.22408646002E+04  0.12699999809E+01 0. -1.
       -4   -1    0    0    0  501  0.00000000000E+00  0.00000000000E+00 -0.11366449687E+04  0.11366456782E+04  0.12699999809E+01 0.  1.
    10030    2    1    2    0    0  0.00000000000E+00  0.00000000000E+00  0.11042192716E+04  0.33775102784E+04  0.31919078121E+04 0.  0.
        4    1    3    3  502    0  0.75606076734E+03 -0.22595864313E+03  0.20199944920E+04  0.21686550101E+04  0.12699999809E+01 0. -1.
       -4    1    3    3    0  502 -0.75606076734E+03  0.22595864313E+03 -0.91577522044E+03  0.12088552683E+04  0.12699999809E+01 0.  1.
</event>
<event>
 5   0  0.2037109E-06  0.2267245E+04  0.7818609E-02  0.8490949E-01
       -1   -1    0    0    0  501  0.00000000000E+00  0.00000000000E+00  0.10207786623E+04  0.10207786623E+04  0.50400001928E-02 0.  1.
        1   -1    0    0  501    0  0.00000000000E+00  0.00000000000E+00 -0.12589407552E+04  0.12589407552E+04  0.50400001928E-02 0. -1.
    10030    2    1    2    0    0  0.00000000000E+00  0.00000000000E+00 -0.23816209290E+03  0.22797194175E+04  0.22672449007E+04 0.  0.
        2    1    3    3  502    0 -0.65793240093E+02  0.67011434272E+03 -0.10360845243E+04  0.12356589838E+04  0.25500000920E-02 0. -1.
       -2    1    3    3    0  502  0.65793240093E+02 -0.67011434272E+03  0.79792243136E+03  0.10440604337E+04  0.25500000920E-02 0.  1.
</event>
<event>
 5   0  0.1878000E-06  0.3392890E+04  0.7818609E-02  0.8139653E-01
        3   -1    0    0  501    0  0.00000000000E+00  0.00000000000E+00  0.17992542823E+04  0.17992542852E+04  0.10100000352E+00 0.  1.
       -3   -1    0    0    0  501  0.00000000000E+00  0.00000000000E+00 -0.15995105708E+04  0.15995105739E+04  0.10100000352E+00 0. -1.
    10030    2    1    2    0    0  0.00000000000E+00  0.00000000000E+00  0.19974371156E+03  0.33987648591E+04  0.33928903633E+04 0.  0.
        4    1    3    3  502    0 -0.21281747565E+03 -0.45800900809E+03  0.17222008879E+04  0.17947258957E+04  0.12699999809E+01 0.  1.
       -4    1    3    3    0  502  0.21281747565E+03  0.45800900809E+03 -0.15224571763E+04  0.16040389634E+04  0.12699999809E+01 0. -1.
</event>
<event>
 5   0  0.5300268E-06  0.3320241E+04  0.7818609E-02  0.8157764E-01
        2   -1    0    0  501    0  0.00000000000E+00  0.00000000000E+00  0.17945657830E+04  0.17945657830E+04  0.25500000920E-02 0. -1.
       -2   -1    0    0    0  501  0.00000000000E+00  0.00000000000E+00 -0.15357473977E+04  0.15357473977E+04  0.25500000920E-02 0.  1.
    10030    2    1    2    0    0  0.00000000000E+00  0.00000000000E+00  0.25881838529E+03  0.33303131808E+04  0.33202407933E+04 0.  0.
        4    1    3    3  502    0 -0.13607599316E+04  0.47023423836E+03  0.95848204364E+03  0.17295887578E+04  0.12699999809E+01 0. -1.
       -4    1    3    3    0  502  0.13607599316E+04 -0.47023423836E+03 -0.69966365835E+03  0.16007244229E+04  0.12699999809E+01 0.  1.
</event>
<event>
 5   0  0.2730981E-06  0.1668518E+04  0.7818609E-02  0.8779526E-01
        1   -1    0    0  501    0  0.00000000000E+00  0.00000000000E+00  0.25862011248E+04  0.25862011248E+04  0.50400001928E-02 0.  1.
       -1   -1    0    0    0  501  0.00000000000E+00  0.00000000000E+00 -0.26911602799E+03  0.26911602803E+03  0.50400001928E-02 0. -1.
    10030    2    1    2    0    0  0.00000000000E+00  0.00000000000E+00  0.23170850968E+04  0.28553171528E+04  0.16685181142E+04 0.  0.
        3    1    3    3  502    0 -0.61964355757E+03 -0.12607539017E+03  0.22728819928E+03  0.67194722871E+03  0.10100000352E+00 0. -1.
       -3    1    3    3    0  502  0.61964355757E+03  0.12607539017E+03  0.20897968975E+04  0.21833699241E+04  0.10100000352E+00 0.  1.
</event>
<event>
 5   0  0.5300268E-06  0.3286192E+04  0.7818609E-02  0.8166418E-01
        2   -1    0    0  501    0  0.00000000000E+00  0.00000000000E+00  0.18294277242E+04  0.18294277242E+04  0.25500000920E-02 0.  1.
       -2   -1    0    0    0  501  0.00000000000E+00  0.00000000000E+00 -0.14757428686E+04  0.14757428686E+04  0.25500000920E-02 0. -1.
    10030    2    1    2    0    0  0.00000000000E+00  0.00000000000E+00  0.35368485563E+03  0.33051705929E+04  0.32861922754E+04 0.  0.
        4    1    3    3  502    0  0.59526208929E+03 -0.35311513092E+02 -0.13630711083E+04  0.14877998243E+04  0.12699999809E+01 0. -1.
       -4    1    3    3    0  502 -0.59526208929E+03  0.35311513092E+02  0.17167559639E+04  0.18173707686E+04  0.12699999809E+01 0.  1.
</event>
<event>
 5   0  0.1925906E-06  0.3287260E+04  0.7818609E-02  0.8166145E-01
        1   -1    0    0  501    0  0.00000000000E+00  0.00000000000E+00  0.23126443969E+04  0.23126443969E+04  0.50400001928E-02 0.  1.
       -1   -1    0    0    0  501  0.00000000000E+00  0.00000000000E+00 -0.11681518562E+04  0.11681518563E+04  0.50400001928E-02 0. -1.
    10030    2    1    2    0    0  0.00000000000E+00  0.00000000000E+00  0.11444925406E+04  0.34807962531E+04  0.32872601632E+04 0.  0.
        1    1    3    3  502    0 -0.12552452107E+04 -0.10387297364E+04  0.34288357097E+03  0.16649832274E+04  0.50400001928E-02 0. -1.
       -1    1    3    3    0  502  0.12552452107E+04  0.10387297364E+04  0.80160896966E+03  0.18158130258E+04  0.50400001928E-02 0.  1.
</event>
<event>
 5   0  0.1925906E-06  0.3243444E+04  0.7818609E-02  0.8177437E-01
        1   -1    0    0  501    0  0.00000000000E+00  0.00000000000E+00  0.17518731009E+04  0.17518731009E+04  0.50400001928E-02 0.  1.
       -1   -1    0    0    0  501  0.00000000000E+00  0.00000000000E+00 -0.15012405114E+04  0.15012405114E+04  0.50400001928E-02 0. -1.
    10030    2    1    2    0    0  0.00000000000E+00  0.00000000000E+00  0.25063258955E+03  0.32531136123E+04  0.32434443852E+04 0.  0.
        1    1    3    3  502    0  0.15959306819E+03 -0.46951790966E+03 -0.14233287928E+04  0.15072431348E+04  0.50400001928E-02 0. -1.
       -1    1    3    3    0  502 -0.15959306819E+03  0.46951790966E+03  0.16739613823E+04  0.17458704776E+04  0.50400001928E-02 0.  1.
</event>
<event>
 5   0  0.5300268E-06  0.3049224E+04  0.7818609E-02  0.8229813E-01
        2   -1    0    0  501    0  0.00000000000E+00  0.00000000000E+00  0.17603442437E+04  0.17603442437E+04  0.25500000920E-02 0.  1.
       -2   -1    0    0    0  501  0.00000000000E+00  0.00000000000E+00 -0.13204475016E+04  0.13204475016E+04  0.25500000920E-02 0. -1.
    10030    2    1    2    0    0  0.00000000000E+00  0.00000000000E+00  0.43989674209E+03  0.30807917452E+04  0.30492242675E+04 0.  0.
        4    1    3    3  502    0  0.76094108731E+03 -0.20904386828E+03  0.15379493510E+04  0.17285891635E+04  0.12699999809E+01 0.  1.
       -4    1    3    3    0  502 -0.76094108731E+03  0.20904386828E+03 -0.10980526089E+04  0.13522025817E+04  0.12699999809E+01 0. -1.
</event>
<event>
 5   0  0.5622811E-06  0.3561138E+04  0.7818609E-02  0.8099452E-01
       -2   -1    0    0    0  501  0.00000000000E+00  0.00000000000E+00  0.14130775974E+04  0.14130775974E+04  0.25500000920E-02 0. -1.
        2   -1    0    0  501    0  0.00000000000E+00  0.00000000000E+00 -0.22436320939E+04  0.22436320939E+04  0.25500000920E-02 0.  1.
    10030    2    1    2    0    0  0.00000000000E+00  0.00000000000E+00 -0.83055449652E+03  0.36567096913E+04  0.35611381600E+04 0.  0.
        1    1    3    3  502    0  0.16159330273E+04 -0.73802116548E+03 -0.29158080773E+03  0.18002594693E+04  0.50400001928E-02 0. -1.
       -1    1    3    3    0  502 -0.16159330273E+04  0.73802116548E+03 -0.53897368879E+03  0.18564502220E+04  0.50400001928E-02 0.  1.
</event>
<event>
 5   0  0.5637538E-06  0.3285111E+04  0.7818609E-02  0.8166694E-01
       -2   -1    0    0    0  501  0.00000000000E+00  0.00000000000E+00  0.15083779195E+04  0.15083779195E+04  0.25500000920E-02 0. -1.
        2   -1    0    0  501    0  0.00000000000E+00  0.00000000000E+00 -0.17886690947E+04  0.17886690947E+04  0.25500000920E-02 0.  1.
    10030    2    1    2    0    0  0.00000000000E+00  0.00000000000E+00 -0.28029117520E+03  0.32970470142E+04  0.32851112418E+04 0.  0.
        2    1    3    3  502    0  0.43648303914E+03  0.13200405610E+04 -0.10179458040E+04  0.17231477551E+04  0.25500000920E-02 0. -1.
       -2    1    3    3    0  502 -0.43648303914E+03 -0.13200405610E+04  0.73765462878E+03  0.15738992590E+04  0.25500000920E-02 0.  1.
</event>
<event>
 5   0  0.5300268E-06  0.3303005E+04  0.7818609E-02  0.8162131E-01
       -2   -1    0    0    0  501  0.00000000000E+00  0.00000000000E+00  0.12326926388E+04  0.12326926388E+04  0.25500000920E-02 0. -1.
        2   -1    0    0  501    0  0.00000000000E+00  0.00000000000E+00 -0.22126045186E+04  0.22126045186E+04  0.25500000920E-02 0.  1.
    10030    2    1    2    0    0  0.00000000000E+00  0.00000000000E+00 -0.97991187984E+03  0.34452971574E+04  0.33030054814E+04 0.  0.
        4    1    3    3  502    0 -0.68298102707E+03 -0.11069244872E+04 -0.15514986679E+04  0.20245727038E+04  0.12699999809E+01 0.  1.
       -4    1    3    3    0  502  0.68298102707E+03  0.11069244872E+04  0.57158678810E+03  0.14207244535E+04  0.12699999809E+01 0. -1.
</event>
<event>
 5   0  0.1925906E-06  0.2364224E+04  0.7818609E-02  0.8453020E-01
       -1   -1    0    0    0  501  0.00000000000E+00  0.00000000000E+00  0.11884828546E+04  0.11884828546E+04  0.50400001928E-02 0.  1.
        1   -1    0    0  501    0  0.00000000000E+00  0.00000000000E+00 -0.11757750241E+04  0.11757750241E+04  0.50400001928E-02 0. -1.
    10030    2    1    2    0    0  0.00000000000E+00  0.00000000000E+00  0.12707830506E+02  0.23642578787E+04  0.23642237263E+04 0.  0.
        1    1    3    3  502    0  0.89750519889E+03 -0.49063292916E+03 -0.58623561295E+03  0.11789437845E+04  0.50400001928E-02 0. -1.
       -1    1    3    3    0  502 -0.89750519889E+03  0.49063292916E+03  0.59894344346E+03  0.11853140941E+04  0.50400001928E-02 0.  1.
</event>
<event>
 5   0  0.2730981E-06  0.2907762E+04  0.7818609E-02  0.8270572E-01
       -1   -1    0    0    0  501  0.00000000000E+00  0.00000000000E+00  0.17115591925E+04  0.17115591925E+04  0.50400001928E-02 0.  1.
        1   -1    0    0  501    0  0.00000000000E+00  0.00000000000E+00 -0.12349966709E+04  0.12349966709E+04  0.50400001928E-02 0. -1.
    10030    2    1    2    0    0  0.00000000000E+00  0.00000000000E+00  0.47656252167E+03  0.29465558634E+04  0.29077619605E+04 0.  0.
        3    1    3    3  502    0  0.31704862814E+03  0.21503952591E+02 -0.11993741629E+04  0.12407580930E+04  0.10100000352E+00 0. -1.
       -3    1    3    3    0  502 -0.31704862814E+03 -0.21503952591E+02  0.16759366846E+04  0.17057977704E+04  0.10100000352E+00 0.  1.
</event>
<event>
 5   0  0.5637538E-06  0.3326348E+04  0.7818609E-02  0.8156223E-01
       -2   -1    0    0    0  501  0.00000000000E+00  0.00000000000E+00  0.10051412570E+04  0.10051412570E+04  0.25500000920E-02 0.  1.
        2   -1    0    0  501    0  0.00000000000E+00  0.00000000000E+00 -0.27519996232E+04  0.27519996232E+04  0.25500000920E-02 0. -1.
    10030    2    1    2    0    0  0.00000000000E+00  0.00000000000E+00 -0.17468583662E+04  0.37571408802E+04  0.33263483646E+04 0.  0.
        2    1    3    3  502    0  0.34166511391E+03  0.16142049507E+04 -0.63716004021E+03  0.17687186294E+04  0.25500000920E-02 0. -1.
       -2    1    3    3    0  502 -0.34166511391E+03 -0.16142049507E+04 -0.11096983260E+04  0.19884222509E+04  0.25500000920E-02 0.  1.
</event>
<event>
 5   0  0.2037109E-06  0.3295254E+04  0.7818609E-02  0.8164104E-01
       -1   -1    0    0    0  501  0.00000000000E+00  0.00000000000E+00  0.13653522390E+04  0.13653522390E+04  0.50400001928E-02 0.  1.
        1   -1    0    0  501    0  0.00000000000E+00  0.00000000000E+00 -0.19882590568E+04  0.19882590568E+04  0.50400001928E-02 0. -1.
    10030    2    1    2    0    0  0.00000000000E+00  0.00000000000E+00 -0.62290681780E+03  0.33536112958E+04  0.32952535289E+04 0.  0.
        2    1    3    3  502    0 -0.63230555181E+03 -0.13065359350E+04 -0.11048933534E+04  0.18241808525E+04  0.25500000920E-02 0. -1.
       -2    1    3    3    0  502  0.63230555181E+03  0.13065359350E+04  0.48198653564E+03  0.15294304433E+04  0.25500000920E-02 0.  1.
</event>
<event>
 5   0  0.2097842E-06  0.2019793E+04  0.7818609E-02  0.8597422E-01
        1   -1    0    0  501    0  0.00000000000E+00  0.00000000000E+00  0.67611329447E+03  0.67611329449E+03  0.50400001928E-02 0. -1.
       -1   -1    0    0    0  501  0.00000000000E+00  0.00000000000E+00 -0.15084615924E+04  0.15084615924E+04  0.50400001928E-02 0.  1.
    10030    2    1    2    0    0  0.00000000000E+00  0.00000000000E+00 -0.83234829797E+03  0.21845748869E+04  0.20197929962E+04 0.  0.
        4    1    3    3  502    0  0.38909135147E+03 -0.44096097662E+03 -0.13041606106E+04  0.14306205555E+04  0.12699999809E+01 0.  1.
       -4    1    3    3    0  502 -0.38909135147E+03  0.44096097662E+03  0.47181231261E+03  0.75395433145E+03  0.12699999809E+01 0. -1.
</event>
<event>
 5   0  0.2097842E-06  0.3317108E+04  0.7818609E-02  0.8158556E-01
       -1   -1    0    0    0  501  0.00000000000E+00  0.00000000000E+00  0.25002226681E+04  0.25002226681E+04  0.50400001928E-02 0.  1.
        1   -1    0    0  501    0  0.00000000000E+00  0.00000000000E+00 -0.11002228842E+04  0.11002228842E+04  0.50400001928E-02 0. -1.
    10030    2    1    2    0    0  0.00000000000E+00  0.00000000000E+00  0.13999997839E+04  0.36004455524E+04  0.33171084970E+04 0.  0.
        4    1    3    3  502    0 -0.11925198454E+03 -0.97777924200E+03  0.21483411068E+04  0.23633967941E+04  0.12699999809E+01 0.  1.
       -4    1    3    3    0  502  0.11925198454E+03  0.97777924200E+03 -0.74834132295E+03  0.12370487583E+04  0.12699999809E+01 0. -1.
</event>
<event>
 5   0  0.5637538E-06  0.3284339E+04  0.7818609E-02  0.8166892E-01
       -2   -1    0    0    0  501  0.00000000000E+00  0.00000000000E+00  0.17053986815E+04  0.17053986815E+04  0.25500000920E-02 0. -1.
        2   -1    0    0  501    0  0.00000000000E+00  0.00000000000E+00 -0.15812842780E+04  0.15812842780E+04  0.25500000920E-02 0.  1.
    10030    2    1    2    0    0  0.00000000000E+00  0.00000000000E+00  0.12411440344E+03  0.32866829595E+04  0.32843386688E+04 0.  0.
        2    1    3    3  502    0 -0.65838116707E+03  0.14288113709E+04 -0.40918488596E+03  0.16255460516E+04  0.25500000920E-02 0.  1.
       -2    1    3    3    0  502  0.65838116707E+03 -0.14288113709E+04  0.53329928939E+03  0.16611369079E+04  0.25500000920E-02 0. -1.
</event>
<event>
 5   0  0.1925906E-06  0.3289824E+04  0.7818609E-02  0.8165489E-01
        1   -1    0    0  501    0  0.00000000000E+00  0.00000000000E+00  0.11940616736E+04  0.11940616736E+04  0.50400001928E-02 0. -1.
       -1   -1    0    0    0  501  0.00000000000E+00  0.00000000000E+00 -0.22659932116E+04  0.22659932116E+04  0.50400001928E-02 0.  1.
    10030    2    1    2    0    0  0.00000000000E+00  0.00000000000E+00 -0.10719315380E+04  0.34600548851E+04  0.32898240965E+04 0.  0.
        1    1    3    3  502    0  0.15177014713E+04 -0.29502252135E+03  0.54586371004E+02  0.15470732743E+04  0.50400001928E-02 0.  1.
       -1    1    3    3    0  502 -0.15177014713E+04  0.29502252135E+03 -0.11265179090E+04  0.19129816108E+04  0.50400001928E-02 0. -1.
</event>
<event>
 5   0  0.5637538E-06  0.3312908E+04  0.7818609E-02  0.8159619E-01
       -2   -1    0    0    0  501  0.00000000000E+00  0.00000000000E+00  0.12345093385E+04  0.12345093385E+04  0.25500000920E-02 0.  1.
        2   -1    0    0  501    0  0.00000000000E+00  0.00000000000E+00 -0.22226152213E+04  0.22226152213E+04  0.25500000920E-02 0. -1.
    10030    2    1    2    0    0  0.00000000000E+00  0.00000000000E+00 -0.98810588283E+03  0.34571245598E+04  0.33129076332E+04 0.  0.
        2    1    3    3  502    0  0.10010119472E+04 -0.47698849290E+03  0.79008338367E+03  0.13615339489E+04  0.25500000920E-02 0.  1.
       -2    1    3    3    0  502 -0.10010119472E+04  0.47698849290E+03 -0.17781892665E+04  0.20955906109E+04  0.25500000920E-02 0. -1.
</event>
<event>
 5   0  0.5637538E-06  0.3260279E+04  0.7818609E-02  0.8173076E-01
        2   -1    0    0  501    0  0.00000000000E+00  0.00000000000E+00  0.14910877936E+04  0.14910877936E+04  0.25500000920E-02 0.  1.
       -2   -1    0    0    0  501  0.00000000000E+00  0.00000000000E+00 -0.17821590024E+04  0.17821590024E+04  0.25500000920E-02 0. -1.
    10030    2    1    2    0    0  0.00000000000E+00  0.00000000000E+00 -0.29107120879E+03  0.32732467960E+04  0.32602794572E+04 0.  0.
        2    1    3    3  502    0 -0.36886218309E+02  0.15328581394E+04 -0.70121768472E+03  0.16860370429E+04  0.25500000920E-02 0. -1.
       -2    1    3    3    0  502  0.36886218309E+02 -0.15328581394E+04  0.41014647593E+03  0.15872097531E+04  0.25500000920E-02 0.  1.
</event>
<event>
 5   0  0.5637538E-06  0.3270032E+04  0.7818609E-02  0.8170563E-01
        2   -1    0    0  501    0  0.00000000000E+00  0.00000000000E+00  0.15998918731E+04  0.15998918731E+04  0.25500000920E-02 0.  1.
       -2   -1    0    0    0  501  0.00000000000E+00  0.00000000000E+00 -0.16709112344E+04  0.16709112344E+04  0.25500000920E-02 0. -1.
    10030    2    1    2    0    0  0.00000000000E+00  0.00000000000E+00 -0.71019361320E+02  0.32708031075E+04  0.32700319904E+04 0.  0.
        2    1    3    3  502    0 -0.31239342672E+03  0.16048945428E+04 -0.34433362997E+02  0.16353781835E+04  0.25500000920E-02 0. -1.
       -2    1    3    3    0  502  0.31239342672E+03 -0.16048945428E+04 -0.36585998322E+02  0.16354249240E+04  0.25500000920E-02 0.  1.
</event>
<event>
 5   0  0.5622811E-06  0.3512700E+04  0.7818609E-02  0.8110787E-01
       -2   -1    0    0    0  501  0.00000000000E+00  0.00000000000E+00  0.14518210412E+04  0.14518210412E+04  0.25500000920E-02 0.  1.
        2   -1    0    0  501    0  0.00000000000E+00  0.00000000000E+00 -0.21247554349E+04  0.21247554349E+04  0.25500000920E-02 0. -1.
    10030    2    1    2    0    0  0.00000000000E+00  0.00000000000E+00 -0.67293439370E+03  0.35765764760E+04  0.35126996158E+04 0.  0.
        1    1    3    3  502    0  0.61704553948E+03  0.15652038289E+04 -0.84977403291E+03  0.18848671388E+04  0.50400001928E-02 0. -1.
       -1    1    3    3    0  502 -0.61704553948E+03 -0.15652038289E+04  0.17683963920E+03  0.16917093373E+04  0.50400001928E-02 0.  1.
</event>
<event>
 5   0  0.2037109E-06  0.3211478E+04  0.7818609E-02  0.8185793E-01
       -1   -1    0    0    0  501  0.00000000000E+00  0.00000000000E+00  0.11024719801E+04  0.11024719801E+04  0.50400001928E-02 0.  1.
        1   -1    0    0  501    0  0.00000000000E+00  0.00000000000E+00 -0.23387416834E+04  0.23387416834E+04  0.50400001928E-02 0. -1.
    10030    2    1    2    0    0  0.00000000000E+00  0.00000000000E+00 -0.12362697034E+04  0.34412136635E+04  0.32114776503E+04 0.  0.
        2    1    3    3  502    0  0.33469746746E+03  0.10610623886E+04  0.62249894650E+03  0.12749042025E+04  0.25500000920E-02 0.  1.
       -2    1    3    3    0  502 -0.33469746746E+03 -0.10610623886E+04 -0.18587686499E+04  0.21663094610E+04  0.25500000920E-02 0. -1.
</event>
<event>
 5   0  0.5300268E-06  0.3312890E+04  0.7818609E-02  0.8159623E-01
        2   -1    0    0  501    0  0.00000000000E+00  0.00000000000E+00  0.17715675397E+04  0.17715675397E+04  0.25500000920E-02 0.  1.
       -2   -1    0    0    0  501  0.00000000000E+00  0.00000000000E+00 -0.15488034290E+04  0.15488034291E+04  0.25500000920E-02 0. -1.
    10030    2    1    2    0    0  0.00000000000E+00  0.00000000000E+00  0.22276411070E+03  0.33203709688E+04  0.33128899048E+04 0.  0.
        4    1    3    3  502    0  0.30025040303E+01  0.98180782229E+03 -0.12257417771E+04  0.15704776764E+04  0.12699999809E+01 0. -1.
       -4    1    3    3    0  502 -0.30025040303E+01 -0.98180782229E+03  0.14485058878E+04  0.17498932924E+04  0.12699999809E+01 0.  1.
</event>
<event>
 5   0  0.5755250E-06  0.3210037E+04  0.7818609E-02  0.8186171E-01
        2   -1    0    0  501    0  0.00000000000E+00  0.00000000000E+00  0.25742941040E+04  0.25742941040E+04  0.25500000920E-02 0. -1.
       -2   -1    0    0    0  501  0.00000000000E+00  0.00000000000E+00 -0.10006953479E+04  0.10006953479E+04  0.25500000920E-02 0.  1.
    10030    2    1    2    0    0  0.00000000000E+00  0.00000000000E+00  0.15735987561E+04  0.35749894519E+04  0.32100368434E+04 0.  0.
        5    1    3    3  502    0 -0.14845687397E+04  0.31339843541E+03  0.20394499394E+03  0.15309404211E+04  0.46999998093E+01 0.  1.
       -5    1    3    3    0  502  0.14845687397E+04 -0.31339843541E+03  0.13696537622E+04  0.20440490309E+04  0.46999998093E+01 0. -1.
</event>
<event>
 5   0  0.1999849E-06  0.3457364E+04  0.7818609E-02  0.8123969E-01
        1   -1    0    0  501    0  0.00000000000E+00  0.00000000000E+00  0.20902053705E+04  0.20902053705E+04  0.50400001928E-02 0. -1.
       -1   -1    0    0    0  501  0.00000000000E+00  0.00000000000E+00 -0.14296879626E+04  0.14296879626E+04  0.50400001928E-02 0.  1.
    10030    2    1    2    0    0  0.00000000000E+00  0.00000000000E+00  0.66051740783E+03  0.35198933331E+04  0.34573640003E+04 0.  0.
        5    1    3    3  502    0  0.18111024203E+03 -0.77844550056E+03  0.18908023360E+04  0.20527868572E+04  0.46999998093E+01 0. -1.
       -5    1    3    3    0  502 -0.18111024203E+03  0.77844550056E+03 -0.12302849282E+04  0.14671064759E+04  0.46999998093E+01 0.  1.
</event>
<event>
 5   0  0.5755250E-06  0.2848369E+04  0.7818609E-02  0.8288407E-01
        2   -1    0    0  501    0  0.00000000000E+00  0.00000000000E+00  0.18998997252E+04  0.18998997252E+04  0.25500000920E-02 0.  1.
       -2   -1    0    0    0  501  0.00000000000E+00  0.00000000000E+00 -0.10675831631E+04  0.10675831631E+04  0.25500000920E-02 0. -1.
    10030    2    1    2    0    0  0.00000000000E+00  0.00000000000E+00  0.83231656213E+03  0.29674828882E+04  0.28483686265E+04 0.  0.
        5    1    3    3  502    0 -0.53650550645E+03  0.82286727931E+03  0.14904595628E+04  0.17850603677E+04  0.46999998093E+01 0.  1.
       -5    1    3    3    0  502  0.53650550645E+03 -0.82286727931E+03 -0.65814300070E+03  0.11824225206E+04  0.46999998093E+01 0. -1.
</event>
<event>
 5   0  0.1999849E-06  0.3244954E+04  0.7818609E-02  0.8177045E-01
       -1   -1    0    0    0  501  0.00000000000E+00  0.00000000000E+00  0.12539364363E+04  0.12539364363E+04  0.50400001928E-02 0.  1.
        1   -1    0    0  501    0  0.00000000000E+00  0.00000000000E+00 -0.20993338313E+04  0.20993338313E+04  0.50400001928E-02 0. -1.
    10030    2    1    2    0    0  0.00000000000E+00  0.00000000000E+00 -0.84539739504E+03  0.33532702676E+04  0.32449537334E+04 0.  0.
        5    1    3    3  502    0  0.90518510102E+03 -0.77137076774E+03 -0.15631851761E+04  0.19641646859E+04  0.46999998093E+01 0. -1.
       -5    1    3    3    0  502 -0.90518510102E+03  0.77137076774E+03  0.71778778109E+03  0.13891055817E+04  0.46999998093E+01 0.  1.
</event>
<event>
 5   0  0.5755250E-06  0.3356237E+04  0.7818609E-02  0.8148732E-01
        2   -1    0    0  501    0  0.00000000000E+00  0.00000000000E+00  0.17859872129E+04  0.17859872129E+04  0.25500000920E-02 0. -1.
       -2   -1    0    0    0  501  0.00000000000E+00  0.00000000000E+00 -0.15767645916E+04  0.15767645916E+04  0.25500000920E-02 0.  1.
    10030    2    1    2    0    0  0.00000000000E+00  0.00000000000E+00  0.20922262129E+03  0.33627518046E+04  0.33562368203E+04 0.  0.
        5    1    3    3  502    0  0.12393683939E+04  0.10683718000E+04 -0.26841097826E+03  0.16581673203E+04  0.46999998093E+01 0.  1.
       -5    1    3    3    0  502 -0.12393683939E+04 -0.10683718000E+04  0.47763359955E+03  0.17045844843E+04  0.46999998093E+01 0. -1.
</event>
<event>
 5   0  0.5637538E-06  0.3207584E+04  0.7818609E-02  0.8186817E-01
        2   -1    0    0  501    0  0.00000000000E+00  0.00000000000E+00  0.16716135896E+04  0.16716135896E+04  0.25500000920E-02 0.  1.
       -2   -1    0    0    0  501  0.00000000000E+00  0.00000000000E+00 -0.15387219937E+04  0.15387219937E+04  0.25500000920E-02 0. -1.
    10030    2    1    2    0    0  0.00000000000E+00  0.00000000000E+00  0.13289159593E+03  0.32103355833E+04  0.32075838853E+04 0.  0.
        2    1    3    3  502    0 -0.35232812374E+03  0.12357816388E+04  0.10268820861E+04  0.16449249784E+04  0.25500000920E-02 0.  1.
       -2    1    3    3    0  502  0.35232812374E+03 -0.12357816388E+04 -0.89399049018E+03  0.15654106050E+04  0.25500000920E-02 0. -1.
</event>
<event>
 5   0  0.1925906E-06  0.2059909E+04  0.7818609E-02  0.8579112E-01
        1   -1    0    0  501    0  0.00000000000E+00  0.00000000000E+00  0.20807837840E+04  0.20807837840E+04  0.50400001928E-02 0.  1.
       -1   -1    0    0    0  501  0.00000000000E+00  0.00000000000E+00 -0.50981078335E+03  0.50981078337E+03  0.50400001928E-02 0. -1.
    10030    2    1    2    0    0  0.00000000000E+00  0.00000000000E+00  0.15709730006E+04  0.25905945673E+04  0.20599087464E+04 0.  0.
        1    1    3    3  502    0  0.47053971444E+03 -0.63962158565E+03 -0.39464908569E+02  0.79503514057E+03  0.50400001928E-02 0. -1.
       -1    1    3    3    0  502 -0.47053971444E+03  0.63962158565E+03  0.16104379092E+04  0.17955594268E+04  0.50400001928E-02 0.  1.
</event>
<event>
 5   0  0.1925906E-06  0.1982408E+04  0.7818609E-02  0.8614890E-01
        1   -1    0    0  501    0  0.00000000000E+00  0.00000000000E+00  0.22868020415E+04  0.22868020415E+04  0.50400001928E-02 0.  1.
       -1   -1    0    0    0  501  0.00000000000E+00  0.00000000000E+00 -0.42963282678E+03  0.42963282681E+03  0.50400001928E-02 0. -1.
    10030    2    1    2    0    0  0.00000000000E+00  0.00000000000E+00  0.18571692147E+04  0.27164348683E+04  0.19824078545E+04 0.  0.
        1    1    3    3  502    0  0.81142288104E+03  0.22145524632E+03  0.16472071347E+04  0.18495244963E+04  0.50400001928E-02 0.  1.
       -1    1    3    3    0  502 -0.81142288104E+03 -0.22145524632E+03  0.20996208007E+03  0.86691037201E+03  0.50400001928E-02 0. -1.
</event>
<event>
 5   0  0.5300268E-06  0.3009626E+04  0.7818609E-02  0.8240987E-01
       -2   -1    0    0    0  501  0.00000000000E+00  0.00000000000E+00  0.15339239143E+04  0.15339239143E+04  0.25500000920E-02 0.  1.
        2   -1    0    0  501    0  0.00000000000E+00  0.00000000000E+00 -0.14762546601E+04  0.14762546601E+04  0.25500000920E-02 0. -1.
    10030    2    1    2    0    0  0.00000000000E+00  0.00000000000E+00  0.57669254191E+02  0.30101785744E+04  0.30096261075E+04 0.  0.
        4    1    3    3  502    0 -0.35058526746E+03 -0.13327597166E+03 -0.14287551589E+04  0.14771646595E+04  0.12699999809E+01 0. -1.
       -4    1    3    3    0  502  0.35058526746E+03  0.13327597166E+03  0.14864244131E+04  0.15330139149E+04  0.12699999809E+01 0.  1.
</event>
<event>
 5   0  0.5300268E-06  0.3378524E+04  0.7818609E-02  0.8143197E-01
        2   -1    0    0  501    0  0.00000000000E+00  0.00000000000E+00  0.15859698141E+04  0.15859698141E+04  0.25500000920E-02 0. -1.
       -2   -1    0    0    0  501  0.00000000000E+00  0.00000000000E+00 -0.17992815784E+04  0.17992815784E+04  0.25500000920E-02 0.  1.
    10030    2    1    2    0    0  0.00000000000E+00  0.00000000000E+00 -0.21331176436E+03  0.33852513925E+04  0.33785240981E+04 0.  0.
        4    1    3    3  502    0  0.14266501933E+04  0.70508775906E+02  0.79697263938E+03  0.16356861748E+04  0.12699999809E+01 0. -1.
       -4    1    3    3    0  502 -0.14266501933E+04 -0.70508775906E+02 -0.10102844037E+04  0.17495652177E+04  0.12699999809E+01 0.  1.
</event>
<event>
 5   0  0.5622811E-06  0.3217126E+04  0.7818609E-02  0.8184309E-01
       -2   -1    0    0    0  501  0.00000000000E+00  0.00000000000E+00  0.88879471886E+03  0.88879471887E+03  0.25500000920E-02 0.  1.
        2   -1    0    0  501    0  0.00000000000E+00  0.00000000000E+00 -0.29112177238E+04  0.29112177238E+04  0.25500000920E-02 0. -1.
    10030    2    1    2    0    0  0.00000000000E+00  0.00000000000E+00 -0.20224230050E+04  0.38000124427E+04  0.32171260084E+04 0.  0.
        1    1    3    3  502    0 -0.94695771716E+03  0.10018560661E+04 -0.19902616514E+04  0.24210712373E+04  0.50400001928E-02 0. -1.
       -1    1    3    3    0  502  0.94695771716E+03 -0.10018560661E+04 -0.32161353598E+02  0.13789412054E+04  0.50400001928E-02 0.  1.
</event>
<event>
 5   0  0.5755250E-06  0.2860521E+04  0.7818609E-02  0.8284721E-01
       -2   -1    0    0    0  501  0.00000000000E+00  0.00000000000E+00  0.94295400438E+03  0.94295400439E+03  0.25500000920E-02 0. -1.
        2   -1    0    0  501    0  0.00000000000E+00  0.00000000000E+00 -0.21694006327E+04  0.21694006327E+04  0.25500000920E-02 0.  1.
    10030    2    1    2    0    0  0.00000000000E+00  0.00000000000E+00 -0.12264466283E+04  0.31123546371E+04  0.28605209412E+04 0.  0.
        5    1    3    3  502    0  0.10555045653E+04  0.75444092498E+03  0.41728324460E+02  0.12980887256E+04  0.46999998093E+01 0. -1.
       -5    1    3    3    0  502 -0.10555045653E+04 -0.75444092498E+03 -0.12681749528E+04  0.18142659115E+04  0.46999998093E+01 0.  1.
</event>
<event>
 5   0  0.2730981E-06  0.2552457E+04  0.7818609E-02  0.8384532E-01
       -1   -1    0    0    0  501  0.00000000000E+00  0.00000000000E+00  0.14773962255E+04  0.14773962255E+04  0.50400001928E-02 0.  1.
        1   -1    0    0  501    0  0.00000000000E+00  0.00000000000E+00 -0.11024527108E+04  0.11024527108E+04  0.50400001928E-02 0. -1.
    10030    2    1    2    0    0  0.00000000000E+00  0.00000000000E+00  0.37494351466E+03  0.25798489363E+04  0.25524572269E+04 0.  0.
        3    1    3    3  502    0 -0.80949796439E+03  0.94292691031E+03 -0.10609546697E+03  0.12472587425E+04  0.10100000352E+00 0.  1.
       -3    1    3    3    0  502  0.80949796439E+03 -0.94292691031E+03  0.48103898163E+03  0.13325901938E+04  0.10100000352E+00 0. -1.
</event>
<event>
 5   0  0.1925906E-06  0.2969533E+04  0.7818609E-02  0.8252485E-01
        1   -1    0    0  501    0  0.00000000000E+00  0.00000000000E+00  0.18499730316E+04  0.18499730316E+04  0.50400001928E-02 0. -1.
       -1   -1    0    0    0  501  0.00000000000E+00  0.00000000000E+00 -0.11916563678E+04  0.11916563678E+04  0.50400001928E-02 0.  1.
    10030    2    1    2    0    0  0.00000000000E+00  0.00000000000E+00  0.65831666379E+03  0.30416293994E+04  0.29695333932E+04 0.  0.
        1    1    3    3  502    0  0.19910145217E+03 -0.32362598019E+03 -0.11410139854E+04  0.12026171786E+04  0.50400001928E-02 0.  1.
       -1    1    3    3    0  502 -0.19910145217E+03  0.32362598019E+03  0.17993306492E+04  0.18390122208E+04  0.50400001928E-02 0. -1.
</event>
<event>
 5   0  0.5637538E-06  0.1649882E+04  0.7818609E-02  0.8790476E-01
        2   -1    0    0  501    0  0.00000000000E+00  0.00000000000E+00  0.15550062259E+04  0.15550062259E+04  0.25500000920E-02 0. -1.
       -2   -1    0    0    0  501  0.00000000000E+00  0.00000000000E+00 -0.43763670369E+03  0.43763670370E+03  0.25500000920E-02 0.  1.
    10030    2    1    2    0    0  0.00000000000E+00  0.00000000000E+00  0.11173695222E+04  0.19926429296E+04  0.16498821763E+04 0.  0.
        2    1    3    3  502    0  0.35894052121E+03 -0.73945741074E+03  0.47420933758E+03  0.94895208305E+03  0.25500000920E-02 0.  1.
       -2    1    3    3    0  502 -0.35894052121E+03  0.73945741074E+03  0.64316018460E+03  0.10436908465E+04  0.25500000920E-02 0. -1.
</event>
<event>
 5   0  0.1999849E-06  0.3324722E+04  0.7818609E-02  0.8156633E-01
       -1   -1    0    0    0  501  0.00000000000E+00  0.00000000000E+00  0.13913230806E+04  0.13913230806E+04  0.50400001928E-02 0.  1.
        1   -1    0    0  501    0  0.00000000000E+00  0.00000000000E+00 -0.19861982096E+04  0.19861982096E+04  0.50400001928E-02 0. -1.
    10030    2    1    2    0    0  0.00000000000E+00  0.00000000000E+00 -0.59487512901E+03  0.33775212902E+04  0.33247215894E+04 0.  0.
        5    1    3    3  502    0 -0.94537791485E+03 -0.30672342008E+03  0.10562414791E+04  0.14503402396E+04  0.46999998093E+01 0.  1.
       -5    1    3    3    0  502  0.94537791485E+03  0.30672342008E+03 -0.16511166081E+04  0.19271810506E+04  0.46999998093E+01 0. -1.
</event>
<event>
 5   0  0.1925906E-06  0.3356403E+04  0.7818609E-02  0.8148690E-01
       -1   -1    0    0    0  501  0.00000000000E+00  0.00000000000E+00  0.10203436171E+04  0.10203436171E+04  0.50400001928E-02 0. -1.
        1   -1    0    0  501    0  0.00000000000E+00  0.00000000000E+00 -0.27602074473E+04  0.27602074473E+04  0.50400001928E-02 0.  1.
    10030    2    1    2    0    0  0.00000000000E+00  0.00000000000E+00 -0.17398638302E+04  0.37805510643E+04  0.33564028665E+04 0.  0.
        1    1    3    3  502    0 -0.29733821392E+03  0.67875535352E+03 -0.25659476937E+04  0.26708063221E+04  0.50400001928E-02 0.  1.
       -1    1    3    3    0  502  0.29733821392E+03 -0.67875535352E+03  0.82608386349E+03  0.11097447422E+04  0.50400001928E-02 0. -1.
</event>
<event>
 5   0  0.2037109E-06  0.2471577E+04  0.7818609E-02  0.8413182E-01
       -1   -1    0    0    0  501  0.00000000000E+00  0.00000000000E+00  0.10763897396E+04  0.10763897396E+04  0.50400001928E-02 0.  1.
        1   -1    0    0  501    0  0.00000000000E+00  0.00000000000E+00 -0.14187925867E+04  0.14187925867E+04  0.50400001928E-02 0. -1.
    10030    2    1    2    0    0  0.00000000000E+00  0.00000000000E+00 -0.34240284708E+03  0.24951823263E+04  0.24715774582E+04 0.  0.
        2    1    3    3  502    0 -0.36239937799E+03  0.50410055568E+03 -0.12499207376E+04  0.13956190489E+04  0.25500000920E-02 0. -1.
       -2    1    3    3    0  502  0.36239937799E+03 -0.50410055568E+03  0.90751789050E+03  0.10995632774E+04  0.25500000920E-02 0.  1.
</event>
<event>
 5   0  0.5637538E-06  0.1940571E+04  0.7818609E-02  0.8634921E-01
       -2   -1    0    0    0  501  0.00000000000E+00  0.00000000000E+00  0.83987632037E+03  0.83987632037E+03  0.25500000920E-02 0. -1.
        2   -1    0    0  501    0  0.00000000000E+00  0.00000000000E+00 -0.11209430251E+04  0.11209430251E+04  0.25500000920E-02 0.  1.
    10030    2    1    2    0    0  0.00000000000E+00  0.00000000000E+00 -0.28106670470E+03  0.19608193454E+04  0.19405705380E+04 0.  0.
        2    1    3    3  502    0  0.69958027890E+03  0.33571434178E+03 -0.72913793707E+03  0.10647811123E+04  0.25500000920E-02 0.  1.
       -2    1    3    3    0  502 -0.69958027890E+03 -0.33571434178E+03  0.44807123237E+03  0.89603823311E+03  0.25500000920E-02 0. -1.
</event>
<event>
 5   0  0.5855568E-06  0.1624742E+04  0.7818609E-02  0.8805491E-01
        2   -1    0    0  501    0  0.00000000000E+00  0.00000000000E+00  0.13840272768E+04  0.13840272768E+04  0.25500000920E-02 0. -1.
       -2   -1    0    0    0  501  0.00000000000E+00  0.00000000000E+00 -0.47683060307E+03  0.47683060308E+03  0.25500000920E-02 0.  1.
    10030    2    1    2    0    0  0.00000000000E+00  0.00000000000E+00  0.90719667372E+03  0.18608578799E+04  0.16247419008E+04 0.  0.
        3    1    3    3  502    0  0.59287603408E+02  0.21683843739E+03 -0.44049847843E+03  0.49454306946E+03  0.10100000352E+00 0.  1.
       -3    1    3    3    0  502 -0.59287603408E+02 -0.21683843739E+03  0.13476951521E+04  0.13663148104E+04  0.10100000352E+00 0. -1.
</event>
<event>
 5   0  0.1999849E-06  0.2070105E+04  0.7818609E-02  0.8574528E-01
        1   -1    0    0  501    0  0.00000000000E+00  0.00000000000E+00  0.56615319557E+03  0.56615319559E+03  0.50400001928E-02 0. -1.
       -1   -1    0    0    0  501  0.00000000000E+00  0.00000000000E+00 -0.18923027367E+04  0.18923027367E+04  0.50400001928E-02 0.  1.
    10030    2    1    2    0    0  0.00000000000E+00  0.00000000000E+00 -0.13261495412E+04  0.24584559323E+04  0.20701045784E+04 0.  0.
        5    1    3    3  502    0  0.66501173316E+03 -0.70088485754E+03 -0.22217128031E+03  0.99139414794E+03  0.46999998093E+01 0.  1.
       -5    1    3    3    0  502 -0.66501173316E+03  0.70088485754E+03 -0.11039782608E+04  0.14670617844E+04  0.46999998093E+01 0. -1.
</event>
<event>
 5   0  0.1925906E-06  0.3430311E+04  0.7818609E-02  0.8130507E-01
        1   -1    0    0  501    0  0.00000000000E+00  0.00000000000E+00  0.17201794975E+04  0.17201794975E+04  0.50400001928E-02 0.  1.
       -1   -1    0    0    0  501  0.00000000000E+00  0.00000000000E+00 -0.17101459539E+04  0.17101459539E+04  0.50400001928E-02 0. -1.
    10030    2    1    2    0    0  0.00000000000E+00  0.00000000000E+00  0.10033543604E+02  0.34303254514E+04  0.34303107775E+04 0.  0.
        1    1    3    3  502    0 -0.81082555000E+03 -0.10278217776E+04 -0.11030955121E+04  0.17119215484E+04  0.50400001928E-02 0. -1.
       -1    1    3    3    0  502  0.81082555000E+03  0.10278217776E+04  0.11131290557E+04  0.17184039030E+04  0.50400001928E-02 0.  1.
</event>
<event>
 5   0  0.1999849E-06  0.3108435E+04  0.7818609E-02  0.8213427E-01
        1   -1    0    0  501    0  0.00000000000E+00  0.00000000000E+00  0.25496407531E+04  0.25496407531E+04  0.50400001928E-02 0. -1.
       -1   -1    0    0    0  501  0.00000000000E+00  0.00000000000E+00 -0.94742427912E+03  0.94742427913E+03  0.50400001928E-02 0.  1.
    10030    2    1    2    0    0  0.00000000000E+00  0.00000000000E+00  0.16022164739E+04  0.34970650322E+04  0.31084346881E+04 0.  0.
        5    1    3    3  502    0  0.10543520541E+04 -0.82950633314E+02  0.20823675633E+04  0.23355547136E+04  0.46999998093E+01 0. -1.
       -5    1    3    3    0  502 -0.10543520541E+04  0.82950633314E+02 -0.48015108933E+03  0.11615103186E+04  0.46999998093E+01 0.  1.
</event>
<event>
 5   0  0.5755250E-06  0.3169048E+04  0.7818609E-02  0.8197040E-01
       -2   -1    0    0    0  501  0.00000000000E+00  0.00000000000E+00  0.13844931999E+04  0.13844931999E+04  0.25500000920E-02 0. -1.
        2   -1    0    0  501    0  0.00000000000E+00  0.00000000000E+00 -0.18134546142E+04  0.18134546142E+04  0.25500000920E-02 0.  1.
    10030    2    1    2    0    0  0.00000000000E+00  0.00000000000E+00 -0.42896141429E+03  0.31979478142E+04  0.31690475426E+04 0.  0.
        5    1    3    3  502    0 -0.14591844286E+04  0.43650475933E+03  0.22646861319E+03  0.15398265241E+04  0.46999998093E+01 0. -1.
       -5    1    3    3    0  502  0.14591844286E+04 -0.43650475933E+03 -0.65543002748E+03  0.16581212901E+04  0.46999998093E+01 0.  1.
</event>
<event>
 5   0  0.1878000E-06  0.2584854E+04  0.7818609E-02  0.8373364E-01
       -3   -1    0    0    0  501  0.00000000000E+00  0.00000000000E+00  0.14212120534E+04  0.14212120569E+04  0.10100000352E+00 0.  1.
        3   -1    0    0  501    0  0.00000000000E+00  0.00000000000E+00 -0.11753119433E+04  0.11753119477E+04  0.10100000352E+00 0. -1.
    10030    2    1    2    0    0  0.00000000000E+00  0.00000000000E+00  0.24590011004E+03  0.25965240046E+04  0.25848539693E+04 0.  0.
        5    1    3    3  502    0 -0.31137780153E+02  0.12117371148E+04  0.57338172040E+03  0.13409194920E+04  0.46999998093E+01 0.  1.
       -5    1    3    3    0  502  0.31137780153E+02 -0.12117371148E+04 -0.32748161036E+03  0.12556045126E+04  0.46999998093E+01 0. -1.
</event>
<event>
 5   0  0.5637538E-06  0.3399703E+04  0.7818609E-02  0.8137979E-01
       -2   -1    0    0    0  501  0.00000000000E+00  0.00000000000E+00  0.17236417190E+04  0.17236417190E+04  0.25500000920E-02 0.  1.
        2   -1    0    0  501    0  0.00000000000E+00  0.00000000000E+00 -0.16763897557E+04  0.16763897557E+04  0.25500000920E-02 0. -1.
    10030    2    1    2    0    0  0.00000000000E+00  0.00000000000E+00  0.47251963281E+02  0.34000314747E+04  0.33997031166E+04 0.  0.
        2    1    3    3  502    0 -0.85514586094E+03  0.12206683439E+04 -0.79388166380E+03  0.16886544186E+04  0.25500000920E-02 0. -1.
       -2    1    3    3    0  502  0.85514586094E+03 -0.12206683439E+04  0.84113362708E+03  0.17113770561E+04  0.25500000920E-02 0.  1.
</event>
<event>
 5   0  0.5637538E-06  0.3322845E+04  0.7818609E-02  0.8157107E-01
       -2   -1    0    0    0  501  0.00000000000E+00  0.00000000000E+00  0.11391591194E+04  0.11391591194E+04  0.25500000920E-02 0.  1.
        2   -1    0    0  501    0  0.00000000000E+00  0.00000000000E+00 -0.24231246519E+04  0.24231246519E+04  0.25500000920E-02 0. -1.
    10030    2    1    2    0    0  0.00000000000E+00  0.00000000000E+00 -0.12839655325E+04  0.35622837713E+04  0.33228448924E+04 0.  0.
        2    1    3    3  502    0  0.24396166108E+03 -0.10325129133E+04  0.72871185066E+03  0.12870979642E+04  0.25500000920E-02 0.  1.
       -2    1    3    3    0  502 -0.24396166108E+03  0.10325129133E+04 -0.20126773832E+04  0.22751858071E+04  0.25500000920E-02 0. -1.
</event>
<event>
 5   0  0.5755250E-06  0.3401238E+04  0.7818609E-02  0.8137602E-01
        2   -1    0    0  501    0  0.00000000000E+00  0.00000000000E+00  0.13707485996E+04  0.13707485996E+04  0.25500000920E-02 0.  1.
       -2   -1    0    0    0  501  0.00000000000E+00  0.00000000000E+00 -0.21098731533E+04  0.21098731533E+04  0.25500000920E-02 0. -1.
    10030    2    1    2    0    0  0.00000000000E+00  0.00000000000E+00 -0.73912455373E+03  0.34806217529E+04  0.34012384040E+04 0.  0.
        5    1    3    3  502    0 -0.36381334937E+03  0.22106603886E+03 -0.20544569553E+04  0.20981052924E+04  0.46999998093E+01 0. -1.
       -5    1    3    3    0  502  0.36381334937E+03 -0.22106603886E+03  0.13153324016E+04  0.13825164605E+04  0.46999998093E+01 0.  1.
</event>
<event>
 5   0  0.5622811E-06  0.3433504E+04  0.7818609E-02  0.8129732E-01
        2   -1    0    0  501    0  0.00000000000E+00  0.00000000000E+00  0.98067675438E+03  0.98067675438E+03  0.25500000920E-02 0. -1.
       -2   -1    0    0    0  501  0.00000000000E+00  0.00000000000E+00 -0.30053092725E+04  0.30053092725E+04  0.25500000920E-02 0.  1.
    10030    2    1    2    0    0  0.00000000000E+00  0.00000000000E+00 -0.20246325181E+04  0.39859860269E+04  0.34335037168E+04 0.  0.
        1    1    3    3  502    0 -0.53215093266E+03  0.94067029611E+03  0.53617808965E+03  0.12064543775E+04  0.50400001928E-02 0. -1.
       -1    1    3    3    0  502  0.53215093266E+03 -0.94067029611E+03 -0.25608106077E+04  0.27795316494E+04  0.50400001928E-02 0.  1.
</event>
<event>
 5   0  0.5637538E-06  0.3318678E+04  0.7818609E-02  0.8158159E-01
        2   -1    0    0  501    0  0.00000000000E+00  0.00000000000E+00  0.11578423797E+04  0.11578423797E+04  0.25500000920E-02 0.  1.
       -2   -1    0    0    0  501  0.00000000000E+00  0.00000000000E+00 -0.23780486832E+04  0.23780486832E+04  0.25500000920E-02 0. -1.
    10030    2    1    2    0    0  0.00000000000E+00  0.00000000000E+00 -0.12202063035E+04  0.35358910629E+04  0.33186777767E+04 0.  0.
        2    1    3    3  502    0 -0.36516891884E+03  0.13383116033E+04 -0.15801788426E+04  0.21027105035E+04  0.25500000920E-02 0. -1.
       -2    1    3    3    0  502  0.36516891884E+03 -0.13383116033E+04  0.35997253904E+03  0.14331805594E+04  0.25500000920E-02 0.  1.
</event>
<event>
 5   0  0.5622811E-06  0.3231176E+04  0.7818609E-02  0.8180632E-01
        2   -1    0    0  501    0  0.00000000000E+00  0.00000000000E+00  0.27460914076E+04  0.27460914076E+04  0.25500000920E-02 0.  1.
       -2   -1    0    0    0  501  0.00000000000E+00  0.00000000000E+00 -0.95048739745E+03  0.95048739745E+03  0.25500000920E-02 0. -1.
    10030    2    1    2    0    0  0.00000000000E+00  0.00000000000E+00  0.17956040102E+04  0.36965788051E+04  0.32311764267E+04 0.  0.
        1    1    3    3  502    0 -0.15170080261E+04 -0.55456588545E+03  0.85705439923E+03  0.18284963538E+04  0.50400001928E-02 0.  1.
       -1    1    3    3    0  502  0.15170080261E+04  0.55456588545E+03  0.93854961092E+03  0.18680824513E+04  0.50400001928E-02 0. -1.
</event>
<event>
 5   0  0.2097842E-06  0.3248680E+04  0.7818609E-02  0.8176078E-01
       -1   -1    0    0    0  501  0.00000000000E+00  0.00000000000E+00  0.16060438966E+04  0.16060438966E+04  0.50400001928E-02 0.  1.
        1   -1    0    0  501    0  0.00000000000E+00  0.00000000000E+00 -0.16428449903E+04  0.16428449903E+04  0.50400001928E-02 0. -1.
    10030    2    1    2    0    0  0.00000000000E+00  0.00000000000E+00 -0.36801093695E+02  0.32488888869E+04  0.32486804519E+04 0.  0.
        4    1    3    3  502    0  0.13552276239E+04 -0.30154085282E+03  0.82480878959E+03  0.16148931701E+04  0.12699999809E+01 0.  1.
       -4    1    3    3    0  502 -0.13552276239E+04  0.30154085282E+03 -0.86160988329E+03  0.16339957168E+04  0.12699999809E+01 0. -1.
</event>
<event>
 5   0  0.2097842E-06  0.3386475E+04  0.7818609E-02  0.8141234E-01
       -1   -1    0    0    0  501  0.00000000000E+00  0.00000000000E+00  0.14583071005E+04  0.14583071005E+04  0.50400001928E-02 0.  1.
        1   -1    0    0  501    0  0.00000000000E+00  0.00000000000E+00 -0.19660145296E+04  0.19660145297E+04  0.50400001928E-02 0. -1.
    10030    2    1    2    0    0  0.00000000000E+00  0.00000000000E+00 -0.50770742915E+03  0.34243216302E+04  0.33864748328E+04 0.  0.
        4    1    3    3  502    0 -0.49719435409E+03 -0.89662205921E+03 -0.16164738825E+04  0.19141898466E+04  0.12699999809E+01 0. -1.
       -4    1    3    3    0  502  0.49719435409E+03  0.89662205921E+03  0.11087664534E+04  0.15101317836E+04  0.12699999809E+01 0.  1.
</event>
<event>
 5   0  0.2097842E-06  0.1857474E+04  0.7818609E-02  0.8676319E-01
       -1   -1    0    0    0  501  0.00000000000E+00  0.00000000000E+00  0.12651374249E+04  0.12651374249E+04  0.50400001928E-02 0.  1.
        1   -1    0    0  501    0  0.00000000000E+00  0.00000000000E+00 -0.68178532870E+03  0.68178532871E+03  0.50400001928E-02 0. -1.
    10030    2    1    2    0    0  0.00000000000E+00  0.00000000000E+00  0.58335209621E+03  0.19469227536E+04  0.18574736985E+04 0.  0.
        4    1    3    3  502    0 -0.82139445966E+03  0.42546116430E+03  0.20496075609E+03  0.94747906844E+03  0.12699999809E+01 0.  1.
       -4    1    3    3    0  502  0.82139445966E+03 -0.42546116430E+03  0.37839134012E+03  0.99944368519E+03  0.12699999809E+01 0. -1.
</event>
<event>
 5   0  0.5300268E-06  0.3336023E+04  0.7818609E-02  0.8153789E-01
       -2   -1    0    0    0  501  0.00000000000E+00  0.00000000000E+00  0.12830661475E+04  0.12830661475E+04  0.25500000920E-02 0.  1.
        2   -1    0    0  501    0  0.00000000000E+00  0.00000000000E+00 -0.21684479763E+04  0.21684479763E+04  0.25500000920E-02 0. -1.
    10030    2    1    2    0    0  0.00000000000E+00  0.00000000000E+00 -0.88538182889E+03  0.34515141238E+04  0.33360228962E+04 0.  0.
        4    1    3    3  502    0  0.11977026738E+04 -0.88035142827E+02  0.75497602441E+03  0.14185317380E+04  0.12699999809E+01 0.  1.
       -4    1    3    3    0  502 -0.11977026738E+04  0.88035142827E+02 -0.16403578533E+04  0.20329823858E+04  0.12699999809E+01 0. -1.
</event>
<event>
 5   0  0.1999849E-06  0.3282910E+04  0.7818609E-02  0.8167257E-01
        1   -1    0    0  501    0  0.00000000000E+00  0.00000000000E+00  0.21082184045E+04  0.21082184045E+04  0.50400001928E-02 0.  1.
       -1   -1    0    0    0  501  0.00000000000E+00  0.00000000000E+00 -0.12780342548E+04  0.12780342548E+04  0.50400001928E-02 0. -1.
    10030    2    1    2    0    0  0.00000000000E+00  0.00000000000E+00  0.83018414974E+03  0.33862526593E+04  0.32829104998E+04 0.  0.
        5    1    3    3  502    0  0.14446879613E+04 -0.27333724543E+03 -0.33761661340E+03  0.15085899452E+04  0.46999998093E+01 0. -1.
       -5    1    3    3    0  502 -0.14446879613E+04  0.27333724543E+03  0.11678007631E+04  0.18776627140E+04  0.46999998093E+01 0.  1.
</event>
<event>
 5   0  0.2037109E-06  0.3294580E+04  0.7818609E-02  0.8164276E-01
        1   -1    0    0  501    0  0.00000000000E+00  0.00000000000E+00  0.18991231158E+04  0.18991231158E+04  0.50400001928E-02 0.  1.
       -1   -1    0    0    0  501  0.00000000000E+00  0.00000000000E+00 -0.14288508337E+04  0.14288508337E+04  0.50400001928E-02 0. -1.
    10030    2    1    2    0    0  0.00000000000E+00  0.00000000000E+00  0.47027228213E+03  0.33279739495E+04  0.32945795770E+04 0.  0.
        2    1    3    3  502    0  0.30733191704E+03 -0.16182991699E+04  0.22020330938E+03  0.16618768330E+04  0.25500000920E-02 0. -1.
       -2    1    3    3    0  502 -0.30733191704E+03  0.16182991699E+04  0.25006897275E+03  0.16660971165E+04  0.25500000920E-02 0.  1.
</event>
<event>
 5   0  0.2097842E-06  0.3155628E+04  0.7818609E-02  0.8200635E-01
       -1   -1    0    0    0  501  0.00000000000E+00  0.00000000000E+00  0.14785998960E+04  0.14785998960E+04  0.50400001928E-02 0.  1.
        1   -1    0    0  501    0  0.00000000000E+00  0.00000000000E+00 -0.16836853652E+04  0.16836853652E+04  0.50400001928E-02 0. -1.
    10030    2    1    2    0    0  0.00000000000E+00  0.00000000000E+00 -0.20508546925E+03  0.31622852612E+04  0.31556279920E+04 0.  0.
        4    1    3    3  502    0 -0.15133127278E+04 -0.44056491884E+03 -0.17537710337E+03  0.15858661990E+04  0.12699999809E+01 0.  1.
       -4    1    3    3    0  502  0.15133127278E+04  0.44056491884E+03 -0.29708365882E+02  0.15764190622E+04  0.12699999809E+01 0. -1.
</event>
<event>
 5   0  0.2097842E-06  0.3245403E+04  0.7818609E-02  0.8176928E-01
        1   -1    0    0  501    0  0.00000000000E+00  0.00000000000E+00  0.20247227906E+04  0.20247227906E+04  0.50400001928E-02 0.  1.
       -1   -1    0    0    0  501  0.00000000000E+00  0.00000000000E+00 -0.13005043446E+04  0.13005043446E+04  0.50400001928E-02 0. -1.
    10030    2    1    2    0    0  0.00000000000E+00  0.00000000000E+00  0.72421844606E+03  0.33252271352E+04  0.32454033868E+04 0.  0.
        4    1    3    3  502    0  0.10428588283E+03  0.48963172053E+03  0.19436235578E+04  0.20070597685E+04  0.12699999809E+01 0.  1.
       -4    1    3    3    0  502 -0.10428588283E+03 -0.48963172053E+03 -0.12194051117E+04  0.13181673667E+04  0.12699999809E+01 0. -1.
</event>
<event>
 5   0  0.5855568E-06  0.3126086E+04  0.7818609E-02  0.8208615E-01
        2   -1    0    0  501    0  0.00000000000E+00  0.00000000000E+00  0.34289906407E+04  0.34289906407E+04  0.25500000920E-02 0. -1.
       -2   -1    0    0    0  501  0.00000000000E+00  0.00000000000E+00 -0.71248483585E+03  0.71248483586E+03  0.25500000920E-02 0.  1.
    10030    2    1    2    0    0  0.00000000000E+00  0.00000000000E+00  0.27165058049E+04  0.41414754766E+04  0.31260862648E+04 0.  0.
        3    1    3    3  502    0 -0.52524214600E+03 -0.10862702599E+04  0.41919739202E+02  0.12073192056E+04  0.10100000352E+00 0.  1.
       -3    1    3    3    0  502  0.52524214600E+03  0.10862702599E+04  0.26745860657E+04  0.29341562710E+04  0.10100000352E+00 0. -1.
</event>
<event>
 5   0  0.2037109E-06  0.3358104E+04  0.7818609E-02  0.8148266E-01
       -1   -1    0    0    0  501  0.00000000000E+00  0.00000000000E+00  0.27863446809E+04  0.27863446809E+04  0.50400001928E-02 0.  1.
        1   -1    0    0  501    0  0.00000000000E+00  0.00000000000E+00 -0.10117970103E+04  0.10117970103E+04  0.50400001928E-02 0. -1.
    10030    2    1    2    0    0  0.00000000000E+00  0.00000000000E+00  0.17745476706E+04  0.37981416912E+04  0.33581037613E+04 0.  0.
        2    1    3    3  502    0  0.12149852866E+04 -0.76735156855E+03  0.18695183388E+04  0.23579899269E+04  0.25500000920E-02 0.  1.
       -2    1    3    3    0  502 -0.12149852866E+04  0.76735156855E+03 -0.94970668149E+02  0.14401517643E+04  0.25500000920E-02 0. -1.
</event>
<event>
 5   0  0.5855568E-06  0.3262544E+04  0.7818609E-02  0.8172492E-01
       -2   -1    0    0    0  501  0.00000000000E+00  0.00000000000E+00  0.11609651028E+04  0.11609651029E+04  0.25500000920E-02 0. -1.
        2   -1    0    0  501    0  0.00000000000E+00  0.00000000000E+00 -0.22920997445E+04  0.22920997445E+04  0.25500000920E-02 0.  1.
    10030    2    1    2    0    0  0.00000000000E+00  0.00000000000E+00 -0.11311346416E+04  0.34530648473E+04  0.32625436798E+04 0.  0.
        3    1    3    3  502    0  0.10494157379E+04  0.33769945194E+03  0.70703444318E+03  0.13096610344E+04  0.10100000352E+00 0. -1.
       -3    1    3    3    0  502 -0.10494157379E+04 -0.33769945194E+03 -0.18381690848E+04  0.21434038130E+04  0.10100000352E+00 0.  1.
</event>
<event>
 5   0  0.1999849E-06  0.3341493E+04  0.7818609E-02  0.8152417E-01
       -1   -1    0    0    0  501  0.00000000000E+00  0.00000000000E+00  0.17812773521E+04  0.17812773521E+04  0.50400001928E-02 0. -1.
        1   -1    0    0  501    0  0.00000000000E+00  0.00000000000E+00 -0.15670739139E+04  0.15670739139E+04  0.50400001928E-02 0.  1.
    10030    2    1    2    0    0  0.00000000000E+00  0.00000000000E+00  0.21420343828E+03  0.33483512660E+04  0.33414926437E+04 0.  0.
        5    1    3    3  502    0 -0.19477272977E+03 -0.15148843944E+04  0.78566226580E+03  0.17175850577E+04  0.46999998093E+01 0. -1.
       -5    1    3    3    0  502  0.19477272977E+03  0.15148843944E+04 -0.57145882752E+03  0.16307662083E+04  0.46999998093E+01 0.  1.
</event>
<event>
 5   0  0.5855568E-06  0.2191538E+04  0.7818609E-02  0.8521959E-01
        2   -1    0    0  501    0  0.00000000000E+00  0.00000000000E+00  0.11245778146E+04  0.11245778146E+04  0.25500000920E-02 0. -1.
       -2   -1    0    0    0  501  0.00000000000E+00  0.00000000000E+00 -0.10676980258E+04  0.10676980258E+04  0.25500000920E-02 0.  1.
    10030    2    1    2    0    0  0.00000000000E+00  0.00000000000E+00  0.56879788820E+02  0.21922758404E+04  0.21915378277E+04 0.  0.
        3    1    3    3  502    0 -0.65422270239E+03 -0.77383623062E+02 -0.84747700254E+03  0.10734117800E+04  0.10100000352E+00 0.  1.
       -3    1    3    3    0  502  0.65422270239E+03  0.77383623062E+02  0.90435679136E+03  0.11188640604E+04  0.10100000352E+00 0. -1.
</event>
<event>
 5   0  0.2730981E-06  0.3299670E+04  0.7818609E-02  0.8162979E-01
        1   -1    0    0  501    0  0.00000000000E+00  0.00000000000E+00  0.17914153545E+04  0.17914153545E+04  0.50400001928E-02 0. -1.
       -1   -1    0    0    0  501  0.00000000000E+00  0.00000000000E+00 -0.15194442080E+04  0.15194442081E+04  0.50400001928E-02 0.  1.
    10030    2    1    2    0    0  0.00000000000E+00  0.00000000000E+00  0.27197114644E+03  0.33108595626E+04  0.32996700954E+04 0.  0.
        3    1    3    3  502    0  0.69349898497E+03  0.10248630510E+03 -0.13625686480E+04  0.15323307788E+04  0.10100000352E+00 0.  1.
       -3    1    3    3    0  502 -0.69349898497E+03 -0.10248630510E+03  0.16345397944E+04  0.17785287838E+04  0.10100000352E+00 0. -1.
</event>
<event>
 5   0  0.1999849E-06  0.3353230E+04  0.7818609E-02  0.8149481E-01
       -1   -1    0    0    0  501  0.00000000000E+00  0.00000000000E+00  0.22320923174E+04  0.22320923174E+04  0.50400001928E-02 0. -1.
        1   -1    0    0  501    0  0.00000000000E+00  0.00000000000E+00 -0.12593738137E+04  0.12593738137E+04  0.50400001928E-02 0.  1.
    10030    2    1    2    0    0  0.00000000000E+00  0.00000000000E+00  0.97271850371E+03  0.34914661312E+04  0.33532304510E+04 0.  0.
        5    1    3    3  502    0 -0.36046887641E+03  0.82370864456E+03 -0.98710522852E+03  0.13352275327E+04  0.46999998093E+01 0.  1.
       -5    1    3    3    0  502  0.36046887641E+03 -0.82370864456E+03  0.19598237322E+04  0.21562385984E+04  0.46999998093E+01 0. -1.
</event>
<event>
 5   0  0.5755250E-06  0.3200697E+04  0.7818609E-02  0.8188633E-01
       -2   -1    0    0    0  501  0.00000000000E+00  0.00000000000E+00  0.15014830863E+04  0.15014830864E+04  0.25500000920E-02 0. -1.
        2   -1    0    0  501    0  0.00000000000E+00  0.00000000000E+00 -0.17057242271E+04  0.17057242271E+04  0.25500000920E-02 0.  1.
    10030    2    1    2    0    0  0.00000000000E+00  0.00000000000E+00 -0.20424114077E+03  0.32072073135E+04  0.32006974721E+04 0.  0.
        5    1    3    3  502    0  0.98587455536E+03 -0.30874309697E+03 -0.13268269628E+04  0.16815953193E+04  0.46999998093E+01 0.  1.
       -5    1    3    3    0  502 -0.98587455536E+03  0.30874309697E+03  0.11225858220E+04  0.15256119941E+04  0.46999998093E+01 0. -1.
</event>
<event>
 5   0  0.1925906E-06  0.3288405E+04  0.7818609E-02  0.8165852E-01
       -1   -1    0    0    0  501  0.00000000000E+00  0.00000000000E+00  0.11645409023E+04  0.11645409023E+04  0.50400001928E-02 0. -1.
        1   -1    0    0  501    0  0.00000000000E+00  0.00000000000E+00 -0.23214311937E+04  0.23214311937E+04  0.50400001928E-02 0.  1.
    10030    2    1    2    0    0  0.00000000000E+00  0.00000000000E+00 -0.11568902913E+04  0.34859720960E+04  0.32884048273E+04 0.  0.
        1    1    3    3  502    0  0.11879990934E+04 -0.15614634660E+03  0.61511171791E+03  0.13468800811E+04  0.50400001928E-02 0. -1.
       -1    1    3    3    0  502 -0.11879990934E+04  0.15614634660E+03 -0.17720020093E+04  0.21390920149E+04  0.50400001928E-02 0.  1.
</event>
<event>
 5   0  0.2037109E-06  0.3257557E+04  0.7818609E-02  0.8173780E-01
       -1   -1    0    0    0  501  0.00000000000E+00  0.00000000000E+00  0.17413660556E+04  0.17413660556E+04  0.50400001928E-02 0. -1.
        1   -1    0    0  501    0  0.00000000000E+00  0.00000000000E+00 -0.15234705736E+04  0.15234705736E+04  0.50400001928E-02 0.  1.
    10030    2    1    2    0    0  0.00000000000E+00  0.00000000000E+00  0.21789548201E+03  0.32648366292E+04  0.32575573325E+04 0.  0.
        2    1    3    3  502    0 -0.13702697249E+03 -0.83164460143E+03 -0.12879065569E+04  0.15391921367E+04  0.25500000920E-02 0.  1.
       -2    1    3    3    0  502  0.13702697249E+03  0.83164460143E+03  0.15058020389E+04  0.17256444926E+04  0.25500000920E-02 0. -1.
</event>
<event>
 5   0  0.5637538E-06  0.3372420E+04  0.7818609E-02  0.8144709E-01
       -2   -1    0    0    0  501  0.00000000000E+00  0.00000000000E+00  0.14801694851E+04  0.14801694851E+04  0.25500000920E-02 0. -1.
        2   -1    0    0  501    0  0.00000000000E+00  0.00000000000E+00 -0.19209311216E+04  0.19209311216E+04  0.25500000920E-02 0.  1.
    10030    2    1    2    0    0  0.00000000000E+00  0.00000000000E+00 -0.44076163651E+03  0.34011006068E+04  0.33724196828E+04 0.  0.
        2    1    3    3  502    0  0.35874250117E+03 -0.12823537316E+03 -0.18769591090E+04  0.19152326203E+04  0.25500000920E-02 0.  1.
       -2    1    3    3    0  502 -0.35874250117E+03  0.12823537316E+03  0.14361974725E+04  0.14858679864E+04  0.25500000920E-02 0. -1.
</event>
<event>
 5   0  0.5637538E-06  0.3435013E+04  0.7818609E-02  0.8129366E-01
        2   -1    0    0  501    0  0.00000000000E+00  0.00000000000E+00  0.23537332913E+04  0.23537332914E+04  0.25500000920E-02 0. -1.
       -2   -1    0    0    0  501  0.00000000000E+00  0.00000000000E+00 -0.12532555466E+04  0.12532555466E+04  0.25500000920E-02 0.  1.
    10030    2    1    2    0    0  0.00000000000E+00  0.00000000000E+00  0.11004777448E+04  0.36069888379E+04  0.34350134221E+04 0.  0.
        2    1    3    3  502    0  0.15821585374E+04  0.68832307047E+02 -0.14777096584E+03  0.15905344329E+04  0.25500000920E-02 0.  1.
       -2    1    3    3    0  502 -0.15821585374E+04 -0.68832307047E+02  0.12482487106E+04  0.20164544050E+04  0.25500000920E-02 0. -1.
</event>
<event>
 5   0  0.7454827E-06  0.1767895E+04  0.7818609E-02  0.8723561E-01
        2   -1    0    0  501    0  0.00000000000E+00  0.00000000000E+00  0.12846296939E+04  0.12846296939E+04  0.25500000920E-02 0. -1.
       -2   -1    0    0    0  501  0.00000000000E+00  0.00000000000E+00 -0.60824021324E+03  0.60824021324E+03  0.25500000920E-02 0.  1.
    10030    2    1    2    0    0  0.00000000000E+00  0.00000000000E+00  0.67638948070E+03  0.18928699072E+04  0.17678952899E+04 0.  0.
        4    1    3    3  502    0 -0.63172984293E+03  0.21467555983E+03  0.95900512355E+03  0.11682724983E+04  0.12699999809E+01 0. -1.
       -4    1    3    3    0  502  0.63172984293E+03 -0.21467555983E+03 -0.28261564285E+03  0.72459740886E+03  0.12699999809E+01 0.  1.
</event>
<event>
 5   0  0.5622811E-06  0.3145852E+04  0.7818609E-02  0.8203266E-01
        2   -1    0    0  501    0  0.00000000000E+00  0.00000000000E+00  0.14290066106E+04  0.14290066106E+04  0.25500000920E-02 0. -1.
       -2   -1    0    0    0  501  0.00000000000E+00  0.00000000000E+00 -0.17313397417E+04  0.17313397417E+04  0.25500000920E-02 0.  1.
    10030    2    1    2    0    0  0.00000000000E+00  0.00000000000E+00 -0.30233313113E+03  0.31603463523E+04  0.31458518312E+04 0.  0.
        1    1    3    3  502    0  0.69090503257E+03 -0.84445868720E+03  0.98703010376E+03  0.14712880969E+04  0.50400001928E-02 0. -1.
       -1    1    3    3    0  502 -0.69090503257E+03  0.84445868720E+03 -0.12893632349E+04  0.16890582553E+04  0.50400001928E-02 0.  1.
</event>
<event>
 5   0  0.1878000E-06  0.3274262E+04  0.7818609E-02  0.8169475E-01
       -4   -1    0    0    0  501  0.00000000000E+00  0.00000000000E+00  0.12263988988E+04  0.12263995564E+04  0.12699999809E+01 0.  1.
        4   -1    0    0  501    0  0.00000000000E+00  0.00000000000E+00 -0.21854199235E+04  0.21854202925E+04  0.12699999809E+01 0. -1.
    10030    2    1    2    0    0  0.00000000000E+00  0.00000000000E+00 -0.95902102467E+03  0.34118198489E+04  0.32742622612E+04 0.  0.
        4    1    3    3  502    0  0.63963209831E+03 -0.12668661298E+04 -0.13299592099E+04  0.19449607001E+04  0.12699999809E+01 0.  1.
       -4    1    3    3    0  502 -0.63963209831E+03  0.12668661298E+04  0.37093818528E+03  0.14668591487E+04  0.12699999809E+01 0. -1.
</event>
<event>
 5   0  0.5637538E-06  0.2226269E+04  0.7818609E-02  0.8507573E-01
        2   -1    0    0  501    0  0.00000000000E+00  0.00000000000E+00  0.13905348025E+04  0.13905348025E+04  0.25500000920E-02 0. -1.
       -2   -1    0    0    0  501  0.00000000000E+00  0.00000000000E+00 -0.89107366699E+03  0.89107366699E+03  0.25500000920E-02 0.  1.
    10030    2    1    2    0    0  0.00000000000E+00  0.00000000000E+00  0.49946113550E+03  0.22816084695E+04  0.22262694765E+04 0.  0.
        2    1    3    3  502    0  0.28936703530E+03 -0.10713440716E+04  0.16063548208E+03  0.11213006550E+04  0.25500000920E-02 0. -1.
       -2    1    3    3    0  502 -0.28936703530E+03  0.10713440716E+04  0.33882565342E+03  0.11603078145E+04  0.25500000920E-02 0.  1.
</event>
<event>
 5   0  0.5622811E-06  0.3328492E+04  0.7818609E-02  0.8155683E-01
        2   -1    0    0  501    0  0.00000000000E+00  0.00000000000E+00  0.18483723953E+04  0.18483723953E+04  0.25500000920E-02 0. -1.
       -2   -1    0    0    0  501  0.00000000000E+00  0.00000000000E+00 -0.14984615189E+04  0.14984615189E+04  0.25500000920E-02 0.  1.
    10030    2    1    2    0    0  0.00000000000E+00  0.00000000000E+00  0.34991087643E+03  0.33468339142E+04  0.33284920952E+04 0.  0.
        1    1    3    3  502    0 -0.14033293017E+04  0.75070858590E+03 -0.31436611960E+03  0.16222584773E+04  0.50400001928E-02 0. -1.
       -1    1    3    3    0  502  0.14033293017E+04 -0.75070858590E+03  0.66427699603E+03  0.17245754369E+04  0.50400001928E-02 0.  1.
</event>
<event>
 5   0  0.2730981E-06  0.3256631E+04  0.7818609E-02  0.8174019E-01
        1   -1    0    0  501    0  0.00000000000E+00  0.00000000000E+00  0.19958706908E+04  0.19958706908E+04  0.50400001928E-02 0.  1.
       -1   -1    0    0    0  501  0.00000000000E+00  0.00000000000E+00 -0.13284485396E+04  0.13284485396E+04  0.50400001928E-02 0. -1.
    10030    2    1    2    0    0  0.00000000000E+00  0.00000000000E+00  0.66742215122E+03  0.33243192304E+04  0.32566310841E+04 0.  0.
        3    1    3    3  502    0  0.11692344987E+04 -0.90937831492E+03 -0.35660907759E+03  0.15235643331E+04  0.10100000352E+00 0. -1.
       -3    1    3    3    0  502 -0.11692344987E+04  0.90937831492E+03  0.10240312288E+04  0.18007548974E+04  0.10100000352E+00 0.  1.
</event>
<event>
 5   0  0.5755250E-06  0.3257548E+04  0.7818609E-02  0.8173782E-01
       -2   -1    0    0    0  501  0.00000000000E+00  0.00000000000E+00  0.11536954728E+04  0.11536954728E+04  0.25500000920E-02 0.  1.
        2   -1    0    0  501    0  0.00000000000E+00  0.00000000000E+00 -0.22994837060E+04  0.22994837060E+04  0.25500000920E-02 0. -1.
    10030    2    1    2    0    0  0.00000000000E+00  0.00000000000E+00 -0.11457882332E+04  0.34531791788E+04  0.32575475078E+04 0.  0.
        5    1    3    3  502    0  0.48774987464E+03  0.28031711445E+03  0.10474316830E+04  0.11889545178E+04  0.46999998093E+01 0.  1.
       -5    1    3    3    0  502 -0.48774987464E+03 -0.28031711445E+03 -0.21932199161E+04  0.22642246610E+04  0.46999998093E+01 0. -1.
</event>
<event>
 5   0  0.2097842E-06  0.1933353E+04  0.7818609E-02  0.8638431E-01
        1   -1    0    0  501    0  0.00000000000E+00  0.00000000000E+00  0.19461130947E+04  0.19461130947E+04  0.50400001928E-02 0.  1.
       -1   -1    0    0    0  501  0.00000000000E+00  0.00000000000E+00 -0.48016890268E+03  0.48016890271E+03  0.50400001928E-02 0. -1.
    10030    2    1    2    0    0  0.00000000000E+00  0.00000000000E+00  0.14659441921E+04  0.24262819974E+04  0.19333525175E+04 0.  0.
        4    1    3    3  502    0 -0.91111973698E+03  0.22753299662E+03  0.44528494976E+03  0.10393222499E+04  0.12699999809E+01 0. -1.
       -4    1    3    3    0  502  0.91111973698E+03 -0.22753299662E+03  0.10206592423E+04  0.13869597476E+04  0.12699999809E+01 0.  1.
</event>
<event>
 5   0  0.5622811E-06  0.3295362E+04  0.7818609E-02  0.8164077E-01
       -2   -1    0    0    0  501  0.00000000000E+00  0.00000000000E+00  0.13024121320E+04  0.13024121320E+04  0.25500000920E-02 0. -1.
        2   -1    0    0  501    0  0.00000000000E+00  0.00000000000E+00 -0.20844804219E+04  0.20844804219E+04  0.25500000920E-02 0.  1.
    10030    2    1    2    0    0  0.00000000000E+00  0.00000000000E+00 -0.78206828986E+03  0.33868925539E+04  0.32953619470E+04 0.  0.
        1    1    3    3  502    0  0.43861611659E+03 -0.14841309637E+04  0.19020341327E+03  0.15592325528E+04  0.50400001928E-02 0. -1.
       -1    1    3    3    0  502 -0.43861611659E+03  0.14841309637E+04 -0.97227170313E+03  0.18276600012E+04  0.50400001928E-02 0.  1.
</event>
<event>
 5   0  0.5637538E-06  0.2825635E+04  0.7818609E-02  0.8295354E-01
       -2   -1    0    0    0  501  0.00000000000E+00  0.00000000000E+00  0.10517858452E+04  0.10517858452E+04  0.25500000920E-02 0.  1.
        2   -1    0    0  501    0  0.00000000000E+00  0.00000000000E+00 -0.18977752477E+04  0.18977752477E+04  0.25500000920E-02 0. -1.
    10030    2    1    2    0    0  0.00000000000E+00  0.00000000000E+00 -0.84598940252E+03  0.29495610929E+04  0.28256348970E+04 0.  0.
        2    1    3    3  502    0  0.33208187687E+03  0.23355717929E+03 -0.18355722562E+04  0.18799342639E+04  0.25500000920E-02 0. -1.
       -2    1    3    3    0  502 -0.33208187687E+03 -0.23355717929E+03  0.98958285366E+03  0.10696268290E+04  0.25500000920E-02 0.  1.
</event>
<event>
 5   0  0.1999849E-06  0.2962530E+04  0.7818609E-02  0.8254512E-01
        1   -1    0    0  501    0  0.00000000000E+00  0.00000000000E+00  0.21349889880E+04  0.21349889881E+04  0.50400001928E-02 0.  1.
       -1   -1    0    0    0  501  0.00000000000E+00  0.00000000000E+00 -0.10277082234E+04  0.10277082235E+04  0.50400001928E-02 0. -1.
    10030    2    1    2    0    0  0.00000000000E+00  0.00000000000E+00  0.11072807646E+04  0.31626972115E+04  0.29625298243E+04 0.  0.
        5    1    3    3  502    0  0.88471142546E+02 -0.75353316404E+03  0.19117947261E+04  0.20568472323E+04  0.46999998093E+01 0.  1.
       -5    1    3    3    0  502 -0.88471142546E+02  0.75353316404E+03 -0.80451396146E+03  0.11058499792E+04  0.46999998093E+01 0. -1.
</event>
<event>
 5   0  0.5300268E-06  0.3790912E+04  0.7818609E-02  0.8048108E-01
       -2   -1    0    0    0  501  0.00000000000E+00  0.00000000000E+00  0.13237098558E+04  0.13237098558E+04  0.25500000920E-02 0.  1.
        2   -1    0    0  501    0  0.00000000000E+00  0.00000000000E+00 -0.27141554157E+04  0.27141554157E+04  0.25500000920E-02 0. -1.
    10030    2    1    2    0    0  0.00000000000E+00  0.00000000000E+00 -0.13904455600E+04  0.40378652715E+04  0.37909124358E+04 0.  0.
        4    1    3    3  502    0  0.75140466424E+03 -0.17242306455E+04 -0.94541217744E+03  0.21050857671E+04  0.12699999809E+01 0. -1.
       -4    1    3    3    0  502 -0.75140466424E+03  0.17242306455E+04 -0.44503338252E+03  0.19327795045E+04  0.12699999809E+01 0.  1.
</event>
<event>
 5   0  0.5755250E-06  0.3265877E+04  0.7818609E-02  0.8171633E-01
        2   -1    0    0  501    0  0.00000000000E+00  0.00000000000E+00  0.24185830535E+04  0.24185830535E+04  0.25500000920E-02 0.  1.
       -2   -1    0    0    0  501  0.00000000000E+00  0.00000000000E+00 -0.11024998864E+04  0.11024998864E+04  0.25500000920E-02 0. -1.
    10030    2    1    2    0    0  0.00000000000E+00  0.00000000000E+00  0.13160831671E+04  0.35210829399E+04  0.32658766307E+04 0.  0.
        5    1    3    3  502    0 -0.29189446580E+03 -0.12372469307E+04 -0.44698064913E+03  0.13475148004E+04  0.46999998093E+01 0. -1.
       -5    1    3    3    0  502  0.29189446580E+03  0.12372469307E+04  0.17630638162E+04  0.21735681394E+04  0.46999998093E+01 0.  1.
</event>
<event>
 5   0  0.2097842E-06  0.3205602E+04  0.7818609E-02  0.8187339E-01
        1   -1    0    0  501    0  0.00000000000E+00  0.00000000000E+00  0.23548973145E+04  0.23548973145E+04  0.50400001928E-02 0.  1.
       -1   -1    0    0    0  501  0.00000000000E+00  0.00000000000E+00 -0.10909056942E+04  0.10909056943E+04  0.50400001928E-02 0. -1.
    10030    2    1    2    0    0  0.00000000000E+00  0.00000000000E+00  0.12639916202E+04  0.34458030087E+04  0.32056019028E+04 0.  0.
        4    1    3    3  502    0  0.13788398934E+04 -0.73335280538E+03  0.24447811536E+03  0.15807520206E+04  0.12699999809E+01 0.  1.
       -4    1    3    3    0  502 -0.13788398934E+04  0.73335280538E+03  0.10195135049E+04  0.18650509881E+04  0.12699999809E+01 0. -1.
</event>
<event>
 5   0  0.5622811E-06  0.3307737E+04  0.7818609E-02  0.8160929E-01
       -2   -1    0    0    0  501  0.00000000000E+00  0.00000000000E+00  0.13902967692E+04  0.13902967693E+04  0.25500000920E-02 0.  1.
        2   -1    0    0  501    0  0.00000000000E+00  0.00000000000E+00 -0.19674085354E+04  0.19674085354E+04  0.25500000920E-02 0. -1.
    10030    2    1    2    0    0  0.00000000000E+00  0.00000000000E+00 -0.57711176611E+03  0.33577053046E+04  0.33077374324E+04 0.  0.
        1    1    3    3  502    0  0.63587355999E+03  0.13343185264E+04  0.46463704053E+03  0.15493962352E+04  0.50400001928E-02 0.  1.
       -1    1    3    3    0  502 -0.63587355999E+03 -0.13343185264E+04 -0.10417488066E+04  0.18083090694E+04  0.50400001928E-02 0. -1.
</event>
<event>
 5   0  0.1878000E-06  0.3221483E+04  0.7818609E-02  0.8183166E-01
       -3   -1    0    0    0  501  0.00000000000E+00  0.00000000000E+00  0.16243029108E+04  0.16243029139E+04  0.10100000352E+00 0.  1.
        3   -1    0    0  501    0  0.00000000000E+00  0.00000000000E+00 -0.15972933817E+04  0.15972933849E+04  0.10100000352E+00 0. -1.
    10030    2    1    2    0    0  0.00000000000E+00  0.00000000000E+00  0.27009529106E+02  0.32215962988E+04  0.32214830742E+04 0.  0.
        2    1    3    3  502    0 -0.99825166218E+03 -0.58258550542E+03 -0.11083974230E+04  0.16013922378E+04  0.25500000920E-02 0. -1.
       -2    1    3    3    0  502  0.99825166218E+03  0.58258550542E+03  0.11354069521E+04  0.16202040609E+04  0.25500000920E-02 0.  1.
</event>
<event>
 5   0  0.2730981E-06  0.2373840E+04  0.7818609E-02  0.8449363E-01
        1   -1    0    0  501    0  0.00000000000E+00  0.00000000000E+00  0.10202950681E+04  0.10202950681E+04  0.50400001928E-02 0.  1.
       -1   -1    0    0    0  501  0.00000000000E+00  0.00000000000E+00 -0.13807564076E+04  0.13807564076E+04  0.50400001928E-02 0. -1.
    10030    2    1    2    0    0  0.00000000000E+00  0.00000000000E+00 -0.36046133952E+03  0.24010514757E+04  0.23738398875E+04 0.  0.
        3    1    3    3  502    0 -0.30116519948E+03 -0.75107492671E+03 -0.10584957544E+04  0.13323765590E+04  0.10100000352E+00 0. -1.
       -3    1    3    3    0  502  0.30116519948E+03  0.75107492671E+03  0.69803441483E+03  0.10686749166E+04  0.10100000352E+00 0.  1.
</event>
<event>
 5   0  0.2730981E-06  0.3328471E+04  0.7818609E-02  0.8155688E-01
       -1   -1    0    0    0  501  0.00000000000E+00  0.00000000000E+00  0.21951826680E+04  0.21951826680E+04  0.50400001928E-02 0.  1.
        1   -1    0    0  501    0  0.00000000000E+00  0.00000000000E+00 -0.12617082234E+04  0.12617082234E+04  0.50400001928E-02 0. -1.
    10030    2    1    2    0    0  0.00000000000E+00  0.00000000000E+00  0.93347444461E+03  0.34568908914E+04  0.33284711350E+04 0.  0.
        3    1    3    3  502    0 -0.44118172075E+03 -0.12248816352E+04  0.15434137516E+04  0.20191835849E+04  0.10100000352E+00 0.  1.
       -3    1    3    3    0  502  0.44118172075E+03  0.12248816352E+04 -0.60993930694E+03  0.14377073065E+04  0.10100000352E+00 0. -1.
</event>
<event>
 5   0  0.1925906E-06  0.3337514E+04  0.7818609E-02  0.8153415E-01
        1   -1    0    0  501    0  0.00000000000E+00  0.00000000000E+00  0.15803440897E+04  0.15803440897E+04  0.50400001928E-02 0. -1.
       -1   -1    0    0    0  501  0.00000000000E+00  0.00000000000E+00 -0.17621158961E+04  0.17621158961E+04  0.50400001928E-02 0.  1.
    10030    2    1    2    0    0  0.00000000000E+00  0.00000000000E+00 -0.18177180638E+03  0.33424599858E+04  0.33375137104E+04 0.  0.
        1    1    3    3  502    0 -0.42859029500E+03  0.63839080657E+03  0.13923617115E+04  0.15905670682E+04  0.50400001928E-02 0. -1.
       -1    1    3    3    0  502  0.42859029500E+03 -0.63839080657E+03 -0.15741335178E+04  0.17518929176E+04  0.50400001928E-02 0.  1.
</event>
<event>
 5   0  0.5855568E-06  0.2716528E+04  0.7818609E-02  0.8329662E-01
        2   -1    0    0  501    0  0.00000000000E+00  0.00000000000E+00  0.10139786023E+04  0.10139786023E+04  0.25500000920E-02 0. -1.
       -2   -1    0    0    0  501  0.00000000000E+00  0.00000000000E+00 -0.18194482810E+04  0.18194482810E+04  0.25500000920E-02 0.  1.
    10030    2    1    2    0    0  0.00000000000E+00  0.00000000000E+00 -0.80546967872E+03  0.28334268833E+04  0.27165283911E+04 0.  0.
        3    1    3    3  502    0  0.18055264355E+03 -0.15197322967E+03 -0.17978998227E+04  0.18133226139E+04  0.10100000352E+00 0.  1.
       -3    1    3    3    0  502 -0.18055264355E+03  0.15197322967E+03  0.99243014394E+03  0.10201042694E+04  0.10100000352E+00 0. -1.
</event>
<event>
 5   0  0.1878000E-06  0.2950506E+04  0.7818609E-02  0.8258007E-01
       -3   -1    0    0    0  501  0.00000000000E+00  0.00000000000E+00  0.98509914756E+03  0.98509915273E+03  0.10100000352E+00 0. -1.
        3   -1    0    0  501    0  0.00000000000E+00  0.00000000000E+00 -0.22092918101E+04  0.22092918124E+04  0.10100000352E+00 0.  1.
    10030    2    1    2    0    0  0.00000000000E+00  0.00000000000E+00 -0.12241926625E+04  0.31943909651E+04  0.29505060520E+04 0.  0.
        3    1    3    3  502    0 -0.40452488252E+03 -0.91861259600E+03  0.55841842803E+03  0.11486168348E+04  0.10100000352E+00 0. -1.
       -3    1    3    3    0  502  0.40452488252E+03  0.91861259600E+03 -0.17826110906E+04  0.20457741304E+04  0.10100000352E+00 0.  1.
</event>
<event>
 5   0  0.5855568E-06  0.2776418E+04  0.7818609E-02  0.8310627E-01
       -2   -1    0    0    0  501  0.00000000000E+00  0.00000000000E+00  0.17075428482E+04  0.17075428482E+04  0.25500000920E-02 0. -1.
        2   -1    0    0  501    0  0.00000000000E+00  0.00000000000E+00 -0.11285946482E+04  0.11285946482E+04  0.25500000920E-02 0.  1.
    10030    2    1    2    0    0  0.00000000000E+00  0.00000000000E+00  0.57894819997E+03  0.28361374964E+04  0.27764176344E+04 0.  0.
        3    1    3    3  502    0 -0.83207542439E+03  0.53283463461E+03  0.12855698975E+04  0.16214044009E+04  0.10100000352E+00 0. -1.
       -3    1    3    3    0  502  0.83207542439E+03 -0.53283463461E+03 -0.70662169753E+03  0.12147330955E+04  0.10100000352E+00 0.  1.
</event>
<event>
 5   0  0.5755250E-06  0.3200632E+04  0.7818609E-02  0.8188650E-01
        2   -1    0    0  501    0  0.00000000000E+00  0.00000000000E+00  0.23484221994E+04  0.23484221994E+04  0.25500000920E-02 0. -1.
       -2   -1    0    0    0  501  0.00000000000E+00  0.00000000000E+00 -0.10905244778E+04  0.10905244778E+04  0.25500000920E-02 0.  1.
    10030    2    1    2    0    0  0.00000000000E+00  0.00000000000E+00  0.12578977216E+04  0.34389466773E+04  0.32006323705E+04 0.  0.
        5    1    3    3  502    0 -0.67121059018E+03 -0.12416059398E+04  0.14393504813E+04  0.20159019977E+04  0.46999998093E+01 0. -1.
       -5    1    3    3    0  502  0.67121059018E+03  0.12416059398E+04 -0.18145275967E+03  0.14230446796E+04  0.46999998093E+01 0.  1.
</event>
<event>
 5   0  0.2037109E-06  0.2000186E+04  0.7818609E-02  0.8606534E-01
       -1   -1    0    0    0  501  0.00000000000E+00  0.00000000000E+00  0.89588621527E+03  0.89588621528E+03  0.50400001928E-02 0.  1.
        1   -1    0    0  501    0  0.00000000000E+00  0.00000000000E+00 -0.11164204209E+04  0.11164204209E+04  0.50400001928E-02 0. -1.
    10030    2    1    2    0    0  0.00000000000E+00  0.00000000000E+00 -0.22053420562E+03  0.20123066362E+04  0.20001856569E+04 0.  0.
        2    1    3    3  502    0  0.13429340074E+03  0.98380842247E+03 -0.23045626129E+03  0.10193251777E+04  0.25500000920E-02 0.  1.
       -2    1    3    3    0  502 -0.13429340074E+03 -0.98380842247E+03  0.99220556742E+01  0.99298145844E+03  0.25500000920E-02 0. -1.
</event>
<event>
 5   0  0.2097842E-06  0.3315060E+04  0.7818609E-02  0.8159074E-01
       -1   -1    0    0    0  501  0.00000000000E+00  0.00000000000E+00  0.11592318810E+04  0.11592318810E+04  0.50400001928E-02 0. -1.
        1   -1    0    0  501    0  0.00000000000E+00  0.00000000000E+00 -0.23700232569E+04  0.23700232569E+04  0.50400001928E-02 0.  1.
    10030    2    1    2    0    0  0.00000000000E+00  0.00000000000E+00 -0.12107913759E+04  0.35292551379E+04  0.33150604930E+04 0.  0.
        4    1    3    3  502    0 -0.44984494547E+03  0.15680879286E+04 -0.91786388728E+03  0.18718269031E+04  0.12699999809E+01 0. -1.
       -4    1    3    3    0  502  0.44984494547E+03 -0.15680879286E+04 -0.29292748866E+03  0.16574282347E+04  0.12699999809E+01 0.  1.
</event>
<event>
 5   0  0.5637538E-06  0.1900095E+04  0.7818609E-02  0.8654809E-01
       -2   -1    0    0    0  501  0.00000000000E+00  0.00000000000E+00  0.76481151982E+03  0.76481151983E+03  0.25500000920E-02 0. -1.
        2   -1    0    0  501    0  0.00000000000E+00  0.00000000000E+00 -0.11801469965E+04  0.11801469965E+04  0.25500000920E-02 0.  1.
    10030    2    1    2    0    0  0.00000000000E+00  0.00000000000E+00 -0.41533547663E+03  0.19449585163E+04  0.19000947534E+04 0.  0.
        2    1    3    3  502    0 -0.75128026990E+03 -0.54326654497E+03  0.46654624877E+01  0.92713664008E+03  0.25500000920E-02 0. -1.
       -2    1    3    3    0  502  0.75128026990E+03  0.54326654497E+03 -0.42000093912E+03  0.10178218762E+04  0.25500000920E-02 0.  1.
</event>
<event>
 5   0  0.5855568E-06  0.3208671E+04  0.7818609E-02  0.8186531E-01
       -2   -1    0    0    0  501  0.00000000000E+00  0.00000000000E+00  0.18469850429E+04  0.18469850429E+04  0.25500000920E-02 0.  1.
        2   -1    0    0  501    0  0.00000000000E+00  0.00000000000E+00 -0.13935642395E+04  0.13935642396E+04  0.25500000920E-02 0. -1.
    10030    2    1    2    0    0  0.00000000000E+00  0.00000000000E+00  0.45342080333E+03  0.32405492824E+04  0.32086709440E+04 0.  0.
        3    1    3    3  502    0  0.30123988629E+03  0.63392727924E+03 -0.12302878172E+04  0.14164100352E+04  0.10100000352E+00 0. -1.
       -3    1    3    3    0  502 -0.30123988629E+03 -0.63392727924E+03  0.16837086205E+04  0.18241392473E+04  0.10100000352E+00 0.  1.
</event>
<event>
 5   0  0.1925906E-06  0.2208300E+04  0.7818609E-02  0.8514981E-01
       -1   -1    0    0    0  501  0.00000000000E+00  0.00000000000E+00  0.73498081782E+03  0.73498081784E+03  0.50400001928E-02 0.  1.
        1   -1    0    0  501    0  0.00000000000E+00  0.00000000000E+00 -0.16587475494E+04  0.16587475495E+04  0.50400001928E-02 0. -1.
    10030    2    1    2    0    0  0.00000000000E+00  0.00000000000E+00 -0.92376673163E+03  0.23937283673E+04  0.22083003695E+04 0.  0.
        1    1    3    3  502    0 -0.61454466481E+03 -0.80165724124E+03 -0.94522661860E+03  0.13833917876E+04  0.50400001928E-02 0. -1.
       -1    1    3    3    0  502  0.61454466481E+03  0.80165724124E+03  0.21459886970E+02  0.10103365797E+04  0.50400001928E-02 0.  1.
</event>
<event>
 5   0  0.5755250E-06  0.3176484E+04  0.7818609E-02  0.8195055E-01
       -2   -1    0    0    0  501  0.00000000000E+00  0.00000000000E+00  0.11410262887E+04  0.11410262887E+04  0.25500000920E-02 0.  1.
        2   -1    0    0  501    0  0.00000000000E+00  0.00000000000E+00 -0.22107399773E+04  0.22107399773E+04  0.25500000920E-02 0. -1.
    10030    2    1    2    0    0  0.00000000000E+00  0.00000000000E+00 -0.10697136887E+04  0.33517662660E+04  0.31764838621E+04 0.  0.
        5    1    3    3  502    0  0.10292981989E+04 -0.12084345768E+04 -0.47981082786E+03  0.16583152381E+04  0.46999998093E+01 0.  1.
       -5    1    3    3    0  502 -0.10292981989E+04  0.12084345768E+04 -0.58990286079E+03  0.16934510278E+04  0.46999998093E+01 0. -1.
</event>
<event>
 5   0  0.2097842E-06  0.3306298E+04  0.7818609E-02  0.8161295E-01
       -1   -1    0    0    0  501  0.00000000000E+00  0.00000000000E+00  0.16385873393E+04  0.16385873394E+04  0.50400001928E-02 0. -1.
        1   -1    0    0  501    0  0.00000000000E+00  0.00000000000E+00 -0.16678403874E+04  0.16678403874E+04  0.50400001928E-02 0.  1.
    10030    2    1    2    0    0  0.00000000000E+00  0.00000000000E+00 -0.29253048030E+02  0.33064277267E+04  0.33062983186E+04 0.  0.
        4    1    3    3  502    0 -0.14043347831E+04 -0.86374559981E+03  0.10657180727E+03  0.16521415821E+04  0.12699999809E+01 0. -1.
       -4    1    3    3    0  502  0.14043347831E+04  0.86374559981E+03 -0.13582485530E+03  0.16542861447E+04  0.12699999809E+01 0.  1.
</event>
<event>
 5   0  0.1999849E-06  0.3402043E+04  0.7818609E-02  0.8137405E-01
        1   -1    0    0  501    0  0.00000000000E+00  0.00000000000E+00  0.27037075522E+04  0.27037075522E+04  0.50400001928E-02 0.  1.
       -1   -1    0    0    0  501  0.00000000000E+00  0.00000000000E+00 -0.10701877956E+04  0.10701877956E+04  0.50400001928E-02 0. -1.
    10030    2    1    2    0    0  0.00000000000E+00  0.00000000000E+00  0.16335197566E+04  0.37738953479E+04  0.34020434009E+04 0.  0.
        5    1    3    3  502    0  0.14303518015E+04 -0.68050683896E+03  0.12894140831E+03  0.15892274257E+04  0.46999998093E+01 0. -1.
       -5    1    3    3    0  502 -0.14303518015E+04  0.68050683896E+03  0.15045783483E+04  0.21846679221E+04  0.46999998093E+01 0.  1.
</event>
<event>
 5   0  0.5637538E-06  0.3175517E+04  0.7818609E-02  0.8195313E-01
        2   -1    0    0  501    0  0.00000000000E+00  0.00000000000E+00  0.14434056568E+04  0.14434056568E+04  0.25500000920E-02 0.  1.
       -2   -1    0    0    0  501  0.00000000000E+00  0.00000000000E+00 -0.17465482185E+04  0.17465482185E+04  0.25500000920E-02 0. -1.
    10030    2    1    2    0    0  0.00000000000E+00  0.00000000000E+00 -0.30314256164E+03  0.31899538753E+04  0.31755173301E+04 0.  0.
        2    1    3    3  502    0 -0.10452759227E+03 -0.13828587948E+04 -0.92823110487E+03  0.16687832238E+04  0.25500000920E-02 0. -1.
       -2    1    3    3    0  502  0.10452759227E+03  0.13828587948E+04  0.62508854323E+03  0.15211706515E+04  0.25500000920E-02 0.  1.
</event>
<event>
 5   0  0.1925906E-06  0.3188672E+04  0.7818609E-02  0.8191815E-01
       -1   -1    0    0    0  501  0.00000000000E+00  0.00000000000E+00  0.15077398063E+04  0.15077398064E+04  0.50400001928E-02 0.  1.
        1   -1    0    0  501    0  0.00000000000E+00  0.00000000000E+00 -0.16859055171E+04  0.16859055171E+04  0.50400001928E-02 0. -1.
    10030    2    1    2    0    0  0.00000000000E+00  0.00000000000E+00 -0.17816571079E+03  0.31936453235E+04  0.31886717347E+04 0.  0.
        1    1    3    3  502    0 -0.14790596612E+04  0.58419215412E+03 -0.20331733738E+03  0.16031955259E+04  0.50400001928E-02 0. -1.
       -1    1    3    3    0  502  0.14790596612E+04 -0.58419215412E+03  0.25151626595E+02  0.15904497976E+04  0.50400001928E-02 0.  1.
</event>
<event>
 5   0  0.2037109E-06  0.2015447E+04  0.7818609E-02  0.8599433E-01
        1   -1    0    0  501    0  0.00000000000E+00  0.00000000000E+00  0.72397760827E+03  0.72397760829E+03  0.50400001928E-02 0.  1.
       -1   -1    0    0    0  501  0.00000000000E+00  0.00000000000E+00 -0.14026764598E+04  0.14026764598E+04  0.50400001928E-02 0. -1.
    10030    2    1    2    0    0  0.00000000000E+00  0.00000000000E+00 -0.67869885150E+03  0.21266540681E+04  0.20154466984E+04 0.  0.
        2    1    3    3  502    0  0.93955012488E+03 -0.31989308157E+03 -0.15531143696E+03  0.10045932825E+04  0.25500000920E-02 0. -1.
       -2    1    3    3    0  502 -0.93955012488E+03  0.31989308157E+03 -0.52338741454E+03  0.11220607856E+04  0.25500000920E-02 0.  1.
</event>
<event>
 5   0  0.5755250E-06  0.1796253E+04  0.7818609E-02  0.8708295E-01
        2   -1    0    0  501    0  0.00000000000E+00  0.00000000000E+00  0.79495910418E+03  0.79495910418E+03  0.25500000920E-02 0.  1.
       -2   -1    0    0    0  501  0.00000000000E+00  0.00000000000E+00 -0.10146827417E+04  0.10146827417E+04  0.25500000920E-02 0. -1.
    10030    2    1    2    0    0  0.00000000000E+00  0.00000000000E+00 -0.21972363754E+03  0.18096418459E+04  0.17962530817E+04 0.  0.
        5    1    3    3  502    0  0.17415610833E+02 -0.87797121241E+03  0.79883310234E+02  0.88178239185E+03  0.46999998093E+01 0. -1.
       -5    1    3    3    0  502 -0.17415610833E+02  0.87797121241E+03 -0.29960694777E+03  0.92785945405E+03  0.46999998093E+01 0.  1.
</event>
<event>
 5   0  0.5300268E-06  0.2912844E+04  0.7818609E-02  0.8269066E-01
       -2   -1    0    0    0  501  0.00000000000E+00  0.00000000000E+00  0.16044253582E+04  0.16044253582E+04  0.25500000920E-02 0.  1.
        2   -1    0    0  501    0  0.00000000000E+00  0.00000000000E+00 -0.13220714552E+04  0.13220714552E+04  0.25500000920E-02 0. -1.
    10030    2    1    2    0    0  0.00000000000E+00  0.00000000000E+00  0.28235390305E+03  0.29264968134E+04  0.29128439492E+04 0.  0.
        4    1    3    3  502    0 -0.48017435492E+03 -0.58348454362E+02  0.15213667452E+04  0.15964117074E+04  0.12699999809E+01 0.  1.
       -4    1    3    3    0  502  0.48017435492E+03  0.58348454362E+02 -0.12390128421E+04  0.13300851060E+04  0.12699999809E+01 0. -1.
</event>
<event>
 5   0  0.2037109E-06  0.3188417E+04  0.7818609E-02  0.8191883E-01
       -1   -1    0    0    0  501  0.00000000000E+00  0.00000000000E+00  0.21608967035E+04  0.21608967035E+04  0.50400001928E-02 0. -1.
        1   -1    0    0  501    0  0.00000000000E+00  0.00000000000E+00 -0.11761323587E+04  0.11761323587E+04  0.50400001928E-02 0.  1.
    10030    2    1    2    0    0  0.00000000000E+00  0.00000000000E+00  0.98476434483E+03  0.33370290622E+04  0.31884168716E+04 0.  0.
        2    1    3    3  502    0  0.10319446681E+04  0.11775872561E+04  0.17861031422E+03  0.15759197911E+04  0.25500000920E-02 0.  1.
       -2    1    3    3    0  502 -0.10319446681E+04 -0.11775872561E+04  0.80615403062E+03  0.17611092711E+04  0.25500000920E-02 0. -1.
</event>
<event>
 5   0  0.2730981E-06  0.3202474E+04  0.7818609E-02  0.8188164E-01
        1   -1    0    0  501    0  0.00000000000E+00  0.00000000000E+00  0.11803215640E+04  0.11803215640E+04  0.50400001928E-02 0. -1.
       -1   -1    0    0    0  501  0.00000000000E+00  0.00000000000E+00 -0.21722547906E+04  0.21722547906E+04  0.50400001928E-02 0.  1.
    10030    2    1    2    0    0  0.00000000000E+00  0.00000000000E+00 -0.99193322662E+03  0.33525763547E+04  0.32024735265E+04 0.  0.
        3    1    3    3  502    0  0.12859536629E+04 -0.93143550305E+03 -0.71231773265E+03  0.17403003999E+04  0.10100000352E+00 0.  1.
       -3    1    3    3    0  502 -0.12859536629E+04  0.93143550305E+03 -0.27961549397E+03  0.16122759547E+04  0.10100000352E+00 0. -1.
</event>
<event>
 5   0  0.2037109E-06  0.3360954E+04  0.7818609E-02  0.8147557E-01
       -1   -1    0    0    0  501  0.00000000000E+00  0.00000000000E+00  0.12524307563E+04  0.12524307563E+04  0.50400001928E-02 0.  1.
        1   -1    0    0  501    0  0.00000000000E+00  0.00000000000E+00 -0.22548175823E+04  0.22548175823E+04  0.50400001928E-02 0. -1.
    10030    2    1    2    0    0  0.00000000000E+00  0.00000000000E+00 -0.10023868259E+04  0.35072483386E+04  0.33609539657E+04 0.  0.
        2    1    3    3  502    0 -0.16135057469E+04  0.46848769981E+03 -0.46624895034E+03  0.17436368899E+04  0.25500000920E-02 0. -1.
       -2    1    3    3    0  502  0.16135057469E+04 -0.46848769981E+03 -0.53613787560E+03  0.17636114487E+04  0.25500000920E-02 0.  1.
</event>
<event>
 5   0  0.5855568E-06  0.3137959E+04  0.7818609E-02  0.8205397E-01
        2   -1    0    0  501    0  0.00000000000E+00  0.00000000000E+00  0.20201556779E+04  0.20201556779E+04  0.25500000920E-02 0. -1.
       -2   -1    0    0    0  501  0.00000000000E+00  0.00000000000E+00 -0.12185677389E+04  0.12185677389E+04  0.25500000920E-02 0.  1.
    10030    2    1    2    0    0  0.00000000000E+00  0.00000000000E+00  0.80158793899E+03  0.32387234168E+04  0.31379589141E+04 0.  0.
        3    1    3    3  502    0  0.11222239654E+04 -0.10918737212E+04  0.29695681008E+03  0.15936618866E+04  0.10100000352E+00 0.  1.
       -3    1    3    3    0  502 -0.11222239654E+04  0.10918737212E+04  0.50463112891E+03  0.16450615302E+04  0.10100000352E+00 0. -1.
</event>
<event>
 5   0  0.1878000E-06  0.3285640E+04  0.7818609E-02  0.8166559E-01
       -3   -1    0    0    0  501  0.00000000000E+00  0.00000000000E+00  0.12998348085E+04  0.12998348125E+04  0.10100000352E+00 0.  1.
        3   -1    0    0  501    0  0.00000000000E+00  0.00000000000E+00 -0.20763086163E+04  0.20763086188E+04  0.10100000352E+00 0. -1.
    10030    2    1    2    0    0  0.00000000000E+00  0.00000000000E+00 -0.77647380778E+03  0.33761434313E+04  0.32856404085E+04 0.  0.
        4    1    3    3  502    0 -0.12692483112E+04 -0.14500170201E+03  0.67309317069E+03  0.14439781156E+04  0.12699999809E+01 0.  1.
       -4    1    3    3    0  502  0.12692483112E+04  0.14500170201E+03 -0.14495669785E+04  0.19321653157E+04  0.12699999809E+01 0. -1.
</event>
<event>
 5   0  0.2097842E-06  0.3305104E+04  0.7818609E-02  0.8161598E-01
        1   -1    0    0  501    0  0.00000000000E+00  0.00000000000E+00  0.17339849461E+04  0.17339849461E+04  0.50400001928E-02 0. -1.
       -1   -1    0    0    0  501  0.00000000000E+00  0.00000000000E+00 -0.15749435349E+04  0.15749435349E+04  0.50400001928E-02 0.  1.
    10030    2    1    2    0    0  0.00000000000E+00  0.00000000000E+00  0.15904141123E+03  0.33089284811E+04  0.33051041621E+04 0.  0.
        4    1    3    3  502    0 -0.11581914920E+04 -0.11479616544E+04  0.34760521966E+03  0.16673495415E+04  0.12699999809E+01 0.  1.
       -4    1    3    3    0  502  0.11581914920E+04  0.11479616544E+04 -0.18856380843E+03  0.16415789395E+04  0.12699999809E+01 0. -1.
</event>
<event>
 5   0  0.2730981E-06  0.1911714E+04  0.7818609E-02  0.8649047E-01
        1   -1    0    0  501    0  0.00000000000E+00  0.00000000000E+00  0.58227543638E+03  0.58227543640E+03  0.50400001928E-02 0. -1.
       -1   -1    0    0    0  501  0.00000000000E+00  0.00000000000E+00 -0.15691248181E+04  0.15691248181E+04  0.50400001928E-02 0.  1.
    10030    2    1    2    0    0  0.00000000000E+00  0.00000000000E+00 -0.98684938171E+03  0.21514002545E+04  0.19117142446E+04 0.  0.
        3    1    3    3  502    0  0.14192869538E+03 -0.70998222368E+03 -0.11957218700E+04  0.13978445239E+04  0.10100000352E+00 0.  1.
       -3    1    3    3    0  502 -0.14192869538E+03  0.70998222368E+03  0.20887248828E+03  0.75355573057E+03  0.10100000352E+00 0. -1.
</event>
<event>
 5   0  0.5622811E-06  0.2437850E+04  0.7818609E-02  0.8425468E-01
        2   -1    0    0  501    0  0.00000000000E+00  0.00000000000E+00  0.11682463198E+04  0.11682463198E+04  0.25500000920E-02 0. -1.
       -2   -1    0    0    0  501  0.00000000000E+00  0.00000000000E+00 -0.12718018812E+04  0.12718018812E+04  0.25500000920E-02 0.  1.
    10030    2    1    2    0    0  0.00000000000E+00  0.00000000000E+00 -0.10355556137E+03  0.24400482010E+04  0.24378497634E+04 0.  0.
        1    1    3    3  502    0 -0.86954199065E+03  0.28231697184E+03 -0.85871305104E+03  0.12542704055E+04  0.50400001928E-02 0.  1.
       -1    1    3    3    0  502  0.86954199065E+03 -0.28231697184E+03  0.75515748968E+03  0.11857777955E+04  0.50400001928E-02 0. -1.
</event>
<event>
 5   0  0.1925906E-06  0.3229460E+04  0.7818609E-02  0.8181080E-01
       -1   -1    0    0    0  501  0.00000000000E+00  0.00000000000E+00  0.20335651243E+04  0.20335651243E+04  0.50400001928E-02 0. -1.
        1   -1    0    0  501    0  0.00000000000E+00  0.00000000000E+00 -0.12821584738E+04  0.12821584738E+04  0.50400001928E-02 0.  1.
    10030    2    1    2    0    0  0.00000000000E+00  0.00000000000E+00  0.75140665052E+03  0.33157235982E+04  0.32294598658E+04 0.  0.
        1    1    3    3  502    0  0.21393548854E+03 -0.15783452241E+04  0.10326524545E+03  0.15961220976E+04  0.50400001928E-02 0.  1.
       -1    1    3    3    0  502 -0.21393548854E+03  0.15783452241E+04  0.64814140507E+03  0.17196015005E+04  0.50400001928E-02 0. -1.
</event>
<event>
 5   0  0.5855568E-06  0.3462205E+04  0.7818609E-02  0.8122806E-01
        2   -1    0    0  501    0  0.00000000000E+00  0.00000000000E+00  0.25549331857E+04  0.25549331857E+04  0.25500000920E-02 0. -1.
       -2   -1    0    0    0  501  0.00000000000E+00  0.00000000000E+00 -0.11729135717E+04  0.11729135717E+04  0.25500000920E-02 0.  1.
    10030    2    1    2    0    0  0.00000000000E+00  0.00000000000E+00  0.13820196140E+04  0.37278467574E+04  0.34622049669E+04 0.  0.
        3    1    3    3  502    0 -0.56375050293E+03 -0.13189809010E+04  0.17344850113E+04  0.22507695376E+04  0.10100000352E+00 0. -1.
       -3    1    3    3    0  502  0.56375050293E+03  0.13189809010E+04 -0.35246539728E+03  0.14770772198E+04  0.10100000352E+00 0.  1.
</event>
<event>
 5   0  0.5855568E-06  0.1736045E+04  0.7818609E-02  0.8741069E-01
       -2   -1    0    0    0  501  0.00000000000E+00  0.00000000000E+00  0.12458520130E+04  0.12458520130E+04  0.25500000920E-02 0. -1.
        2   -1    0    0  501    0  0.00000000000E+00  0.00000000000E+00 -0.60477745247E+03  0.60477745248E+03  0.25500000920E-02 0.  1.
    10030    2    1    2    0    0  0.00000000000E+00  0.00000000000E+00  0.64107456048E+03  0.18506294654E+04  0.17360451683E+04 0.  0.
        3    1    3    3  502    0  0.13103276023E+03  0.48433614132E+03  0.10756047255E+04  0.11868768334E+04  0.10100000352E+00 0. -1.
       -3    1    3    3    0  502 -0.13103276023E+03 -0.48433614132E+03 -0.43453016498E+03  0.66375263202E+03  0.10100000352E+00 0.  1.
</event>
<event>
 5   0  0.5300268E-06  0.3275299E+04  0.7818609E-02  0.8169209E-01
       -2   -1    0    0    0  501  0.00000000000E+00  0.00000000000E+00  0.23011683188E+04  0.23011683188E+04  0.25500000920E-02 0. -1.
        2   -1    0    0  501    0  0.00000000000E+00  0.00000000000E+00 -0.11654496450E+04  0.11654496450E+04  0.25500000920E-02 0.  1.
    10030    2    1    2    0    0  0.00000000000E+00  0.00000000000E+00  0.11357186738E+04  0.34666179638E+04  0.32752989483E+04 0.  0.
        4    1    3    3  502    0 -0.10292421301E+04  0.10717877188E+04 -0.16069918155E+03  0.14946217302E+04  0.12699999809E+01 0. -1.
       -4    1    3    3    0  502  0.10292421301E+04 -0.10717877188E+04  0.12964178554E+04  0.19719962336E+04  0.12699999809E+01 0.  1.
</event>
<event>
 5   0  0.1999849E-06  0.2634453E+04  0.7818609E-02  0.8356591E-01
        1   -1    0    0  501    0  0.00000000000E+00  0.00000000000E+00  0.13662754449E+04  0.13662754449E+04  0.50400001928E-02 0.  1.
       -1   -1    0    0    0  501  0.00000000000E+00  0.00000000000E+00 -0.12699387964E+04  0.12699387964E+04  0.50400001928E-02 0. -1.
    10030    2    1    2    0    0  0.00000000000E+00  0.00000000000E+00  0.96336648492E+02  0.26362142412E+04  0.26344534112E+04 0.  0.
        5    1    3    3  502    0  0.92327264065E+03 -0.63169234795E+03  0.74404416534E+03  0.13435368999E+04  0.46999998093E+01 0.  1.
       -5    1    3    3    0  502 -0.92327264065E+03  0.63169234795E+03 -0.64770751685E+03  0.12926773413E+04  0.46999998093E+01 0. -1.
</event>
<event>
 5   0  0.5300268E-06  0.3158228E+04  0.7818609E-02  0.8199937E-01
       -2   -1    0    0    0  501  0.00000000000E+00  0.00000000000E+00  0.11255085684E+04  0.11255085684E+04  0.25500000920E-02 0.  1.
        2   -1    0    0  501    0  0.00000000000E+00  0.00000000000E+00 -0.22155322384E+04  0.22155322384E+04  0.25500000920E-02 0. -1.
    10030    2    1    2    0    0  0.00000000000E+00  0.00000000000E+00 -0.10900236699E+04  0.33410408068E+04  0.31582276789E+04 0.  0.
        4    1    3    3  502    0  0.65184532059E+03  0.12649259847E+04  0.17920188735E+03  0.14342437025E+04  0.12699999809E+01 0.  1.
       -4    1    3    3    0  502 -0.65184532059E+03 -0.12649259847E+04 -0.12692255573E+04  0.19067971043E+04  0.12699999809E+01 0. -1.
</event>
<event>
 5   0  0.1999849E-06  0.3335356E+04  0.7818609E-02  0.8153957E-01
        1   -1    0    0  501    0  0.00000000000E+00  0.00000000000E+00  0.12236770355E+04  0.12236770355E+04  0.50400001928E-02 0. -1.
       -1   -1    0    0    0  501  0.00000000000E+00  0.00000000000E+00 -0.22727814854E+04  0.22727814854E+04  0.50400001928E-02 0.  1.
    10030    2    1    2    0    0  0.00000000000E+00  0.00000000000E+00 -0.10491044499E+04  0.34964585209E+04  0.33353563590E+04 0.  0.
        5    1    3    3  502    0  0.50292607106E+03  0.74146320618E+03 -0.19990565644E+04  0.21906509436E+04  0.46999998093E+01 0.  1.
       -5    1    3    3    0  502 -0.50292607106E+03 -0.74146320618E+03  0.94995211450E+03  0.13058075773E+04  0.46999998093E+01 0. -1.
</event>
<event>
 5   0  0.5622811E-06  0.2366279E+04  0.7818609E-02  0.8452237E-01
       -2   -1    0    0    0  501  0.00000000000E+00  0.00000000000E+00  0.43090273616E+03  0.43090273617E+03  0.25500000920E-02 0.  1.
        2   -1    0    0  501    0  0.00000000000E+00  0.00000000000E+00 -0.32485732432E+04  0.32485732432E+04  0.25500000920E-02 0. -1.
    10030    2    1    2    0    0  0.00000000000E+00  0.00000000000E+00 -0.28176705070E+04  0.36794759794E+04  0.23662790192E+04 0.  0.
        1    1    3    3  502    0 -0.10697405677E+04  0.66554789623E+02 -0.62973108578E+03  0.12431153055E+04  0.50400001928E-02 0. -1.
       -1    1    3    3    0  502  0.10697405677E+04 -0.66554789623E+02 -0.21879394212E+04  0.24363606739E+04  0.50400001928E-02 0.  1.
</event>
<event>
 5   0  0.2037109E-06  0.3207183E+04  0.7818609E-02  0.8186923E-01
        1   -1    0    0  501    0  0.00000000000E+00  0.00000000000E+00  0.23969803424E+04  0.23969803424E+04  0.50400001928E-02 0.  1.
       -1   -1    0    0    0  501  0.00000000000E+00  0.00000000000E+00 -0.10728102687E+04  0.10728102687E+04  0.50400001928E-02 0. -1.
    10030    2    1    2    0    0  0.00000000000E+00  0.00000000000E+00  0.13241700737E+04  0.34697906111E+04  0.32071826422E+04 0.  0.
        2    1    3    3  502    0  0.81581638196E+02 -0.45284003034E+03  0.23240269322E+04  0.23691392611E+04  0.25500000920E-02 0.  1.
       -2    1    3    3    0  502 -0.81581638196E+02  0.45284003034E+03 -0.99985685849E+03  0.11006513500E+04  0.25500000920E-02 0. -1.
</event>
<event>
 5   0  0.5755250E-06  0.3279619E+04  0.7818609E-02  0.8168101E-01
        2   -1    0    0  501    0  0.00000000000E+00  0.00000000000E+00  0.13852637262E+04  0.13852637262E+04  0.25500000920E-02 0. -1.
       -2   -1    0    0    0  501  0.00000000000E+00  0.00000000000E+00 -0.19411292308E+04  0.19411292308E+04  0.25500000920E-02 0.  1.
    10030    2    1    2    0    0  0.00000000000E+00  0.00000000000E+00 -0.55586550459E+03  0.33263929571E+04  0.32796194361E+04 0.  0.
        5    1    3    3  502    0 -0.15262068440E+04  0.41738493704E+03 -0.71469740464E+03  0.17361831662E+04  0.46999998093E+01 0. -1.
       -5    1    3    3    0  502  0.15262068440E+04 -0.41738493704E+03  0.15883190005E+03  0.15902097909E+04  0.46999998093E+01 0.  1.
</event>
<event>
 5   0  0.2730981E-06  0.2012040E+04  0.7818609E-02  0.8601012E-01
        1   -1    0    0  501    0  0.00000000000E+00  0.00000000000E+00  0.10278986323E+04  0.10278986324E+04  0.50400001928E-02 0.  1.
       -1   -1    0    0    0  501  0.00000000000E+00  0.00000000000E+00 -0.98460737269E+03  0.98460737270E+03  0.50400001928E-02 0. -1.
    10030    2    1    2    0    0  0.00000000000E+00  0.00000000000E+00  0.43291259656E+02  0.20125060051E+04  0.20120403294E+04 0.  0.
        3    1    3    3  502    0 -0.84318438287E+03 -0.11854318592E+03 -0.51426207247E+03  0.99472502724E+03  0.10100000352E+00 0. -1.
       -3    1    3    3    0  502  0.84318438287E+03  0.11854318592E+03  0.55755333212E+03  0.10177809778E+04  0.10100000352E+00 0.  1.
</event>
<event>
 5   0  0.2730981E-06  0.2875664E+04  0.7818609E-02  0.8280155E-01
       -1   -1    0    0    0  501  0.00000000000E+00  0.00000000000E+00  0.13830586244E+04  0.13830586244E+04  0.50400001928E-02 0.  1.
        1   -1    0    0  501    0  0.00000000000E+00  0.00000000000E+00 -0.14947747476E+04  0.14947747476E+04  0.50400001928E-02 0. -1.
    10030    2    1    2    0    0  0.00000000000E+00  0.00000000000E+00 -0.11171612319E+03  0.28778333720E+04  0.28756641711E+04 0.  0.
        3    1    3    3  502    0  0.38881075489E+03 -0.29946115741E+03 -0.14083620106E+04  0.14914202462E+04  0.10100000352E+00 0. -1.
       -3    1    3    3    0  502 -0.38881075489E+03  0.29946115741E+03  0.12966458874E+04  0.13864131258E+04  0.10100000352E+00 0.  1.
</event>
<event>
 5   0  0.1878000E-06  0.2146273E+04  0.7818609E-02  0.8541129E-01
       -3   -1    0    0    0  501  0.00000000000E+00  0.00000000000E+00  0.10902425763E+04  0.10902425810E+04  0.10100000352E+00 0. -1.
        3   -1    0    0  501    0  0.00000000000E+00  0.00000000000E+00 -0.10562990504E+04  0.10562990552E+04  0.10100000352E+00 0.  1.
    10030    2    1    2    0    0  0.00000000000E+00  0.00000000000E+00  0.33943525961E+02  0.21465416362E+04  0.21462732428E+04 0.  0.
        5    1    3    3  502    0 -0.43578681819E+02  0.23191517625E+02 -0.10551525749E+04  0.10563171845E+04  0.46999998093E+01 0.  1.
       -5    1    3    3    0  502  0.43578681819E+02 -0.23191517625E+02  0.10890961009E+04  0.10902244516E+04  0.46999998093E+01 0. -1.
</event>
<event>
 5   0  0.1925906E-06  0.3328029E+04  0.7818609E-02  0.8155800E-01
        1   -1    0    0  501    0  0.00000000000E+00  0.00000000000E+00  0.10344480933E+04  0.10344480933E+04  0.50400001928E-02 0. -1.
       -1   -1    0    0    0  501  0.00000000000E+00  0.00000000000E+00 -0.26767362116E+04  0.26767362116E+04  0.50400001928E-02 0.  1.
    10030    2    1    2    0    0  0.00000000000E+00  0.00000000000E+00 -0.16422881183E+04  0.37111843050E+04  0.33280292490E+04 0.  0.
        1    1    3    3  502    0 -0.45619862542E+03 -0.14935446515E+04 -0.14618846858E+04  0.21391352567E+04  0.50400001928E-02 0.  1.
       -1    1    3    3    0  502  0.45619862542E+03  0.14935446515E+04 -0.18040343249E+03  0.15720490483E+04  0.50400001928E-02 0. -1.
</event>
<event>
 5   0  0.2037109E-06  0.3276757E+04  0.7818609E-02  0.8168835E-01
        1   -1    0    0  501    0  0.00000000000E+00  0.00000000000E+00  0.23445602785E+04  0.23445602786E+04  0.50400001928E-02 0. -1.
       -1   -1    0    0    0  501  0.00000000000E+00  0.00000000000E+00 -0.11448990074E+04  0.11448990074E+04  0.50400001928E-02 0.  1.
    10030    2    1    2    0    0  0.00000000000E+00  0.00000000000E+00  0.11996612711E+04  0.34894592860E+04  0.32767573824E+04 0.  0.
        2    1    3    3  502    0  0.45198835150E+03  0.78579436594E+03  0.20531603202E+04  0.22443782114E+04  0.25500000920E-02 0. -1.
       -2    1    3    3    0  502 -0.45198835150E+03 -0.78579436594E+03 -0.85349904907E+03  0.12450810746E+04  0.25500000920E-02 0.  1.
</event>
<event>
 5   0  0.1999849E-06  0.2073322E+04  0.7818609E-02  0.8573087E-01
        1   -1    0    0  501    0  0.00000000000E+00  0.00000000000E+00  0.16689499296E+04  0.16689499296E+04  0.50400001928E-02 0. -1.
       -1   -1    0    0    0  501  0.00000000000E+00  0.00000000000E+00 -0.64391776662E+03  0.64391776664E+03  0.50400001928E-02 0.  1.
    10030    2    1    2    0    0  0.00000000000E+00  0.00000000000E+00  0.10250321629E+04  0.23128676962E+04  0.20733224653E+04 0.  0.
        5    1    3    3  502    0  0.31515022835E+02  0.53161343804E+02  0.16668812323E+04  0.16680331105E+04  0.46999998093E+01 0. -1.
       -5    1    3    3    0  502 -0.31515022835E+02 -0.53161343804E+02 -0.64184906934E+03  0.64483458573E+03  0.46999998093E+01 0.  1.
</event>
<event>
 5   0  0.5755250E-06  0.3219555E+04  0.7818609E-02  0.8183672E-01
        2   -1    0    0  501    0  0.00000000000E+00  0.00000000000E+00  0.19417080753E+04  0.19417080753E+04  0.25500000920E-02 0. -1.
       -2   -1    0    0    0  501  0.00000000000E+00  0.00000000000E+00 -0.13345900665E+04  0.13345900665E+04  0.25500000920E-02 0.  1.
    10030    2    1    2    0    0  0.00000000000E+00  0.00000000000E+00  0.60711800878E+03  0.32762981418E+04  0.32195554410E+04 0.  0.
        5    1    3    3  502    0 -0.99295541000E+03 -0.12176352640E+04  0.66011422734E+03  0.17042209263E+04  0.46999998093E+01 0. -1.
       -5    1    3    3    0  502  0.99295541000E+03  0.12176352640E+04 -0.52996218557E+02  0.15720772156E+04  0.46999998093E+01 0.  1.
</event>
<event>
 5   0  0.1878000E-06  0.2940912E+04  0.7818609E-02  0.8260808E-01
        3   -1    0    0  501    0  0.00000000000E+00  0.00000000000E+00  0.15684885115E+04  0.15684885147E+04  0.10100000352E+00 0.  1.
       -3   -1    0    0    0  501  0.00000000000E+00  0.00000000000E+00 -0.13785511027E+04  0.13785511064E+04  0.10100000352E+00 0. -1.
    10030    2    1    2    0    0  0.00000000000E+00  0.00000000000E+00  0.18993740881E+03  0.29470396211E+04  0.29409124960E+04 0.  0.
        2    1    3    3  502    0 -0.95817700233E+03  0.48784670728E+03  0.11001258001E+04  0.15383024259E+04  0.25500000920E-02 0.  1.
       -2    1    3    3    0  502  0.95817700233E+03 -0.48784670728E+03 -0.91018839126E+03  0.14087371952E+04  0.25500000920E-02 0. -1.
</event>
<event>
 5   0  0.5622811E-06  0.3291324E+04  0.7818609E-02  0.8165106E-01
        2   -1    0    0  501    0  0.00000000000E+00  0.00000000000E+00  0.10340315029E+04  0.10340315029E+04  0.25500000920E-02 0.  1.
       -2   -1    0    0    0  501  0.00000000000E+00  0.00000000000E+00 -0.26190730091E+04  0.26190730091E+04  0.25500000920E-02 0. -1.
    10030    2    1    2    0    0  0.00000000000E+00  0.00000000000E+00 -0.15850415063E+04  0.36531045120E+04  0.32913243533E+04 0.  0.
        1    1    3    3  502    0 -0.22842786165E+03 -0.43258168597E+03 -0.25365066555E+04  0.25832483846E+04  0.50400001928E-02 0. -1.
       -1    1    3    3    0  502  0.22842786165E+03  0.43258168597E+03  0.95146514925E+03  0.10698561274E+04  0.50400001928E-02 0.  1.
</event>
<event>
 5   0  0.1925906E-06  0.3148467E+04  0.7818609E-02  0.8202561E-01
       -1   -1    0    0    0  501  0.00000000000E+00  0.00000000000E+00  0.17182629979E+04  0.17182629979E+04  0.50400001928E-02 0. -1.
        1   -1    0    0  501    0  0.00000000000E+00  0.00000000000E+00 -0.14422772625E+04  0.14422772625E+04  0.50400001928E-02 0.  1.
    10030    2    1    2    0    0  0.00000000000E+00  0.00000000000E+00  0.27598573544E+03  0.31605402604E+04  0.31484673433E+04 0.  0.
        1    1    3    3  502    0  0.27244199695E+03 -0.91543301924E+03  0.13941783484E+04  0.16899631716E+04  0.50400001928E-02 0. -1.
       -1    1    3    3    0  502 -0.27244199695E+03  0.91543301924E+03 -0.11181926129E+04  0.14705770888E+04  0.50400001928E-02 0.  1.
</event>
<event>
 5   0  0.5300268E-06  0.2153223E+04  0.7818609E-02  0.8538154E-01
        2   -1    0    0  501    0  0.00000000000E+00  0.00000000000E+00  0.22653484363E+04  0.22653484363E+04  0.25500000920E-02 0.  1.
       -2   -1    0    0    0  501  0.00000000000E+00  0.00000000000E+00 -0.51166191092E+03  0.51166191093E+03  0.25500000920E-02 0. -1.
    10030    2    1    2    0    0  0.00000000000E+00  0.00000000000E+00  0.17536865254E+04  0.27770103472E+04  0.21532231745E+04 0.  0.
        4    1    3    3  502    0  0.16247418446E+03  0.30456880763E+03  0.21920398986E+04  0.22190539762E+04  0.12699999809E+01 0.  1.
       -4    1    3    3    0  502 -0.16247418446E+03 -0.30456880763E+03 -0.43835337327E+03  0.55795637102E+03  0.12699999809E+01 0. -1.
</event>
<event>
 5   0  0.5855568E-06  0.3278043E+04  0.7818609E-02  0.8168505E-01
       -2   -1    0    0    0  501  0.00000000000E+00  0.00000000000E+00  0.21495479875E+04  0.21495479876E+04  0.25500000920E-02 0. -1.
        2   -1    0    0  501    0  0.00000000000E+00  0.00000000000E+00 -0.12497470108E+04  0.12497470108E+04  0.25500000920E-02 0.  1.
    10030    2    1    2    0    0  0.00000000000E+00  0.00000000000E+00  0.89980097676E+03  0.33992949983E+04  0.32780428136E+04 0.  0.
        3    1    3    3  502    0  0.76770625476E+03 -0.13429213868E+04  0.10117729865E+04  0.18483764041E+04  0.10100000352E+00 0. -1.
       -3    1    3    3    0  502 -0.76770625476E+03  0.13429213868E+04 -0.11197200974E+03  0.15509185942E+04  0.10100000352E+00 0.  1.
</event>
<event>
 5   0  0.2730981E-06  0.1687583E+04  0.7818609E-02  0.8768478E-01
        1   -1    0    0  501    0  0.00000000000E+00  0.00000000000E+00  0.20130411046E+04  0.20130411046E+04  0.50400001928E-02 0. -1.
       -1   -1    0    0    0  501  0.00000000000E+00  0.00000000000E+00 -0.35368596415E+03  0.35368596419E+03  0.50400001928E-02 0.  1.
    10030    2    1    2    0    0  0.00000000000E+00  0.00000000000E+00  0.16593551404E+04  0.23667270688E+04  0.16875833419E+04 0.  0.
        3    1    3    3  502    0  0.10075988866E+03 -0.68910115242E+03  0.14978192057E+04  0.16518097156E+04  0.10100000352E+00 0. -1.
       -3    1    3    3    0  502 -0.10075988866E+03  0.68910115242E+03  0.16153593471E+03  0.71491735314E+03  0.10100000352E+00 0.  1.
</event>
<event>
 5   0  0.1999849E-06  0.3262631E+04  0.7818609E-02  0.8172469E-01
       -1   -1    0    0    0  501  0.00000000000E+00  0.00000000000E+00  0.14363196807E+04  0.14363196807E+04  0.50400001928E-02 0. -1.
        1   -1    0    0  501    0  0.00000000000E+00  0.00000000000E+00 -0.18527846103E+04  0.18527846103E+04  0.50400001928E-02 0.  1.
    10030    2    1    2    0    0  0.00000000000E+00  0.00000000000E+00 -0.41646492965E+03  0.32891042910E+04  0.32626314532E+04 0.  0.
        5    1    3    3  502    0  0.10210430638E+04 -0.10634800906E+04  0.49575312664E+03  0.15554138015E+04  0.46999998093E+01 0.  1.
       -5    1    3    3    0  502 -0.10210430638E+04  0.10634800906E+04 -0.91221805629E+03  0.17336904895E+04  0.46999998093E+01 0. -1.
</event>
<event>
 5   0  0.2097842E-06  0.3200980E+04  0.7818609E-02  0.8188558E-01
        1   -1    0    0  501    0  0.00000000000E+00  0.00000000000E+00  0.10482312507E+04  0.10482312507E+04  0.50400001928E-02 0.  1.
       -1   -1    0    0    0  501  0.00000000000E+00  0.00000000000E+00 -0.24437052251E+04  0.24437052251E+04  0.50400001928E-02 0. -1.
    10030    2    1    2    0    0  0.00000000000E+00  0.00000000000E+00 -0.13954739744E+04  0.34919364759E+04  0.32009799653E+04 0.  0.
        4    1    3    3  502    0  0.14743232484E+04  0.45695069332E+03 -0.23602420372E+03  0.15614550953E+04  0.12699999809E+01 0.  1.
       -4    1    3    3    0  502 -0.14743232484E+04 -0.45695069332E+03 -0.11594497707E+04  0.19304813806E+04  0.12699999809E+01 0. -1.
</event>
<event>
 5   0  0.5855568E-06  0.3412663E+04  0.7818609E-02  0.8134805E-01
       -2   -1    0    0    0  501  0.00000000000E+00  0.00000000000E+00  0.17840037444E+04  0.17840037444E+04  0.25500000920E-02 0.  1.
        2   -1    0    0  501    0  0.00000000000E+00  0.00000000000E+00 -0.16320409952E+04  0.16320409953E+04  0.25500000920E-02 0. -1.
    10030    2    1    2    0    0  0.00000000000E+00  0.00000000000E+00  0.15196274919E+03  0.34160447397E+04  0.34126630344E+04 0.  0.
        3    1    3    3  502    0  0.97506401466E+03  0.58002608956E+03 -0.11997960501E+04  0.16512694115E+04  0.10100000352E+00 0. -1.
       -3    1    3    3    0  502 -0.97506401466E+03 -0.58002608956E+03  0.13517587993E+04  0.17647753282E+04  0.10100000352E+00 0.  1.
</event>
<event>
 5   0  0.5637538E-06  0.1831017E+04  0.7818609E-02  0.8689977E-01
        2   -1    0    0  501    0  0.00000000000E+00  0.00000000000E+00  0.20245158336E+04  0.20245158336E+04  0.25500000920E-02 0.  1.
       -2   -1    0    0    0  501  0.00000000000E+00  0.00000000000E+00 -0.41400304475E+03  0.41400304476E+03  0.25500000920E-02 0. -1.
    10030    2    1    2    0    0  0.00000000000E+00  0.00000000000E+00  0.16105127888E+04  0.24385188783E+04  0.18310168970E+04 0.  0.
        2    1    3    3  502    0 -0.53520977625E+03  0.74171792250E+02  0.17895201892E+04  0.18693136353E+04  0.25500000920E-02 0.  1.
       -2    1    3    3    0  502  0.53520977625E+03 -0.74171792250E+02 -0.17900740038E+03  0.56920524309E+03  0.25500000920E-02 0. -1.
</event>
<event>
 5   0  0.5855568E-06  0.2823809E+04  0.7818609E-02  0.8295915E-01
        2   -1    0    0  501    0  0.00000000000E+00  0.00000000000E+00  0.89798672687E+03  0.89798672687E+03  0.25500000920E-02 0.  1.
       -2   -1    0    0    0  501  0.00000000000E+00  0.00000000000E+00 -0.22199372368E+04  0.22199372368E+04  0.25500000920E-02 0. -1.
    10030    2    1    2    0    0  0.00000000000E+00  0.00000000000E+00 -0.13219505099E+04  0.31179239637E+04  0.28238088980E+04 0.  0.
        3    1    3    3  502    0  0.29327996896E+03  0.93669525880E+03 -0.17816049190E+04  0.20340912579E+04  0.10100000352E+00 0. -1.
       -3    1    3    3    0  502 -0.29327996896E+03 -0.93669525880E+03  0.45965440905E+03  0.10838327057E+04  0.10100000352E+00 0.  1.
</event>
<event>
 5   0  0.5637538E-06  0.3333324E+04  0.7818609E-02  0.8154467E-01
       -2   -1    0    0    0  501  0.00000000000E+00  0.00000000000E+00  0.12972163717E+04  0.12972163717E+04  0.25500000920E-02 0. -1.
        2   -1    0    0  501    0  0.00000000000E+00  0.00000000000E+00 -0.21413256509E+04  0.21413256509E+04  0.25500000920E-02 0.  1.
    10030    2    1    2    0    0  0.00000000000E+00  0.00000000000E+00 -0.84410927927E+03  0.34385420226E+04  0.33333242815E+04 0.  0.
        2    1    3    3  502    0  0.15732022234E+02 -0.85087687864E+03  0.10561910913E+04  0.13563843778E+04  0.25500000920E-02 0. -1.
       -2    1    3    3    0  502 -0.15732022234E+02  0.85087687864E+03 -0.19003003706E+04  0.20821576447E+04  0.25500000920E-02 0.  1.
</event>
<event>
 5   0  0.5855568E-06  0.3313555E+04  0.7818609E-02  0.8159455E-01
        2   -1    0    0  501    0  0.00000000000E+00  0.00000000000E+00  0.30860631986E+04  0.30860631986E+04  0.25500000920E-02 0. -1.
       -2   -1    0    0    0  501  0.00000000000E+00  0.00000000000E+00 -0.88945423700E+03  0.88945423700E+03  0.25500000920E-02 0.  1.
    10030    2    1    2    0    0  0.00000000000E+00  0.00000000000E+00  0.21966089616E+04  0.39755174356E+04  0.33135551830E+04 0.  0.
        3    1    3    3  502    0 -0.61549530760E+03 -0.13766364939E+04  0.27495046141E+03  0.15328275430E+04  0.10100000352E+00 0. -1.
       -3    1    3    3    0  502  0.61549530760E+03  0.13766364939E+04  0.19216585002E+04  0.24426898926E+04  0.10100000352E+00 0.  1.
</event>
<event>
 5   0  0.5755250E-06  0.3150953E+04  0.7818609E-02  0.8201892E-01
       -2   -1    0    0    0  501  0.00000000000E+00  0.00000000000E+00  0.14541734000E+04  0.14541734000E+04  0.25500000920E-02 0.  1.
        2   -1    0    0  501    0  0.00000000000E+00  0.00000000000E+00 -0.17068986765E+04  0.17068986765E+04  0.25500000920E-02 0. -1.
    10030    2    1    2    0    0  0.00000000000E+00  0.00000000000E+00 -0.25272527652E+03  0.31610720766E+04  0.31509532856E+04 0.  0.
        5    1    3    3  502    0 -0.63790727964E+03 -0.14360590192E+04 -0.12360754658E+02  0.15714216755E+04  0.46999998093E+01 0.  1.
       -5    1    3    3    0  502  0.63790727964E+03  0.14360590192E+04 -0.24036452186E+03  0.15896504010E+04  0.46999998093E+01 0. -1.
</event>
<event>
 5   0  0.5300268E-06  0.3319383E+04  0.7818609E-02  0.8157981E-01
       -2   -1    0    0    0  501  0.00000000000E+00  0.00000000000E+00  0.96530892801E+03  0.96530892801E+03  0.25500000920E-02 0. -1.
        2   -1    0    0  501    0  0.00000000000E+00  0.00000000000E+00 -0.28535685262E+04  0.28535685262E+04  0.25500000920E-02 0.  1.
    10030    2    1    2    0    0  0.00000000000E+00  0.00000000000E+00 -0.18882595982E+04  0.38188774542E+04  0.33193825782E+04 0.  0.
        4    1    3    3  502    0  0.97626103707E+03 -0.88309517086E+03  0.21872480158E+03  0.13344605071E+04  0.12699999809E+01 0. -1.
       -4    1    3    3    0  502 -0.97626103707E+03  0.88309517086E+03 -0.21069843998E+04  0.24844169471E+04  0.12699999809E+01 0.  1.
</event>
<event>
 5   0  0.5300268E-06  0.3204450E+04  0.7818609E-02  0.8187643E-01
        2   -1    0    0  501    0  0.00000000000E+00  0.00000000000E+00  0.19923204454E+04  0.19923204454E+04  0.25500000920E-02 0. -1.
       -2   -1    0    0    0  501  0.00000000000E+00  0.00000000000E+00 -0.12885099772E+04  0.12885099772E+04  0.25500000920E-02 0.  1.
    10030    2    1    2    0    0  0.00000000000E+00  0.00000000000E+00  0.70381046819E+03  0.32808304226E+04  0.32044498884E+04 0.  0.
        4    1    3    3  502    0  0.74517683931E+03 -0.58911790863E+03  0.16729211073E+04  0.19238022446E+04  0.12699999809E+01 0. -1.
       -4    1    3    3    0  502 -0.74517683931E+03  0.58911790863E+03 -0.96911063915E+03  0.13570281780E+04  0.12699999809E+01 0.  1.
</event>
<event>
 5   0  0.1925906E-06  0.3216359E+04  0.7818609E-02  0.8184510E-01
       -1   -1    0    0    0  501  0.00000000000E+00  0.00000000000E+00  0.14639966886E+04  0.14639966886E+04  0.50400001928E-02 0.  1.
        1   -1    0    0  501    0  0.00000000000E+00  0.00000000000E+00 -0.17665621428E+04  0.17665621428E+04  0.50400001928E-02 0. -1.
    10030    2    1    2    0    0  0.00000000000E+00  0.00000000000E+00 -0.30256545424E+03  0.32305588314E+04  0.32163588900E+04 0.  0.
        1    1    3    3  502    0 -0.58308677022E+03  0.62069706284E+03  0.12189196502E+04  0.14869499451E+04  0.50400001928E-02 0.  1.
       -1    1    3    3    0  502  0.58308677022E+03 -0.62069706284E+03 -0.15214851045E+04  0.17436088863E+04  0.50400001928E-02 0. -1.
</event>
<event>
 5   0  0.5637538E-06  0.3326503E+04  0.7818609E-02  0.8156184E-01
        2   -1    0    0  501    0  0.00000000000E+00  0.00000000000E+00  0.19372542564E+04  0.19372542564E+04  0.25500000920E-02 0. -1.
       -2   -1    0    0    0  501  0.00000000000E+00  0.00000000000E+00 -0.14280033765E+04  0.14280033765E+04  0.25500000920E-02 0.  1.
    10030    2    1    2    0    0  0.00000000000E+00  0.00000000000E+00  0.50925087989E+03  0.33652576329E+04  0.33265030403E+04 0.  0.
        2    1    3    3  502    0 -0.14050159840E+04 -0.75251620155E+03  0.73561707060E+03  0.17554153422E+04  0.25500000920E-02 0.  1.
       -2    1    3    3    0  502  0.14050159840E+04  0.75251620155E+03 -0.22636619071E+03  0.16098422908E+04  0.25500000920E-02 0. -1.
</event>
<event>
 5   0  0.1999849E-06  0.2486701E+04  0.7818609E-02  0.8407739E-01
        1   -1    0    0  501    0  0.00000000000E+00  0.00000000000E+00  0.11650045471E+04  0.11650045471E+04  0.50400001928E-02 0. -1.
       -1   -1    0    0    0  501  0.00000000000E+00  0.00000000000E+00 -0.13269652477E+04  0.13269652477E+04  0.50400001928E-02 0.  1.
    10030    2    1    2    0    0  0.00000000000E+00  0.00000000000E+00 -0.16196070068E+03  0.24919697948E+04  0.24867010656E+04 0.  0.
        5    1    3    3  502    0  0.66094101912E+03 -0.16153127710E+03  0.96187966810E+03  0.11782062511E+04  0.46999998093E+01 0. -1.
       -5    1    3    3    0  502 -0.66094101912E+03  0.16153127710E+03 -0.11238403688E+04  0.13137635437E+04  0.46999998093E+01 0.  1.
</event>
<event>
 5   0  0.2097842E-06  0.1710368E+04  0.7818609E-02  0.8755473E-01
        1   -1    0    0  501    0  0.00000000000E+00  0.00000000000E+00  0.12428742241E+04  0.12428742242E+04  0.50400001928E-02 0. -1.
       -1   -1    0    0    0  501  0.00000000000E+00  0.00000000000E+00 -0.58842635539E+03  0.58842635541E+03  0.50400001928E-02 0.  1.
    10030    2    1    2    0    0  0.00000000000E+00  0.00000000000E+00  0.65444786876E+03  0.18313005796E+04  0.17103683228E+04 0.  0.
        4    1    3    3  502    0 -0.61528822948E+03 -0.29864451520E+03 -0.22246643637E+03  0.71920864845E+03  0.12699999809E+01 0.  1.
       -4    1    3    3    0  502  0.61528822948E+03  0.29864451520E+03  0.87691430513E+03  0.11120919311E+04  0.12699999809E+01 0. -1.
</event>
<event>
 5   0  0.1999849E-06  0.1793580E+04  0.7818609E-02  0.8709721E-01
       -1   -1    0    0    0  501  0.00000000000E+00  0.00000000000E+00  0.30093157504E+03  0.30093157508E+03  0.50400001928E-02 0.  1.
        1   -1    0    0  501    0  0.00000000000E+00  0.00000000000E+00 -0.26724751055E+04  0.26724751055E+04  0.50400001928E-02 0. -1.
    10030    2    1    2    0    0  0.00000000000E+00  0.00000000000E+00 -0.23715435305E+04  0.29734066806E+04  0.17935798202E+04 0.  0.
        5    1    3    3  502    0 -0.62519804668E+02 -0.56515373979E+03 -0.23354125333E+04  0.24036391714E+04  0.46999998093E+01 0. -1.
       -5    1    3    3    0  502  0.62519804668E+02  0.56515373979E+03 -0.36130997158E+02  0.56976750919E+03  0.46999998093E+01 0.  1.
</event>
<event>
 5   0  0.5622811E-06  0.3295620E+04  0.7818609E-02  0.8164011E-01
       -2   -1    0    0    0  501  0.00000000000E+00  0.00000000000E+00  0.12753863161E+04  0.12753863161E+04  0.25500000920E-02 0.  1.
        2   -1    0    0  501    0  0.00000000000E+00  0.00000000000E+00 -0.21289843496E+04  0.21289843496E+04  0.25500000920E-02 0. -1.
    10030    2    1    2    0    0  0.00000000000E+00  0.00000000000E+00 -0.85359803348E+03  0.34043706658E+04  0.32956198244E+04 0.  0.
        1    1    3    3  502    0  0.39080960296E+03 -0.15627973999E+04 -0.78495267819E+03  0.17919873231E+04  0.50400001928E-02 0. -1.
       -1    1    3    3    0  502 -0.39080960296E+03  0.15627973999E+04 -0.68645355290E+02  0.16123833427E+04  0.50400001928E-02 0.  1.
</event>
<event>
 5   0  0.5855568E-06  0.3190831E+04  0.7818609E-02  0.8191243E-01
       -2   -1    0    0    0  501  0.00000000000E+00  0.00000000000E+00  0.84582146511E+03  0.84582146511E+03  0.25500000920E-02 0.  1.
        2   -1    0    0  501    0  0.00000000000E+00  0.00000000000E+00 -0.30093236179E+04  0.30093236179E+04  0.25500000920E-02 0. -1.
    10030    2    1    2    0    0  0.00000000000E+00  0.00000000000E+00 -0.21635021528E+04  0.38551450830E+04  0.31908309335E+04 0.  0.
        3    1    3    3  502    0 -0.16398314499E+03 -0.36009861931E+03 -0.29491015220E+04  0.29755270600E+04  0.10100000352E+00 0. -1.
       -3    1    3    3    0  502  0.16398314499E+03  0.36009861931E+03  0.78559936916E+03  0.87961802306E+03  0.10100000352E+00 0.  1.
</event>
<event>
 5   0  0.5755250E-06  0.3070160E+04  0.7818609E-02  0.8223975E-01
       -2   -1    0    0    0  501  0.00000000000E+00  0.00000000000E+00  0.11995615037E+04  0.11995615037E+04  0.25500000920E-02 0.  1.
        2   -1    0    0  501    0  0.00000000000E+00  0.00000000000E+00 -0.19644436517E+04  0.19644436517E+04  0.25500000920E-02 0. -1.
    10030    2    1    2    0    0  0.00000000000E+00  0.00000000000E+00 -0.76488214796E+03  0.31640051554E+04  0.30701602439E+04 0.  0.
        5    1    3    3  502    0 -0.42614771202E+02  0.92832648542E+03  0.87672547876E+03  0.12776054702E+04  0.46999998093E+01 0.  1.
       -5    1    3    3    0  502  0.42614771202E+02 -0.92832648542E+03 -0.16416076267E+04  0.18863996852E+04  0.46999998093E+01 0. -1.
</event>
<event>
 5   0  0.1999849E-06  0.2358603E+04  0.7818609E-02  0.8455167E-01
       -1   -1    0    0    0  501  0.00000000000E+00  0.00000000000E+00  0.11787185375E+04  0.11787185375E+04  0.50400001928E-02 0. -1.
        1   -1    0    0  501    0  0.00000000000E+00  0.00000000000E+00 -0.11798844668E+04  0.11798844668E+04  0.50400001928E-02 0.  1.
    10030    2    1    2    0    0  0.00000000000E+00  0.00000000000E+00 -0.11659293071E+01  0.23586030044E+04  0.23586027162E+04 0.  0.
        5    1    3    3  502    0  0.54066224711E+03 -0.10463979727E+04  0.58283165587E+02  0.11792724029E+04  0.46999998093E+01 0. -1.
       -5    1    3    3    0  502 -0.54066224711E+03  0.10463979727E+04 -0.59449094894E+02  0.11793306015E+04  0.46999998093E+01 0.  1.
</event>
<event>
 5   0  0.5855568E-06  0.3358543E+04  0.7818609E-02  0.8148157E-01
       -2   -1    0    0    0  501  0.00000000000E+00  0.00000000000E+00  0.28889930565E+04  0.28889930565E+04  0.25500000920E-02 0.  1.
        2   -1    0    0  501    0  0.00000000000E+00  0.00000000000E+00 -0.97610231398E+03  0.97610231398E+03  0.25500000920E-02 0. -1.
    10030    2    1    2    0    0  0.00000000000E+00  0.00000000000E+00  0.19128907425E+04  0.38650953705E+04  0.33585430219E+04 0.  0.
        3    1    3    3  502    0 -0.60758868348E+03 -0.53659245441E+03 -0.73603341823E+03  0.10949158294E+04  0.10100000352E+00 0. -1.
       -3    1    3    3    0  502  0.60758868348E+03  0.53659245441E+03  0.26489241607E+04  0.27701795411E+04  0.10100000352E+00 0.  1.
</event>
<event>
 5   0  0.5300268E-06  0.3271311E+04  0.7818609E-02  0.8170234E-01
        2   -1    0    0  501    0  0.00000000000E+00  0.00000000000E+00  0.15706675658E+04  0.15706675658E+04  0.25500000920E-02 0.  1.
       -2   -1    0    0    0  501  0.00000000000E+00  0.00000000000E+00 -0.17033322285E+04  0.17033322285E+04  0.25500000920E-02 0. -1.
    10030    2    1    2    0    0  0.00000000000E+00  0.00000000000E+00 -0.13266466266E+03  0.32739997943E+04  0.32713108597E+04 0.  0.
        4    1    3    3  502    0 -0.77608673420E+03 -0.38252849013E+03 -0.14555397144E+04  0.16932915100E+04  0.12699999809E+01 0. -1.
       -4    1    3    3    0  502  0.77608673420E+03  0.38252849013E+03  0.13228750517E+04  0.15807082843E+04  0.12699999809E+01 0.  1.
</event>
<event>
 5   0  0.5755250E-06  0.3353080E+04  0.7818609E-02  0.8149519E-01
        2   -1    0    0  501    0  0.00000000000E+00  0.00000000000E+00  0.14900642772E+04  0.14900642772E+04  0.25500000920E-02 0. -1.
       -2   -1    0    0    0  501  0.00000000000E+00  0.00000000000E+00 -0.18863520528E+04  0.18863520528E+04  0.25500000920E-02 0.  1.
    10030    2    1    2    0    0  0.00000000000E+00  0.00000000000E+00 -0.39628777561E+03  0.33764163300E+04  0.33530796639E+04 0.  0.
        5    1    3    3  502    0 -0.12739361128E+04  0.76542535020E+03 -0.97941394373E+03  0.17799053203E+04  0.46999998093E+01 0.  1.
       -5    1    3    3    0  502  0.12739361128E+04 -0.76542535020E+03  0.58312616812E+03  0.15965110097E+04  0.46999998093E+01 0. -1.
</event>
<event>
 5   0  0.1999849E-06  0.2895939E+04  0.7818609E-02  0.8274087E-01
       -1   -1    0    0    0  501  0.00000000000E+00  0.00000000000E+00  0.12733032361E+04  0.12733032362E+04  0.50400001928E-02 0. -1.
        1   -1    0    0  501    0  0.00000000000E+00  0.00000000000E+00 -0.16465960565E+04  0.16465960565E+04  0.50400001928E-02 0.  1.
    10030    2    1    2    0    0  0.00000000000E+00  0.00000000000E+00 -0.37329282035E+03  0.29198992927E+04  0.28959392862E+04 0.  0.
        5    1    3    3  502    0  0.12873978858E+04 -0.43849256037E+01  0.48154427348E+03  0.13745251985E+04  0.46999998093E+01 0.  1.
       -5    1    3    3    0  502 -0.12873978858E+04  0.43849256037E+01 -0.85483709384E+03  0.15453740942E+04  0.46999998093E+01 0. -1.
</event>
<event>
 5   0  0.5855568E-06  0.2739977E+04  0.7818609E-02  0.8322149E-01
       -2   -1    0    0    0  501  0.00000000000E+00  0.00000000000E+00  0.10458441826E+04  0.10458441826E+04  0.25500000920E-02 0. -1.
        2   -1    0    0  501    0  0.00000000000E+00  0.00000000000E+00 -0.17945964499E+04  0.17945964499E+04  0.25500000920E-02 0.  1.
    10030    2    1    2    0    0  0.00000000000E+00  0.00000000000E+00 -0.74875226727E+03  0.28404406324E+04  0.27399768300E+04 0.  0.
        3    1    3    3  502    0 -0.80912372721E+03 -0.97706263734E+03  0.16182737554E+03  0.12788747839E+04  0.10100000352E+00 0. -1.
       -3    1    3    3    0  502  0.80912372721E+03  0.97706263734E+03 -0.91057964281E+03  0.15615658485E+04  0.10100000352E+00 0.  1.
</event>
<event>
 5   0  0.5622811E-06  0.1826450E+04  0.7818609E-02  0.8692359E-01
       -2   -1    0    0    0  501  0.00000000000E+00  0.00000000000E+00  0.12236622164E+04  0.12236622164E+04  0.25500000920E-02 0. -1.
        2   -1    0    0  501    0  0.00000000000E+00  0.00000000000E+00 -0.68154407282E+03  0.68154407282E+03  0.25500000920E-02 0.  1.
    10030    2    1    2    0    0  0.00000000000E+00  0.00000000000E+00  0.54211814362E+03  0.19052062893E+04  0.18264498140E+04 0.  0.
        1    1    3    3  502    0 -0.19787607020E+02 -0.10947190308E+03 -0.67444968991E+03  0.68356274855E+03  0.50400001928E-02 0.  1.
       -1    1    3    3    0  502  0.19787607020E+02  0.10947190308E+03  0.12165678335E+04  0.12216435407E+04  0.50400001928E-02 0. -1.
</event>
<event>
 5   0  0.5300268E-06  0.3250671E+04  0.7818609E-02  0.8175562E-01
        2   -1    0    0  501    0  0.00000000000E+00  0.00000000000E+00  0.17634734523E+04  0.17634734523E+04  0.25500000920E-02 0.  1.
       -2   -1    0    0    0  501  0.00000000000E+00  0.00000000000E+00 -0.14980185759E+04  0.14980185759E+04  0.25500000920E-02 0. -1.
    10030    2    1    2    0    0  0.00000000000E+00  0.00000000000E+00  0.26545487637E+03  0.32614920282E+04  0.32506713089E+04 0.  0.
        4    1    3    3  502    0 -0.13031367733E+04  0.95793085297E+03  0.29425217615E+03  0.16438926136E+04  0.12699999809E+01 0.  1.
       -4    1    3    3    0  502  0.13031367733E+04 -0.95793085297E+03 -0.28797299781E+02  0.16175994146E+04  0.12699999809E+01 0. -1.
</event>
<event>
 5   0  0.5622811E-06  0.3055796E+04  0.7818609E-02  0.8227975E-01
       -2   -1    0    0    0  501  0.00000000000E+00  0.00000000000E+00  0.13323240108E+04  0.13323240108E+04  0.25500000920E-02 0.  1.
        2   -1    0    0  501    0  0.00000000000E+00  0.00000000000E+00 -0.17521803651E+04  0.17521803651E+04  0.25500000920E-02 0. -1.
    10030    2    1    2    0    0  0.00000000000E+00  0.00000000000E+00 -0.41985635430E+03  0.30845043758E+04  0.30557957861E+04 0.  0.
        1    1    3    3  502    0  0.42336552876E+03 -0.10610951582E+04  0.81415280129E+03  0.14028564038E+04  0.50400001928E-02 0.  1.
       -1    1    3    3    0  502 -0.42336552876E+03  0.10610951582E+04 -0.12340091556E+04  0.16816479720E+04  0.50400001928E-02 0. -1.
</event>
<event>
 5   0  0.5855568E-06  0.3287036E+04  0.7818609E-02  0.8166202E-01
        2   -1    0    0  501    0  0.00000000000E+00  0.00000000000E+00  0.18071874243E+04  0.18071874243E+04  0.25500000920E-02 0. -1.
       -2   -1    0    0    0  501  0.00000000000E+00  0.00000000000E+00 -0.14946710662E+04  0.14946710662E+04  0.25500000920E-02 0.  1.
    10030    2    1    2    0    0  0.00000000000E+00  0.00000000000E+00  0.31251635808E+03  0.33018584905E+04  0.32870355972E+04 0.  0.
        3    1    3    3  502    0  0.10341956184E+04 -0.80260717839E+03 -0.84190885877E+03  0.15564541100E+04  0.10100000352E+00 0.  1.
       -3    1    3    3    0  502 -0.10341956184E+04  0.80260717839E+03  0.11544252169E+04  0.17454043805E+04  0.10100000352E+00 0. -1.
</event>
<event>
 5   0  0.5637538E-06  0.3051560E+04  0.7818609E-02  0.8229159E-01
       -2   -1    0    0    0  501  0.00000000000E+00  0.00000000000E+00  0.82446209911E+03  0.82446209911E+03  0.25500000920E-02 0.  1.
        2   -1    0    0  501    0  0.00000000000E+00  0.00000000000E+00 -0.28236643405E+04  0.28236643405E+04  0.25500000920E-02 0. -1.
    10030    2    1    2    0    0  0.00000000000E+00  0.00000000000E+00 -0.19992022414E+04  0.36481264396E+04  0.30515597516E+04 0.  0.
        2    1    3    3  502    0  0.42904000544E+03 -0.73293649078E+03 -0.25149752239E+04  0.26545002547E+04  0.25500000920E-02 0. -1.
       -2    1    3    3    0  502 -0.42904000544E+03  0.73293649078E+03  0.51577298249E+03  0.99362618486E+03  0.25500000920E-02 0.  1.
</event>
<event>
 5   0  0.5622811E-06  0.1703221E+04  0.7818609E-02  0.8759529E-01
       -2   -1    0    0    0  501  0.00000000000E+00  0.00000000000E+00  0.35281105357E+03  0.35281105358E+03  0.25500000920E-02 0.  1.
        2   -1    0    0  501    0  0.00000000000E+00  0.00000000000E+00 -0.20556056495E+04  0.20556056495E+04  0.25500000920E-02 0. -1.
    10030    2    1    2    0    0  0.00000000000E+00  0.00000000000E+00 -0.17027945959E+04  0.24084167031E+04  0.17032209427E+04 0.  0.
        1    1    3    3  502    0 -0.84333679577E+03 -0.11784860229E+03 -0.86783608829E+03  0.12158308765E+04  0.50400001928E-02 0. -1.
       -1    1    3    3    0  502  0.84333679577E+03  0.11784860229E+03 -0.83495850766E+03  0.11925858266E+04  0.50400001928E-02 0.  1.
</event>
<event>
 5   0  0.5637538E-06  0.3314867E+04  0.7818609E-02  0.8159123E-01
        2   -1    0    0  501    0  0.00000000000E+00  0.00000000000E+00  0.19982214478E+04  0.19982214478E+04  0.25500000920E-02 0. -1.
       -2   -1    0    0    0  501  0.00000000000E+00  0.00000000000E+00 -0.13747657385E+04  0.13747657385E+04  0.25500000920E-02 0.  1.
    10030    2    1    2    0    0  0.00000000000E+00  0.00000000000E+00  0.62345570923E+03  0.33729871863E+04  0.33148673484E+04 0.  0.
        2    1    3    3  502    0 -0.38092887466E+03 -0.15290525768E+04  0.83452382955E+03  0.17831260786E+04  0.25500000920E-02 0.  1.
       -2    1    3    3    0  502  0.38092887466E+03  0.15290525768E+04 -0.21106812032E+03  0.15898611077E+04  0.25500000920E-02 0. -1.
</event>
<event>
 5   0  0.1925906E-06  0.3217080E+04  0.7818609E-02  0.8184321E-01
       -1   -1    0    0    0  501  0.00000000000E+00  0.00000000000E+00  0.17271629935E+04  0.17271629935E+04  0.50400001928E-02 0. -1.
        1   -1    0    0  501    0  0.00000000000E+00  0.00000000000E+00 -0.14980644035E+04  0.14980644035E+04  0.50400001928E-02 0.  1.
    10030    2    1    2    0    0  0.00000000000E+00  0.00000000000E+00  0.22909859002E+03  0.32252273971E+04  0.32170802910E+04 0.  0.
        1    1    3    3  502    0  0.84058713462E+03  0.48013363935E+03  0.14024372900E+04  0.17040966507E+04  0.50400001928E-02 0. -1.
       -1    1    3    3    0  502 -0.84058713462E+03 -0.48013363935E+03 -0.11733387000E+04  0.15211307463E+04  0.50400001928E-02 0.  1.
</event>
<event>
 5   0  0.2037109E-06  0.2834234E+04  0.7818609E-02  0.8292718E-01
       -1   -1    0    0    0  501  0.00000000000E+00  0.00000000000E+00  0.97597908979E+03  0.97597908981E+03  0.50400001928E-02 0. -1.
        1   -1    0    0  501    0  0.00000000000E+00  0.00000000000E+00 -0.20576472652E+04  0.20576472652E+04  0.50400001928E-02 0.  1.
    10030    2    1    2    0    0  0.00000000000E+00  0.00000000000E+00 -0.10816681754E+04  0.30336263550E+04  0.28342340800E+04 0.  0.
        2    1    3    3  502    0  0.91138350500E+03 -0.91900433413E+03  0.76854041278E+02  0.12965706317E+04  0.25500000920E-02 0. -1.
       -2    1    3    3    0  502 -0.91138350500E+03  0.91900433413E+03 -0.11585222167E+04  0.17370557233E+04  0.25500000920E-02 0.  1.
</event>
<event>
 5   0  0.2097842E-06  0.3293058E+04  0.7818609E-02  0.8164664E-01
        1   -1    0    0  501    0  0.00000000000E+00  0.00000000000E+00  0.22563274061E+04  0.22563274061E+04  0.50400001928E-02 0. -1.
       -1   -1    0    0    0  501  0.00000000000E+00  0.00000000000E+00 -0.12015358987E+04  0.12015358987E+04  0.50400001928E-02 0.  1.
    10030    2    1    2    0    0  0.00000000000E+00  0.00000000000E+00  0.10547915075E+04  0.34578633048E+04  0.32930583825E+04 0.  0.
        4    1    3    3  502    0  0.13119256917E+03  0.12020063720E+04 -0.64613404626E+03  0.13709564644E+04  0.12699999809E+01 0.  1.
       -4    1    3    3    0  502 -0.13119256917E+03 -0.12020063720E+04  0.17009255537E+04  0.20869068404E+04  0.12699999809E+01 0. -1.
</event>
<event>
 5   0  0.1999849E-06  0.3267662E+04  0.7818609E-02  0.8171173E-01
       -1   -1    0    0    0  501  0.00000000000E+00  0.00000000000E+00  0.93679951655E+03  0.93679951656E+03  0.50400001928E-02 0. -1.
        1   -1    0    0  501    0  0.00000000000E+00  0.00000000000E+00 -0.28494923714E+04  0.28494923714E+04  0.50400001928E-02 0.  1.
    10030    2    1    2    0    0  0.00000000000E+00  0.00000000000E+00 -0.19126928548E+04  0.37862918880E+04  0.32676615957E+04 0.  0.
        5    1    3    3  502    0  0.15686475392E+04 -0.77743398480E+02 -0.14780027125E+04  0.21566671618E+04  0.46999998093E+01 0.  1.
       -5    1    3    3    0  502 -0.15686475392E+04  0.77743398480E+02 -0.43469014231E+03  0.16296247262E+04  0.46999998093E+01 0. -1.
</event>
<event>
 5   0  0.5855568E-06  0.3286399E+04  0.7818609E-02  0.8166365E-01
       -2   -1    0    0    0  501  0.00000000000E+00  0.00000000000E+00  0.16389643751E+04  0.16389643751E+04  0.25500000920E-02 0.  1.
        2   -1    0    0  501    0  0.00000000000E+00  0.00000000000E+00 -0.16474451907E+04  0.16474451907E+04  0.25500000920E-02 0. -1.
    10030    2    1    2    0    0  0.00000000000E+00  0.00000000000E+00 -0.84808156012E+01  0.32864095658E+04  0.32863986231E+04 0.  0.
        3    1    3    3  502    0 -0.37694929605E+03 -0.78158244831E+02  0.15932330594E+04  0.16390823880E+04  0.10100000352E+00 0.  1.
       -3    1    3    3    0  502  0.37694929605E+03  0.78158244831E+02 -0.16017138750E+04  0.16473271777E+04  0.10100000352E+00 0. -1.
</event>
<event>
 5   0  0.5855568E-06  0.3323175E+04  0.7818609E-02  0.8157024E-01
        2   -1    0    0  501    0  0.00000000000E+00  0.00000000000E+00  0.16326907799E+04  0.16326907799E+04  0.25500000920E-02 0.  1.
       -2   -1    0    0    0  501  0.00000000000E+00  0.00000000000E+00 -0.16909953557E+04  0.16909953557E+04  0.25500000920E-02 0. -1.
    10030    2    1    2    0    0  0.00000000000E+00  0.00000000000E+00 -0.58304575882E+02  0.33236861356E+04  0.33231747026E+04 0.  0.
        3    1    3    3  502    0 -0.10903773336E+04 -0.36115431101E+02 -0.12825991118E+04  0.16838312106E+04  0.10100000352E+00 0. -1.
       -3    1    3    3    0  502  0.10903773336E+04  0.36115431101E+02  0.12242945359E+04  0.16398549250E+04  0.10100000352E+00 0.  1.
</event>
<event>
 5   0  0.2730981E-06  0.3379360E+04  0.7818609E-02  0.8142991E-01
        1   -1    0    0  501    0  0.00000000000E+00  0.00000000000E+00  0.96836568424E+03  0.96836568425E+03  0.50400001928E-02 0.  1.
       -1   -1    0    0    0  501  0.00000000000E+00  0.00000000000E+00 -0.29482855137E+04  0.29482855137E+04  0.50400001928E-02 0. -1.
    10030    2    1    2    0    0  0.00000000000E+00  0.00000000000E+00 -0.19799198294E+04  0.39166511979E+04  0.33793600097E+04 0.  0.
        3    1    3    3  502    0  0.98267988934E+03 -0.88200913069E+03 -0.22118137988E+04  0.25759891619E+04  0.10100000352E+00 0. -1.
       -3    1    3    3    0  502 -0.98267988934E+03  0.88200913069E+03  0.23189396939E+03  0.13406620360E+04  0.10100000352E+00 0.  1.
</event>
<event>
 5   0  0.2097842E-06  0.3331249E+04  0.7818609E-02  0.8154989E-01
        1   -1    0    0  501    0  0.00000000000E+00  0.00000000000E+00  0.19594046483E+04  0.19594046483E+04  0.50400001928E-02 0. -1.
       -1   -1    0    0    0  501  0.00000000000E+00  0.00000000000E+00 -0.14158913756E+04  0.14158913756E+04  0.50400001928E-02 0.  1.
    10030    2    1    2    0    0  0.00000000000E+00  0.00000000000E+00  0.54351327266E+03  0.33752960239E+04  0.33312485004E+04 0.  0.
        4    1    3    3  502    0  0.25815001905E+03 -0.86963998076E+03  0.16871481434E+04  0.19155640420E+04  0.12699999809E+01 0. -1.
       -4    1    3    3    0  502 -0.25815001905E+03  0.86963998076E+03 -0.11436348707E+04  0.14597319819E+04  0.12699999809E+01 0.  1.
</event>
<event>
 5   0  0.1999849E-06  0.3259605E+04  0.7818609E-02  0.8173251E-01
        1   -1    0    0  501    0  0.00000000000E+00  0.00000000000E+00  0.23208489110E+04  0.23208489111E+04  0.50400001928E-02 0. -1.
       -1   -1    0    0    0  501  0.00000000000E+00  0.00000000000E+00 -0.11445191556E+04  0.11445191556E+04  0.50400001928E-02 0.  1.
    10030    2    1    2    0    0  0.00000000000E+00  0.00000000000E+00  0.11763297554E+04  0.34653680667E+04  0.32596049061E+04 0.  0.
        5    1    3    3  502    0 -0.44256692420E+03  0.15638297344E+04  0.71752159420E+03  0.17765945651E+04  0.46999998093E+01 0.  1.
       -5    1    3    3    0  502  0.44256692420E+03 -0.15638297344E+04  0.45880816124E+03  0.16887735015E+04  0.46999998093E+01 0. -1.
</event>
<event>
 5   0  0.5300268E-06  0.3089282E+04  0.7818609E-02  0.8218686E-01
        2   -1    0    0  501    0  0.00000000000E+00  0.00000000000E+00  0.26042771348E+04  0.26042771348E+04  0.25500000920E-02 0. -1.
       -2   -1    0    0    0  501  0.00000000000E+00  0.00000000000E+00 -0.91615266137E+03  0.91615266137E+03  0.25500000920E-02 0.  1.
    10030    2    1    2    0    0  0.00000000000E+00  0.00000000000E+00  0.16881244734E+04  0.35204297962E+04  0.30892817469E+04 0.  0.
        4    1    3    3  502    0  0.66263655226E+03 -0.50044884902E+02 -0.74493184154E+03  0.99825685689E+03  0.12699999809E+01 0.  1.
       -4    1    3    3    0  502 -0.66263655226E+03  0.50044884902E+02  0.24330563150E+04  0.25221729393E+04  0.12699999809E+01 0. -1.
</event>
<event>
 5   0  0.5300268E-06  0.2320326E+04  0.7818609E-02  0.8469950E-01
        2   -1    0    0  501    0  0.00000000000E+00  0.00000000000E+00  0.22049603002E+04  0.22049603002E+04  0.25500000920E-02 0.  1.
       -2   -1    0    0    0  501  0.00000000000E+00  0.00000000000E+00 -0.61043209458E+03  0.61043209458E+03  0.25500000920E-02 0. -1.
    10030    2    1    2    0    0  0.00000000000E+00  0.00000000000E+00  0.15945282056E+04  0.28153923948E+04  0.23203262999E+04 0.  0.
        4    1    3    3  502    0  0.73335458106E+03  0.41830788112E+03  0.17627716941E+04  0.19545219578E+04  0.12699999809E+01 0.  1.
       -4    1    3    3    0  502 -0.73335458106E+03 -0.41830788112E+03 -0.16824348850E+03  0.86087043700E+03  0.12699999809E+01 0. -1.
</event>
<event>
 5   0  0.5855568E-06  0.3248451E+04  0.7818609E-02  0.8176137E-01
        2   -1    0    0  501    0  0.00000000000E+00  0.00000000000E+00  0.12382756745E+04  0.12382756745E+04  0.25500000920E-02 0. -1.
       -2   -1    0    0    0  501  0.00000000000E+00  0.00000000000E+00 -0.21304691168E+04  0.21304691168E+04  0.25500000920E-02 0.  1.
    10030    2    1    2    0    0  0.00000000000E+00  0.00000000000E+00 -0.89219344230E+03  0.33687447914E+04  0.32484507586E+04 0.  0.
        3    1    3    3  502    0 -0.14710287094E+04 -0.32729606564E+02 -0.11593988513E+04  0.18732865231E+04  0.10100000352E+00 0.  1.
       -3    1    3    3    0  502  0.14710287094E+04  0.32729606564E+02  0.26720540901E+03  0.14954582682E+04  0.10100000352E+00 0. -1.
</event>
<event>
 5   0  0.1925906E-06  0.3309150E+04  0.7818609E-02  0.8160571E-01
       -1   -1    0    0    0  501  0.00000000000E+00  0.00000000000E+00  0.21172205864E+04  0.21172205864E+04  0.50400001928E-02 0. -1.
        1   -1    0    0  501    0  0.00000000000E+00  0.00000000000E+00 -0.12930245317E+04  0.12930245317E+04  0.50400001928E-02 0.  1.
    10030    2    1    2    0    0  0.00000000000E+00  0.00000000000E+00  0.82419605471E+03  0.34102451182E+04  0.33091498348E+04 0.  0.
        1    1    3    3  502    0 -0.74771172803E+03 -0.10634971231E+04 -0.64265349159E+03  0.14502077332E+04  0.50400001928E-02 0.  1.
       -1    1    3    3    0  502  0.74771172803E+03  0.10634971231E+04  0.14668495463E+04  0.19600373850E+04  0.50400001928E-02 0. -1.
</event>
<event>
 5   0  0.5300268E-06  0.3355100E+04  0.7818609E-02  0.8149015E-01
        2   -1    0    0  501    0  0.00000000000E+00  0.00000000000E+00  0.32633813125E+04  0.32633813125E+04  0.25500000920E-02 0.  1.
       -2   -1    0    0    0  501  0.00000000000E+00  0.00000000000E+00 -0.86234902413E+03  0.86234902413E+03  0.25500000920E-02 0. -1.
    10030    2    1    2    0    0  0.00000000000E+00  0.00000000000E+00  0.24010322883E+04  0.41257303366E+04  0.33550998138E+04 0.  0.
        4    1    3    3  502    0 -0.62633718692E+03 -0.15415549976E+04  0.93826635586E+03  0.19102448664E+04  0.12699999809E+01 0. -1.
       -4    1    3    3    0  502  0.62633718692E+03  0.15415549976E+04  0.14627659325E+04  0.22154854701E+04  0.12699999809E+01 0.  1.
</event>
<event>
 5   0  0.2097842E-06  0.2067374E+04  0.7818609E-02  0.8575753E-01
       -1   -1    0    0    0  501  0.00000000000E+00  0.00000000000E+00  0.10068262950E+04  0.10068262951E+04  0.50400001928E-02 0.  1.
        1   -1    0    0  501    0  0.00000000000E+00  0.00000000000E+00 -0.10612638511E+04  0.10612638512E+04  0.50400001928E-02 0. -1.
    10030    2    1    2    0    0  0.00000000000E+00  0.00000000000E+00 -0.54437556103E+02  0.20680901462E+04  0.20673735525E+04 0.  0.
        4    1    3    3  502    0  0.12943780423E+03  0.10003654112E+04 -0.25317676898E+03  0.10399928800E+04  0.12699999809E+01 0. -1.
       -4    1    3    3    0  502 -0.12943780423E+03 -0.10003654112E+04  0.19873921287E+03  0.10280972662E+04  0.12699999809E+01 0.  1.
</event>
<event>
 5   0  0.5622811E-06  0.3231292E+04  0.7818609E-02  0.8180602E-01
        2   -1    0    0  501    0  0.00000000000E+00  0.00000000000E+00  0.25391039619E+04  0.25391039619E+04  0.25500000920E-02 0.  1.
       -2   -1    0    0    0  501  0.00000000000E+00  0.00000000000E+00 -0.10280444481E+04  0.10280444481E+04  0.25500000920E-02 0. -1.
    10030    2    1    2    0    0  0.00000000000E+00  0.00000000000E+00  0.15110595138E+04  0.35671484101E+04  0.32312918353E+04 0.  0.
        1    1    3    3  502    0 -0.97089786374E+03 -0.50063592206E+03 -0.55858997945E+03  0.12269073940E+04  0.50400001928E-02 0. -1.
       -1    1    3    3    0  502  0.97089786374E+03  0.50063592206E+03  0.20696494933E+04  0.23402410161E+04  0.50400001928E-02 0.  1.
</event>
<event>
 5   0  0.5755250E-06  0.2165921E+04  0.7818609E-02  0.8532748E-01
        2   -1    0    0  501    0  0.00000000000E+00  0.00000000000E+00  0.11441766100E+04  0.11441766100E+04  0.25500000920E-02 0. -1.
       -2   -1    0    0    0  501  0.00000000000E+00  0.00000000000E+00 -0.10250195704E+04  0.10250195704E+04  0.25500000920E-02 0.  1.
    10030    2    1    2    0    0  0.00000000000E+00  0.00000000000E+00  0.11915703953E+03  0.21691961804E+04  0.21659209748E+04 0.  0.
        5    1    3    3  502    0 -0.79078453511E+03  0.25289760781E+02  0.80015702387E+03  0.11252791235E+04  0.46999998093E+01 0. -1.
       -5    1    3    3    0  502  0.79078453511E+03 -0.25289760781E+02 -0.68099998434E+03  0.10439170569E+04  0.46999998093E+01 0.  1.
</event>
<event>
 5   0  0.1925906E-06  0.3430088E+04  0.7818609E-02  0.8130561E-01
       -1   -1    0    0    0  501  0.00000000000E+00  0.00000000000E+00  0.13392063292E+04  0.13392063292E+04  0.50400001928E-02 0. -1.
        1   -1    0    0  501    0  0.00000000000E+00  0.00000000000E+00 -0.21963577996E+04  0.21963577996E+04  0.50400001928E-02 0.  1.
    10030    2    1    2    0    0  0.00000000000E+00  0.00000000000E+00 -0.85715147039E+03  0.35355641288E+04  0.34300882009E+04 0.  0.
        1    1    3    3  502    0  0.63303501447E+03 -0.67371196868E+03  0.10604053309E+04  0.14067979997E+04  0.50400001928E-02 0. -1.
       -1    1    3    3    0  502 -0.63303501447E+03  0.67371196868E+03 -0.19175568013E+04  0.21287661291E+04  0.50400001928E-02 0.  1.
</event>
<event>
 5   0  0.1925906E-06  0.3291101E+04  0.7818609E-02  0.8165163E-01
        1   -1    0    0  501    0  0.00000000000E+00  0.00000000000E+00  0.23880687119E+04  0.23880687119E+04  0.50400001928E-02 0.  1.
       -1   -1    0    0    0  501  0.00000000000E+00  0.00000000000E+00 -0.11339023060E+04  0.11339023060E+04  0.50400001928E-02 0. -1.
    10030    2    1    2    0    0  0.00000000000E+00  0.00000000000E+00  0.12541664059E+04  0.35219710179E+04  0.32911011040E+04 0.  0.
        1    1    3    3  502    0 -0.14627864984E+04  0.35307140674E+03  0.13397039967E+04  0.20147482614E+04  0.50400001928E-02 0.  1.
       -1    1    3    3    0  502  0.14627864984E+04 -0.35307140674E+03 -0.85537590812E+02  0.15072227564E+04  0.50400001928E-02 0. -1.
</event>
<event>
 5   0  0.2097842E-06  0.2415249E+04  0.7818609E-02  0.8433817E-01
       -1   -1    0    0    0  501  0.00000000000E+00  0.00000000000E+00  0.11937261283E+04  0.11937261283E+04  0.50400001928E-02 0. -1.
        1   -1    0    0  501    0  0.00000000000E+00  0.00000000000E+00 -0.12216846107E+04  0.12216846107E+04  0.50400001928E-02 0.  1.
    10030    2    1    2    0    0  0.00000000000E+00  0.00000000000E+00 -0.27958482360E+02  0.24154107390E+04  0.24152489233E+04 0.  0.
        4    1    3    3  502    0  0.75638928846E+03  0.93230371271E+03 -0.14452633002E+03  0.12092164576E+04  0.12699999809E+01 0.  1.
       -4    1    3    3    0  502 -0.75638928846E+03 -0.93230371271E+03  0.11656784766E+03  0.12061942814E+04  0.12699999809E+01 0. -1.
</event>
<event>
 5   0  0.5300268E-06  0.3281437E+04  0.7818609E-02  0.8167635E-01
        2   -1    0    0  501    0  0.00000000000E+00  0.00000000000E+00  0.20121157489E+04  0.20121157489E+04  0.25500000920E-02 0.  1.
       -2   -1    0    0    0  501  0.00000000000E+00  0.00000000000E+00 -0.13378735277E+04  0.13378735277E+04  0.25500000920E-02 0. -1.
    10030    2    1    2    0    0  0.00000000000E+00  0.00000000000E+00  0.67424222122E+03  0.33499892767E+04  0.32814365118E+04 0.  0.
        4    1    3    3  502    0  0.26275386394E+03 -0.14907263295E+04  0.98331387782E+03  0.18050519044E+04  0.12699999809E+01 0.  1.
       -4    1    3    3    0  502 -0.26275386394E+03  0.14907263295E+04 -0.30907165660E+03  0.15449373723E+04  0.12699999809E+01 0. -1.
</event>
<event>
 5   0  0.1925906E-06  0.2206027E+04  0.7818609E-02  0.8515924E-01
        1   -1    0    0  501    0  0.00000000000E+00  0.00000000000E+00  0.11622912086E+04  0.11622912086E+04  0.50400001928E-02 0.  1.
       -1   -1    0    0    0  501  0.00000000000E+00  0.00000000000E+00 -0.10467589260E+04  0.10467589260E+04  0.50400001928E-02 0. -1.
    10030    2    1    2    0    0  0.00000000000E+00  0.00000000000E+00  0.11553228263E+03  0.22090501346E+04  0.22060269239E+04 0.  0.
        1    1    3    3  502    0  0.16403684000E+03 -0.10631096420E+04 -0.18655285671E+03  0.10917472987E+04  0.50400001928E-02 0. -1.
       -1    1    3    3    0  502 -0.16403684000E+03  0.10631096420E+04  0.30208513934E+03  0.11173028359E+04  0.50400001928E-02 0.  1.
</event>
<event>
 5   0  0.5622811E-06  0.3281773E+04  0.7818609E-02  0.8167549E-01
       -2   -1    0    0    0  501  0.00000000000E+00  0.00000000000E+00  0.14290869146E+04  0.14290869146E+04  0.25500000920E-02 0.  1.
        2   -1    0    0  501    0  0.00000000000E+00  0.00000000000E+00 -0.18840760706E+04  0.18840760706E+04  0.25500000920E-02 0. -1.
    10030    2    1    2    0    0  0.00000000000E+00  0.00000000000E+00 -0.45498915600E+03  0.33131629852E+04  0.32817729712E+04 0.  0.
        1    1    3    3  502    0 -0.33842361812E+03  0.97760985666E+03  0.10583665850E+04  0.14799970964E+04  0.50400001928E-02 0.  1.
       -1    1    3    3    0  502  0.33842361812E+03 -0.97760985666E+03 -0.15133557410E+04  0.18331658888E+04  0.50400001928E-02 0. -1.
</event>
<event>
 5   0  0.1999849E-06  0.3225881E+04  0.7818609E-02  0.8182015E-01
        1   -1    0    0  501    0  0.00000000000E+00  0.00000000000E+00  0.13065609231E+04  0.13065609231E+04  0.50400001928E-02 0.  1.
       -1   -1    0    0    0  501  0.00000000000E+00  0.00000000000E+00 -0.19911642782E+04  0.19911642782E+04  0.50400001928E-02 0. -1.
    10030    2    1    2    0    0  0.00000000000E+00  0.00000000000E+00 -0.68460335513E+03  0.32977252013E+04  0.32258812361E+04 0.  0.
        5    1    3    3  502    0  0.30627393791E+03 -0.15689322254E+04 -0.12256499706E+03  0.16032455587E+04  0.46999998093E+01 0. -1.
       -5    1    3    3    0  502 -0.30627393791E+03  0.15689322254E+04 -0.56203835808E+03  0.16944796426E+04  0.46999998093E+01 0.  1.
</event>
<event>
 5   0  0.5855568E-06  0.3561791E+04  0.7818609E-02  0.8099300E-01
       -2   -1    0    0    0  501  0.00000000000E+00  0.00000000000E+00  0.17272664584E+04  0.17272664584E+04  0.25500000920E-02 0. -1.
        2   -1    0    0  501    0  0.00000000000E+00  0.00000000000E+00 -0.18361898212E+04  0.18361898212E+04  0.25500000920E-02 0.  1.
    10030    2    1    2    0    0  0.00000000000E+00  0.00000000000E+00 -0.10892336275E+03  0.35634562796E+04  0.35617911726E+04 0.  0.
        3    1    3    3  502    0 -0.65159658356E+03  0.98874809845E+03 -0.13852670404E+04  0.18224065664E+04  0.10100000352E+00 0.  1.
       -3    1    3    3    0  502  0.65159658356E+03 -0.98874809845E+03  0.12763436777E+04  0.17410497131E+04  0.10100000352E+00 0. -1.
</event>
<event>
 5   0  0.1925906E-06  0.3308785E+04  0.7818609E-02  0.8160664E-01
       -1   -1    0    0    0  501  0.00000000000E+00  0.00000000000E+00  0.14992544012E+04  0.14992544012E+04  0.50400001928E-02 0.  1.
        1   -1    0    0  501    0  0.00000000000E+00  0.00000000000E+00 -0.18255842312E+04  0.18255842312E+04  0.50400001928E-02 0. -1.
    10030    2    1    2    0    0  0.00000000000E+00  0.00000000000E+00 -0.32632983008E+03  0.33248386324E+04  0.33087853925E+04 0.  0.
        1    1    3    3  502    0  0.11789635159E+04 -0.16814355907E+03  0.99079164390E+03  0.15491595495E+04  0.50400001928E-02 0.  1.
       -1    1    3    3    0  502 -0.11789635159E+04  0.16814355907E+03 -0.13171214740E+04  0.17756790829E+04  0.50400001928E-02 0. -1.
</event>
<event>
 5   0  0.1878000E-06  0.1664768E+04  0.7818609E-02  0.8781718E-01
       -3   -1    0    0    0  501  0.00000000000E+00  0.00000000000E+00  0.46558349428E+03  0.46558350524E+03  0.10100000352E+00 0.  1.
        3   -1    0    0  501    0  0.00000000000E+00  0.00000000000E+00 -0.14881607243E+04  0.14881607277E+04  0.10100000352E+00 0. -1.
    10030    2    1    2    0    0  0.00000000000E+00  0.00000000000E+00 -0.10225772300E+04  0.19537442330E+04  0.16647679528E+04 0.  0.
        2    1    3    3  502    0 -0.46481452229E+03 -0.17763554518E+03  0.27181453143E+03  0.56700094052E+03  0.25500000920E-02 0.  1.
       -2    1    3    3    0  502  0.46481452229E+03  0.17763554518E+03 -0.12943917615E+04  0.13867432925E+04  0.25500000920E-02 0. -1.
</event>
<event>
 5   0  0.5755250E-06  0.2784320E+04  0.7818609E-02  0.8308153E-01
       -2   -1    0    0    0  501  0.00000000000E+00  0.00000000000E+00  0.73009056459E+03  0.73009056460E+03  0.25500000920E-02 0.  1.
        2   -1    0    0  501    0  0.00000000000E+00  0.00000000000E+00 -0.26546155531E+04  0.26546155531E+04  0.25500000920E-02 0. -1.
    10030    2    1    2    0    0  0.00000000000E+00  0.00000000000E+00 -0.19245249885E+04  0.33847061177E+04  0.27843202172E+04 0.  0.
        5    1    3    3  502    0  0.64115904303E+03  0.68055640169E+03 -0.22160995931E+04  0.24052778282E+04  0.46999998093E+01 0. -1.
       -5    1    3    3    0  502 -0.64115904303E+03 -0.68055640169E+03  0.29157460453E+03  0.97942828954E+03  0.46999998093E+01 0.  1.
</event>
<event>
 5   0  0.1925906E-06  0.3306899E+04  0.7818609E-02  0.8161142E-01
        1   -1    0    0  501    0  0.00000000000E+00  0.00000000000E+00  0.84911718073E+03  0.84911718074E+03  0.50400001928E-02 0.  1.
       -1   -1    0    0    0  501  0.00000000000E+00  0.00000000000E+00 -0.32196916770E+04  0.32196916770E+04  0.50400001928E-02 0. -1.
    10030    2    1    2    0    0  0.00000000000E+00  0.00000000000E+00 -0.23705744962E+04  0.40688088577E+04  0.33068991636E+04 0.  0.
        1    1    3    3  502    0  0.16562487828E+03  0.15451513131E+04 -0.18801870161E+04  0.24392677992E+04  0.50400001928E-02 0.  1.
       -1    1    3    3    0  502 -0.16562487828E+03 -0.15451513131E+04 -0.49038748010E+03  0.16295410585E+04  0.50400001928E-02 0. -1.
</event>
<event>
 5   0  0.2081091E-06  0.1790060E+04  0.7818609E-02  0.8711603E-01
       -1   -1    0    0    0  501  0.00000000000E+00  0.00000000000E+00  0.50365526794E+03  0.50365526796E+03  0.50400001928E-02 0.  1.
        1   -1    0    0  501    0  0.00000000000E+00  0.00000000000E+00 -0.15905305149E+04  0.15905305149E+04  0.50400001928E-02 0. -1.
    10030    2    1    2    0    0  0.00000000000E+00  0.00000000000E+00 -0.10868752469E+04  0.20941857828E+04  0.17900604154E+04 0.  0.
        5    1    3    3  502    0 -0.26332081404E+03  0.45850641269E+02  0.45586020966E+03  0.52846073947E+03  0.46999998093E+01 0.  1.
       -5    1    3    3    0  502  0.26332081404E+03 -0.45850641269E+02 -0.15427354566E+04  0.15657250434E+04  0.46999998093E+01 0. -1.
</event>
<event>
 5   0  0.2730981E-06  0.1826957E+04  0.7818609E-02  0.8692094E-01
       -1   -1    0    0    0  501  0.00000000000E+00  0.00000000000E+00  0.13703439742E+04  0.13703439742E+04  0.50400001928E-02 0. -1.
        1   -1    0    0  501    0  0.00000000000E+00  0.00000000000E+00 -0.60892947239E+03  0.60892947241E+03  0.50400001928E-02 0.  1.
    10030    2    1    2    0    0  0.00000000000E+00  0.00000000000E+00  0.76141450177E+03  0.19792734466E+04  0.18269568503E+04 0.  0.
        3    1    3    3  502    0 -0.40930075248E+03  0.58194568571E+03 -0.23999474343E+03  0.75085642713E+03  0.10100000352E+00 0.  1.
       -3    1    3    3    0  502  0.40930075248E+03 -0.58194568571E+03  0.10014092452E+04  0.12284170194E+04  0.10100000352E+00 0. -1.
</event>
<event>
 5   0  0.5300268E-06  0.2276284E+04  0.7818609E-02  0.8487331E-01
        2   -1    0    0  501    0  0.00000000000E+00  0.00000000000E+00  0.10973179670E+04  0.10973179670E+04  0.25500000920E-02 0.  1.
       -2   -1    0    0    0  501  0.00000000000E+00  0.00000000000E+00 -0.11804851601E+04  0.11804851601E+04  0.25500000920E-02 0. -1.
    10030    2    1    2    0    0  0.00000000000E+00  0.00000000000E+00 -0.83167193124E+02  0.22778031271E+04  0.22762843197E+04 0.  0.
        4    1    3    3  502    0  0.31916097377E+03  0.18334357929E+03 -0.11192828634E+04  0.11782505406E+04  0.12699999809E+01 0. -1.
       -4    1    3    3    0  502 -0.31916097377E+03 -0.18334357929E+03  0.10361156703E+04  0.10995525865E+04  0.12699999809E+01 0.  1.
</event>
<event>
 5   0  0.2037109E-06  0.2570616E+04  0.7818609E-02  0.8378251E-01
        1   -1    0    0  501    0  0.00000000000E+00  0.00000000000E+00  0.14086277465E+04  0.14086277465E+04  0.50400001928E-02 0.  1.
       -1   -1    0    0    0  501  0.00000000000E+00  0.00000000000E+00 -0.11727842260E+04  0.11727842260E+04  0.50400001928E-02 0. -1.
    10030    2    1    2    0    0  0.00000000000E+00  0.00000000000E+00  0.23584352053E+03  0.25814119726E+04  0.25706158028E+04 0.  0.
        2    1    3    3  502    0  0.31182725484E+03 -0.12177584806E+04 -0.15124210202E+03  0.12661145791E+04  0.25500000920E-02 0. -1.
       -2    1    3    3    0  502 -0.31182725484E+03  0.12177584806E+04  0.38708562255E+03  0.13152973934E+04  0.25500000920E-02 0.  1.
</event>
<event>
 5   0  0.1878000E-06  0.3164984E+04  0.7818609E-02  0.8198126E-01
       -3   -1    0    0    0  501  0.00000000000E+00  0.00000000000E+00  0.24261080061E+04  0.24261080082E+04  0.10100000352E+00 0. -1.
        3   -1    0    0  501    0  0.00000000000E+00  0.00000000000E+00 -0.10322217410E+04  0.10322217459E+04  0.10100000352E+00 0.  1.
    10030    2    1    2    0    0  0.00000000000E+00  0.00000000000E+00  0.13938862652E+04  0.34583297541E+04  0.31649843235E+04 0.  0.
        5    1    3    3  502    0  0.12460626606E+04 -0.23201886861E+03 -0.33837452102E+03  0.13118781635E+04  0.46999998093E+01 0.  1.
       -5    1    3    3    0  502 -0.12460626606E+04  0.23201886861E+03  0.17322607862E+04  0.21464515906E+04  0.46999998093E+01 0. -1.
</event>
<event>
 5   0  0.5622811E-06  0.3272405E+04  0.7818609E-02  0.8169953E-01
       -2   -1    0    0    0  501  0.00000000000E+00  0.00000000000E+00  0.14745574434E+04  0.14745574434E+04  0.25500000920E-02 0.  1.
        2   -1    0    0  501    0  0.00000000000E+00  0.00000000000E+00 -0.18155670062E+04  0.18155670062E+04  0.25500000920E-02 0. -1.
    10030    2    1    2    0    0  0.00000000000E+00  0.00000000000E+00 -0.34100956282E+03  0.32901244495E+04  0.32724045244E+04 0.  0.
        1    1    3    3  502    0  0.89559635025E+03  0.63828208442E+03 -0.13885354352E+04  0.17713067201E+04  0.50400001928E-02 0. -1.
       -1    1    3    3    0  502 -0.89559635025E+03 -0.63828208442E+03  0.10475258724E+04  0.15188177294E+04  0.50400001928E-02 0.  1.
</event>
<event>
 5   0  0.5300268E-06  0.3285966E+04  0.7818609E-02  0.8166476E-01
        2   -1    0    0  501    0  0.00000000000E+00  0.00000000000E+00  0.19428389486E+04  0.19428389486E+04  0.25500000920E-02 0.  1.
       -2   -1    0    0    0  501  0.00000000000E+00  0.00000000000E+00 -0.13894061953E+04  0.13894061953E+04  0.25500000920E-02 0. -1.
    10030    2    1    2    0    0  0.00000000000E+00  0.00000000000E+00  0.55343275338E+03  0.33322451439E+04  0.32859655942E+04 0.  0.
        4    1    3    3  502    0 -0.41428170300E+02 -0.12609539929E+04 -0.79056528887E+03  0.14888641155E+04  0.12699999809E+01 0. -1.
       -4    1    3    3    0  502  0.41428170300E+02  0.12609539929E+04  0.13439980423E+04  0.18433810284E+04  0.12699999809E+01 0.  1.
</event>
<event>
 5   0  0.5300268E-06  0.3287952E+04  0.7818609E-02  0.8165968E-01
       -2   -1    0    0    0  501  0.00000000000E+00  0.00000000000E+00  0.27894188393E+04  0.27894188393E+04  0.25500000920E-02 0. -1.
        2   -1    0    0  501    0  0.00000000000E+00  0.00000000000E+00 -0.96889584268E+03  0.96889584268E+03  0.25500000920E-02 0.  1.
    10030    2    1    2    0    0  0.00000000000E+00  0.00000000000E+00  0.18205229967E+04  0.37583146820E+04  0.32879515306E+04 0.  0.
        4    1    3    3  502    0 -0.61482581513E+03 -0.91987896871E+03  0.23001292979E+04  0.25524075889E+04  0.12699999809E+01 0. -1.
       -4    1    3    3    0  502  0.61482581513E+03  0.91987896871E+03 -0.47960630126E+03  0.12059070931E+04  0.12699999809E+01 0.  1.
</event>
<event>
 5   0  0.5637538E-06  0.2914234E+04  0.7818609E-02  0.8268655E-01
       -2   -1    0    0    0  501  0.00000000000E+00  0.00000000000E+00  0.13644602418E+04  0.13644602418E+04  0.25500000920E-02 0. -1.
        2   -1    0    0  501    0  0.00000000000E+00  0.00000000000E+00 -0.15560661691E+04  0.15560661691E+04  0.25500000920E-02 0.  1.
    10030    2    1    2    0    0  0.00000000000E+00  0.00000000000E+00 -0.19160592727E+03  0.29205264108E+04  0.29142343223E+04 0.  0.
        2    1    3    3  502    0  0.29184393423E+02 -0.24752849086E+02  0.13639565598E+04  0.13644932867E+04  0.25500000920E-02 0. -1.
       -2    1    3    3    0  502 -0.29184393423E+02  0.24752849086E+02 -0.15555624871E+04  0.15560331242E+04  0.25500000920E-02 0.  1.
</event>
<event>
 5   0  0.5855568E-06  0.3219974E+04  0.7818609E-02  0.8183562E-01
       -2   -1    0    0    0  501  0.00000000000E+00  0.00000000000E+00  0.15275936645E+04  0.15275936645E+04  0.25500000920E-02 0.  1.
        2   -1    0    0  501    0  0.00000000000E+00  0.00000000000E+00 -0.16968239382E+04  0.16968239382E+04  0.25500000920E-02 0. -1.
    10030    2    1    2    0    0  0.00000000000E+00  0.00000000000E+00 -0.16923027371E+03  0.32244176027E+04  0.32199736010E+04 0.  0.
        3    1    3    3  502    0 -0.10580091901E+04  0.46870103939E+03  0.10363016158E+04  0.15533786273E+04  0.10100000352E+00 0.  1.
       -3    1    3    3    0  502  0.10580091901E+04 -0.46870103939E+03 -0.12055318895E+04  0.16710389754E+04  0.10100000352E+00 0. -1.
</event>
<event>
 5   0  0.2730981E-06  0.1803547E+04  0.7818609E-02  0.8704415E-01
       -1   -1    0    0    0  501  0.00000000000E+00  0.00000000000E+00  0.34761819430E+03  0.34761819434E+03  0.50400001928E-02 0. -1.
        1   -1    0    0  501    0  0.00000000000E+00  0.00000000000E+00 -0.23393358419E+04  0.23393358419E+04  0.50400001928E-02 0.  1.
    10030    2    1    2    0    0  0.00000000000E+00  0.00000000000E+00 -0.19917176476E+04  0.26869540362E+04  0.18035472839E+04 0.  0.
        3    1    3    3  502    0  0.23277663954E+03  0.44841354182E+03 -0.21086787810E+04  0.21683601823E+04  0.10100000352E+00 0.  1.
       -3    1    3    3    0  502 -0.23277663954E+03 -0.44841354182E+03  0.11696113345E+03  0.51859385393E+03  0.10100000352E+00 0. -1.
</event>
<event>
 5   0  0.2097842E-06  0.2177373E+04  0.7818609E-02  0.8527905E-01
        1   -1    0    0  501    0  0.00000000000E+00  0.00000000000E+00  0.11474743799E+04  0.11474743799E+04  0.50400001928E-02 0. -1.
       -1   -1    0    0    0  501  0.00000000000E+00  0.00000000000E+00 -0.10329106368E+04  0.10329106368E+04  0.50400001928E-02 0.  1.
    10030    2    1    2    0    0  0.00000000000E+00  0.00000000000E+00  0.11456374303E+03  0.21803850167E+04  0.21773731811E+04 0.  0.
        4    1    3    3  502    0 -0.46026526750E+03  0.20233650371E+03 -0.90968974301E+03  0.10393850194E+04  0.12699999809E+01 0.  1.
       -4    1    3    3    0  502  0.46026526750E+03 -0.20233650371E+03  0.10242534860E+04  0.11409999973E+04  0.12699999809E+01 0. -1.
</event>
<event>
 5   0  0.5855568E-06  0.3142230E+04  0.7818609E-02  0.8204243E-01
        2   -1    0    0  501    0  0.00000000000E+00  0.00000000000E+00  0.99858802462E+03  0.99858802463E+03  0.25500000920E-02 0. -1.
       -2   -1    0    0    0  501  0.00000000000E+00  0.00000000000E+00 -0.24718926240E+04  0.24718926240E+04  0.25500000920E-02 0.  1.
    10030    2    1    2    0    0  0.00000000000E+00  0.00000000000E+00 -0.14733045994E+04  0.34704806486E+04  0.31422300186E+04 0.  0.
        3    1    3    3  502    0  0.11082247721E+04  0.93083021919E+03 -0.61396094782E+02  0.14485774170E+04  0.10100000352E+00 0.  1.
       -3    1    3    3    0  502 -0.11082247721E+04 -0.93083021919E+03 -0.14119085046E+04  0.20219032316E+04  0.10100000352E+00 0. -1.
</event>
<event>
 5   0  0.5637538E-06  0.3423505E+04  0.7818609E-02  0.8132161E-01
        2   -1    0    0  501    0  0.00000000000E+00  0.00000000000E+00  0.15903670331E+04  0.15903670331E+04  0.25500000920E-02 0.  1.
       -2   -1    0    0    0  501  0.00000000000E+00  0.00000000000E+00 -0.18424032737E+04  0.18424032737E+04  0.25500000920E-02 0. -1.
    10030    2    1    2    0    0  0.00000000000E+00  0.00000000000E+00 -0.25203624065E+03  0.34327703068E+04  0.34235054714E+04 0.  0.
        2    1    3    3  502    0 -0.58165293556E+03 -0.63661351601E+02  0.14869758332E+04  0.15979580826E+04  0.25500000920E-02 0.  1.
       -2    1    3    3    0  502  0.58165293556E+03  0.63661351601E+02 -0.17390120738E+04  0.18348122242E+04  0.25500000920E-02 0. -1.
</event>
<event>
 5   0  0.1925906E-06  0.3490128E+04  0.7818609E-02  0.8116133E-01
        1   -1    0    0  501    0  0.00000000000E+00  0.00000000000E+00  0.25357354708E+04  0.25357354708E+04  0.50400001928E-02 0.  1.
       -1   -1    0    0    0  501  0.00000000000E+00  0.00000000000E+00 -0.12009330843E+04  0.12009330843E+04  0.50400001928E-02 0. -1.
    10030    2    1    2    0    0  0.00000000000E+00  0.00000000000E+00  0.13348023865E+04  0.37366685551E+04  0.34901281466E+04 0.  0.
        1    1    3    3  502    0  0.15355308475E+04 -0.69722624063E+03  0.11477225205E+04  0.20399133310E+04  0.50400001928E-02 0.  1.
       -1    1    3    3    0  502 -0.15355308475E+04  0.69722624063E+03  0.18707986602E+03  0.16967552241E+04  0.50400001928E-02 0. -1.
</event>
<event>
 5   0  0.5622811E-06  0.3320792E+04  0.7818609E-02  0.8157625E-01
        2   -1    0    0  501    0  0.00000000000E+00  0.00000000000E+00  0.16308627104E+04  0.16308627104E+04  0.25500000920E-02 0.  1.
       -2   -1    0    0    0  501  0.00000000000E+00  0.00000000000E+00 -0.16904639915E+04  0.16904639915E+04  0.25500000920E-02 0. -1.
    10030    2    1    2    0    0  0.00000000000E+00  0.00000000000E+00 -0.59601281121E+02  0.33213267019E+04  0.33207918856E+04 0.  0.
        1    1    3    3  502    0  0.14447775591E+04  0.39127551314E+03  0.68894988827E+03  0.16477653568E+04  0.50400001928E-02 0.  1.
       -1    1    3    3    0  502 -0.14447775591E+04 -0.39127551314E+03 -0.74855116939E+03  0.16735613451E+04  0.50400001928E-02 0. -1.
</event>
<event>
 5   0  0.2037109E-06  0.2298380E+04  0.7818609E-02  0.8478560E-01
       -1   -1    0    0    0  501  0.00000000000E+00  0.00000000000E+00  0.79972930693E+03  0.79972930695E+03  0.50400001928E-02 0.  1.
        1   -1    0    0  501    0  0.00000000000E+00  0.00000000000E+00 -0.16513557574E+04  0.16513557574E+04  0.50400001928E-02 0. -1.
    10030    2    1    2    0    0  0.00000000000E+00  0.00000000000E+00 -0.85162645045E+03  0.24510850643E+04  0.22983799472E+04 0.  0.
        2    1    3    3  502    0 -0.86719393052E+03  0.62297775100E+03 -0.87890731852E+03  0.13829695101E+04  0.25500000920E-02 0.  1.
       -2    1    3    3    0  502  0.86719393052E+03 -0.62297775100E+03  0.27280868071E+02  0.10681155542E+04  0.25500000920E-02 0. -1.
</event>
<event>
 5   0  0.5755250E-06  0.1803196E+04  0.7818609E-02  0.8704602E-01
        2   -1    0    0  501    0  0.00000000000E+00  0.00000000000E+00  0.10280385771E+04  0.10280385771E+04  0.25500000920E-02 0. -1.
       -2   -1    0    0    0  501  0.00000000000E+00  0.00000000000E+00 -0.79070863636E+03  0.79070863636E+03  0.25500000920E-02 0.  1.
    10030    2    1    2    0    0  0.00000000000E+00  0.00000000000E+00  0.23732994073E+03  0.18187472135E+04  0.18031960309E+04 0.  0.
        5    1    3    3  502    0  0.60792910190E+03  0.56848643475E+03  0.46821151209E+03  0.95498624570E+03  0.46999998093E+01 0.  1.
       -5    1    3    3    0  502 -0.60792910190E+03 -0.56848643475E+03 -0.23088157136E+03  0.86376096776E+03  0.46999998093E+01 0. -1.
</event>
<event>
 5   0  0.2037109E-06  0.2874276E+04  0.7818609E-02  0.8280572E-01
        1   -1    0    0  501    0  0.00000000000E+00  0.00000000000E+00  0.16679193567E+04  0.16679193567E+04  0.50400001928E-02 0. -1.
       -1   -1    0    0    0  501  0.00000000000E+00  0.00000000000E+00 -0.12382889318E+04  0.12382889318E+04  0.50400001928E-02 0.  1.
    10030    2    1    2    0    0  0.00000000000E+00  0.00000000000E+00  0.42963042495E+03  0.29062082885E+04  0.28742763113E+04 0.  0.
        2    1    3    3  502    0  0.30821802213E+03 -0.44557079736E+03 -0.11310754661E+04  0.12541385070E+04  0.25500000920E-02 0.  1.
       -2    1    3    3    0  502 -0.30821802213E+03  0.44557079736E+03  0.15607058911E+04  0.16520697815E+04  0.25500000920E-02 0. -1.
</event>
<event>
 5   0  0.2730981E-06  0.3325320E+04  0.7818609E-02  0.8156482E-01
        1   -1    0    0  501    0  0.00000000000E+00  0.00000000000E+00  0.23209608968E+04  0.23209608968E+04  0.50400001928E-02 0. -1.
       -1   -1    0    0    0  501  0.00000000000E+00  0.00000000000E+00 -0.11910751489E+04  0.11910751489E+04  0.50400001928E-02 0.  1.
    10030    2    1    2    0    0  0.00000000000E+00  0.00000000000E+00  0.11298857478E+04  0.35120360457E+04  0.33253203430E+04 0.  0.
        3    1    3    3  502    0 -0.10478535420E+04 -0.10679118634E+03  0.19236610522E+04  0.21931423248E+04  0.10100000352E+00 0. -1.
       -3    1    3    3    0  502  0.10478535420E+04  0.10679118634E+03 -0.79377530440E+03  0.13188937209E+04  0.10100000352E+00 0.  1.
</event>
<event>
 5   0  0.1999849E-06  0.3189842E+04  0.7818609E-02  0.8191505E-01
        1   -1    0    0  501    0  0.00000000000E+00  0.00000000000E+00  0.29548427672E+04  0.29548427672E+04  0.50400001928E-02 0. -1.
       -1   -1    0    0    0  501  0.00000000000E+00  0.00000000000E+00 -0.86088273240E+03  0.86088273242E+03  0.50400001928E-02 0.  1.
    10030    2    1    2    0    0  0.00000000000E+00  0.00000000000E+00  0.20939600348E+04  0.38157254996E+04  0.31898420746E+04 0.  0.
        5    1    3    3  502    0  0.15586125375E+04 -0.29683264845E+03  0.12412248701E+04  0.20144587192E+04  0.46999998093E+01 0.  1.
       -5    1    3    3    0  502 -0.15586125375E+04  0.29683264845E+03  0.85273516465E+03  0.18012667804E+04  0.46999998093E+01 0. -1.
</event>
<event>
 5   0  0.5622811E-06  0.3256523E+04  0.7818609E-02  0.8174047E-01
        2   -1    0    0  501    0  0.00000000000E+00  0.00000000000E+00  0.15180977674E+04  0.15180977674E+04  0.25500000920E-02 0. -1.
       -2   -1    0    0    0  501  0.00000000000E+00  0.00000000000E+00 -0.17464192397E+04  0.17464192397E+04  0.25500000920E-02 0.  1.
    10030    2    1    2    0    0  0.00000000000E+00  0.00000000000E+00 -0.22832147238E+03  0.32645170071E+04  0.32565227767E+04 0.  0.
        1    1    3    3  502    0 -0.74959870781E+03  0.11823245986E+04  0.71941254032E+03  0.15739580942E+04  0.50400001928E-02 0. -1.
       -1    1    3    3    0  502  0.74959870781E+03 -0.11823245986E+04 -0.94773401270E+03  0.16905589129E+04  0.50400001928E-02 0.  1.
</event>
<event>
 5   0  0.2730981E-06  0.2056412E+04  0.7818609E-02  0.8580691E-01
        1   -1    0    0  501    0  0.00000000000E+00  0.00000000000E+00  0.80318872012E+03  0.80318872013E+03  0.50400001928E-02 0.  1.
       -1   -1    0    0    0  501  0.00000000000E+00  0.00000000000E+00 -0.13162632020E+04  0.13162632020E+04  0.50400001928E-02 0. -1.
    10030    2    1    2    0    0  0.00000000000E+00  0.00000000000E+00 -0.51307448190E+03  0.21194519222E+04  0.20564121733E+04 0.  0.
        3    1    3    3  502    0  0.61576929870E+03 -0.73122343944E+03  0.13368275807E+03  0.96526195285E+03  0.10100000352E+00 0.  1.
       -3    1    3    3    0  502 -0.61576929870E+03  0.73122343944E+03 -0.64675723996E+03  0.11541899693E+04  0.10100000352E+00 0. -1.
</event>
<event>
 5   0  0.5637538E-06  0.3410865E+04  0.7818609E-02  0.8135245E-01
       -2   -1    0    0    0  501  0.00000000000E+00  0.00000000000E+00  0.18758755445E+04  0.18758755445E+04  0.25500000920E-02 0.  1.
        2   -1    0    0  501    0  0.00000000000E+00  0.00000000000E+00 -0.15504758994E+04  0.15504758994E+04  0.25500000920E-02 0. -1.
    10030    2    1    2    0    0  0.00000000000E+00  0.00000000000E+00  0.32539964512E+03  0.34263514440E+04  0.34108648886E+04 0.  0.
        2    1    3    3  502    0  0.48265135336E+03  0.41834060583E+03  0.17511886867E+04  0.18640340683E+04  0.25500000920E-02 0.  1.
       -2    1    3    3    0  502 -0.48265135336E+03 -0.41834060583E+03 -0.14257890415E+04  0.15623173757E+04  0.25500000920E-02 0. -1.
</event>
<event>
 5   0  0.2097842E-06  0.3194831E+04  0.7818609E-02  0.8190184E-01
        1   -1    0    0  501    0  0.00000000000E+00  0.00000000000E+00  0.16167619675E+04  0.16167619675E+04  0.50400001928E-02 0.  1.
       -1   -1    0    0    0  501  0.00000000000E+00  0.00000000000E+00 -0.15783003789E+04  0.15783003789E+04  0.50400001928E-02 0. -1.
    10030    2    1    2    0    0  0.00000000000E+00  0.00000000000E+00  0.38461588565E+02  0.31950623464E+04  0.31948308412E+04 0.  0.
        4    1    3    3  502    0 -0.11078353178E+04 -0.30350194772E+03  0.11294111805E+04  0.16108953260E+04  0.12699999809E+01 0.  1.
       -4    1    3    3    0  502  0.11078353178E+04  0.30350194772E+03 -0.10909495919E+04  0.15841670205E+04  0.12699999809E+01 0. -1.
</event>
<event>
 5   0  0.1999849E-06  0.3212152E+04  0.7818609E-02  0.8185615E-01
       -1   -1    0    0    0  501  0.00000000000E+00  0.00000000000E+00  0.14033020362E+04  0.14033020362E+04  0.50400001928E-02 0.  1.
        1   -1    0    0  501    0  0.00000000000E+00  0.00000000000E+00 -0.18381508768E+04  0.18381508769E+04  0.50400001928E-02 0. -1.
    10030    2    1    2    0    0  0.00000000000E+00  0.00000000000E+00 -0.43484884064E+03  0.32414529131E+04  0.32121524673E+04 0.  0.
        5    1    3    3  502    0 -0.73727449866E+03 -0.22892076417E+03 -0.16386320162E+04  0.18113849334E+04  0.46999998093E+01 0. -1.
       -5    1    3    3    0  502  0.73727449866E+03  0.22892076417E+03  0.12037831755E+04  0.14300679796E+04  0.46999998093E+01 0.  1.
</event>
<event>
 5   0  0.5755250E-06  0.3376735E+04  0.7818609E-02  0.8143640E-01
       -2   -1    0    0    0  501  0.00000000000E+00  0.00000000000E+00  0.12253946344E+04  0.12253946344E+04  0.25500000920E-02 0.  1.
        2   -1    0    0  501    0  0.00000000000E+00  0.00000000000E+00 -0.23262592859E+04  0.23262592859E+04  0.25500000920E-02 0. -1.
    10030    2    1    2    0    0  0.00000000000E+00  0.00000000000E+00 -0.11008646515E+04  0.35516539203E+04  0.33767354928E+04 0.  0.
        5    1    3    3  502    0  0.13604273812E+03  0.13944540335E+04 -0.15413349103E+04  0.20829654519E+04  0.46999998093E+01 0. -1.
       -5    1    3    3    0  502 -0.13604273812E+03 -0.13944540335E+04  0.44047025878E+03  0.14686884684E+04  0.46999998093E+01 0.  1.
</event>
<event>
 5   0  0.1999849E-06  0.2112100E+04  0.7818609E-02  0.8555932E-01
        1   -1    0    0  501    0  0.00000000000E+00  0.00000000000E+00  0.16651353974E+04  0.16651353974E+04  0.50400001928E-02 0. -1.
       -1   -1    0    0    0  501  0.00000000000E+00  0.00000000000E+00 -0.66976020904E+03  0.66976020906E+03  0.50400001928E-02 0.  1.
    10030    2    1    2    0    0  0.00000000000E+00  0.00000000000E+00  0.99537518836E+03  0.23348956065E+04  0.21120998384E+04 0.  0.
        5    1    3    3  502    0 -0.76290716170E+03  0.16278742173E+03 -0.28922257859E+03  0.83198489891E+03  0.46999998093E+01 0.  1.
       -5    1    3    3    0  502  0.76290716170E+03 -0.16278742173E+03  0.12845977670E+04  0.15029107076E+04  0.46999998093E+01 0. -1.
</event>
<event>
 5   0  0.2037109E-06  0.1634577E+04  0.7818609E-02  0.8799583E-01
       -1   -1    0    0    0  501  0.00000000000E+00  0.00000000000E+00  0.46329177065E+03  0.46329177068E+03  0.50400001928E-02 0. -1.
        1   -1    0    0  501    0  0.00000000000E+00  0.00000000000E+00 -0.14417706708E+04  0.14417706708E+04  0.50400001928E-02 0.  1.
    10030    2    1    2    0    0  0.00000000000E+00  0.00000000000E+00 -0.97847890012E+03  0.19050624415E+04  0.16345769936E+04 0.  0.
        2    1    3    3  502    0 -0.67924064482E+03  0.24102978074E+03 -0.40118742281E+02  0.72185367095E+03  0.25500000920E-02 0. -1.
       -2    1    3    3    0  502  0.67924064482E+03 -0.24102978074E+03 -0.93836015784E+03  0.11832087705E+04  0.25500000920E-02 0.  1.
</event>
<event>
 5   0  0.5622811E-06  0.2272846E+04  0.7818609E-02  0.8488705E-01
        2   -1    0    0  501    0  0.00000000000E+00  0.00000000000E+00  0.15091846299E+04  0.15091846299E+04  0.25500000920E-02 0. -1.
       -2   -1    0    0    0  501  0.00000000000E+00  0.00000000000E+00 -0.85573151242E+03  0.85573151242E+03  0.25500000920E-02 0.  1.
    10030    2    1    2    0    0  0.00000000000E+00  0.00000000000E+00  0.65345311743E+03  0.23649161423E+04  0.22728456576E+04 0.  0.
        1    1    3    3  502    0  0.60792153199E+03 -0.88676381086E+03 -0.56342132863E+02  0.10766118526E+04  0.50400001928E-02 0. -1.
       -1    1    3    3    0  502 -0.60792153199E+03  0.88676381086E+03  0.70979525030E+03  0.12883042896E+04  0.50400001928E-02 0.  1.
</event>
<event>
 5   0  0.2097842E-06  0.3306060E+04  0.7818609E-02  0.8161355E-01
       -1   -1    0    0    0  501  0.00000000000E+00  0.00000000000E+00  0.15873112542E+04  0.15873112542E+04  0.50400001928E-02 0. -1.
        1   -1    0    0  501    0  0.00000000000E+00  0.00000000000E+00 -0.17214692512E+04  0.17214692513E+04  0.50400001928E-02 0.  1.
    10030    2    1    2    0    0  0.00000000000E+00  0.00000000000E+00 -0.13415799708E+03  0.33087805054E+04  0.33060595979E+04 0.  0.
        4    1    3    3  502    0 -0.13847180365E+04  0.31405289660E+03  0.78004105385E+03  0.16200428763E+04  0.12699999809E+01 0. -1.
       -4    1    3    3    0  502  0.13847180365E+04 -0.31405289660E+03 -0.91419905093E+03  0.16887376291E+04  0.12699999809E+01 0.  1.
</event>
<event>
 5   0  0.5622811E-06  0.3189598E+04  0.7818609E-02  0.8191570E-01
        2   -1    0    0  501    0  0.00000000000E+00  0.00000000000E+00  0.89686659177E+03  0.89686659177E+03  0.25500000920E-02 0. -1.
       -2   -1    0    0    0  501  0.00000000000E+00  0.00000000000E+00 -0.28358555117E+04  0.28358555117E+04  0.25500000920E-02 0.  1.
    10030    2    1    2    0    0  0.00000000000E+00  0.00000000000E+00 -0.19389889200E+04  0.37327221035E+04  0.31895981362E+04 0.  0.
        1    1    3    3  502    0  0.88534507041E+03  0.73918720426E+03 -0.22584769612E+04  0.25359321365E+04  0.50400001928E-02 0.  1.
       -1    1    3    3    0  502 -0.88534507041E+03 -0.73918720426E+03  0.31948804123E+03  0.11967899670E+04  0.50400001928E-02 0. -1.
</event>
<event>
 5   0  0.5622811E-06  0.3299379E+04  0.7818609E-02  0.8163053E-01
       -2   -1    0    0    0  501  0.00000000000E+00  0.00000000000E+00  0.16241959485E+04  0.16241959485E+04  0.25500000920E-02 0.  1.
        2   -1    0    0  501    0  0.00000000000E+00  0.00000000000E+00 -0.16755829370E+04  0.16755829370E+04  0.25500000920E-02 0. -1.
    10030    2    1    2    0    0  0.00000000000E+00  0.00000000000E+00 -0.51386988557E+02  0.32997788855E+04  0.32993787401E+04 0.  0.
        1    1    3    3  502    0  0.34475351729E+03  0.14285461476E+04  0.72398125506E+03  0.16382148642E+04  0.50400001928E-02 0.  1.
       -1    1    3    3    0  502 -0.34475351729E+03 -0.14285461476E+04 -0.77536824362E+03  0.16615640213E+04  0.50400001928E-02 0. -1.
</event>
<event>
 5   0  0.2097842E-06  0.1959453E+04  0.7818609E-02  0.8625816E-01
        1   -1    0    0  501    0  0.00000000000E+00  0.00000000000E+00  0.14701341525E+04  0.14701341525E+04  0.50400001928E-02 0. -1.
       -1   -1    0    0    0  501  0.00000000000E+00  0.00000000000E+00 -0.65290918781E+03  0.65290918783E+03  0.50400001928E-02 0.  1.
    10030    2    1    2    0    0  0.00000000000E+00  0.00000000000E+00  0.81722496466E+03  0.21230433403E+04  0.19594530824E+04 0.  0.
        4    1    3    3  502    0 -0.61083781662E+03 -0.14804744216E+03  0.12229034904E+04  0.13749674334E+04  0.12699999809E+01 0. -1.
       -4    1    3    3    0  502  0.61083781662E+03  0.14804744216E+03 -0.40567852570E+03  0.74807590688E+03  0.12699999809E+01 0.  1.
</event>
<event>
 5   0  0.1999849E-06  0.3239668E+04  0.7818609E-02  0.8178419E-01
       -1   -1    0    0    0  501  0.00000000000E+00  0.00000000000E+00  0.18622723866E+04  0.18622723866E+04  0.50400001928E-02 0. -1.
        1   -1    0    0  501    0  0.00000000000E+00  0.00000000000E+00 -0.14089569737E+04  0.14089569737E+04  0.50400001928E-02 0.  1.
    10030    2    1    2    0    0  0.00000000000E+00  0.00000000000E+00  0.45331541286E+03  0.32712293603E+04  0.32396676780E+04 0.  0.
        5    1    3    3  502    0  0.25947778641E+03  0.16201918314E+03 -0.13795184047E+04  0.14130364667E+04  0.46999998093E+01 0.  1.
       -5    1    3    3    0  502 -0.25947778641E+03 -0.16201918314E+03  0.18328338175E+04  0.18581928936E+04  0.46999998093E+01 0. -1.
</event>
<event>
 5   0  0.5300268E-06  0.3282652E+04  0.7818609E-02  0.8167324E-01
        2   -1    0    0  501    0  0.00000000000E+00  0.00000000000E+00  0.28751331678E+04  0.28751331678E+04  0.25500000920E-02 0. -1.
       -2   -1    0    0    0  501  0.00000000000E+00  0.00000000000E+00 -0.93698322090E+03  0.93698322090E+03  0.25500000920E-02 0.  1.
    10030    2    1    2    0    0  0.00000000000E+00  0.00000000000E+00  0.19381499469E+04  0.38121163887E+04  0.32826523033E+04 0.  0.
        4    1    3    3  502    0 -0.41694139644E+03 -0.12724779434E+04  0.20713295055E+04  0.24664646314E+04  0.12699999809E+01 0. -1.
       -4    1    3    3    0  502  0.41694139644E+03  0.12724779434E+04 -0.13317955859E+03  0.13456517574E+04  0.12699999809E+01 0.  1.
</event>
<event>
 5   0  0.2097842E-06  0.3279765E+04  0.7818609E-02  0.8168063E-01
        1   -1    0    0  501    0  0.00000000000E+00  0.00000000000E+00  0.18443033701E+04  0.18443033701E+04  0.50400001928E-02 0. -1.
       -1   -1    0    0    0  501  0.00000000000E+00  0.00000000000E+00 -0.14581194656E+04  0.14581194656E+04  0.50400001928E-02 0.  1.
    10030    2    1    2    0    0  0.00000000000E+00  0.00000000000E+00  0.38618390452E+03  0.33024228357E+04  0.32797650187E+04 0.  0.
        4    1    3    3  502    0  0.62263064815E+02  0.96958219214E+03  0.15232963026E+04  0.18067649418E+04  0.12699999809E+01 0. -1.
       -4    1    3    3    0  502 -0.62263064815E+02 -0.96958219214E+03 -0.11371123981E+04  0.14956578938E+04  0.12699999809E+01 0.  1.
</event>
<event>
 5   0  0.1925906E-06  0.3239096E+04  0.7818609E-02  0.8178568E-01
       -1   -1    0    0    0  501  0.00000000000E+00  0.00000000000E+00  0.13242470767E+04  0.13242470767E+04  0.50400001928E-02 0.  1.
        1   -1    0    0  501    0  0.00000000000E+00  0.00000000000E+00 -0.19806994813E+04  0.19806994813E+04  0.50400001928E-02 0. -1.
    10030    2    1    2    0    0  0.00000000000E+00  0.00000000000E+00 -0.65645240460E+03  0.33049465580E+04  0.32390958602E+04 0.  0.
        1    1    3    3  502    0 -0.97491442936E+03 -0.10973146314E+04 -0.10265210896E+04  0.17911736634E+04  0.50400001928E-02 0. -1.
       -1    1    3    3    0  502  0.97491442936E+03  0.10973146314E+04  0.37006868503E+03  0.15137728946E+04  0.50400001928E-02 0.  1.
</event>
<event>
 5   0  0.1999849E-06  0.3243327E+04  0.7818609E-02  0.8177467E-01
       -1   -1    0    0    0  501  0.00000000000E+00  0.00000000000E+00  0.95263858678E+03  0.95263858679E+03  0.50400001928E-02 0. -1.
        1   -1    0    0  501    0  0.00000000000E+00  0.00000000000E+00 -0.27605352812E+04  0.27605352812E+04  0.50400001928E-02 0.  1.
    10030    2    1    2    0    0  0.00000000000E+00  0.00000000000E+00 -0.18078966944E+04  0.37131738680E+04  0.32433269518E+04 0.  0.
        5    1    3    3  502    0  0.14300037195E+04 -0.52611885627E+03 -0.26851316259E+03  0.15472016990E+04  0.46999998093E+01 0. -1.
       -5    1    3    3    0  502 -0.14300037195E+04  0.52611885627E+03 -0.15393835318E+04  0.21659721690E+04  0.46999998093E+01 0.  1.
</event>
<event>
 5   0  0.5300268E-06  0.3343764E+04  0.7818609E-02  0.8151848E-01
       -2   -1    0    0    0  501  0.00000000000E+00  0.00000000000E+00  0.12992252791E+04  0.12992252791E+04  0.25500000920E-02 0. -1.
        2   -1    0    0  501    0  0.00000000000E+00  0.00000000000E+00 -0.21514276018E+04  0.21514276018E+04  0.25500000920E-02 0.  1.
    10030    2    1    2    0    0  0.00000000000E+00  0.00000000000E+00 -0.85220232278E+03  0.34506528809E+04  0.33437638232E+04 0.  0.
        4    1    3    3  502    0 -0.15495168729E+04 -0.47632279790E+03 -0.84820148212E+03  0.18295718938E+04  0.12699999809E+01 0.  1.
       -4    1    3    3    0  502  0.15495168729E+04  0.47632279790E+03 -0.40008406602E+01  0.16210809871E+04  0.12699999809E+01 0. -1.
</event>
<event>
 5   0  0.5637538E-06  0.3257676E+04  0.7818609E-02  0.8173749E-01
        2   -1    0    0  501    0  0.00000000000E+00  0.00000000000E+00  0.17305661738E+04  0.17305661738E+04  0.25500000920E-02 0. -1.
       -2   -1    0    0    0  501  0.00000000000E+00  0.00000000000E+00 -0.15330899950E+04  0.15330899950E+04  0.25500000920E-02 0.  1.
    10030    2    1    2    0    0  0.00000000000E+00  0.00000000000E+00  0.19747617880E+03  0.32636561688E+04  0.32576762802E+04 0.  0.
        2    1    3    3  502    0 -0.10562217599E+04 -0.43680629474E+03  0.12613464501E+04  0.17021747890E+04  0.25500000920E-02 0. -1.
       -2    1    3    3    0  502  0.10562217599E+04  0.43680629474E+03 -0.10638702713E+04  0.15614813798E+04  0.25500000920E-02 0.  1.
</event>
<event>
 5   0  0.1999849E-06  0.3126554E+04  0.7818609E-02  0.8208488E-01
       -1   -1    0    0    0  501  0.00000000000E+00  0.00000000000E+00  0.14090066851E+04  0.14090066851E+04  0.50400001928E-02 0.  1.
        1   -1    0    0  501    0  0.00000000000E+00  0.00000000000E+00 -0.17344386064E+04  0.17344386064E+04  0.50400001928E-02 0. -1.
    10030    2    1    2    0    0  0.00000000000E+00  0.00000000000E+00 -0.32543192129E+03  0.31434452915E+04  0.31265543919E+04 0.  0.
        5    1    3    3  502    0  0.97441420842E+02 -0.70503507828E+02  0.14043409786E+04  0.14094897124E+04  0.46999998093E+01 0.  1.
       -5    1    3    3    0  502 -0.97441420842E+02  0.70503507828E+02 -0.17297728999E+04  0.17339555791E+04  0.46999998093E+01 0. -1.
</event>
<event>
 5   0  0.1925906E-06  0.3261628E+04  0.7818609E-02  0.8172728E-01
       -1   -1    0    0    0  501  0.00000000000E+00  0.00000000000E+00  0.16577380155E+04  0.16577380155E+04  0.50400001928E-02 0. -1.
        1   -1    0    0  501    0  0.00000000000E+00  0.00000000000E+00 -0.16043272305E+04  0.16043272305E+04  0.50400001928E-02 0.  1.
    10030    2    1    2    0    0  0.00000000000E+00  0.00000000000E+00  0.53410784985E+02  0.32620652460E+04  0.32616279611E+04 0.  0.
        1    1    3    3  502    0 -0.49118270644E+03 -0.67741639341E+03  0.14266790512E+04  0.16539548169E+04  0.50400001928E-02 0. -1.
       -1    1    3    3    0  502  0.49118270644E+03  0.67741639341E+03 -0.13732682662E+04  0.16081104291E+04  0.50400001928E-02 0.  1.
</event>
<event>
 5   0  0.5855568E-06  0.3339033E+04  0.7818609E-02  0.8153034E-01
        2   -1    0    0  501    0  0.00000000000E+00  0.00000000000E+00  0.24481592312E+04  0.24481592312E+04  0.25500000920E-02 0.  1.
       -2   -1    0    0    0  501  0.00000000000E+00  0.00000000000E+00 -0.11385231564E+04  0.11385231564E+04  0.25500000920E-02 0. -1.
    10030    2    1    2    0    0  0.00000000000E+00  0.00000000000E+00  0.13096360748E+04  0.35866823876E+04  0.33390333783E+04 0.  0.
        3    1    3    3  502    0  0.90994498171E+03 -0.13748198445E+04  0.37233743381E+03  0.16901966304E+04  0.10100000352E+00 0.  1.
       -3    1    3    3    0  502 -0.90994498171E+03  0.13748198445E+04  0.93729864102E+03  0.18964857572E+04  0.10100000352E+00 0. -1.
</event>
<event>
 5   0  0.5300268E-06  0.3386040E+04  0.7818609E-02  0.8141341E-01
       -2   -1    0    0    0  501  0.00000000000E+00  0.00000000000E+00  0.17077000483E+04  0.17077000483E+04  0.25500000920E-02 0.  1.
        2   -1    0    0  501    0  0.00000000000E+00  0.00000000000E+00 -0.16784660315E+04  0.16784660315E+04  0.25500000920E-02 0. -1.
    10030    2    1    2    0    0  0.00000000000E+00  0.00000000000E+00  0.29234016775E+02  0.33861660798E+04  0.33860398834E+04 0.  0.
        4    1    3    3  502    0 -0.55174681758E+03 -0.12500999475E+04 -0.98499039313E+03  0.16844530617E+04  0.12699999809E+01 0. -1.
       -4    1    3    3    0  502  0.55174681758E+03  0.12500999475E+04  0.10142244099E+04  0.17017130181E+04  0.12699999809E+01 0.  1.
</event>
<event>
 5   0  0.5300268E-06  0.3313821E+04  0.7818609E-02  0.8159387E-01
        2   -1    0    0  501    0  0.00000000000E+00  0.00000000000E+00  0.19404484502E+04  0.19404484502E+04  0.25500000920E-02 0.  1.
       -2   -1    0    0    0  501  0.00000000000E+00  0.00000000000E+00 -0.14148032747E+04  0.14148032747E+04  0.25500000920E-02 0. -1.
    10030    2    1    2    0    0  0.00000000000E+00  0.00000000000E+00  0.52564517548E+03  0.33552517248E+04  0.33138212514E+04 0.  0.
        4    1    3    3  502    0 -0.67460873653E+03  0.74509682677E+03  0.15965172244E+04  0.18865670116E+04  0.12699999809E+01 0.  1.
       -4    1    3    3    0  502  0.67460873653E+03 -0.74509682677E+03 -0.10708720489E+04  0.14686847132E+04  0.12699999809E+01 0. -1.
</event>
<event>
 5   0  0.2730981E-06  0.2413528E+04  0.7818609E-02  0.8434456E-01
       -1   -1    0    0    0  501  0.00000000000E+00  0.00000000000E+00  0.11922999364E+04  0.11922999364E+04  0.50400001928E-02 0.  1.
        1   -1    0    0  501    0  0.00000000000E+00  0.00000000000E+00 -0.12214030807E+04  0.12214030807E+04  0.50400001928E-02 0. -1.
    10030    2    1    2    0    0  0.00000000000E+00  0.00000000000E+00 -0.29103144285E+02  0.24137030171E+04  0.24135275556E+04 0.  0.
        3    1    3    3  502    0 -0.10045871602E+03 -0.16682788646E+02 -0.12170983598E+04  0.12213511767E+04  0.10100000352E+00 0. -1.
       -3    1    3    3    0  502  0.10045871602E+03  0.16682788646E+02  0.11879952155E+04  0.11923518404E+04  0.10100000352E+00 0.  1.
</event>
<event>
 5   0  0.1999849E-06  0.3279181E+04  0.7818609E-02  0.8168213E-01
        1   -1    0    0  501    0  0.00000000000E+00  0.00000000000E+00  0.16603673537E+04  0.16603673538E+04  0.50400001928E-02 0.  1.
       -1   -1    0    0    0  501  0.00000000000E+00  0.00000000000E+00 -0.16190736189E+04  0.16190736189E+04  0.50400001928E-02 0. -1.
    10030    2    1    2    0    0  0.00000000000E+00  0.00000000000E+00  0.41293734878E+02  0.32794409726E+04  0.32791809832E+04 0.  0.
        5    1    3    3  502    0 -0.12162536002E+03 -0.64048847429E+03  0.15251652516E+04  0.16586649295E+04  0.46999998093E+01 0.  1.
       -5    1    3    3    0  502  0.12162536002E+03  0.64048847429E+03 -0.14838715167E+04  0.16207760431E+04  0.46999998093E+01 0. -1.
</event>
<event>
 5   0  0.1925906E-06  0.2130488E+04  0.7818609E-02  0.8547931E-01
       -1   -1    0    0    0  501  0.00000000000E+00  0.00000000000E+00  0.90068642617E+03  0.90068642618E+03  0.50400001928E-02 0.  1.
        1   -1    0    0  501    0  0.00000000000E+00  0.00000000000E+00 -0.12598660539E+04  0.12598660539E+04  0.50400001928E-02 0. -1.
    10030    2    1    2    0    0  0.00000000000E+00  0.00000000000E+00 -0.35917962775E+03  0.21605524801E+04  0.21304875063E+04 0.  0.
        1    1    3    3  502    0 -0.98302229313E+03 -0.22559502848E+03  0.16805727169E+03  0.10224818787E+04  0.50400001928E-02 0.  1.
       -1    1    3    3    0  502  0.98302229313E+03  0.22559502848E+03 -0.52723689944E+03  0.11380706014E+04  0.50400001928E-02 0. -1.
</event>
<event>
 5   0  0.2037109E-06  0.3330957E+04  0.7818609E-02  0.8155063E-01
        1   -1    0    0  501    0  0.00000000000E+00  0.00000000000E+00  0.16619607916E+04  0.16619607916E+04  0.50400001928E-02 0.  1.
       -1   -1    0    0    0  501  0.00000000000E+00  0.00000000000E+00 -0.16690041314E+04  0.16690041314E+04  0.50400001928E-02 0. -1.
    10030    2    1    2    0    0  0.00000000000E+00  0.00000000000E+00 -0.70433398292E+01  0.33309649231E+04  0.33309574765E+04 0.  0.
        2    1    3    3  502    0 -0.24741643074E+03 -0.36931813409E+03  0.16015391301E+04  0.16620885535E+04  0.25500000920E-02 0.  1.
       -2    1    3    3    0  502  0.24741643074E+03  0.36931813409E+03 -0.16085824699E+04  0.16688763696E+04  0.25500000920E-02 0. -1.
</event>
<event>
 5   0  0.5855568E-06  0.3216683E+04  0.7818609E-02  0.8184425E-01
       -2   -1    0    0    0  501  0.00000000000E+00  0.00000000000E+00  0.23812000130E+04  0.23812000130E+04  0.25500000920E-02 0. -1.
        2   -1    0    0  501    0  0.00000000000E+00  0.00000000000E+00 -0.10863271077E+04  0.10863271077E+04  0.25500000920E-02 0.  1.
    10030    2    1    2    0    0  0.00000000000E+00  0.00000000000E+00  0.12948729053E+04  0.34675271207E+04  0.32166828398E+04 0.  0.
        3    1    3    3  502    0 -0.66398803378E+03 -0.13445958248E+04  0.20773471257E+02  0.14997498419E+04  0.10100000352E+00 0.  1.
       -3    1    3    3    0  502  0.66398803378E+03  0.13445958248E+04  0.12740994340E+04  0.19677772788E+04  0.10100000352E+00 0. -1.
</event>
<event>
 5   0  0.5855568E-06  0.3286357E+04  0.7818609E-02  0.8166376E-01
        2   -1    0    0  501    0  0.00000000000E+00  0.00000000000E+00  0.25204794609E+04  0.25204794609E+04  0.25500000920E-02 0.  1.
       -2   -1    0    0    0  501  0.00000000000E+00  0.00000000000E+00 -0.10712386946E+04  0.10712386946E+04  0.25500000920E-02 0. -1.
    10030    2    1    2    0    0  0.00000000000E+00  0.00000000000E+00  0.14492407663E+04  0.35917181555E+04  0.32863567229E+04 0.  0.
        3    1    3    3  502    0  0.28827463276E+03  0.11894968859E+04  0.19228642167E+04  0.22793446232E+04  0.10100000352E+00 0.  1.
       -3    1    3    3    0  502 -0.28827463276E+03 -0.11894968859E+04 -0.47362345037E+03  0.13123735323E+04  0.10100000352E+00 0. -1.
</event>
<event>
 5   0  0.4507530E-06  0.1629498E+04  0.7818609E-02  0.8802628E-01
        1   -1    0    0  501    0  0.00000000000E+00  0.00000000000E+00  0.67558766561E+03  0.67558766563E+03  0.50400001928E-02 0.  1.
       -1   -1    0    0    0  501  0.00000000000E+00  0.00000000000E+00 -0.98257569011E+03  0.98257569013E+03  0.50400001928E-02 0. -1.
    10030    2    1    2    0    0  0.00000000000E+00  0.00000000000E+00 -0.30698802450E+03  0.16581633558E+04  0.16294981028E+04 0.  0.
        3    1    3    3  502    0 -0.36465132009E+03  0.36048171883E+03  0.49080963454E+03  0.70979698676E+03  0.10100000352E+00 0.  1.
       -3    1    3    3    0  502  0.36465132009E+03 -0.36048171883E+03 -0.79779765905E+03  0.94836636899E+03  0.10100000352E+00 0. -1.
</event>
<event>
 5   0  0.5637538E-06  0.2007513E+04  0.7818609E-02  0.8603116E-01
        2   -1    0    0  501    0  0.00000000000E+00  0.00000000000E+00  0.18008722825E+04  0.18008722825E+04  0.25500000920E-02 0. -1.
       -2   -1    0    0    0  501  0.00000000000E+00  0.00000000000E+00 -0.55946615299E+03  0.55946615299E+03  0.25500000920E-02 0.  1.
    10030    2    1    2    0    0  0.00000000000E+00  0.00000000000E+00  0.12414061295E+04  0.23603384355E+04  0.20075129767E+04 0.  0.
        2    1    3    3  502    0 -0.74923925428E+03 -0.36490440372E+03  0.12785073390E+04  0.15261375102E+04  0.25500000920E-02 0.  1.
       -2    1    3    3    0  502  0.74923925428E+03  0.36490440372E+03 -0.37101209536E+02  0.83420092530E+03  0.25500000920E-02 0. -1.
</event>
<event>
 5   0  0.5622811E-06  0.1948120E+04  0.7818609E-02  0.8631268E-01
        2   -1    0    0  501    0  0.00000000000E+00  0.00000000000E+00  0.25309354348E+04  0.25309354348E+04  0.25500000920E-02 0.  1.
       -2   -1    0    0    0  501  0.00000000000E+00  0.00000000000E+00 -0.37487826104E+03  0.37487826105E+03  0.25500000920E-02 0. -1.
    10030    2    1    2    0    0  0.00000000000E+00  0.00000000000E+00  0.21560571738E+04  0.29058136959E+04  0.19481197855E+04 0.  0.
        1    1    3    3  502    0  0.39453642640E+03  0.87641267251E+03  0.13140338345E+04  0.16280181456E+04  0.50400001928E-02 0.  1.
       -1    1    3    3    0  502 -0.39453642640E+03 -0.87641267251E+03  0.84202333931E+03  0.12777955503E+04  0.50400001928E-02 0. -1.
</event>
<event>
 5   0  0.5300268E-06  0.3374654E+04  0.7818609E-02  0.8144155E-01
       -2   -1    0    0    0  501  0.00000000000E+00  0.00000000000E+00  0.93979474437E+03  0.93979474438E+03  0.25500000920E-02 0.  1.
        2   -1    0    0  501    0  0.00000000000E+00  0.00000000000E+00 -0.30294613640E+04  0.30294613640E+04  0.25500000920E-02 0. -1.
    10030    2    1    2    0    0  0.00000000000E+00  0.00000000000E+00 -0.20896666196E+04  0.39692561084E+04  0.33746536819E+04 0.  0.
        4    1    3    3  502    0 -0.98109464439E+03 -0.19004988295E+03  0.55427702820E+03  0.11427555715E+04  0.12699999809E+01 0.  1.
       -4    1    3    3    0  502  0.98109464439E+03  0.19004988295E+03 -0.26439436479E+04  0.28265005369E+04  0.12699999809E+01 0. -1.
</event>
<event>
 5   0  0.1999849E-06  0.3091403E+04  0.7818609E-02  0.8218101E-01
       -1   -1    0    0    0  501  0.00000000000E+00  0.00000000000E+00  0.14834964089E+04  0.14834964089E+04  0.50400001928E-02 0. -1.
        1   -1    0    0  501    0  0.00000000000E+00  0.00000000000E+00 -0.16105152166E+04  0.16105152166E+04  0.50400001928E-02 0.  1.
    10030    2    1    2    0    0  0.00000000000E+00  0.00000000000E+00 -0.12701880771E+03  0.30940116254E+04  0.30914032673E+04 0.  0.
        5    1    3    3  502    0 -0.26726960409E+01  0.11902613968E+04  0.92344743118E+03  0.15064881626E+04  0.46999998093E+01 0. -1.
       -5    1    3    3    0  502  0.26726960409E+01 -0.11902613968E+04 -0.10504662389E+04  0.15875234628E+04  0.46999998093E+01 0.  1.
</event>
<event>
 5   0  0.5622811E-06  0.3314128E+04  0.7818609E-02  0.8159310E-01
       -2   -1    0    0    0  501  0.00000000000E+00  0.00000000000E+00  0.20421157874E+04  0.20421157874E+04  0.25500000920E-02 0.  1.
        2   -1    0    0  501    0  0.00000000000E+00  0.00000000000E+00 -0.13446158782E+04  0.13446158782E+04  0.25500000920E-02 0. -1.
    10030    2    1    2    0    0  0.00000000000E+00  0.00000000000E+00  0.69749990915E+03  0.33867316656E+04  0.33141281284E+04 0.  0.
        1    1    3    3  502    0 -0.77181897714E+03  0.14233791809E+04 -0.11316123847E+02  0.16192099558E+04  0.50400001928E-02 0. -1.
       -1    1    3    3    0  502  0.77181897714E+03 -0.14233791809E+04  0.70881603299E+03  0.17675217098E+04  0.50400001928E-02 0.  1.
</event>
<event>
 5   0  0.5855568E-06  0.2422191E+04  0.7818609E-02  0.8431242E-01
       -2   -1    0    0    0  501  0.00000000000E+00  0.00000000000E+00  0.64582443789E+03  0.64582443790E+03  0.25500000920E-02 0. -1.
        2   -1    0    0  501    0  0.00000000000E+00  0.00000000000E+00 -0.22711315483E+04  0.22711315483E+04  0.25500000920E-02 0.  1.
    10030    2    1    2    0    0  0.00000000000E+00  0.00000000000E+00 -0.16253071104E+04  0.29169559862E+04  0.24221909549E+04 0.  0.
        3    1    3    3  502    0  0.33380785360E+03  0.43643116287E+03 -0.21123949414E+04  0.21826846409E+04  0.10100000352E+00 0.  1.
       -3    1    3    3    0  502 -0.33380785360E+03 -0.43643116287E+03  0.48708783106E+03  0.73427134522E+03  0.10100000352E+00 0. -1.
</event>
<event>
 5   0  0.2097842E-06  0.2586306E+04  0.7818609E-02  0.8372868E-01
       -1   -1    0    0    0  501  0.00000000000E+00  0.00000000000E+00  0.88418873571E+03  0.88418873573E+03  0.50400001928E-02 0.  1.
        1   -1    0    0  501    0  0.00000000000E+00  0.00000000000E+00 -0.18912757993E+04  0.18912757993E+04  0.50400001928E-02 0. -1.
    10030    2    1    2    0    0  0.00000000000E+00  0.00000000000E+00 -0.10070870636E+04  0.27754645350E+04  0.25863060592E+04 0.  0.
        4    1    3    3  502    0 -0.12702747486E+04  0.17955812372E+03 -0.67792139572E+03  0.14510058885E+04  0.12699999809E+01 0. -1.
       -4    1    3    3    0  502  0.12702747486E+04 -0.17955812372E+03 -0.32916566788E+03  0.13244586466E+04  0.12699999809E+01 0.  1.
</event>
<event>
 5   0  0.5755250E-06  0.3101327E+04  0.7818609E-02  0.8215374E-01
        2   -1    0    0  501    0  0.00000000000E+00  0.00000000000E+00  0.25227181957E+04  0.25227181957E+04  0.25500000920E-02 0.  1.
       -2   -1    0    0    0  501  0.00000000000E+00  0.00000000000E+00 -0.95316099012E+03  0.95316099012E+03  0.25500000920E-02 0. -1.
    10030    2    1    2    0    0  0.00000000000E+00  0.00000000000E+00  0.15695572056E+04  0.34758791859E+04  0.31013265376E+04 0.  0.
        5    1    3    3  502    0 -0.43023436402E+03 -0.12537484453E+03  0.24485543726E+04  0.24892290102E+04  0.46999998093E+01 0.  1.
       -5    1    3    3    0  502  0.43023436402E+03  0.12537484453E+03 -0.87899716697E+03  0.98665017568E+03  0.46999998093E+01 0. -1.
</event>
<event>
 5   0  0.5637538E-06  0.1709240E+04  0.7818609E-02  0.8756112E-01
        2   -1    0    0  501    0  0.00000000000E+00  0.00000000000E+00  0.12434480708E+04  0.12434480708E+04  0.25500000920E-02 0.  1.
       -2   -1    0    0    0  501  0.00000000000E+00  0.00000000000E+00 -0.58737937360E+03  0.58737937361E+03  0.25500000920E-02 0. -1.
    10030    2    1    2    0    0  0.00000000000E+00  0.00000000000E+00  0.65606869721E+03  0.18308274444E+04  0.17092404734E+04 0.  0.
        2    1    3    3  502    0 -0.69841129958E+03 -0.11608139161E+03 -0.18468313947E+03  0.73168373965E+03  0.25500000920E-02 0. -1.
       -2    1    3    3    0  502  0.69841129958E+03  0.11608139161E+03  0.84075183667E+03  0.10991437048E+04  0.25500000920E-02 0.  1.
</event>
<event>
 5   0  0.5637538E-06  0.3310807E+04  0.7818609E-02  0.8160151E-01
        2   -1    0    0  501    0  0.00000000000E+00  0.00000000000E+00  0.16145595546E+04  0.16145595546E+04  0.25500000920E-02 0.  1.
       -2   -1    0    0    0  501  0.00000000000E+00  0.00000000000E+00 -0.16972809853E+04  0.16972809853E+04  0.25500000920E-02 0. -1.
    10030    2    1    2    0    0  0.00000000000E+00  0.00000000000E+00 -0.82721430663E+02  0.33118405399E+04  0.33108072923E+04 0.  0.
        2    1    3    3  502    0 -0.10159990653E+04  0.49156104097E+03 -0.12527195975E+04  0.16861769621E+04  0.25500000920E-02 0. -1.
       -2    1    3    3    0  502  0.10159990653E+04 -0.49156104097E+03  0.11699981668E+04  0.16256635778E+04  0.25500000920E-02 0.  1.
</event>
<event>
 5   0  0.2730981E-06  0.2868459E+04  0.7818609E-02  0.8282324E-01
        1   -1    0    0  501    0  0.00000000000E+00  0.00000000000E+00  0.29129006924E+04  0.29129006924E+04  0.50400001928E-02 0.  1.
       -1   -1    0    0    0  501  0.00000000000E+00  0.00000000000E+00 -0.70617393965E+03  0.70617393967E+03  0.50400001928E-02 0. -1.
    10030    2    1    2    0    0  0.00000000000E+00  0.00000000000E+00  0.22067267527E+04  0.36190746320E+04  0.28684592085E+04 0.  0.
        3    1    3    3  502    0 -0.49528852429E+03  0.74207408321E+02  0.27989946950E+04  0.28434466365E+04  0.10100000352E+00 0.  1.
       -3    1    3    3    0  502  0.49528852429E+03 -0.74207408321E+02 -0.59226794231E+03  0.77562799552E+03  0.10100000352E+00 0. -1.
</event>
<event>
 5   0  0.2037109E-06  0.3284782E+04  0.7818609E-02  0.8166778E-01
       -1   -1    0    0    0  501  0.00000000000E+00  0.00000000000E+00  0.11980618929E+04  0.11980618929E+04  0.50400001928E-02 0.  1.
        1   -1    0    0  501    0  0.00000000000E+00  0.00000000000E+00 -0.22515101639E+04  0.22515101639E+04  0.50400001928E-02 0. -1.
    10030    2    1    2    0    0  0.00000000000E+00  0.00000000000E+00 -0.10534482710E+04  0.34495720568E+04  0.32847822022E+04 0.  0.
        2    1    3    3  502    0 -0.12985331723E+04  0.81972716309E+01  0.52930440421E+03  0.14022905359E+04  0.25500000920E-02 0.  1.
       -2    1    3    3    0  502  0.12985331723E+04 -0.81972716309E+01 -0.15827526752E+04  0.20472815209E+04  0.25500000920E-02 0. -1.
</event>
<event>
 5   0  0.5622811E-06  0.3323116E+04  0.7818609E-02  0.8157038E-01
        2   -1    0    0  501    0  0.00000000000E+00  0.00000000000E+00  0.23303617449E+04  0.23303617449E+04  0.25500000920E-02 0.  1.
       -2   -1    0    0    0  501  0.00000000000E+00  0.00000000000E+00 -0.11846979804E+04  0.11846979804E+04  0.25500000920E-02 0. -1.
    10030    2    1    2    0    0  0.00000000000E+00  0.00000000000E+00  0.11456637645E+04  0.35150597253E+04  0.33231159190E+04 0.  0.
        1    1    3    3  502    0 -0.46006411949E+03 -0.14405816953E+04  0.13009522614E+04  0.19948462100E+04  0.50400001928E-02 0. -1.
       -1    1    3    3    0  502  0.46006411949E+03  0.14405816953E+04 -0.15528849690E+03  0.15202135153E+04  0.50400001928E-02 0.  1.
</event>
<event>
 5   0  0.2037109E-06  0.1704138E+04  0.7818609E-02  0.8759008E-01
       -1   -1    0    0    0  501  0.00000000000E+00  0.00000000000E+00  0.63100865806E+03  0.63100865808E+03  0.50400001928E-02 0. -1.
        1   -1    0    0  501    0  0.00000000000E+00  0.00000000000E+00 -0.11505727648E+04  0.11505727648E+04  0.50400001928E-02 0.  1.
    10030    2    1    2    0    0  0.00000000000E+00  0.00000000000E+00 -0.51956410670E+03  0.17815814228E+04  0.17041377601E+04 0.  0.
        2    1    3    3  502    0 -0.29592187136E+03  0.79853468700E+03 -0.28924014899E+03  0.89938160093E+03  0.25500000920E-02 0.  1.
       -2    1    3    3    0  502  0.29592187136E+03 -0.79853468700E+03 -0.23032395770E+03  0.88219982192E+03  0.25500000920E-02 0. -1.
</event>
<event>
 5   0  0.2953185E-06  0.1726685E+04  0.7818609E-02  0.8746290E-01
       -1   -1    0    0    0  501  0.00000000000E+00  0.00000000000E+00  0.62486209583E+03  0.62486209585E+03  0.50400001928E-02 0. -1.
        1   -1    0    0  501    0  0.00000000000E+00  0.00000000000E+00 -0.11928392018E+04  0.11928392018E+04  0.50400001928E-02 0.  1.
    10030    2    1    2    0    0  0.00000000000E+00  0.00000000000E+00 -0.56797710599E+03  0.18177012977E+04  0.17266846888E+04 0.  0.
        5    1    3    3  502    0 -0.12051522821E+03  0.35250348110E+03  0.53588084484E+03  0.65266606645E+03  0.46999998093E+01 0. -1.
       -5    1    3    3    0  502  0.12051522821E+03 -0.35250348110E+03 -0.11038579508E+04  0.11650352312E+04  0.46999998093E+01 0.  1.
</event>
<event>
 5   0  0.5755250E-06  0.2727447E+04  0.7818609E-02  0.8326154E-01
       -2   -1    0    0    0  501  0.00000000000E+00  0.00000000000E+00  0.27354366608E+04  0.27354366608E+04  0.25500000920E-02 0.  1.
        2   -1    0    0  501    0  0.00000000000E+00  0.00000000000E+00 -0.67986992921E+03  0.67986992921E+03  0.25500000920E-02 0. -1.
    10030    2    1    2    0    0  0.00000000000E+00  0.00000000000E+00  0.20555667316E+04  0.34153065900E+04  0.27274465193E+04 0.  0.
        5    1    3    3  502    0 -0.50013683714E+03  0.16753359032E+03 -0.54696101096E+03  0.75986367018E+03  0.46999998093E+01 0. -1.
       -5    1    3    3    0  502  0.50013683714E+03 -0.16753359032E+03  0.26025277425E+04  0.26554429198E+04  0.46999998093E+01 0.  1.
</event>
<event>
 5   0  0.2037109E-06  0.3046966E+04  0.7818609E-02  0.8230445E-01
        1   -1    0    0  501    0  0.00000000000E+00  0.00000000000E+00  0.26648798398E+04  0.26648798398E+04  0.50400001928E-02 0.  1.
       -1   -1    0    0    0  501  0.00000000000E+00  0.00000000000E+00 -0.87095880617E+03  0.87095880619E+03  0.50400001928E-02 0. -1.
    10030    2    1    2    0    0  0.00000000000E+00  0.00000000000E+00  0.17939210336E+04  0.35358386460E+04  0.30469660739E+04 0.  0.
        2    1    3    3  502    0 -0.85353591264E+03 -0.27147868106E+03  0.23270780477E+04  0.24934948303E+04  0.25500000920E-02 0.  1.
       -2    1    3    3    0  502  0.85353591264E+03  0.27147868106E+03 -0.53315701411E+03  0.10423438157E+04  0.25500000920E-02 0. -1.
</event>
<event>
 5   0  0.2730981E-06  0.3332426E+04  0.7818609E-02  0.8154693E-01
       -1   -1    0    0    0  501  0.00000000000E+00  0.00000000000E+00  0.15431964239E+04  0.15431964239E+04  0.50400001928E-02 0. -1.
        1   -1    0    0  501    0  0.00000000000E+00  0.00000000000E+00 -0.17990361372E+04  0.17990361372E+04  0.50400001928E-02 0.  1.
    10030    2    1    2    0    0  0.00000000000E+00  0.00000000000E+00 -0.25583971336E+03  0.33422325611E+04  0.33324262233E+04 0.  0.
        3    1    3    3  502    0 -0.39146323495E+03 -0.15229639542E+04 -0.68054351806E+03  0.17134182678E+04  0.10100000352E+00 0.  1.
       -3    1    3    3    0  502  0.39146323495E+03  0.15229639542E+04  0.42470380470E+03  0.16288142933E+04  0.10100000352E+00 0. -1.
</event>
<event>
 5   0  0.1999849E-06  0.3237334E+04  0.7818609E-02  0.8179026E-01
       -1   -1    0    0    0  501  0.00000000000E+00  0.00000000000E+00  0.19177062705E+04  0.19177062705E+04  0.50400001928E-02 0. -1.
        1   -1    0    0  501    0  0.00000000000E+00  0.00000000000E+00 -0.13662589092E+04  0.13662589093E+04  0.50400001928E-02 0.  1.
    10030    2    1    2    0    0  0.00000000000E+00  0.00000000000E+00  0.55144736127E+03  0.32839651798E+04  0.32373342598E+04 0.  0.
        5    1    3    3  502    0 -0.32552371173E+03 -0.13423287350E+04 -0.58038114487E+03  0.14982244435E+04  0.46999998093E+01 0.  1.
       -5    1    3    3    0  502  0.32552371173E+03  0.13423287350E+04  0.11318285061E+04  0.17857407363E+04  0.46999998093E+01 0. -1.
</event>
<event>
 5   0  0.5637538E-06  0.3353357E+04  0.7818609E-02  0.8149450E-01
        2   -1    0    0  501    0  0.00000000000E+00  0.00000000000E+00  0.89690491276E+03  0.89690491276E+03  0.25500000920E-02 0.  1.
       -2   -1    0    0    0  501  0.00000000000E+00  0.00000000000E+00 -0.31343916522E+04  0.31343916522E+04  0.25500000920E-02 0. -1.
    10030    2    1    2    0    0  0.00000000000E+00  0.00000000000E+00 -0.22374867394E+04  0.40312965649E+04  0.33533572857E+04 0.  0.
        2    1    3    3  502    0  0.15293111366E+04 -0.68671021217E+03 -0.10829235573E+04  0.19957672457E+04  0.25500000920E-02 0.  1.
       -2    1    3    3    0  502 -0.15293111366E+04  0.68671021217E+03 -0.11545631821E+04  0.20355293192E+04  0.25500000920E-02 0. -1.
</event>
<event>
 5   0  0.5622811E-06  0.3397224E+04  0.7818609E-02  0.8138588E-01
       -2   -1    0    0    0  501  0.00000000000E+00  0.00000000000E+00  0.16275285583E+04  0.16275285583E+04  0.25500000920E-02 0.  1.
        2   -1    0    0  501    0  0.00000000000E+00  0.00000000000E+00 -0.17727995668E+04  0.17727995668E+04  0.25500000920E-02 0. -1.
    10030    2    1    2    0    0  0.00000000000E+00  0.00000000000E+00 -0.14527100858E+03  0.34003281251E+04  0.33972235270E+04 0.  0.
        1    1    3    3  502    0 -0.21761027296E+03  0.39235360289E+03 -0.17124203004E+04  0.17702200049E+04  0.50400001928E-02 0. -1.
       -1    1    3    3    0  502  0.21761027296E+03 -0.39235360289E+03  0.15671492918E+04  0.16301081202E+04  0.50400001928E-02 0.  1.
</event>
<event>
 5   0  0.1925906E-06  0.2860645E+04  0.7818609E-02  0.8284684E-01
        1   -1    0    0  501    0  0.00000000000E+00  0.00000000000E+00  0.10999785377E+04  0.10999785377E+04  0.50400001928E-02 0. -1.
       -1   -1    0    0    0  501  0.00000000000E+00  0.00000000000E+00 -0.18598748312E+04  0.18598748312E+04  0.50400001928E-02 0.  1.
    10030    2    1    2    0    0  0.00000000000E+00  0.00000000000E+00 -0.75989629351E+03  0.29598533689E+04  0.28606449602E+04 0.  0.
        1    1    3    3  502    0  0.54292001644E+03  0.68264260868E+03  0.79297032193E+03  0.11787981197E+04  0.50400001928E-02 0. -1.
       -1    1    3    3    0  502 -0.54292001644E+03 -0.68264260868E+03 -0.15528666154E+04  0.17810552492E+04  0.50400001928E-02 0.  1.
</event>
<event>
 5   0  0.5622811E-06  0.3268666E+04  0.7818609E-02  0.8170914E-01
        2   -1    0    0  501    0  0.00000000000E+00  0.00000000000E+00  0.21108145941E+04  0.21108145941E+04  0.25500000920E-02 0.  1.
       -2   -1    0    0    0  501  0.00000000000E+00  0.00000000000E+00 -0.12654092799E+04  0.12654092799E+04  0.25500000920E-02 0. -1.
    10030    2    1    2    0    0  0.00000000000E+00  0.00000000000E+00  0.84540531413E+03  0.33762238740E+04  0.32686660127E+04 0.  0.
        1    1    3    3  502    0  0.13563703211E+03  0.43201914252E+03  0.20447285836E+04  0.20942666794E+04  0.50400001928E-02 0.  1.
       -1    1    3    3    0  502 -0.13563703211E+03 -0.43201914252E+03 -0.11993232695E+04  0.12819571946E+04  0.50400001928E-02 0. -1.
</event>
<event>
 5   0  0.5622811E-06  0.3318279E+04  0.7818609E-02  0.8158260E-01
        2   -1    0    0  501    0  0.00000000000E+00  0.00000000000E+00  0.14516372973E+04  0.14516372973E+04  0.25500000920E-02 0.  1.
       -2   -1    0    0    0  501  0.00000000000E+00  0.00000000000E+00 -0.18963027913E+04  0.18963027913E+04  0.25500000920E-02 0. -1.
    10030    2    1    2    0    0  0.00000000000E+00  0.00000000000E+00 -0.44466549400E+03  0.33479400886E+04  0.33182789869E+04 0.  0.
        1    1    3    3  502    0  0.78095191937E+03  0.10439931223E+04  0.81296634678E+03  0.15364640643E+04  0.50400001928E-02 0.  1.
       -1    1    3    3    0  502 -0.78095191937E+03 -0.10439931223E+04 -0.12576318408E+04  0.18114760243E+04  0.50400001928E-02 0. -1.
</event>
<event>
 5   0  0.6585203E-06  0.1881879E+04  0.7818609E-02  0.8663929E-01
       -2   -1    0    0    0  501  0.00000000000E+00  0.00000000000E+00  0.67932597523E+03  0.67932597524E+03  0.25500000920E-02 0. -1.
        2   -1    0    0  501    0  0.00000000000E+00  0.00000000000E+00 -0.13033022879E+04  0.13033022879E+04  0.25500000920E-02 0.  1.
    10030    2    1    2    0    0  0.00000000000E+00  0.00000000000E+00 -0.62397631266E+03  0.19826282631E+04  0.18818789523E+04 0.  0.
        5    1    3    3  502    0  0.11072545739E+03 -0.71249559661E+02  0.66955989965E+03  0.68239957201E+03  0.46999998093E+01 0. -1.
       -5    1    3    3    0  502 -0.11072545739E+03  0.71249559661E+02 -0.12935362123E+04  0.13002286911E+04  0.46999998093E+01 0.  1.
</event>
<event>
 5   0  0.5622811E-06  0.3260106E+04  0.7818609E-02  0.8173121E-01
       -2   -1    0    0    0  501  0.00000000000E+00  0.00000000000E+00  0.16039986463E+04  0.16039986463E+04  0.25500000920E-02 0. -1.
        2   -1    0    0  501    0  0.00000000000E+00  0.00000000000E+00 -0.16565301970E+04  0.16565301970E+04  0.25500000920E-02 0.  1.
    10030    2    1    2    0    0  0.00000000000E+00  0.00000000000E+00 -0.52531550687E+02  0.32605288433E+04  0.32601056385E+04 0.  0.
        1    1    3    3  502    0  0.19306074799E+03  0.15507324582E+04 -0.49003771822E+03  0.16377364179E+04  0.50400001928E-02 0.  1.
       -1    1    3    3    0  502 -0.19306074799E+03 -0.15507324582E+04  0.43750616753E+03  0.16227924254E+04  0.50400001928E-02 0. -1.
</event>
<event>
 5   0  0.1925906E-06  0.2559046E+04  0.7818609E-02  0.8382247E-01
       -1   -1    0    0    0  501  0.00000000000E+00  0.00000000000E+00  0.59420661325E+03  0.59420661327E+03  0.50400001928E-02 0.  1.
        1   -1    0    0  501    0  0.00000000000E+00  0.00000000000E+00 -0.27552352475E+04  0.27552352475E+04  0.50400001928E-02 0. -1.
    10030    2    1    2    0    0  0.00000000000E+00  0.00000000000E+00 -0.21610286343E+04  0.33494418608E+04  0.25590459200E+04 0.  0.
        1    1    3    3  502    0  0.36835198817E+03  0.10033062287E+04 -0.20012627624E+04  0.22687792356E+04  0.50400001928E-02 0. -1.
       -1    1    3    3    0  502 -0.36835198817E+03 -0.10033062287E+04 -0.15976587184E+03  0.10806626252E+04  0.50400001928E-02 0.  1.
</event>
<event>
 5   0  0.1925906E-06  0.2871332E+04  0.7818609E-02  0.8281458E-01
        1   -1    0    0  501    0  0.00000000000E+00  0.00000000000E+00  0.11681534487E+04  0.11681534487E+04  0.50400001928E-02 0. -1.
       -1   -1    0    0    0  501  0.00000000000E+00  0.00000000000E+00 -0.17644403704E+04  0.17644403704E+04  0.50400001928E-02 0.  1.
    10030    2    1    2    0    0  0.00000000000E+00  0.00000000000E+00 -0.59628692164E+03  0.29325938191E+04  0.28713321673E+04 0.  0.
        1    1    3    3  502    0 -0.12653801143E+04  0.36911339771E+03  0.28294675709E+03  0.13481433163E+04  0.50400001928E-02 0. -1.
       -1    1    3    3    0  502  0.12653801143E+04 -0.36911339771E+03 -0.87923367873E+03  0.15844505028E+04  0.50400001928E-02 0.  1.
</event>
<event>
 5   0  0.1925906E-06  0.2670846E+04  0.7818609E-02  0.8344527E-01
        1   -1    0    0  501    0  0.00000000000E+00  0.00000000000E+00  0.17359255611E+04  0.17359255611E+04  0.50400001928E-02 0. -1.
       -1   -1    0    0    0  501  0.00000000000E+00  0.00000000000E+00 -0.10273216684E+04  0.10273216684E+04  0.50400001928E-02 0.  1.
    10030    2    1    2    0    0  0.00000000000E+00  0.00000000000E+00  0.70860389272E+03  0.27632472295E+04  0.26708455168E+04 0.  0.
        1    1    3    3  502    0 -0.96834524183E+03 -0.35388593790E+03 -0.52384201131E+03  0.11564334037E+04  0.50400001928E-02 0.  1.
       -1    1    3    3    0  502  0.96834524183E+03  0.35388593790E+03  0.12324459040E+04  0.16068138258E+04  0.50400001928E-02 0. -1.
</event>
<event>
 5   0  0.5755250E-06  0.3470658E+04  0.7818609E-02  0.8120779E-01
       -2   -1    0    0    0  501  0.00000000000E+00  0.00000000000E+00  0.15570938617E+04  0.15570938617E+04  0.25500000920E-02 0.  1.
        2   -1    0    0  501    0  0.00000000000E+00  0.00000000000E+00 -0.19339665783E+04  0.19339665783E+04  0.25500000920E-02 0. -1.
    10030    2    1    2    0    0  0.00000000000E+00  0.00000000000E+00 -0.37687271657E+03  0.34910604399E+04  0.34706584319E+04 0.  0.
        5    1    3    3  502    0  0.68783710657E+03  0.77518113320E+03 -0.15884947319E+04  0.18966716315E+04  0.46999998093E+01 0. -1.
       -5    1    3    3    0  502 -0.68783710657E+03 -0.77518113320E+03  0.12116220153E+04  0.15943888084E+04  0.46999998093E+01 0.  1.
</event>
<event>
 5   0  0.5622811E-06  0.1786888E+04  0.7818609E-02  0.8713304E-01
       -2   -1    0    0    0  501  0.00000000000E+00  0.00000000000E+00  0.82101502456E+03  0.82101502456E+03  0.25500000920E-02 0. -1.
        2   -1    0    0  501    0  0.00000000000E+00  0.00000000000E+00 -0.97226225390E+03  0.97226225390E+03  0.25500000920E-02 0.  1.
    10030    2    1    2    0    0  0.00000000000E+00  0.00000000000E+00 -0.15124722934E+03  0.17932772785E+04  0.17868877058E+04 0.  0.
        1    1    3    3  502    0 -0.57407407133E+03  0.46919004817E+03  0.42469851249E+03  0.85444085062E+03  0.50400001928E-02 0. -1.
       -1    1    3    3    0  502  0.57407407133E+03 -0.46919004817E+03 -0.57594574184E+03  0.93883642784E+03  0.50400001928E-02 0.  1.
</event>
<event>
 5   0  0.1999849E-06  0.3143780E+04  0.7818609E-02  0.8203825E-01
        1   -1    0    0  501    0  0.00000000000E+00  0.00000000000E+00  0.19698203956E+04  0.19698203956E+04  0.50400001928E-02 0.  1.
       -1   -1    0    0    0  501  0.00000000000E+00  0.00000000000E+00 -0.12543469075E+04  0.12543469075E+04  0.50400001928E-02 0. -1.
    10030    2    1    2    0    0  0.00000000000E+00  0.00000000000E+00  0.71547348811E+03  0.32241673031E+04  0.31437799678E+04 0.  0.
        5    1    3    3  502    0 -0.33501094301E+03 -0.14709318395E+04 -0.95076893669E+02  0.15115999848E+04  0.46999998093E+01 0.  1.
       -5    1    3    3    0  502  0.33501094301E+03  0.14709318395E+04  0.81055038178E+03  0.17125673183E+04  0.46999998093E+01 0. -1.
</event>
<event>
 5   0  0.1999849E-06  0.3301270E+04  0.7818609E-02  0.8162572E-01
        1   -1    0    0  501    0  0.00000000000E+00  0.00000000000E+00  0.21101650731E+04  0.21101650731E+04  0.50400001928E-02 0. -1.
       -1   -1    0    0    0  501  0.00000000000E+00  0.00000000000E+00 -0.12911764191E+04  0.12911764191E+04  0.50400001928E-02 0.  1.
    10030    2    1    2    0    0  0.00000000000E+00  0.00000000000E+00  0.81898865402E+03  0.34013414922E+04  0.33012696847E+04 0.  0.
        5    1    3    3  502    0 -0.39801640008E+03  0.15972946307E+04  0.28412549458E+03  0.16704839355E+04  0.46999998093E+01 0. -1.
       -5    1    3    3    0  502  0.39801640008E+03 -0.15972946307E+04  0.53486315943E+03  0.17308575567E+04  0.46999998093E+01 0.  1.
</event>
<event>
 5   0  0.5622811E-06  0.3123144E+04  0.7818609E-02  0.8209415E-01
       -2   -1    0    0    0  501  0.00000000000E+00  0.00000000000E+00  0.10185292835E+04  0.10185292835E+04  0.25500000920E-02 0.  1.
        2   -1    0    0  501    0  0.00000000000E+00  0.00000000000E+00 -0.23941450895E+04  0.23941450895E+04  0.25500000920E-02 0. -1.
    10030    2    1    2    0    0  0.00000000000E+00  0.00000000000E+00 -0.13756158060E+04  0.34126743730E+04  0.31231438536E+04 0.  0.
        1    1    3    3  502    0 -0.12189642288E+04 -0.24829520265E+03  0.34361666077E+03  0.12905799892E+04  0.50400001928E-02 0.  1.
       -1    1    3    3    0  502  0.12189642288E+04  0.24829520265E+03 -0.17192324668E+04  0.21220943838E+04  0.50400001928E-02 0. -1.
</event>
<event>
 5   0  0.1925906E-06  0.3231360E+04  0.7818609E-02  0.8180584E-01
        1   -1    0    0  501    0  0.00000000000E+00  0.00000000000E+00  0.22337206833E+04  0.22337206833E+04  0.50400001928E-02 0. -1.
       -1   -1    0    0    0  501  0.00000000000E+00  0.00000000000E+00 -0.11686427043E+04  0.11686427043E+04  0.50400001928E-02 0.  1.
    10030    2    1    2    0    0  0.00000000000E+00  0.00000000000E+00  0.10650779790E+04  0.34023633876E+04  0.32313597014E+04 0.  0.
        1    1    3    3  502    0 -0.91810552405E+03  0.89441647236E+03 -0.50314197948E+03  0.13769714706E+04  0.50400001928E-02 0. -1.
       -1    1    3    3    0  502  0.91810552405E+03 -0.89441647236E+03  0.15682199585E+04  0.20253919170E+04  0.50400001928E-02 0.  1.
</event>
<event>
 5   0  0.2037109E-06  0.2909408E+04  0.7818609E-02  0.8270084E-01
        1   -1    0    0  501    0  0.00000000000E+00  0.00000000000E+00  0.27909584210E+04  0.27909584210E+04  0.50400001928E-02 0.  1.
       -1   -1    0    0    0  501  0.00000000000E+00  0.00000000000E+00 -0.75822130248E+03  0.75822130250E+03  0.50400001928E-02 0. -1.
    10030    2    1    2    0    0  0.00000000000E+00  0.00000000000E+00  0.20327371185E+04  0.35491797235E+04  0.29094082760E+04 0.  0.
        2    1    3    3  502    0 -0.68607088327E+03 -0.11920092083E+04  0.43825438544E+03  0.14434840200E+04  0.25500000920E-02 0. -1.
       -2    1    3    3    0  502  0.68607088327E+03  0.11920092083E+04  0.15944827330E+04  0.21056957035E+04  0.25500000920E-02 0.  1.
</event>
<event>
 5   0  0.2097842E-06  0.3029100E+04  0.7818609E-02  0.8235470E-01
       -1   -1    0    0    0  501  0.00000000000E+00  0.00000000000E+00  0.13526475109E+04  0.13526475109E+04  0.50400001928E-02 0. -1.
        1   -1    0    0  501    0  0.00000000000E+00  0.00000000000E+00 -0.16958312049E+04  0.16958312049E+04  0.50400001928E-02 0.  1.
    10030    2    1    2    0    0  0.00000000000E+00  0.00000000000E+00 -0.34318369394E+03  0.30484787158E+04  0.30291001028E+04 0.  0.
        4    1    3    3  502    0  0.14889190310E+04 -0.80083823733E+02  0.95752005331E+02  0.14941430183E+04  0.12699999809E+01 0. -1.
       -4    1    3    3    0  502 -0.14889190310E+04  0.80083823733E+02 -0.43893569927E+03  0.15543356975E+04  0.12699999809E+01 0.  1.
</event>
<event>
 5   0  0.2097842E-06  0.3205714E+04  0.7818609E-02  0.8187310E-01
       -1   -1    0    0    0  501  0.00000000000E+00  0.00000000000E+00  0.99202534668E+03  0.99202534669E+03  0.50400001928E-02 0.  1.
        1   -1    0    0  501    0  0.00000000000E+00  0.00000000000E+00 -0.25898032428E+04  0.25898032428E+04  0.50400001928E-02 0. -1.
    10030    2    1    2    0    0  0.00000000000E+00  0.00000000000E+00 -0.15977778961E+04  0.35818285895E+04  0.32057139359E+04 0.  0.
        4    1    3    3  502    0 -0.14856418770E+04  0.56272447644E+03 -0.10368511908E+04  0.18970642129E+04  0.12699999809E+01 0. -1.
       -4    1    3    3    0  502  0.14856418770E+04 -0.56272447644E+03 -0.56092670532E+03  0.16847643766E+04  0.12699999809E+01 0.  1.
</event>
<event>
 5   0  0.1925906E-06  0.2889590E+04  0.7818609E-02  0.8275982E-01
       -1   -1    0    0    0  501  0.00000000000E+00  0.00000000000E+00  0.11648354234E+04  0.11648354234E+04  0.50400001928E-02 0.  1.
        1   -1    0    0  501    0  0.00000000000E+00  0.00000000000E+00 -0.17920403946E+04  0.17920403946E+04  0.50400001928E-02 0. -1.
    10030    2    1    2    0    0  0.00000000000E+00  0.00000000000E+00 -0.62720497122E+03  0.29568758180E+04  0.28895896815E+04 0.  0.
        1    1    3    3  502    0  0.32692215298E+03 -0.55991174809E+03  0.10076067315E+04  0.11981863733E+04  0.50400001928E-02 0.  1.
       -1    1    3    3    0  502 -0.32692215298E+03  0.55991174809E+03 -0.16348117027E+04  0.17586894448E+04  0.50400001928E-02 0. -1.
</event>
<event>
 5   0  0.2730981E-06  0.3009508E+04  0.7818609E-02  0.8241021E-01
        1   -1    0    0  501    0  0.00000000000E+00  0.00000000000E+00  0.22341898578E+04  0.22341898578E+04  0.50400001928E-02 0.  1.
       -1   -1    0    0    0  501  0.00000000000E+00  0.00000000000E+00 -0.10134699553E+04  0.10134699553E+04  0.50400001928E-02 0. -1.
    10030    2    1    2    0    0  0.00000000000E+00  0.00000000000E+00  0.12207199024E+04  0.32476598131E+04  0.30095077972E+04 0.  0.
        3    1    3    3  502    0  0.10112221791E+03 -0.10556924850E+04  0.17623425943E+04  0.20568334293E+04  0.10100000352E+00 0.  1.
       -3    1    3    3    0  502 -0.10112221791E+03  0.10556924850E+04 -0.54162269184E+03  0.11908263838E+04  0.10100000352E+00 0. -1.
</event>
<event>
 5   0  0.2097842E-06  0.2055383E+04  0.7818609E-02  0.8581156E-01
       -1   -1    0    0    0  501  0.00000000000E+00  0.00000000000E+00  0.90137326388E+03  0.90137326389E+03  0.50400001928E-02 0.  1.
        1   -1    0    0  501    0  0.00000000000E+00  0.00000000000E+00 -0.11717114055E+04  0.11717114055E+04  0.50400001928E-02 0. -1.
    10030    2    1    2    0    0  0.00000000000E+00  0.00000000000E+00 -0.27033814166E+03  0.20730846694E+04  0.20553825279E+04 0.  0.
        4    1    3    3  502    0  0.88091897437E+03 -0.19732878303E+03 -0.63051064317E+03  0.11011367636E+04  0.12699999809E+01 0. -1.
       -4    1    3    3    0  502 -0.88091897437E+03  0.19732878303E+03  0.36017250150E+03  0.97194790588E+03  0.12699999809E+01 0.  1.
</event>
<event>
 5   0  0.5855568E-06  0.3268565E+04  0.7818609E-02  0.8170940E-01
        2   -1    0    0  501    0  0.00000000000E+00  0.00000000000E+00  0.27018976823E+04  0.27018976823E+04  0.25500000920E-02 0.  1.
       -2   -1    0    0    0  501  0.00000000000E+00  0.00000000000E+00 -0.98852000425E+03  0.98852000426E+03  0.25500000920E-02 0. -1.
    10030    2    1    2    0    0  0.00000000000E+00  0.00000000000E+00  0.17133776781E+04  0.36904176866E+04  0.32685653785E+04 0.  0.
        3    1    3    3  502    0 -0.50242449237E+03  0.15416768954E+04  0.10872000143E+04  0.19522299818E+04  0.10100000352E+00 0.  1.
       -3    1    3    3    0  502  0.50242449237E+03 -0.15416768954E+04  0.62617766375E+03  0.17381877048E+04  0.10100000352E+00 0. -1.
</event>
<event>
 5   0  0.2037109E-06  0.3208093E+04  0.7818609E-02  0.8186683E-01
       -1   -1    0    0    0  501  0.00000000000E+00  0.00000000000E+00  0.16618813485E+04  0.16618813485E+04  0.50400001928E-02 0. -1.
        1   -1    0    0  501    0  0.00000000000E+00  0.00000000000E+00 -0.15482238804E+04  0.15482238804E+04  0.50400001928E-02 0.  1.
    10030    2    1    2    0    0  0.00000000000E+00  0.00000000000E+00  0.11365746811E+03  0.32101052289E+04  0.32080925112E+04 0.  0.
        2    1    3    3  502    0  0.14241365811E+03 -0.14888113735E+04  0.63695400136E+03  0.16255926168E+04  0.25500000920E-02 0. -1.
       -2    1    3    3    0  502 -0.14241365811E+03  0.14888113735E+04 -0.52329653326E+03  0.15845126121E+04  0.25500000920E-02 0.  1.
</event>
<event>
 5   0  0.2730981E-06  0.2149088E+04  0.7818609E-02  0.8539923E-01
        1   -1    0    0  501    0  0.00000000000E+00  0.00000000000E+00  0.74213949665E+03  0.74213949667E+03  0.50400001928E-02 0. -1.
       -1   -1    0    0    0  501  0.00000000000E+00  0.00000000000E+00 -0.15558330134E+04  0.15558330134E+04  0.50400001928E-02 0.  1.
    10030    2    1    2    0    0  0.00000000000E+00  0.00000000000E+00 -0.81369351673E+03  0.22979725101E+04  0.21490882992E+04 0.  0.
        3    1    3    3  502    0  0.77355834779E+03 -0.36845771993E+03  0.28652984860E+03  0.90346719539E+03  0.10100000352E+00 0. -1.
       -3    1    3    3    0  502 -0.77355834779E+03  0.36845771993E+03 -0.11002233653E+04  0.13945053147E+04  0.10100000352E+00 0.  1.
</event>
<event>
 5   0  0.2037109E-06  0.3195516E+04  0.7818609E-02  0.8190002E-01
        1   -1    0    0  501    0  0.00000000000E+00  0.00000000000E+00  0.15489130543E+04  0.15489130543E+04  0.50400001928E-02 0.  1.
       -1   -1    0    0    0  501  0.00000000000E+00  0.00000000000E+00 -0.16481432307E+04  0.16481432307E+04  0.50400001928E-02 0. -1.
    10030    2    1    2    0    0  0.00000000000E+00  0.00000000000E+00 -0.99230176447E+02  0.31970562850E+04  0.31955159617E+04 0.  0.
        2    1    3    3  502    0  0.53088161875E+03  0.28823626308E+03 -0.15294883610E+04  0.16444604230E+04  0.25500000920E-02 0. -1.
       -2    1    3    3    0  502 -0.53088161875E+03 -0.28823626308E+03  0.14302581845E+04  0.15525958620E+04  0.25500000920E-02 0.  1.
</event>
<event>
 5   0  0.5622811E-06  0.3273308E+04  0.7818609E-02  0.8169720E-01
       -2   -1    0    0    0  501  0.00000000000E+00  0.00000000000E+00  0.14123791476E+04  0.14123791476E+04  0.25500000920E-02 0.  1.
        2   -1    0    0  501    0  0.00000000000E+00  0.00000000000E+00 -0.18965423063E+04  0.18965423063E+04  0.25500000920E-02 0. -1.
    10030    2    1    2    0    0  0.00000000000E+00  0.00000000000E+00 -0.48416315873E+03  0.33089214539E+04  0.32733082995E+04 0.  0.
        1    1    3    3  502    0 -0.40228728197E+03  0.49119853739E+03  0.12828151159E+04  0.14313370260E+04  0.50400001928E-02 0.  1.
       -1    1    3    3    0  502  0.40228728197E+03 -0.49119853739E+03 -0.17669782747E+04  0.18775844278E+04  0.50400001928E-02 0. -1.
</event>
<event>
 5   0  0.1925906E-06  0.1986294E+04  0.7818609E-02  0.8613056E-01
       -1   -1    0    0    0  501  0.00000000000E+00  0.00000000000E+00  0.12510423526E+04  0.12510423526E+04  0.50400001928E-02 0. -1.
        1   -1    0    0  501    0  0.00000000000E+00  0.00000000000E+00 -0.78841511147E+03  0.78841511149E+03  0.50400001928E-02 0.  1.
    10030    2    1    2    0    0  0.00000000000E+00  0.00000000000E+00  0.46262724109E+03  0.20394574641E+04  0.19862937304E+04 0.  0.
        1    1    3    3  502    0  0.37750642747E+03  0.90468496966E+03  0.39487155883E+03  0.10568299509E+04  0.50400001928E-02 0.  1.
       -1    1    3    3    0  502 -0.37750642747E+03 -0.90468496966E+03  0.67755682257E+02  0.98262751316E+03  0.50400001928E-02 0. -1.
</event>
<event>
 5   0  0.5637538E-06  0.3312272E+04  0.7818609E-02  0.8159780E-01
       -2   -1    0    0    0  501  0.00000000000E+00  0.00000000000E+00  0.22963580595E+04  0.22963580595E+04  0.25500000920E-02 0.  1.
        2   -1    0    0  501    0  0.00000000000E+00  0.00000000000E+00 -0.11944069081E+04  0.11944069081E+04  0.25500000920E-02 0. -1.
    10030    2    1    2    0    0  0.00000000000E+00  0.00000000000E+00  0.11019511514E+04  0.34907649675E+04  0.33122716855E+04 0.  0.
        2    1    3    3  502    0 -0.15253861711E+04  0.30752139528E+03 -0.46509067949E+02  0.15567708479E+04  0.25500000920E-02 0. -1.
       -2    1    3    3    0  502  0.15253861711E+04 -0.30752139528E+03  0.11484602193E+04  0.19339941196E+04  0.25500000920E-02 0.  1.
</event>
<event>
 5   0  0.1878000E-06  0.3342344E+04  0.7818609E-02  0.8152204E-01
       -3   -1    0    0    0  501  0.00000000000E+00  0.00000000000E+00  0.16583699427E+04  0.16583699458E+04  0.10100000352E+00 0. -1.
        3   -1    0    0  501    0  0.00000000000E+00  0.00000000000E+00 -0.16840727400E+04  0.16840727430E+04  0.10100000352E+00 0.  1.
    10030    2    1    2    0    0  0.00000000000E+00  0.00000000000E+00 -0.25702797249E+02  0.33424426888E+04  0.33423438624E+04 0.  0.
        4    1    3    3  502    0  0.78247443701E+03  0.67201270429E+03  0.13020816552E+04  0.16611097402E+04  0.12699999809E+01 0. -1.
       -4    1    3    3    0  502 -0.78247443701E+03 -0.67201270429E+03 -0.13277844524E+04  0.16813329487E+04  0.12699999809E+01 0.  1.
</event>
<event>
 5   0  0.2097842E-06  0.3212310E+04  0.7818609E-02  0.8185574E-01
       -1   -1    0    0    0  501  0.00000000000E+00  0.00000000000E+00  0.22173026413E+04  0.22173026413E+04  0.50400001928E-02 0.  1.
        1   -1    0    0  501    0  0.00000000000E+00  0.00000000000E+00 -0.11634559023E+04  0.11634559023E+04  0.50400001928E-02 0. -1.
    10030    2    1    2    0    0  0.00000000000E+00  0.00000000000E+00  0.10538467390E+04  0.33807585436E+04  0.32123099758E+04 0.  0.
        4    1    3    3  502    0  0.11817741875E+04 -0.57082839562E+03  0.15013796203E+04  0.19941358190E+04  0.12699999809E+01 0.  1.
       -4    1    3    3    0  502 -0.11817741875E+04  0.57082839562E+03 -0.44753288133E+03  0.13866227246E+04  0.12699999809E+01 0. -1.
</event>
<event>
 5   0  0.2730981E-06  0.3055995E+04  0.7818609E-02  0.8227920E-01
       -1   -1    0    0    0  501  0.00000000000E+00  0.00000000000E+00  0.16834494860E+04  0.16834494860E+04  0.50400001928E-02 0. -1.
        1   -1    0    0  501    0  0.00000000000E+00  0.00000000000E+00 -0.13869000171E+04  0.13869000171E+04  0.50400001928E-02 0.  1.
    10030    2    1    2    0    0  0.00000000000E+00  0.00000000000E+00  0.29654946895E+03  0.30703495031E+04  0.30559948435E+04 0.  0.
        3    1    3    3  502    0 -0.85443893791E+02 -0.14300887270E+04 -0.38556059973E+03  0.14836143072E+04  0.10100000352E+00 0.  1.
       -3    1    3    3    0  502  0.85443893791E+02  0.14300887270E+04  0.68211006868E+03  0.15867351960E+04  0.10100000352E+00 0. -1.
</event>
<event>
 5   0  0.5855568E-06  0.3185045E+04  0.7818609E-02  0.8192778E-01
        2   -1    0    0  501    0  0.00000000000E+00  0.00000000000E+00  0.17158353961E+04  0.17158353961E+04  0.25500000920E-02 0. -1.
       -2   -1    0    0    0  501  0.00000000000E+00  0.00000000000E+00 -0.14780722098E+04  0.14780722098E+04  0.25500000920E-02 0.  1.
    10030    2    1    2    0    0  0.00000000000E+00  0.00000000000E+00  0.23776318622E+03  0.31939076059E+04  0.31850454412E+04 0.  0.
        3    1    3    3  502    0  0.10041076889E+04  0.39263063730E+03 -0.10564450970E+04  0.15094592811E+04  0.10100000352E+00 0.  1.
       -3    1    3    3    0  502 -0.10041076889E+04 -0.39263063730E+03  0.12942082832E+04  0.16844483248E+04  0.10100000352E+00 0. -1.
</event>
<event>
 5   0  0.5300268E-06  0.2047639E+04  0.7818609E-02  0.8584666E-01
       -2   -1    0    0    0  501  0.00000000000E+00  0.00000000000E+00  0.45512252551E+03  0.45512252551E+03  0.25500000920E-02 0.  1.
        2   -1    0    0  501    0  0.00000000000E+00  0.00000000000E+00 -0.23031308020E+04  0.23031308020E+04  0.25500000920E-02 0. -1.
    10030    2    1    2    0    0  0.00000000000E+00  0.00000000000E+00 -0.18480082765E+04  0.27582533275E+04  0.20476393307E+04 0.  0.
        4    1    3    3  502    0  0.42953109393E+02  0.71948143004E+03 -0.19034671780E+04  0.20353592824E+04  0.12699999809E+01 0. -1.
       -4    1    3    3    0  502 -0.42953109393E+02 -0.71948143004E+03  0.55458901528E+02  0.72289404510E+03  0.12699999809E+01 0.  1.
</event>
<event>
 5   0  0.1925906E-06  0.3221788E+04  0.7818609E-02  0.8183087E-01
       -1   -1    0    0    0  501  0.00000000000E+00  0.00000000000E+00  0.22972364870E+04  0.22972364871E+04  0.50400001928E-02 0. -1.
        1   -1    0    0  501    0  0.00000000000E+00  0.00000000000E+00 -0.11296089111E+04  0.11296089111E+04  0.50400001928E-02 0.  1.
    10030    2    1    2    0    0  0.00000000000E+00  0.00000000000E+00  0.11676275760E+04  0.34268453982E+04  0.32217875825E+04 0.  0.
        1    1    3    3  502    0 -0.85239601674E+03 -0.70260687163E+03 -0.66330675590E+03  0.12884918462E+04  0.50400001928E-02 0.  1.
       -1    1    3    3    0  502  0.85239601674E+03  0.70260687163E+03  0.18309343318E+04  0.21383535519E+04  0.50400001928E-02 0. -1.
</event>
<event>
 5   0  0.1999849E-06  0.3307257E+04  0.7818609E-02  0.8161051E-01
       -1   -1    0    0    0  501  0.00000000000E+00  0.00000000000E+00  0.11008822442E+04  0.11008822442E+04  0.50400001928E-02 0. -1.
        1   -1    0    0  501    0  0.00000000000E+00  0.00000000000E+00 -0.24839058533E+04  0.24839058533E+04  0.50400001928E-02 0.  1.
    10030    2    1    2    0    0  0.00000000000E+00  0.00000000000E+00 -0.13830236091E+04  0.35847880975E+04  0.33072573835E+04 0.  0.
        5    1    3    3  502    0 -0.84312563068E+03  0.29881764644E+03  0.81599355000E+03  0.12107932848E+04  0.46999998093E+01 0. -1.
       -5    1    3    3    0  502  0.84312563068E+03 -0.29881764644E+03 -0.21990171591E+04  0.23739948127E+04  0.46999998093E+01 0.  1.
</event>
<event>
 5   0  0.5855568E-06  0.3323722E+04  0.7818609E-02  0.8156885E-01
        2   -1    0    0  501    0  0.00000000000E+00  0.00000000000E+00  0.13821215849E+04  0.13821215849E+04  0.25500000920E-02 0.  1.
       -2   -1    0    0    0  501  0.00000000000E+00  0.00000000000E+00 -0.19982195817E+04  0.19982195817E+04  0.25500000920E-02 0. -1.
    10030    2    1    2    0    0  0.00000000000E+00  0.00000000000E+00 -0.61609799687E+03  0.33803411666E+04  0.33237222599E+04 0.  0.
        3    1    3    3  502    0  0.86382678121E+03  0.12526980797E+04 -0.98751137504E+03  0.18140087962E+04  0.10100000352E+00 0.  1.
       -3    1    3    3    0  502 -0.86382678121E+03 -0.12526980797E+04  0.37141337816E+03  0.15663323704E+04  0.10100000352E+00 0. -1.
</event>
<event>
 5   0  0.2097842E-06  0.3295574E+04  0.7818609E-02  0.8164022E-01
        1   -1    0    0  501    0  0.00000000000E+00  0.00000000000E+00  0.10132504581E+04  0.10132504581E+04  0.50400001928E-02 0. -1.
       -1   -1    0    0    0  501  0.00000000000E+00  0.00000000000E+00 -0.26796951210E+04  0.26796951210E+04  0.50400001928E-02 0.  1.
    10030    2    1    2    0    0  0.00000000000E+00  0.00000000000E+00 -0.16664446629E+04  0.36929455790E+04  0.32955741890E+04 0.  0.
        4    1    3    3  502    0 -0.65366052716E+03  0.48464566247E+03  0.77239216735E+03  0.11219379555E+04  0.12699999809E+01 0. -1.
       -4    1    3    3    0  502  0.65366052716E+03 -0.48464566247E+03 -0.24388368302E+04  0.25710076235E+04  0.12699999809E+01 0.  1.
</event>
<event>
 5   0  0.5855568E-06  0.2734194E+04  0.7818609E-02  0.8323995E-01
        2   -1    0    0  501    0  0.00000000000E+00  0.00000000000E+00  0.12725311229E+04  0.12725311229E+04  0.25500000920E-02 0. -1.
       -2   -1    0    0    0  501  0.00000000000E+00  0.00000000000E+00 -0.14686900018E+04  0.14686900018E+04  0.25500000920E-02 0.  1.
    10030    2    1    2    0    0  0.00000000000E+00  0.00000000000E+00 -0.19615887887E+03  0.27412211248E+04  0.27341936561E+04 0.  0.
        3    1    3    3  502    0  0.11660200147E+04 -0.13486176724E+03 -0.80071120128E+03  0.14208901467E+04  0.10100000352E+00 0.  1.
       -3    1    3    3    0  502 -0.11660200147E+04  0.13486176724E+03  0.60455232241E+03  0.13203309781E+04  0.10100000352E+00 0. -1.
</event>
<event>
 5   0  0.1878000E-06  0.3331827E+04  0.7818609E-02  0.8154844E-01
        3   -1    0    0  501    0  0.00000000000E+00  0.00000000000E+00  0.13444674853E+04  0.13444674891E+04  0.10100000352E+00 0. -1.
       -3   -1    0    0    0  501  0.00000000000E+00  0.00000000000E+00 -0.20642130442E+04  0.20642130466E+04  0.10100000352E+00 0.  1.
    10030    2    1    2    0    0  0.00000000000E+00  0.00000000000E+00 -0.71974555883E+03  0.34086805358E+04  0.33318267250E+04 0.  0.
        2    1    3    3  502    0  0.79334139571E+03 -0.11644545588E+04 -0.12691495411E+04  0.18963347667E+04  0.25500000920E-02 0.  1.
       -2    1    3    3    0  502 -0.79334139571E+03  0.11644545588E+04  0.54940398223E+03  0.15123457691E+04  0.25500000920E-02 0. -1.
</event>
<event>
 5   0  0.2037109E-06  0.1779910E+04  0.7818609E-02  0.8717056E-01
       -1   -1    0    0    0  501  0.00000000000E+00  0.00000000000E+00  0.14577280278E+04  0.14577280278E+04  0.50400001928E-02 0. -1.
        1   -1    0    0  501    0  0.00000000000E+00  0.00000000000E+00 -0.54332509397E+03  0.54332509399E+03  0.50400001928E-02 0.  1.
    10030    2    1    2    0    0  0.00000000000E+00  0.00000000000E+00  0.91440293385E+03  0.20010531218E+04  0.17799103547E+04 0.  0.
        2    1    3    3  502    0 -0.76029322042E+02 -0.88519660174E+03  0.39914501186E+03  0.97399703390E+03  0.25500000920E-02 0.  1.
       -2    1    3    3    0  502  0.76029322042E+02  0.88519660174E+03  0.51525792199E+03  0.10270560879E+04  0.25500000920E-02 0. -1.
</event>
<event>
 5   0  0.5755250E-06  0.3264245E+04  0.7818609E-02  0.8172053E-01
       -2   -1    0    0    0  501  0.00000000000E+00  0.00000000000E+00  0.18828613321E+04  0.18828613321E+04  0.25500000920E-02 0. -1.
        2   -1    0    0  501    0  0.00000000000E+00  0.00000000000E+00 -0.14147741644E+04  0.14147741644E+04  0.25500000920E-02 0.  1.
    10030    2    1    2    0    0  0.00000000000E+00  0.00000000000E+00  0.46808716768E+03  0.32976354965E+04  0.32642448240E+04 0.  0.
        5    1    3    3  502    0  0.61521565073E+03 -0.95601783732E+03  0.14170651655E+04  0.18167432882E+04  0.46999998093E+01 0. -1.
       -5    1    3    3    0  502 -0.61521565073E+03  0.95601783732E+03 -0.94897799780E+03  0.14808922083E+04  0.46999998093E+01 0.  1.
</event>
<event>
 5   0  0.1925906E-06  0.3168988E+04  0.7818609E-02  0.8197056E-01
        1   -1    0    0  501    0  0.00000000000E+00  0.00000000000E+00  0.21882496691E+04  0.21882496691E+04  0.50400001928E-02 0. -1.
       -1   -1    0    0    0  501  0.00000000000E+00  0.00000000000E+00 -0.11473191612E+04  0.11473191612E+04  0.50400001928E-02 0.  1.
    10030    2    1    2    0    0  0.00000000000E+00  0.00000000000E+00  0.10409305079E+04  0.33355688302E+04  0.31689877089E+04 0.  0.
        1    1    3    3  502    0  0.10281957015E+04  0.90692287597E+03  0.13565269247E+04  0.19286940662E+04  0.50400001928E-02 0. -1.
       -1    1    3    3    0  502 -0.10281957015E+04 -0.90692287597E+03 -0.31559641678E+03  0.14068747641E+04  0.50400001928E-02 0.  1.
</event>
<event>
 5   0  0.1925906E-06  0.3464884E+04  0.7818609E-02  0.8122163E-01
        1   -1    0    0  501    0  0.00000000000E+00  0.00000000000E+00  0.24252625637E+04  0.24252625637E+04  0.50400001928E-02 0.  1.
       -1   -1    0    0    0  501  0.00000000000E+00  0.00000000000E+00 -0.12375380725E+04  0.12375380725E+04  0.50400001928E-02 0. -1.
    10030    2    1    2    0    0  0.00000000000E+00  0.00000000000E+00  0.11877244912E+04  0.36628006362E+04  0.34648836970E+04 0.  0.
        1    1    3    3  502    0  0.53444455655E+01  0.11447267981E+04 -0.78077155048E+03  0.13856522722E+04  0.50400001928E-02 0. -1.
       -1    1    3    3    0  502 -0.53444455655E+01 -0.11447267981E+04  0.19684960417E+04  0.22771483640E+04  0.50400001928E-02 0.  1.
</event>
<event>
 5   0  0.5855568E-06  0.3314315E+04  0.7818609E-02  0.8159262E-01
       -2   -1    0    0    0  501  0.00000000000E+00  0.00000000000E+00  0.95976592340E+03  0.95976592340E+03  0.25500000920E-02 0.  1.
        2   -1    0    0  501    0  0.00000000000E+00  0.00000000000E+00 -0.28612929309E+04  0.28612929309E+04  0.25500000920E-02 0. -1.
    10030    2    1    2    0    0  0.00000000000E+00  0.00000000000E+00 -0.19015270075E+04  0.38210588543E+04  0.33143152849E+04 0.  0.
        3    1    3    3  502    0 -0.63442882789E+03  0.12641558022E+04  0.44727871193E+02  0.14151291187E+04  0.10100000352E+00 0.  1.
       -3    1    3    3    0  502  0.63442882789E+03 -0.12641558022E+04 -0.19462548787E+04  0.24059297357E+04  0.10100000352E+00 0. -1.
</event>
<event>
 5   0  0.2097842E-06  0.3107097E+04  0.7818609E-02  0.8213793E-01
        1   -1    0    0  501    0  0.00000000000E+00  0.00000000000E+00  0.11026324956E+04  0.11026324956E+04  0.50400001928E-02 0. -1.
       -1   -1    0    0    0  501  0.00000000000E+00  0.00000000000E+00 -0.21888641319E+04  0.21888641319E+04  0.50400001928E-02 0.  1.
    10030    2    1    2    0    0  0.00000000000E+00  0.00000000000E+00 -0.10862316363E+04  0.32914966274E+04  0.31070968573E+04 0.  0.
        4    1    3    3  502    0  0.57334183868E+03 -0.12493961230E+04 -0.13098082778E+04  0.18987656184E+04  0.12699999809E+01 0.  1.
       -4    1    3    3    0  502 -0.57334183868E+03  0.12493961230E+04  0.22357664154E+03  0.13927310090E+04  0.12699999809E+01 0. -1.
</event>
<event>
 5   0  0.1925906E-06  0.3146926E+04  0.7818609E-02  0.8202976E-01
        1   -1    0    0  501    0  0.00000000000E+00  0.00000000000E+00  0.91825534833E+03  0.91825534835E+03  0.50400001928E-02 0.  1.
       -1   -1    0    0    0  501  0.00000000000E+00  0.00000000000E+00 -0.26961845929E+04  0.26961845929E+04  0.50400001928E-02 0. -1.
    10030    2    1    2    0    0  0.00000000000E+00  0.00000000000E+00 -0.17779292446E+04  0.36144399413E+04  0.31469260700E+04 0.  0.
        1    1    3    3  502    0  0.21748346574E+03  0.13051929889E+04  0.88972503478E+02  0.13261764221E+04  0.50400001928E-02 0.  1.
       -1    1    3    3    0  502 -0.21748346574E+03 -0.13051929889E+04 -0.18669017481E+04  0.22882635192E+04  0.50400001928E-02 0. -1.
</event>
<event>
 5   0  0.5755250E-06  0.2093544E+04  0.7818609E-02  0.8564093E-01
       -2   -1    0    0    0  501  0.00000000000E+00  0.00000000000E+00  0.99821293392E+03  0.99821293393E+03  0.25500000920E-02 0.  1.
        2   -1    0    0  501    0  0.00000000000E+00  0.00000000000E+00 -0.10976933498E+04  0.10976933498E+04  0.25500000920E-02 0. -1.
    10030    2    1    2    0    0  0.00000000000E+00  0.00000000000E+00 -0.99480415911E+02  0.20959062838E+04  0.20935440758E+04 0.  0.
        5    1    3    3  502    0  0.38127023206E+03 -0.45259950077E+03 -0.91413571450E+03  0.10889809422E+04  0.46999998093E+01 0. -1.
       -5    1    3    3    0  502 -0.38127023206E+03  0.45259950077E+03  0.81465529859E+03  0.10069253416E+04  0.46999998093E+01 0.  1.
</event>
<event>
 5   0  0.1999849E-06  0.3269836E+04  0.7818609E-02  0.8170613E-01
       -1   -1    0    0    0  501  0.00000000000E+00  0.00000000000E+00  0.18379359374E+04  0.18379359374E+04  0.50400001928E-02 0. -1.
        1   -1    0    0  501    0  0.00000000000E+00  0.00000000000E+00 -0.14543251227E+04  0.14543251227E+04  0.50400001928E-02 0.  1.
    10030    2    1    2    0    0  0.00000000000E+00  0.00000000000E+00  0.38361081470E+03  0.32922610601E+04  0.32698357192E+04 0.  0.
        5    1    3    3  502    0 -0.14530677016E+04  0.29875017371E+03  0.88374261776E+03  0.17267543300E+04  0.46999998093E+01 0.  1.
       -5    1    3    3    0  502  0.14530677016E+04 -0.29875017371E+03 -0.50013180306E+03  0.15655067301E+04  0.46999998093E+01 0. -1.
</event>
<event>
 5   0  0.5855568E-06  0.3305088E+04  0.7818609E-02  0.8161602E-01
       -2   -1    0    0    0  501  0.00000000000E+00  0.00000000000E+00  0.15718456023E+04  0.15718456023E+04  0.25500000920E-02 0. -1.
        2   -1    0    0  501    0  0.00000000000E+00  0.00000000000E+00 -0.17373857071E+04  0.17373857071E+04  0.25500000920E-02 0.  1.
    10030    2    1    2    0    0  0.00000000000E+00  0.00000000000E+00 -0.16554010482E+03  0.33092313094E+04  0.33050882488E+04 0.  0.
        3    1    3    3  502    0  0.31710944456E+03  0.15836016580E+04 -0.43327953285E+03  0.16721494475E+04  0.10100000352E+00 0. -1.
       -3    1    3    3    0  502 -0.31710944456E+03 -0.15836016580E+04  0.26773942803E+03  0.16370818619E+04  0.10100000352E+00 0.  1.
</event>
<event>
 5   0  0.2037109E-06  0.3261324E+04  0.7818609E-02  0.8172807E-01
        1   -1    0    0  501    0  0.00000000000E+00  0.00000000000E+00  0.16122671034E+04  0.16122671034E+04  0.50400001928E-02 0. -1.
       -1   -1    0    0    0  501  0.00000000000E+00  0.00000000000E+00 -0.16492665705E+04  0.16492665705E+04  0.50400001928E-02 0.  1.
    10030    2    1    2    0    0  0.00000000000E+00  0.00000000000E+00 -0.36999467023E+02  0.32615336739E+04  0.32613238026E+04 0.  0.
        2    1    3    3  502    0  0.52002772591E+03  0.31856820974E+03  0.14939281386E+04  0.16136095635E+04  0.25500000920E-02 0. -1.
       -2    1    3    3    0  502 -0.52002772591E+03 -0.31856820974E+03 -0.15309276056E+04  0.16479241104E+04  0.25500000920E-02 0.  1.
</event>
<event>
 5   0  0.2624676E-06  0.1633236E+04  0.7818609E-02  0.8800386E-01
       -1   -1    0    0    0  501  0.00000000000E+00  0.00000000000E+00  0.52163412943E+03  0.52163412945E+03  0.50400001928E-02 0. -1.
        1   -1    0    0  501    0  0.00000000000E+00  0.00000000000E+00 -0.12784149903E+04  0.12784149903E+04  0.50400001928E-02 0.  1.
    10030    2    1    2    0    0  0.00000000000E+00  0.00000000000E+00 -0.75678086086E+03  0.18000491197E+04  0.16332359175E+04 0.  0.
        4    1    3    3  502    0  0.40428463989E+03 -0.45667797580E+03  0.22008338968E+03  0.64841279672E+03  0.12699999809E+01 0. -1.
       -4    1    3    3    0  502 -0.40428463989E+03  0.45667797580E+03 -0.97686425054E+03  0.11516363230E+04  0.12699999809E+01 0.  1.
</event>
<event>
 5   0  0.1925906E-06  0.3343554E+04  0.7818609E-02  0.8151901E-01
        1   -1    0    0  501    0  0.00000000000E+00  0.00000000000E+00  0.99826805390E+03  0.99826805391E+03  0.50400001928E-02 0.  1.
       -1   -1    0    0    0  501  0.00000000000E+00  0.00000000000E+00 -0.27996864188E+04  0.27996864188E+04  0.50400001928E-02 0. -1.
    10030    2    1    2    0    0  0.00000000000E+00  0.00000000000E+00 -0.18014183649E+04  0.37979544727E+04  0.33435535066E+04 0.  0.
        1    1    3    3  502    0  0.16649807087E+03  0.55001468701E+03 -0.26839692183E+04  0.27448002711E+04  0.50400001928E-02 0. -1.
       -1    1    3    3    0  502 -0.16649807087E+03 -0.55001468701E+03  0.88255085338E+03  0.10531542016E+04  0.50400001928E-02 0.  1.
</event>
<event>
 5   0  0.2097842E-06  0.3363792E+04  0.7818609E-02  0.8146851E-01
        1   -1    0    0  501    0  0.00000000000E+00  0.00000000000E+00  0.20661713191E+04  0.20661713191E+04  0.50400001928E-02 0.  1.
       -1   -1    0    0    0  501  0.00000000000E+00  0.00000000000E+00 -0.13690896727E+04  0.13690896727E+04  0.50400001928E-02 0. -1.
    10030    2    1    2    0    0  0.00000000000E+00  0.00000000000E+00  0.69708164647E+03  0.34352609918E+04  0.33637917980E+04 0.  0.
        4    1    3    3  502    0  0.61278046939E+03  0.47637137487E+03  0.18723361241E+04  0.20268383668E+04  0.12699999809E+01 0.  1.
       -4    1    3    3    0  502 -0.61278046939E+03 -0.47637137487E+03 -0.11752544777E+04  0.14084226250E+04  0.12699999809E+01 0. -1.
</event>
<event>
 5   0  0.5637538E-06  0.3234446E+04  0.7818609E-02  0.8179779E-01
       -2   -1    0    0    0  501  0.00000000000E+00  0.00000000000E+00  0.12157355591E+04  0.12157355591E+04  0.25500000920E-02 0. -1.
        2   -1    0    0  501    0  0.00000000000E+00  0.00000000000E+00 -0.21512991682E+04  0.21512991682E+04  0.25500000920E-02 0.  1.
    10030    2    1    2    0    0  0.00000000000E+00  0.00000000000E+00 -0.93556360906E+03  0.33670347273E+04  0.32344464114E+04 0.  0.
        2    1    3    3  502    0  0.47656553050E+03  0.49089569825E+03 -0.19932240797E+04  0.21073764551E+04  0.25500000920E-02 0.  1.
       -2    1    3    3    0  502 -0.47656553050E+03 -0.49089569825E+03  0.10576604707E+04  0.12596582722E+04  0.25500000920E-02 0. -1.
</event>
<event>
 5   0  0.5622811E-06  0.3384153E+04  0.7818609E-02  0.8141807E-01
        2   -1    0    0  501    0  0.00000000000E+00  0.00000000000E+00  0.18157933189E+04  0.18157933189E+04  0.25500000920E-02 0. -1.
       -2   -1    0    0    0  501  0.00000000000E+00  0.00000000000E+00 -0.15767887276E+04  0.15767887276E+04  0.25500000920E-02 0.  1.
    10030    2    1    2    0    0  0.00000000000E+00  0.00000000000E+00  0.23900459122E+03  0.33925820465E+04  0.33841527371E+04 0.  0.
        1    1    3    3  502    0 -0.15500424491E+04  0.41450228719E+03  0.65812886389E+03  0.17342368182E+04  0.50400001928E-02 0. -1.
       -1    1    3    3    0  502  0.15500424491E+04 -0.41450228719E+03 -0.41912427267E+03  0.16583452283E+04  0.50400001928E-02 0.  1.
</event>
<event>
 5   0  0.5855568E-06  0.3300540E+04  0.7818609E-02  0.8162758E-01
        2   -1    0    0  501    0  0.00000000000E+00  0.00000000000E+00  0.21990920256E+04  0.21990920256E+04  0.25500000920E-02 0.  1.
       -2   -1    0    0    0  501  0.00000000000E+00  0.00000000000E+00 -0.12384157975E+04  0.12384157975E+04  0.25500000920E-02 0. -1.
    10030    2    1    2    0    0  0.00000000000E+00  0.00000000000E+00  0.96067622805E+03  0.34375078231E+04  0.33005395345E+04 0.  0.
        3    1    3    3  502    0  0.69859582205E+02  0.15716469607E+04 -0.38779558307E+02  0.15736767123E+04  0.10100000352E+00 0.  1.
       -3    1    3    3    0  502 -0.69859582205E+02 -0.15716469607E+04  0.99945578635E+03  0.18638311108E+04  0.10100000352E+00 0. -1.
</event>
<event>
 5   0  0.5622811E-06  0.3321072E+04  0.7818609E-02  0.8157554E-01
        2   -1    0    0  501    0  0.00000000000E+00  0.00000000000E+00  0.15634609601E+04  0.15634609601E+04  0.25500000920E-02 0.  1.
       -2   -1    0    0    0  501  0.00000000000E+00  0.00000000000E+00 -0.17636388273E+04  0.17636388273E+04  0.25500000920E-02 0. -1.
    10030    2    1    2    0    0  0.00000000000E+00  0.00000000000E+00 -0.20017786722E+03  0.33270997873E+04  0.33210723895E+04 0.  0.
        1    1    3    3  502    0 -0.24414679685E+03 -0.12217091481E+04 -0.11998971643E+04  0.17297208173E+04  0.50400001928E-02 0. -1.
       -1    1    3    3    0  502  0.24414679685E+03  0.12217091481E+04  0.99971929706E+03  0.15973789700E+04  0.50400001928E-02 0.  1.
</event>
<event>
 5   0  0.5300268E-06  0.3190011E+04  0.7818609E-02  0.8191460E-01
       -2   -1    0    0    0  501  0.00000000000E+00  0.00000000000E+00  0.14340133075E+04  0.14340133075E+04  0.25500000920E-02 0. -1.
        2   -1    0    0  501    0  0.00000000000E+00  0.00000000000E+00 -0.17740719067E+04  0.17740719067E+04  0.25500000920E-02 0.  1.
    10030    2    1    2    0    0  0.00000000000E+00  0.00000000000E+00 -0.34005859922E+03  0.32080852141E+04  0.31900111113E+04 0.  0.
        4    1    3    3  502    0 -0.56949218227E+03 -0.38119778307E+03 -0.16184702365E+04  0.17575780536E+04  0.12699999809E+01 0.  1.
       -4    1    3    3    0  502  0.56949218227E+03  0.38119778307E+03  0.12784116372E+04  0.14505071605E+04  0.12699999809E+01 0. -1.
</event>
<event>
 5   0  0.2730981E-06  0.1778541E+04  0.7818609E-02  0.8717795E-01
       -1   -1    0    0    0  501  0.00000000000E+00  0.00000000000E+00  0.18411829157E+04  0.18411829157E+04  0.50400001928E-02 0. -1.
        1   -1    0    0  501    0  0.00000000000E+00  0.00000000000E+00 -0.42950746712E+03  0.42950746715E+03  0.50400001928E-02 0.  1.
    10030    2    1    2    0    0  0.00000000000E+00  0.00000000000E+00  0.14116754486E+04  0.22706903828E+04  0.17785407621E+04 0.  0.
        3    1    3    3  502    0  0.20855392321E+03  0.70510485452E+03  0.13443667444E+04  0.15323150944E+04  0.10100000352E+00 0. -1.
       -3    1    3    3    0  502 -0.20855392321E+03 -0.70510485452E+03  0.67308704153E+02  0.73837528847E+03  0.10100000352E+00 0.  1.
</event>
<event>
 5   0  0.1925906E-06  0.3199572E+04  0.7818609E-02  0.8188930E-01
        1   -1    0    0  501    0  0.00000000000E+00  0.00000000000E+00  0.11983176430E+04  0.11983176430E+04  0.50400001928E-02 0.  1.
       -1   -1    0    0    0  501  0.00000000000E+00  0.00000000000E+00 -0.21357574343E+04  0.21357574343E+04  0.50400001928E-02 0. -1.
    10030    2    1    2    0    0  0.00000000000E+00  0.00000000000E+00 -0.93743979126E+03  0.33340750773E+04  0.31995723556E+04 0.  0.
        1    1    3    3  502    0  0.90693095778E+03 -0.28767936767E+03 -0.18088762696E+04  0.20438484629E+04  0.50400001928E-02 0. -1.
       -1    1    3    3    0  502 -0.90693095778E+03  0.28767936767E+03  0.87143647829E+03  0.12902266144E+04  0.50400001928E-02 0.  1.
</event>
<event>
 5   0  0.1878000E-06  0.2190482E+04  0.7818609E-02  0.8522400E-01
        3   -1    0    0  501    0  0.00000000000E+00  0.00000000000E+00  0.12119806772E+04  0.12119806814E+04  0.10100000352E+00 0.  1.
       -3   -1    0    0    0  501  0.00000000000E+00  0.00000000000E+00 -0.98974546223E+03  0.98974546738E+03  0.10100000352E+00 0. -1.
    10030    2    1    2    0    0  0.00000000000E+00  0.00000000000E+00  0.22223521493E+03  0.22017261487E+04  0.21904815779E+04 0.  0.
        4    1    3    3  502    0  0.13104403511E+03  0.39652681796E+03 -0.90657421331E+03  0.99814050797E+03  0.12699999809E+01 0. -1.
       -4    1    3    3    0  502 -0.13104403511E+03 -0.39652681796E+03  0.11288094282E+04  0.12035856408E+04  0.12699999809E+01 0.  1.
</event>
<event>
 5   0  0.1925906E-06  0.3308042E+04  0.7818609E-02  0.8160852E-01
       -1   -1    0    0    0  501  0.00000000000E+00  0.00000000000E+00  0.11005469365E+04  0.11005469366E+04  0.50400001928E-02 0. -1.
        1   -1    0    0  501    0  0.00000000000E+00  0.00000000000E+00 -0.24858420422E+04  0.24858420422E+04  0.50400001928E-02 0.  1.
    10030    2    1    2    0    0  0.00000000000E+00  0.00000000000E+00 -0.13852951056E+04  0.35863889787E+04  0.33080422272E+04 0.  0.
        1    1    3    3  502    0 -0.44880114712E+03  0.15026509777E+04 -0.12266961227E+03  0.15730321879E+04  0.50400001928E-02 0. -1.
       -1    1    3    3    0  502  0.44880114712E+03 -0.15026509777E+04 -0.12626254933E+04  0.20133567908E+04  0.50400001928E-02 0.  1.
</event>
<event>
 5   0  0.2097842E-06  0.1969699E+04  0.7818609E-02  0.8620920E-01
        1   -1    0    0  501    0  0.00000000000E+00  0.00000000000E+00  0.19058104453E+04  0.19058104453E+04  0.50400001928E-02 0. -1.
       -1   -1    0    0    0  501  0.00000000000E+00  0.00000000000E+00 -0.50893216003E+03  0.50893216005E+03  0.50400001928E-02 0.  1.
    10030    2    1    2    0    0  0.00000000000E+00  0.00000000000E+00  0.13968782852E+04  0.24147426053E+04  0.19696986841E+04 0.  0.
        4    1    3    3  502    0  0.30875614112E+03 -0.72024794181E+03 -0.32864810421E+02  0.78432720278E+03  0.12699999809E+01 0.  1.
       -4    1    3    3    0  502 -0.30875614112E+03  0.72024794181E+03  0.14297430957E+04  0.16304154025E+04  0.12699999809E+01 0. -1.
</event>
<event>
 5   0  0.2730981E-06  0.3263829E+04  0.7818609E-02  0.8172161E-01
       -1   -1    0    0    0  501  0.00000000000E+00  0.00000000000E+00  0.10525996079E+04  0.10525996079E+04  0.50400001928E-02 0.  1.
        1   -1    0    0  501    0  0.00000000000E+00  0.00000000000E+00 -0.25300647174E+04  0.25300647174E+04  0.50400001928E-02 0. -1.
    10030    2    1    2    0    0  0.00000000000E+00  0.00000000000E+00 -0.14774651095E+04  0.35826643254E+04  0.32638291191E+04 0.  0.
        3    1    3    3  502    0  0.10656838464E+04  0.14511250929E+03  0.60852193962E+03  0.12357340580E+04  0.10100000352E+00 0.  1.
       -3    1    3    3    0  502 -0.10656838464E+04 -0.14511250929E+03 -0.20859870491E+04  0.23469302674E+04  0.10100000352E+00 0. -1.
</event>
<event>
 5   0  0.5300268E-06  0.3226256E+04  0.7818609E-02  0.8181917E-01
       -2   -1    0    0    0  501  0.00000000000E+00  0.00000000000E+00  0.12592317132E+04  0.12592317132E+04  0.25500000920E-02 0. -1.
        2   -1    0    0  501    0  0.00000000000E+00  0.00000000000E+00 -0.20664836059E+04  0.20664836059E+04  0.25500000920E-02 0.  1.
    10030    2    1    2    0    0  0.00000000000E+00  0.00000000000E+00 -0.80725189273E+03  0.33257153191E+04  0.32262558432E+04 0.  0.
        4    1    3    3  502    0  0.14439104971E+04  0.71916897285E+03 -0.39339301677E+03  0.16603738174E+04  0.12699999809E+01 0. -1.
       -4    1    3    3    0  502 -0.14439104971E+04 -0.71916897285E+03 -0.41385887596E+03  0.16653415017E+04  0.12699999809E+01 0.  1.
</event>
<event>
 5   0  0.2037109E-06  0.3257232E+04  0.7818609E-02  0.8173864E-01
        1   -1    0    0  501    0  0.00000000000E+00  0.00000000000E+00  0.14627007431E+04  0.14627007431E+04  0.50400001928E-02 0.  1.
       -1   -1    0    0    0  501  0.00000000000E+00  0.00000000000E+00 -0.18133508761E+04  0.18133508761E+04  0.50400001928E-02 0. -1.
    10030    2    1    2    0    0  0.00000000000E+00  0.00000000000E+00 -0.35065013302E+03  0.32760516192E+04  0.32572317535E+04 0.  0.
        2    1    3    3  502    0 -0.42225338985E+03 -0.15409816609E+04 -0.49253163706E+03  0.16719778162E+04  0.25500000920E-02 0.  1.
       -2    1    3    3    0  502  0.42225338985E+03  0.15409816609E+04  0.14188150404E+03  0.16040738030E+04  0.25500000920E-02 0. -1.
</event>
<event>
 5   0  0.2730981E-06  0.3169207E+04  0.7818609E-02  0.8196997E-01
        1   -1    0    0  501    0  0.00000000000E+00  0.00000000000E+00  0.17501340980E+04  0.17501340980E+04  0.50400001928E-02 0.  1.
       -1   -1    0    0    0  501  0.00000000000E+00  0.00000000000E+00 -0.14347287629E+04  0.14347287629E+04  0.50400001928E-02 0. -1.
    10030    2    1    2    0    0  0.00000000000E+00  0.00000000000E+00  0.31540533510E+03  0.31848628608E+04  0.31692066699E+04 0.  0.
        3    1    3    3  502    0  0.47603852406E+03 -0.10735694186E+04  0.12268209068E+04  0.16983090180E+04  0.10100000352E+00 0.  1.
       -3    1    3    3    0  502 -0.47603852406E+03  0.10735694186E+04 -0.91141557174E+03  0.14865538428E+04  0.10100000352E+00 0. -1.
</event>
<event>
 5   0  0.5755250E-06  0.3256248E+04  0.7818609E-02  0.8174118E-01
       -2   -1    0    0    0  501  0.00000000000E+00  0.00000000000E+00  0.14552575681E+04  0.14552575681E+04  0.25500000920E-02 0.  1.
        2   -1    0    0  501    0  0.00000000000E+00  0.00000000000E+00 -0.18215248698E+04  0.18215248698E+04  0.25500000920E-02 0. -1.
    10030    2    1    2    0    0  0.00000000000E+00  0.00000000000E+00 -0.36626730174E+03  0.32767824379E+04  0.32562480570E+04 0.  0.
        5    1    3    3  502    0 -0.88207405380E+03  0.80056449311E+03  0.93373363105E+03  0.15135516931E+04  0.46999998093E+01 0.  1.
       -5    1    3    3    0  502  0.88207405380E+03 -0.80056449311E+03 -0.13000009328E+04  0.17632307448E+04  0.46999998093E+01 0. -1.
</event>
<event>
 5   0  0.2037109E-06  0.3474858E+04  0.7818609E-02  0.8119774E-01
       -1   -1    0    0    0  501  0.00000000000E+00  0.00000000000E+00  0.15311521318E+04  0.15311521318E+04  0.50400001928E-02 0.  1.
        1   -1    0    0  501    0  0.00000000000E+00  0.00000000000E+00 -0.19714952877E+04  0.19714952877E+04  0.50400001928E-02 0. -1.
    10030    2    1    2    0    0  0.00000000000E+00  0.00000000000E+00 -0.44034315591E+03  0.35026474195E+04  0.34748578173E+04 0.  0.
        2    1    3    3  502    0  0.15551761901E+03  0.50147631737E+03 -0.18896157131E+04  0.19612016138E+04  0.25500000920E-02 0. -1.
       -2    1    3    3    0  502 -0.15551761901E+03 -0.50147631737E+03  0.14492725572E+04  0.15414458057E+04  0.25500000920E-02 0.  1.
</event>
<event>
 5   0  0.1999849E-06  0.2421755E+04  0.7818609E-02  0.8431404E-01
       -1   -1    0    0    0  501  0.00000000000E+00  0.00000000000E+00  0.15417870727E+04  0.15417870727E+04  0.50400001928E-02 0.  1.
        1   -1    0    0  501    0  0.00000000000E+00  0.00000000000E+00 -0.95099000135E+03  0.95099000137E+03  0.50400001928E-02 0. -1.
    10030    2    1    2    0    0  0.00000000000E+00  0.00000000000E+00  0.59079707139E+03  0.24927770741E+04  0.24217548104E+04 0.  0.
        5    1    3    3  502    0  0.55696666459E+03  0.77593169333E+03 -0.47068627156E+03  0.10648237011E+04  0.46999998093E+01 0. -1.
       -5    1    3    3    0  502 -0.55696666459E+03 -0.77593169333E+03  0.10614833429E+04  0.14279533730E+04  0.46999998093E+01 0.  1.
</event>
<event>
 5   0  0.1999849E-06  0.3391090E+04  0.7818609E-02  0.8140097E-01
       -1   -1    0    0    0  501  0.00000000000E+00  0.00000000000E+00  0.18473993674E+04  0.18473993674E+04  0.50400001928E-02 0. -1.
        1   -1    0    0  501    0  0.00000000000E+00  0.00000000000E+00 -0.15561728481E+04  0.15561728481E+04  0.50400001928E-02 0.  1.
    10030    2    1    2    0    0  0.00000000000E+00  0.00000000000E+00  0.29122651932E+03  0.34035722155E+04  0.33910899341E+04 0.  0.
        5    1    3    3  502    0 -0.23287924500E+03  0.16082224870E+04 -0.34014998190E+03  0.16602217956E+04  0.46999998093E+01 0. -1.
       -5    1    3    3    0  502  0.23287924500E+03 -0.16082224870E+04  0.63137650122E+03  0.17433504199E+04  0.46999998093E+01 0.  1.
</event>
<event>
 5   0  0.5637538E-06  0.3083686E+04  0.7818609E-02  0.8220229E-01
       -2   -1    0    0    0  501  0.00000000000E+00  0.00000000000E+00  0.19376360896E+04  0.19376360896E+04  0.25500000920E-02 0. -1.
        2   -1    0    0  501    0  0.00000000000E+00  0.00000000000E+00 -0.12268969943E+04  0.12268969943E+04  0.25500000920E-02 0.  1.
    10030    2    1    2    0    0  0.00000000000E+00  0.00000000000E+00  0.71073909529E+03  0.31645330840E+04  0.30836860375E+04 0.  0.
        2    1    3    3  502    0  0.95689781660E+03 -0.11915844017E+04  0.56506244822E+03  0.16293625711E+04  0.25500000920E-02 0. -1.
       -2    1    3    3    0  502 -0.95689781660E+03  0.11915844017E+04  0.14567664707E+03  0.15351705128E+04  0.25500000920E-02 0.  1.
</event>
<event>
 5   0  0.5637538E-06  0.3268133E+04  0.7818609E-02  0.8171052E-01
        2   -1    0    0  501    0  0.00000000000E+00  0.00000000000E+00  0.23816339175E+04  0.23816339175E+04  0.25500000920E-02 0. -1.
       -2   -1    0    0    0  501  0.00000000000E+00  0.00000000000E+00 -0.11211519029E+04  0.11211519029E+04  0.25500000920E-02 0.  1.
    10030    2    1    2    0    0  0.00000000000E+00  0.00000000000E+00  0.12604820146E+04  0.35027858204E+04  0.32681330441E+04 0.  0.
        2    1    3    3  502    0  0.15496872700E+03  0.12364618157E+04 -0.50268799270E+03  0.13437069420E+04  0.25500000920E-02 0.  1.
       -2    1    3    3    0  502 -0.15496872700E+03 -0.12364618157E+04  0.17631700073E+04  0.21590788783E+04  0.25500000920E-02 0. -1.
</event>
<event>
 5   0  0.5855568E-06  0.3181865E+04  0.7818609E-02  0.8193623E-01
       -2   -1    0    0    0  501  0.00000000000E+00  0.00000000000E+00  0.76160620138E+03  0.76160620139E+03  0.25500000920E-02 0. -1.
        2   -1    0    0  501    0  0.00000000000E+00  0.00000000000E+00 -0.33233273304E+04  0.33233273304E+04  0.25500000920E-02 0.  1.
    10030    2    1    2    0    0  0.00000000000E+00  0.00000000000E+00 -0.25617211291E+04  0.40849335318E+04  0.31818653046E+04 0.  0.
        3    1    3    3  502    0 -0.10783268562E+04 -0.67420370855E+03 -0.53671460988E+02  0.12728786609E+04  0.10100000352E+00 0. -1.
       -3    1    3    3    0  502  0.10783268562E+04  0.67420370855E+03 -0.25080496681E+04  0.28120548709E+04  0.10100000352E+00 0.  1.
</event>
<event>
 5   0  0.5300268E-06  0.2179095E+04  0.7818609E-02  0.8527180E-01
       -2   -1    0    0    0  501  0.00000000000E+00  0.00000000000E+00  0.43666433649E+03  0.43666433650E+03  0.25500000920E-02 0. -1.
        2   -1    0    0  501    0  0.00000000000E+00  0.00000000000E+00 -0.27185945394E+04  0.27185945394E+04  0.25500000920E-02 0.  1.
    10030    2    1    2    0    0  0.00000000000E+00  0.00000000000E+00 -0.22819302029E+04  0.31552588759E+04  0.21790945649E+04 0.  0.
        4    1    3    3  502    0  0.21197652087E+03  0.10149002510E+04 -0.16258832504E+04  0.19283294640E+04  0.12699999809E+01 0.  1.
       -4    1    3    3    0  502 -0.21197652087E+03 -0.10149002510E+04 -0.65604695250E+03  0.12269294119E+04  0.12699999809E+01 0. -1.
</event>
<event>
 5   0  0.1925906E-06  0.2559832E+04  0.7818609E-02  0.8381975E-01
        1   -1    0    0  501    0  0.00000000000E+00  0.00000000000E+00  0.18616899632E+04  0.18616899632E+04  0.50400001928E-02 0. -1.
       -1   -1    0    0    0  501  0.00000000000E+00  0.00000000000E+00 -0.87994498543E+03  0.87994498545E+03  0.50400001928E-02 0.  1.
    10030    2    1    2    0    0  0.00000000000E+00  0.00000000000E+00  0.98174497773E+03  0.27416349486E+04  0.25598318285E+04 0.  0.
        1    1    3    3  502    0 -0.48143156520E+02  0.13841495769E+03  0.18526746674E+04  0.18584616992E+04  0.50400001928E-02 0. -1.
       -1    1    3    3    0  502  0.48143156520E+02 -0.13841495769E+03 -0.87092968971E+03  0.88317324941E+03  0.50400001928E-02 0.  1.
</event>
<event>
 5   0  0.5300268E-06  0.3321268E+04  0.7818609E-02  0.8157505E-01
       -2   -1    0    0    0  501  0.00000000000E+00  0.00000000000E+00  0.94352901739E+03  0.94352901739E+03  0.25500000920E-02 0.  1.
        2   -1    0    0  501    0  0.00000000000E+00  0.00000000000E+00 -0.29227562484E+04  0.29227562484E+04  0.25500000920E-02 0. -1.
    10030    2    1    2    0    0  0.00000000000E+00  0.00000000000E+00 -0.19792272310E+04  0.38662852658E+04  0.33212680296E+04 0.  0.
        4    1    3    3  502    0  0.12203627357E+04  0.52996746362E+01 -0.23006551387E+04  0.26042904933E+04  0.12699999809E+01 0. -1.
       -4    1    3    3    0  502 -0.12203627357E+04 -0.52996746362E+01  0.32142790764E+03  0.12619947726E+04  0.12699999809E+01 0.  1.
</event>
<event>
 5   0  0.2097842E-06  0.2171210E+04  0.7818609E-02  0.8530508E-01
       -1   -1    0    0    0  501  0.00000000000E+00  0.00000000000E+00  0.64090952358E+03  0.64090952360E+03  0.50400001928E-02 0. -1.
        1   -1    0    0  501    0  0.00000000000E+00  0.00000000000E+00 -0.18388518699E+04  0.18388518699E+04  0.50400001928E-02 0.  1.
    10030    2    1    2    0    0  0.00000000000E+00  0.00000000000E+00 -0.11979423464E+04  0.24797613935E+04  0.21712095025E+04 0.  0.
        4    1    3    3  502    0  0.74422712242E+03  0.53879254583E+03 -0.12593883172E+04  0.15589201274E+04  0.12699999809E+01 0.  1.
       -4    1    3    3    0  502 -0.74422712242E+03 -0.53879254583E+03  0.61445970854E+02  0.92084126614E+03  0.12699999809E+01 0. -1.
</event>
<event>
 5   0  0.5622811E-06  0.3244783E+04  0.7818609E-02  0.8177089E-01
        2   -1    0    0  501    0  0.00000000000E+00  0.00000000000E+00  0.18505665650E+04  0.18505665650E+04  0.25500000920E-02 0. -1.
       -2   -1    0    0    0  501  0.00000000000E+00  0.00000000000E+00 -0.14223505438E+04  0.14223505439E+04  0.25500000920E-02 0.  1.
    10030    2    1    2    0    0  0.00000000000E+00  0.00000000000E+00  0.42821602113E+03  0.32729171088E+04  0.32447831115E+04 0.  0.
        1    1    3    3  502    0  0.98547743712E+02 -0.12276550683E+04  0.12793451538E+04  0.17758301290E+04  0.50400001928E-02 0. -1.
       -1    1    3    3    0  502 -0.98547743712E+02  0.12276550683E+04 -0.85112913271E+03  0.14970869798E+04  0.50400001928E-02 0.  1.
</event>
<event>
 5   0  0.2730981E-06  0.3387641E+04  0.7818609E-02  0.8140946E-01
        1   -1    0    0  501    0  0.00000000000E+00  0.00000000000E+00  0.21330198505E+04  0.21330198505E+04  0.50400001928E-02 0.  1.
       -1   -1    0    0    0  501  0.00000000000E+00  0.00000000000E+00 -0.13450544290E+04  0.13450544290E+04  0.50400001928E-02 0. -1.
    10030    2    1    2    0    0  0.00000000000E+00  0.00000000000E+00  0.78796542154E+03  0.34780742795E+04  0.33876409474E+04 0.  0.
        3    1    3    3  502    0  0.90884489238E+03 -0.92695484161E+03  0.15110455762E+04  0.19921102029E+04  0.10100000352E+00 0.  1.
       -3    1    3    3    0  502 -0.90884489238E+03  0.92695484161E+03 -0.72308015470E+03  0.14859640767E+04  0.10100000352E+00 0. -1.
</event>
<event>
 5   0  0.5855568E-06  0.3293432E+04  0.7818609E-02  0.8164569E-01
        2   -1    0    0  501    0  0.00000000000E+00  0.00000000000E+00  0.24897328735E+04  0.24897328735E+04  0.25500000920E-02 0. -1.
       -2   -1    0    0    0  501  0.00000000000E+00  0.00000000000E+00 -0.10891423239E+04  0.10891423239E+04  0.25500000920E-02 0.  1.
    10030    2    1    2    0    0  0.00000000000E+00  0.00000000000E+00  0.14005905496E+04  0.35788751974E+04  0.32934319169E+04 0.  0.
        3    1    3    3  502    0  0.57832214059E+03  0.94639281097E+03  0.20229824186E+04  0.23070703776E+04  0.10100000352E+00 0. -1.
       -3    1    3    3    0  502 -0.57832214059E+03 -0.94639281097E+03 -0.62239186904E+03  0.12718048199E+04  0.10100000352E+00 0.  1.
</event>
<event>
 5   0  0.1999849E-06  0.3069812E+04  0.7818609E-02  0.8224072E-01
       -1   -1    0    0    0  501  0.00000000000E+00  0.00000000000E+00  0.15673839181E+04  0.15673839181E+04  0.50400001928E-02 0.  1.
        1   -1    0    0  501    0  0.00000000000E+00  0.00000000000E+00 -0.15031011807E+04  0.15031011807E+04  0.50400001928E-02 0. -1.
    10030    2    1    2    0    0  0.00000000000E+00  0.00000000000E+00  0.64282737405E+02  0.30704850988E+04  0.30698121232E+04 0.  0.
        5    1    3    3  502    0  0.64090102320E+03 -0.21926508235E+03 -0.13455070235E+04  0.15064005238E+04  0.46999998093E+01 0. -1.
       -5    1    3    3    0  502 -0.64090102320E+03  0.21926508235E+03  0.14097897609E+04  0.15640845750E+04  0.46999998093E+01 0.  1.
</event>
<event>
 5   0  0.5622811E-06  0.3423903E+04  0.7818609E-02  0.8132064E-01
       -2   -1    0    0    0  501  0.00000000000E+00  0.00000000000E+00  0.13211598497E+04  0.13211598497E+04  0.25500000920E-02 0.  1.
        2   -1    0    0  501    0  0.00000000000E+00  0.00000000000E+00 -0.22183373885E+04  0.22183373885E+04  0.25500000920E-02 0. -1.
    10030    2    1    2    0    0  0.00000000000E+00  0.00000000000E+00 -0.89717753882E+03  0.35394972382E+04  0.34239032058E+04 0.  0.
        1    1    3    3  502    0  0.44830360987E+03  0.14357412506E+04 -0.12937786942E+04  0.19839839654E+04  0.50400001928E-02 0. -1.
       -1    1    3    3    0  502 -0.44830360987E+03 -0.14357412506E+04  0.39660115542E+03  0.15555132728E+04  0.50400001928E-02 0.  1.
</event>
<event>
 5   0  0.5855568E-06  0.3209119E+04  0.7818609E-02  0.8186413E-01
       -2   -1    0    0    0  501  0.00000000000E+00  0.00000000000E+00  0.19003788926E+04  0.19003788926E+04  0.25500000920E-02 0.  1.
        2   -1    0    0  501    0  0.00000000000E+00  0.00000000000E+00 -0.13547881486E+04  0.13547881486E+04  0.25500000920E-02 0. -1.
    10030    2    1    2    0    0  0.00000000000E+00  0.00000000000E+00  0.54559074399E+03  0.32551670412E+04  0.32091187586E+04 0.  0.
        3    1    3    3  502    0  0.27873575880E+03 -0.27626615008E+03 -0.13053553671E+04  0.13630734586E+04  0.10100000352E+00 0. -1.
       -3    1    3    3    0  502 -0.27873575880E+03  0.27626615008E+03  0.18509461111E+04  0.18920935826E+04  0.10100000352E+00 0.  1.
</event>
<event>
 5   0  0.1878000E-06  0.3293287E+04  0.7818609E-02  0.8164606E-01
        3   -1    0    0  501    0  0.00000000000E+00  0.00000000000E+00  0.17578380155E+04  0.17578380184E+04  0.10100000352E+00 0.  1.
       -3   -1    0    0    0  501  0.00000000000E+00  0.00000000000E+00 -0.15424826150E+04  0.15424826183E+04  0.10100000352E+00 0. -1.
    10030    2    1    2    0    0  0.00000000000E+00  0.00000000000E+00  0.21535540053E+03  0.33003206366E+04  0.32932868621E+04 0.  0.
        4    1    3    3  502    0 -0.15201812194E+04 -0.40572041454E+03 -0.37902714728E+03  0.16184014291E+04  0.12699999809E+01 0. -1.
       -4    1    3    3    0  502  0.15201812194E+04  0.40572041454E+03  0.59438254781E+03  0.16819192075E+04  0.12699999809E+01 0.  1.
</event>
<event>
 5   0  0.2097842E-06  0.3173164E+04  0.7818609E-02  0.8195941E-01
       -1   -1    0    0    0  501  0.00000000000E+00  0.00000000000E+00  0.13756111284E+04  0.13756111284E+04  0.50400001928E-02 0.  1.
        1   -1    0    0  501    0  0.00000000000E+00  0.00000000000E+00 -0.18299086135E+04  0.18299086135E+04  0.50400001928E-02 0. -1.
    10030    2    1    2    0    0  0.00000000000E+00  0.00000000000E+00 -0.45429748502E+03  0.32055197419E+04  0.31731641323E+04 0.  0.
        4    1    3    3  502    0 -0.12332672499E+04  0.71354656625E+03  0.47792525706E+03  0.15028343142E+04  0.12699999809E+01 0.  1.
       -4    1    3    3    0  502  0.12332672499E+04 -0.71354656625E+03 -0.93222274208E+03  0.17026854277E+04  0.12699999809E+01 0. -1.
</event>
<event>
 5   0  0.2037109E-06  0.3227379E+04  0.7818609E-02  0.8181624E-01
        1   -1    0    0  501    0  0.00000000000E+00  0.00000000000E+00  0.13906380953E+04  0.13906380953E+04  0.50400001928E-02 0. -1.
       -1   -1    0    0    0  501  0.00000000000E+00  0.00000000000E+00 -0.18725168331E+04  0.18725168331E+04  0.50400001928E-02 0.  1.
    10030    2    1    2    0    0  0.00000000000E+00  0.00000000000E+00 -0.48187873778E+03  0.32631549284E+04  0.32273786528E+04 0.  0.
        2    1    3    3  502    0  0.10334614662E+04 -0.51459288187E+03 -0.13808880102E+04  0.17999167017E+04  0.25500000920E-02 0.  1.
       -2    1    3    3    0  502 -0.10334614662E+04  0.51459288187E+03  0.89900927242E+03  0.14632382267E+04  0.25500000920E-02 0. -1.
</event>
<event>
 5   0  0.5300268E-06  0.2114620E+04  0.7818609E-02  0.8554830E-01
        2   -1    0    0  501    0  0.00000000000E+00  0.00000000000E+00  0.13464404457E+04  0.13464404457E+04  0.25500000920E-02 0. -1.
       -2   -1    0    0    0  501  0.00000000000E+00  0.00000000000E+00 -0.83026668185E+03  0.83026668186E+03  0.25500000920E-02 0.  1.
    10030    2    1    2    0    0  0.00000000000E+00  0.00000000000E+00  0.51617376380E+03  0.21767071275E+04  0.21146201939E+04 0.  0.
        4    1    3    3  502    0  0.24259178713E+01 -0.58364263970E+03 -0.64942086203E+03  0.87315158186E+03  0.12699999809E+01 0. -1.
       -4    1    3    3    0  502 -0.24259178713E+01  0.58364263970E+03  0.11655946258E+04  0.13035555457E+04  0.12699999809E+01 0.  1.
</event>
<event>
 5   0  0.5622811E-06  0.3254346E+04  0.7818609E-02  0.8174610E-01
        2   -1    0    0  501    0  0.00000000000E+00  0.00000000000E+00  0.15735051277E+04  0.15735051277E+04  0.25500000920E-02 0. -1.
       -2   -1    0    0    0  501  0.00000000000E+00  0.00000000000E+00 -0.16826708649E+04  0.16826708649E+04  0.25500000920E-02 0.  1.
    10030    2    1    2    0    0  0.00000000000E+00  0.00000000000E+00 -0.10916573727E+03  0.32561759926E+04  0.32543455466E+04 0.  0.
        1    1    3    3  502    0  0.15896083399E+04 -0.26452045298E+03  0.17107777446E+03  0.16205225543E+04  0.50400001928E-02 0. -1.
       -1    1    3    3    0  502 -0.15896083399E+04  0.26452045298E+03 -0.28024351173E+03  0.16356534383E+04  0.50400001928E-02 0.  1.
</event>
<event>
 5   0  0.1925906E-06  0.1842707E+04  0.7818609E-02  0.8683912E-01
       -1   -1    0    0    0  501  0.00000000000E+00  0.00000000000E+00  0.13059695571E+04  0.13059695571E+04  0.50400001928E-02 0. -1.
        1   -1    0    0  501    0  0.00000000000E+00  0.00000000000E+00 -0.65000928935E+03  0.65000928937E+03  0.50400001928E-02 0.  1.
    10030    2    1    2    0    0  0.00000000000E+00  0.00000000000E+00  0.65596026773E+03  0.19559788465E+04  0.18427070779E+04 0.  0.
        1    1    3    3  502    0  0.83503153252E+02 -0.80042313898E+03  0.80415619326E+03  0.11376806060E+04  0.50400001928E-02 0. -1.
       -1    1    3    3    0  502 -0.83503153252E+02  0.80042313898E+03 -0.14819592553E+03  0.81829824049E+03  0.50400001928E-02 0.  1.
</event>
<event>
 5   0  0.5755250E-06  0.2380371E+04  0.7818609E-02  0.8446889E-01
       -2   -1    0    0    0  501  0.00000000000E+00  0.00000000000E+00  0.78920616169E+03  0.78920616170E+03  0.25500000920E-02 0. -1.
        2   -1    0    0  501    0  0.00000000000E+00  0.00000000000E+00 -0.17948944638E+04  0.17948944638E+04  0.25500000920E-02 0.  1.
    10030    2    1    2    0    0  0.00000000000E+00  0.00000000000E+00 -0.10056883021E+04  0.25841006255E+04  0.23803712067E+04 0.  0.
        5    1    3    3  502    0  0.69077706146E+03  0.35256227936E+03  0.47722325269E+03  0.91062463857E+03  0.46999998093E+01 0. -1.
       -5    1    3    3    0  502 -0.69077706146E+03 -0.35256227936E+03 -0.14829115548E+04  0.16734759869E+04  0.46999998093E+01 0.  1.
</event>
<event>
 5   0  0.2097842E-06  0.1650688E+04  0.7818609E-02  0.8789999E-01
        1   -1    0    0  501    0  0.00000000000E+00  0.00000000000E+00  0.14911023589E+04  0.14911023589E+04  0.50400001928E-02 0. -1.
       -1   -1    0    0    0  501  0.00000000000E+00  0.00000000000E+00 -0.45683858207E+03  0.45683858209E+03  0.50400001928E-02 0.  1.
    10030    2    1    2    0    0  0.00000000000E+00  0.00000000000E+00  0.10342637768E+04  0.19479409410E+04  0.16506884471E+04 0.  0.
        4    1    3    3  502    0  0.44348898339E+03  0.10069761736E+03  0.13299040450E+04  0.14055137389E+04  0.12699999809E+01 0. -1.
       -4    1    3    3    0  502 -0.44348898339E+03 -0.10069761736E+03 -0.29564026814E+03  0.54242720209E+03  0.12699999809E+01 0.  1.
</event>
<event>
 5   0  0.1999849E-06  0.3377098E+04  0.7818609E-02  0.8143550E-01
        1   -1    0    0  501    0  0.00000000000E+00  0.00000000000E+00  0.12633317114E+04  0.12633317114E+04  0.50400001928E-02 0.  1.
       -1   -1    0    0    0  501  0.00000000000E+00  0.00000000000E+00 -0.22568877270E+04  0.22568877270E+04  0.50400001928E-02 0. -1.
    10030    2    1    2    0    0  0.00000000000E+00  0.00000000000E+00 -0.99355601559E+03  0.35202194383E+04  0.33770980646E+04 0.  0.
        5    1    3    3  502    0 -0.66300474132E+03 -0.26444084986E+03 -0.20918821743E+04  0.22103161247E+04  0.46999998093E+01 0. -1.
       -5    1    3    3    0  502  0.66300474132E+03  0.26444084986E+03  0.10983261587E+04  0.13099033136E+04  0.46999998093E+01 0.  1.
</event>
<event>
 5   0  0.2037109E-06  0.3287358E+04  0.7818609E-02  0.8166120E-01
       -1   -1    0    0    0  501  0.00000000000E+00  0.00000000000E+00  0.10582647490E+04  0.10582647490E+04  0.50400001928E-02 0. -1.
        1   -1    0    0  501    0  0.00000000000E+00  0.00000000000E+00 -0.25529344982E+04  0.25529344982E+04  0.50400001928E-02 0.  1.
    10030    2    1    2    0    0  0.00000000000E+00  0.00000000000E+00 -0.14946697493E+04  0.36111992472E+04  0.32873579580E+04 0.  0.
        2    1    3    3  502    0 -0.92629804784E+03  0.79252198028E+03 -0.19584708626E+04  0.23068869244E+04  0.25500000920E-02 0.  1.
       -2    1    3    3    0  502  0.92629804784E+03 -0.79252198028E+03  0.46380111331E+03  0.13043123228E+04  0.25500000920E-02 0. -1.
</event>
<event>
 5   0  0.5300268E-06  0.1785716E+04  0.7818609E-02  0.8713933E-01
       -2   -1    0    0    0  501  0.00000000000E+00  0.00000000000E+00  0.11319078650E+04  0.11319078650E+04  0.25500000920E-02 0.  1.
        2   -1    0    0  501    0  0.00000000000E+00  0.00000000000E+00 -0.70429361995E+03  0.70429361995E+03  0.25500000920E-02 0. -1.
    10030    2    1    2    0    0  0.00000000000E+00  0.00000000000E+00  0.42761424509E+03  0.18362014850E+04  0.17857160891E+04 0.  0.
        4    1    3    3  502    0  0.47785816786E+03  0.75102628647E+03  0.14252954054E+03  0.90150163305E+03  0.12699999809E+01 0. -1.
       -4    1    3    3    0  502 -0.47785816786E+03 -0.75102628647E+03  0.28508470455E+03  0.93469985195E+03  0.12699999809E+01 0.  1.
</event>
<event>
 5   0  0.1925906E-06  0.3397552E+04  0.7818609E-02  0.8138507E-01
        1   -1    0    0  501    0  0.00000000000E+00  0.00000000000E+00  0.17397222471E+04  0.17397222471E+04  0.50400001928E-02 0.  1.
       -1   -1    0    0    0  501  0.00000000000E+00  0.00000000000E+00 -0.16587932219E+04  0.16587932219E+04  0.50400001928E-02 0. -1.
    10030    2    1    2    0    0  0.00000000000E+00  0.00000000000E+00  0.80929025198E+02  0.33985154691E+04  0.33975517489E+04 0.  0.
        1    1    3    3  502    0  0.71174885123E+03 -0.15325672555E+04 -0.13420074352E+03  0.16950984217E+04  0.50400001928E-02 0. -1.
       -1    1    3    3    0  502 -0.71174885123E+03  0.15325672555E+04  0.21512976872E+03  0.17034170473E+04  0.50400001928E-02 0.  1.
</event>
<event>
 5   0  0.2730981E-06  0.3274771E+04  0.7818609E-02  0.8169345E-01
       -1   -1    0    0    0  501  0.00000000000E+00  0.00000000000E+00  0.11539194354E+04  0.11539194354E+04  0.50400001928E-02 0. -1.
        1   -1    0    0  501    0  0.00000000000E+00  0.00000000000E+00 -0.23234128402E+04  0.23234128402E+04  0.50400001928E-02 0.  1.
    10030    2    1    2    0    0  0.00000000000E+00  0.00000000000E+00 -0.11694934048E+04  0.34773322756E+04  0.32747709739E+04 0.  0.
        3    1    3    3  502    0  0.11835189632E+03 -0.42180122809E+02  0.11487931048E+04  0.11556435185E+04  0.10100000352E+00 0. -1.
       -3    1    3    3    0  502 -0.11835189632E+03  0.42180122809E+02 -0.23182865096E+04  0.23216887571E+04  0.10100000352E+00 0.  1.
</event>
<event>
 5   0  0.5637538E-06  0.3232028E+04  0.7818609E-02  0.8180409E-01
       -2   -1    0    0    0  501  0.00000000000E+00  0.00000000000E+00  0.20846836704E+04  0.20846836704E+04  0.25500000920E-02 0.  1.
        2   -1    0    0  501    0  0.00000000000E+00  0.00000000000E+00 -0.12527087687E+04  0.12527087687E+04  0.25500000920E-02 0. -1.
    10030    2    1    2    0    0  0.00000000000E+00  0.00000000000E+00  0.83197490175E+03  0.33373924391E+04  0.32320281644E+04 0.  0.
        2    1    3    3  502    0 -0.11068855614E+03 -0.14463180177E+04 -0.31956433883E+03  0.14853313204E+04  0.25500000920E-02 0. -1.
       -2    1    3    3    0  502  0.11068855614E+03  0.14463180177E+04  0.11515392406E+04  0.18520611187E+04  0.25500000920E-02 0.  1.
</event>
<event>
 5   0  0.5300268E-06  0.3354860E+04  0.7818609E-02  0.8149075E-01
        2   -1    0    0  501    0  0.00000000000E+00  0.00000000000E+00  0.21782723421E+04  0.21782723421E+04  0.25500000920E-02 0.  1.
       -2   -1    0    0    0  501  0.00000000000E+00  0.00000000000E+00 -0.12917443568E+04  0.12917443568E+04  0.25500000920E-02 0. -1.
    10030    2    1    2    0    0  0.00000000000E+00  0.00000000000E+00  0.88652798525E+03  0.34700166989E+04  0.33548597619E+04 0.  0.
        4    1    3    3  502    0 -0.10446795936E+04 -0.87948767242E+03  0.14508240335E+04  0.19924221462E+04  0.12699999809E+01 0.  1.
       -4    1    3    3    0  502  0.10446795936E+04  0.87948767242E+03 -0.56429604829E+03  0.14775945528E+04  0.12699999809E+01 0. -1.
</event>
<event>
 5   0  0.1999849E-06  0.3288039E+04  0.7818609E-02  0.8165945E-01
        1   -1    0    0  501    0  0.00000000000E+00  0.00000000000E+00  0.17240168332E+04  0.17240168332E+04  0.50400001928E-02 0. -1.
       -1   -1    0    0    0  501  0.00000000000E+00  0.00000000000E+00 -0.15677345709E+04  0.15677345709E+04  0.50400001928E-02 0.  1.
    10030    2    1    2    0    0  0.00000000000E+00  0.00000000000E+00  0.15628226227E+03  0.32917514042E+04  0.32880394099E+04 0.  0.
        5    1    3    3  502    0 -0.11628173334E+03 -0.16302239711E+04  0.25618189343E+03  0.16543285315E+04  0.46999998093E+01 0.  1.
       -5    1    3    3    0  502  0.11628173334E+03  0.16302239711E+04 -0.99899631167E+02  0.16374228727E+04  0.46999998093E+01 0. -1.
</event>
<event>
 5   0  0.7695469E-06  0.1706547E+04  0.7818609E-02  0.8757639E-01
        2   -1    0    0  501    0  0.00000000000E+00  0.00000000000E+00  0.19324477643E+04  0.19324477643E+04  0.25500000920E-02 0.  1.
       -2   -1    0    0    0  501  0.00000000000E+00  0.00000000000E+00 -0.37676357717E+03  0.37676357718E+03  0.25500000920E-02 0. -1.
    10030    2    1    2    0    0  0.00000000000E+00  0.00000000000E+00  0.15556841872E+04  0.23092113415E+04  0.17065473124E+04 0.  0.
        4    1    3    3  502    0  0.84122046140E+01 -0.80703467700E+03  0.40309435314E+03  0.90214322893E+03  0.12699999809E+01 0. -1.
       -4    1    3    3    0  502 -0.84122046140E+01  0.80703467700E+03  0.11525898340E+04  0.14070681126E+04  0.12699999809E+01 0.  1.
</event>
<event>
 5   0  0.2037109E-06  0.3256217E+04  0.7818609E-02  0.8174126E-01
        1   -1    0    0  501    0  0.00000000000E+00  0.00000000000E+00  0.20756439026E+04  0.20756439026E+04  0.50400001928E-02 0.  1.
       -1   -1    0    0    0  501  0.00000000000E+00  0.00000000000E+00 -0.12770674360E+04  0.12770674360E+04  0.50400001928E-02 0. -1.
    10030    2    1    2    0    0  0.00000000000E+00  0.00000000000E+00  0.79857646662E+03  0.33527113386E+04  0.32562169686E+04 0.  0.
        2    1    3    3  502    0  0.42343858283E+03 -0.10000671065E+04  0.16482060371E+04  0.19738332229E+04  0.25500000920E-02 0.  1.
       -2    1    3    3    0  502 -0.42343858283E+03  0.10000671065E+04 -0.84962957049E+03  0.13788781157E+04  0.25500000920E-02 0. -1.
</event>
<event>
 5   0  0.5755250E-06  0.3283614E+04  0.7818609E-02  0.8167077E-01
       -2   -1    0    0    0  501  0.00000000000E+00  0.00000000000E+00  0.12776524662E+04  0.12776524662E+04  0.25500000920E-02 0. -1.
        2   -1    0    0  501    0  0.00000000000E+00  0.00000000000E+00 -0.21097527917E+04  0.21097527917E+04  0.25500000920E-02 0.  1.
    10030    2    1    2    0    0  0.00000000000E+00  0.00000000000E+00 -0.83210032554E+03  0.33874052579E+04  0.32836143850E+04 0.  0.
        5    1    3    3  502    0  0.37210013743E+03  0.15272962452E+04  0.72649834577E+02  0.15736557506E+04  0.46999998093E+01 0. -1.
       -5    1    3    3    0  502 -0.37210013743E+03 -0.15272962452E+04 -0.90475016012E+03  0.18137495073E+04  0.46999998093E+01 0.  1.
</event>
<event>
 5   0  0.2097842E-06  0.3251861E+04  0.7818609E-02  0.8175253E-01
       -1   -1    0    0    0  501  0.00000000000E+00  0.00000000000E+00  0.17481237601E+04  0.17481237601E+04  0.50400001928E-02 0.  1.
        1   -1    0    0  501    0  0.00000000000E+00  0.00000000000E+00 -0.15122787460E+04  0.15122787460E+04  0.50400001928E-02 0. -1.
    10030    2    1    2    0    0  0.00000000000E+00  0.00000000000E+00  0.23584501405E+03  0.32604025061E+04  0.32518612564E+04 0.  0.
        4    1    3    3  502    0  0.19344213570E+03  0.14126667306E+04 -0.66553995846E+03  0.15735285828E+04  0.12699999809E+01 0. -1.
       -4    1    3    3    0  502 -0.19344213570E+03 -0.14126667306E+04  0.90138497251E+03  0.16868739233E+04  0.12699999809E+01 0.  1.
</event>
<event>
 5   0  0.5855568E-06  0.3304034E+04  0.7818609E-02  0.8161870E-01
        2   -1    0    0  501    0  0.00000000000E+00  0.00000000000E+00  0.19049683834E+04  0.19049683834E+04  0.25500000920E-02 0.  1.
       -2   -1    0    0    0  501  0.00000000000E+00  0.00000000000E+00 -0.14326540336E+04  0.14326540337E+04  0.25500000920E-02 0. -1.
    10030    2    1    2    0    0  0.00000000000E+00  0.00000000000E+00  0.47231434973E+03  0.33376224170E+04  0.33040342846E+04 0.  0.
        3    1    3    3  502    0 -0.25168903606E+03 -0.69586873194E+03 -0.12558751314E+04  0.14576704081E+04  0.10100000352E+00 0. -1.
       -3    1    3    3    0  502  0.25168903606E+03  0.69586873194E+03  0.17281894811E+04  0.18799520089E+04  0.10100000352E+00 0.  1.
</event>
<event>
 5   0  0.1878000E-06  0.2714311E+04  0.7818609E-02  0.8330376E-01
        4   -1    0    0  501    0  0.00000000000E+00  0.00000000000E+00  0.19372802680E+04  0.19372806843E+04  0.12699999809E+01 0.  1.
       -4   -1    0    0    0  501  0.00000000000E+00  0.00000000000E+00 -0.95075024210E+03  0.95075109033E+03  0.12699999809E+01 0. -1.
    10030    2    1    2    0    0  0.00000000000E+00  0.00000000000E+00  0.98653002589E+03  0.28880317746E+04  0.27143113379E+04 0.  0.
        5    1    3    3  502    0 -0.47637260707E+03 -0.12090628514E+04  0.90956792507E+03  0.15862218444E+04  0.46999998093E+01 0. -1.
       -5    1    3    3    0  502  0.47637260707E+03  0.12090628514E+04  0.76962100821E+02  0.13018099302E+04  0.46999998093E+01 0.  1.
</event>
<event>
 5   0  0.5637538E-06  0.3281436E+04  0.7818609E-02  0.8167635E-01
       -2   -1    0    0    0  501  0.00000000000E+00  0.00000000000E+00  0.23006134904E+04  0.23006134904E+04  0.25500000920E-02 0.  1.
        2   -1    0    0  501    0  0.00000000000E+00  0.00000000000E+00 -0.11701034624E+04  0.11701034624E+04  0.25500000920E-02 0. -1.
    10030    2    1    2    0    0  0.00000000000E+00  0.00000000000E+00  0.11305100280E+04  0.34707169527E+04  0.32814361555E+04 0.  0.
        2    1    3    3  502    0  0.10673981079E+04 -0.39880980355E+03 -0.68333338198E+03  0.13286581543E+04  0.25500000920E-02 0. -1.
       -2    1    3    3    0  502 -0.10673981079E+04  0.39880980355E+03  0.18138434100E+04  0.21420587984E+04  0.25500000920E-02 0.  1.
</event>
<event>
 5   0  0.1878000E-06  0.1699787E+04  0.7818609E-02  0.8761486E-01
        3   -1    0    0  501    0  0.00000000000E+00  0.00000000000E+00  0.11307634051E+04  0.11307634096E+04  0.10100000352E+00 0.  1.
       -3   -1    0    0    0  501  0.00000000000E+00  0.00000000000E+00 -0.63878858201E+03  0.63878858999E+03  0.10100000352E+00 0. -1.
    10030    2    1    2    0    0  0.00000000000E+00  0.00000000000E+00  0.49197482305E+03  0.17695519996E+04  0.16997867668E+04 0.  0.
        5    1    3    3  502    0 -0.81860613404E+03  0.14561960902E+03  0.42920988794E+03  0.93571592437E+03  0.46999998093E+01 0. -1.
       -5    1    3    3    0  502  0.81860613404E+03 -0.14561960902E+03  0.62764935109E+02  0.83383607520E+03  0.46999998093E+01 0.  1.
</event>
<event>
 5   0  0.5300268E-06  0.3224315E+04  0.7818609E-02  0.8182425E-01
       -2   -1    0    0    0  501  0.00000000000E+00  0.00000000000E+00  0.11133962682E+04  0.11133962682E+04  0.25500000920E-02 0. -1.
        2   -1    0    0  501    0  0.00000000000E+00  0.00000000000E+00 -0.23343456470E+04  0.23343456470E+04  0.25500000920E-02 0.  1.
    10030    2    1    2    0    0  0.00000000000E+00  0.00000000000E+00 -0.12209493787E+04  0.34477419152E+04  0.32243149549E+04 0.  0.
        4    1    3    3  502    0  0.25486908608E+02  0.12223252890E+04 -0.17341608706E+04  0.21218021191E+04  0.12699999809E+01 0.  1.
       -4    1    3    3    0  502 -0.25486908608E+02 -0.12223252890E+04  0.51321149184E+03  0.13259397961E+04  0.12699999809E+01 0. -1.
</event>
<event>
 5   0  0.5755250E-06  0.3342400E+04  0.7818609E-02  0.8152190E-01
        2   -1    0    0  501    0  0.00000000000E+00  0.00000000000E+00  0.18329605258E+04  0.18329605258E+04  0.25500000920E-02 0.  1.
       -2   -1    0    0    0  501  0.00000000000E+00  0.00000000000E+00 -0.15237146102E+04  0.15237146102E+04  0.25500000920E-02 0. -1.
    10030    2    1    2    0    0  0.00000000000E+00  0.00000000000E+00  0.30924591565E+03  0.33566751360E+04  0.33423995770E+04 0.  0.
        5    1    3    3  502    0  0.11743992825E+04 -0.24475905235E+03 -0.10138609646E+04  0.15706867332E+04  0.46999998093E+01 0. -1.
       -5    1    3    3    0  502 -0.11743992825E+04  0.24475905235E+03  0.13231068802E+04  0.17859884028E+04  0.46999998093E+01 0.  1.
</event>
<event>
 5   0  0.2097842E-06  0.3153587E+04  0.7818609E-02  0.8201183E-01
        1   -1    0    0  501    0  0.00000000000E+00  0.00000000000E+00  0.18302718477E+04  0.18302718477E+04  0.50400001928E-02 0. -1.
       -1   -1    0    0    0  501  0.00000000000E+00  0.00000000000E+00 -0.13584198088E+04  0.13584198088E+04  0.50400001928E-02 0.  1.
    10030    2    1    2    0    0  0.00000000000E+00  0.00000000000E+00  0.47185203890E+03  0.31886916565E+04  0.31535868679E+04 0.  0.
        4    1    3    3  502    0  0.58518613682E+03 -0.20188838953E+03  0.17022671719E+04  0.18113301394E+04  0.12699999809E+01 0. -1.
       -4    1    3    3    0  502 -0.58518613682E+03  0.20188838953E+03 -0.12304151330E+04  0.13773615171E+04  0.12699999809E+01 0.  1.
</event>
<event>
 5   0  0.2037109E-06  0.3263558E+04  0.7818609E-02  0.8172230E-01
        1   -1    0    0  501    0  0.00000000000E+00  0.00000000000E+00  0.20438467707E+04  0.20438467707E+04  0.50400001928E-02 0.  1.
       -1   -1    0    0    0  501  0.00000000000E+00  0.00000000000E+00 -0.13027900410E+04  0.13027900410E+04  0.50400001928E-02 0. -1.
    10030    2    1    2    0    0  0.00000000000E+00  0.00000000000E+00  0.74105672967E+03  0.33466368117E+04  0.32635583146E+04 0.  0.
        2    1    3    3  502    0 -0.14278684073E+04 -0.46659196000E+03  0.10240804458E+04  0.18180365797E+04  0.25500000920E-02 0.  1.
       -2    1    3    3    0  502  0.14278684073E+04  0.46659196000E+03 -0.28302371612E+03  0.15286002321E+04  0.25500000920E-02 0. -1.
</event>
<event>
 5   0  0.5755250E-06  0.3365712E+04  0.7818609E-02  0.8146373E-01
        2   -1    0    0  501    0  0.00000000000E+00  0.00000000000E+00  0.20044564234E+04  0.20044564234E+04  0.25500000920E-02 0. -1.
       -2   -1    0    0    0  501  0.00000000000E+00  0.00000000000E+00 -0.14128540576E+04  0.14128540576E+04  0.25500000920E-02 0.  1.
    10030    2    1    2    0    0  0.00000000000E+00  0.00000000000E+00  0.59160236587E+03  0.34173104810E+04  0.33657120441E+04 0.  0.
        5    1    3    3  502    0  0.10199181078E+04 -0.12189859959E+04 -0.26568903686E+03  0.16114504520E+04  0.46999998093E+01 0.  1.
       -5    1    3    3    0  502 -0.10199181078E+04  0.12189859959E+04  0.85729140273E+03  0.18058600290E+04  0.46999998093E+01 0. -1.
</event>
<event>
 5   0  0.2730981E-06  0.3348363E+04  0.7818609E-02  0.8150697E-01
       -1   -1    0    0    0  501  0.00000000000E+00  0.00000000000E+00  0.10962425781E+04  0.10962425781E+04  0.50400001928E-02 0. -1.
        1   -1    0    0  501    0  0.00000000000E+00  0.00000000000E+00 -0.25568103365E+04  0.25568103365E+04  0.50400001928E-02 0.  1.
    10030    2    1    2    0    0  0.00000000000E+00  0.00000000000E+00 -0.14605677584E+04  0.36530529147E+04  0.33483633943E+04 0.  0.
        3    1    3    3  502    0 -0.12228320691E+04  0.87957757347E+03  0.66897504276E+02  0.15077964927E+04  0.10100000352E+00 0. -1.
       -3    1    3    3    0  502  0.12228320691E+04 -0.87957757347E+03 -0.15274652627E+04  0.21452564220E+04  0.10100000352E+00 0.  1.
</event>
<event>
 5   0  0.5622811E-06  0.3341344E+04  0.7818609E-02  0.8152454E-01
        2   -1    0    0  501    0  0.00000000000E+00  0.00000000000E+00  0.21650394109E+04  0.21650394109E+04  0.25500000920E-02 0.  1.
       -2   -1    0    0    0  501  0.00000000000E+00  0.00000000000E+00 -0.12891886461E+04  0.12891886461E+04  0.25500000920E-02 0. -1.
    10030    2    1    2    0    0  0.00000000000E+00  0.00000000000E+00  0.87585076484E+03  0.34542280571E+04  0.33413435783E+04 0.  0.
        1    1    3    3  502    0 -0.10800307292E+03 -0.10828401956E+04  0.17484019318E+04  0.20593972099E+04  0.50400001928E-02 0.  1.
       -1    1    3    3    0  502  0.10800307292E+03  0.10828401956E+04 -0.87255116699E+03  0.13948308471E+04  0.50400001928E-02 0. -1.
</event>
<event>
 5   0  0.1925906E-06  0.3296757E+04  0.7818609E-02  0.8163721E-01
       -1   -1    0    0    0  501  0.00000000000E+00  0.00000000000E+00  0.13470482041E+04  0.13470482041E+04  0.50400001928E-02 0. -1.
        1   -1    0    0  501    0  0.00000000000E+00  0.00000000000E+00 -0.20171159172E+04  0.20171159172E+04  0.50400001928E-02 0.  1.
    10030    2    1    2    0    0  0.00000000000E+00  0.00000000000E+00 -0.67006771311E+03  0.33641641214E+04  0.32967574214E+04 0.  0.
        1    1    3    3  502    0 -0.11533556582E+04 -0.69226436579E+03  0.63717530805E+03  0.14884393167E+04  0.50400001928E-02 0. -1.
       -1    1    3    3    0  502  0.11533556582E+04  0.69226436579E+03 -0.13072430212E+04  0.18757248046E+04  0.50400001928E-02 0.  1.
</event>
<event>
 5   0  0.5622811E-06  0.2038811E+04  0.7818609E-02  0.8588687E-01
        2   -1    0    0  501    0  0.00000000000E+00  0.00000000000E+00  0.23024140251E+04  0.23024140251E+04  0.25500000920E-02 0. -1.
       -2   -1    0    0    0  501  0.00000000000E+00  0.00000000000E+00 -0.45134699399E+03  0.45134699400E+03  0.25500000920E-02 0.  1.
    10030    2    1    2    0    0  0.00000000000E+00  0.00000000000E+00  0.18510670311E+04  0.27537610191E+04  0.20388110743E+04 0.  0.
        1    1    3    3  502    0  0.22339278599E+03  0.30113199582E+03  0.22058966350E+04  0.22375354254E+04  0.50400001928E-02 0. -1.
       -1    1    3    3    0  502 -0.22339278599E+03 -0.30113199582E+03 -0.35482960389E+03  0.51622559366E+03  0.50400001928E-02 0.  1.
</event>
<event>
 5   0  0.5622811E-06  0.2255118E+04  0.7818609E-02  0.8495831E-01
        2   -1    0    0  501    0  0.00000000000E+00  0.00000000000E+00  0.13380609739E+04  0.13380609739E+04  0.25500000920E-02 0.  1.
       -2   -1    0    0    0  501  0.00000000000E+00  0.00000000000E+00 -0.95017300408E+03  0.95017300408E+03  0.25500000920E-02 0. -1.
    10030    2    1    2    0    0  0.00000000000E+00  0.00000000000E+00  0.38788796979E+03  0.22882339780E+04  0.22551181035E+04 0.  0.
        1    1    3    3  502    0  0.93227642308E+01 -0.69029266773E+03  0.10985504088E+04  0.12974605511E+04  0.50400001928E-02 0.  1.
       -1    1    3    3    0  502 -0.93227642308E+01  0.69029266773E+03 -0.71066243901E+03  0.99077342682E+03  0.50400001928E-02 0. -1.
</event>
<event>
 5   0  0.5755250E-06  0.3141054E+04  0.7818609E-02  0.8204560E-01
        2   -1    0    0  501    0  0.00000000000E+00  0.00000000000E+00  0.23694348860E+04  0.23694348860E+04  0.25500000920E-02 0.  1.
       -2   -1    0    0    0  501  0.00000000000E+00  0.00000000000E+00 -0.10409888152E+04  0.10409888152E+04  0.25500000920E-02 0. -1.
    10030    2    1    2    0    0  0.00000000000E+00  0.00000000000E+00  0.13284460708E+04  0.34104237011E+04  0.31410540998E+04 0.  0.
        5    1    3    3  502    0 -0.57591678688E+03  0.11417262260E+04 -0.32573212030E+03  0.13195993425E+04  0.46999998093E+01 0. -1.
       -5    1    3    3    0  502  0.57591678688E+03 -0.11417262260E+04  0.16541781911E+04  0.20908243586E+04  0.46999998093E+01 0.  1.
</event>
<event>
 5   0  0.5855568E-06  0.2684890E+04  0.7818609E-02  0.8339924E-01
       -2   -1    0    0    0  501  0.00000000000E+00  0.00000000000E+00  0.12118849664E+04  0.12118849664E+04  0.25500000920E-02 0. -1.
        2   -1    0    0  501    0  0.00000000000E+00  0.00000000000E+00 -0.14870711964E+04  0.14870711964E+04  0.25500000920E-02 0.  1.
    10030    2    1    2    0    0  0.00000000000E+00  0.00000000000E+00 -0.27518623003E+03  0.26989561628E+04  0.26848904833E+04 0.  0.
        3    1    3    3  502    0  0.12569250527E+04  0.44773766801E+03  0.10929379575E+02  0.13343346915E+04  0.10100000352E+00 0.  1.
       -3    1    3    3    0  502 -0.12569250527E+04 -0.44773766801E+03 -0.28611560961E+03  0.13646214712E+04  0.10100000352E+00 0. -1.
</event>
<event>
 5   0  0.2037109E-06  0.3066778E+04  0.7818609E-02  0.8224915E-01
       -1   -1    0    0    0  501  0.00000000000E+00  0.00000000000E+00  0.12940457203E+04  0.12940457203E+04  0.50400001928E-02 0. -1.
        1   -1    0    0  501    0  0.00000000000E+00  0.00000000000E+00 -0.18170002501E+04  0.18170002501E+04  0.50400001928E-02 0.  1.
    10030    2    1    2    0    0  0.00000000000E+00  0.00000000000E+00 -0.52295452979E+03  0.31110459704E+04  0.30667777209E+04 0.  0.
        2    1    3    3  502    0  0.56734695612E+03 -0.32832634539E+03  0.11447505898E+04  0.13191416416E+04  0.25500000920E-02 0. -1.
       -2    1    3    3    0  502 -0.56734695612E+03  0.32832634539E+03 -0.16677051196E+04  0.17919043288E+04  0.25500000920E-02 0.  1.
</event>
<event>
 5   0  0.2730981E-06  0.3411328E+04  0.7818609E-02  0.8135132E-01
        1   -1    0    0  501    0  0.00000000000E+00  0.00000000000E+00  0.26645509856E+04  0.26645509856E+04  0.50400001928E-02 0. -1.
       -1   -1    0    0    0  501  0.00000000000E+00  0.00000000000E+00 -0.10918497641E+04  0.10918497641E+04  0.50400001928E-02 0.  1.
    10030    2    1    2    0    0  0.00000000000E+00  0.00000000000E+00  0.15727012215E+04  0.37564007497E+04  0.34113278148E+04 0.  0.
        3    1    3    3  502    0 -0.12363179170E+04  0.41232289832E+03 -0.42531885986E+03  0.13709078404E+04  0.10100000352E+00 0.  1.
       -3    1    3    3    0  502  0.12363179170E+04 -0.41232289832E+03  0.19980200813E+04  0.23854929092E+04  0.10100000352E+00 0. -1.
</event>
<event>
 5   0  0.2037109E-06  0.1844132E+04  0.7818609E-02  0.8683176E-01
       -1   -1    0    0    0  501  0.00000000000E+00  0.00000000000E+00  0.10245609654E+04  0.10245609654E+04  0.50400001928E-02 0. -1.
        1   -1    0    0  501    0  0.00000000000E+00  0.00000000000E+00 -0.82982470332E+03  0.82982470334E+03  0.50400001928E-02 0.  1.
    10030    2    1    2    0    0  0.00000000000E+00  0.00000000000E+00  0.19473626209E+03  0.18543856688E+04  0.18441323154E+04 0.  0.
        2    1    3    3  502    0 -0.62193116475E+03 -0.65033342435E+03  0.29966836452E+03  0.94843716988E+03  0.25500000920E-02 0.  1.
       -2    1    3    3    0  502  0.62193116475E+03  0.65033342435E+03 -0.10493210243E+03  0.90594849888E+03  0.25500000920E-02 0. -1.
</event>
<event>
 5   0  0.1925906E-06  0.3261995E+04  0.7818609E-02  0.8172634E-01
        1   -1    0    0  501    0  0.00000000000E+00  0.00000000000E+00  0.29812734456E+04  0.29812734456E+04  0.50400001928E-02 0. -1.
       -1   -1    0    0    0  501  0.00000000000E+00  0.00000000000E+00 -0.89228727562E+03  0.89228727563E+03  0.50400001928E-02 0.  1.
    10030    2    1    2    0    0  0.00000000000E+00  0.00000000000E+00  0.20889861700E+04  0.38735607212E+04  0.32619947031E+04 0.  0.
        1    1    3    3  502    0 -0.11448320090E+04  0.51675248608E+03 -0.19099009323E+03  0.12704922969E+04  0.50400001928E-02 0.  1.
       -1    1    3    3    0  502  0.11448320090E+04 -0.51675248608E+03  0.22799762632E+04  0.26030684243E+04  0.50400001928E-02 0. -1.
</event>
<event>
 5   0  0.5300268E-06  0.3058315E+04  0.7818609E-02  0.8227272E-01
        2   -1    0    0  501    0  0.00000000000E+00  0.00000000000E+00  0.11460598110E+04  0.11460598110E+04  0.25500000920E-02 0. -1.
       -2   -1    0    0    0  501  0.00000000000E+00  0.00000000000E+00 -0.20403147910E+04  0.20403147910E+04  0.25500000920E-02 0.  1.
    10030    2    1    2    0    0  0.00000000000E+00  0.00000000000E+00 -0.89425497999E+03  0.31863746020E+04  0.30583150811E+04 0.  0.
        4    1    3    3  502    0 -0.15246845943E+04 -0.18738510758E+02 -0.56731338170E+03  0.16269174318E+04  0.12699999809E+01 0.  1.
       -4    1    3    3    0  502  0.15246845943E+04  0.18738510758E+02 -0.32694159829E+03  0.15594571702E+04  0.12699999809E+01 0. -1.
</event>
<event>
 5   0  0.2730981E-06  0.3139802E+04  0.7818609E-02  0.8204899E-01
       -1   -1    0    0    0  501  0.00000000000E+00  0.00000000000E+00  0.98034541741E+03  0.98034541742E+03  0.50400001928E-02 0.  1.
        1   -1    0    0  501    0  0.00000000000E+00  0.00000000000E+00 -0.25140011239E+04  0.25140011239E+04  0.50400001928E-02 0. -1.
    10030    2    1    2    0    0  0.00000000000E+00  0.00000000000E+00 -0.15336557065E+04  0.34943465413E+04  0.31398022111E+04 0.  0.
        3    1    3    3  502    0  0.10741054093E+04  0.23477894220E+02 -0.20407854997E+04  0.23063085456E+04  0.10100000352E+00 0. -1.
       -3    1    3    3    0  502 -0.10741054093E+04 -0.23477894220E+02  0.50712979320E+03  0.11880379957E+04  0.10100000352E+00 0.  1.
</event>
<event>
 5   0  0.5637538E-06  0.1901443E+04  0.7818609E-02  0.8654139E-01
        2   -1    0    0  501    0  0.00000000000E+00  0.00000000000E+00  0.95038540577E+03  0.95038540578E+03  0.25500000920E-02 0. -1.
       -2   -1    0    0    0  501  0.00000000000E+00  0.00000000000E+00 -0.95105733568E+03  0.95105733568E+03  0.25500000920E-02 0.  1.
    10030    2    1    2    0    0  0.00000000000E+00  0.00000000000E+00 -0.67192990370E+00  0.19014427415E+04  0.19014426227E+04 0.  0.
        2    1    3    3  502    0 -0.62715021931E+03  0.23328210644E+03  0.67504032282E+03  0.95048270694E+03  0.25500000920E-02 0. -1.
       -2    1    3    3    0  502  0.62715021931E+03 -0.23328210644E+03 -0.67571225272E+03  0.95096003452E+03  0.25500000920E-02 0.  1.
</event>
<event>
 5   0  0.1999849E-06  0.2154280E+04  0.7818609E-02  0.8537702E-01
       -1   -1    0    0    0  501  0.00000000000E+00  0.00000000000E+00  0.27421910685E+04  0.27421910685E+04  0.50400001928E-02 0. -1.
        1   -1    0    0  501    0  0.00000000000E+00  0.00000000000E+00 -0.42310358335E+03  0.42310358338E+03  0.50400001928E-02 0.  1.
    10030    2    1    2    0    0  0.00000000000E+00  0.00000000000E+00  0.23190874851E+04  0.31652946519E+04  0.21542802672E+04 0.  0.
        5    1    3    3  502    0 -0.71700782292E+02 -0.17465452194E+03 -0.39858717929E+03  0.44106579294E+03  0.46999998093E+01 0.  1.
       -5    1    3    3    0  502  0.71700782292E+02  0.17465452194E+03  0.27176746644E+04  0.27242288589E+04  0.46999998093E+01 0. -1.
</event>
<event>
 5   0  0.5884575E-06  0.1902464E+04  0.7818609E-02  0.8653631E-01
        2   -1    0    0  501    0  0.00000000000E+00  0.00000000000E+00  0.12980780201E+04  0.12980780201E+04  0.25500000920E-02 0.  1.
       -2   -1    0    0    0  501  0.00000000000E+00  0.00000000000E+00 -0.69706321169E+03  0.69706321170E+03  0.25500000920E-02 0. -1.
    10030    2    1    2    0    0  0.00000000000E+00  0.00000000000E+00  0.60101480845E+03  0.19951412318E+04  0.19024641219E+04 0.  0.
        4    1    3    3  502    0 -0.31907060379E+03 -0.34376291061E+03  0.11683853458E+04  0.12590094988E+04  0.12699999809E+01 0.  1.
       -4    1    3    3    0  502  0.31907060379E+03  0.34376291061E+03 -0.56737053731E+03  0.73613173307E+03  0.12699999809E+01 0. -1.
</event>
<event>
 5   0  0.5622811E-06  0.3158931E+04  0.7818609E-02  0.8199748E-01
       -2   -1    0    0    0  501  0.00000000000E+00  0.00000000000E+00  0.26534069158E+04  0.26534069158E+04  0.25500000920E-02 0. -1.
        2   -1    0    0  501    0  0.00000000000E+00  0.00000000000E+00 -0.94019175945E+03  0.94019175946E+03  0.25500000920E-02 0.  1.
    10030    2    1    2    0    0  0.00000000000E+00  0.00000000000E+00  0.17132151564E+04  0.35935986753E+04  0.31589310323E+04 0.  0.
        1    1    3    3  502    0  0.13733394613E+04  0.15774606465E+02 -0.30720985807E+02  0.13737735961E+04  0.50400001928E-02 0. -1.
       -1    1    3    3    0  502 -0.13733394613E+04 -0.15774606465E+02  0.17439361422E+04  0.22198250792E+04  0.50400001928E-02 0.  1.
</event>
<event>
 5   0  0.5622811E-06  0.3096332E+04  0.7818609E-02  0.8216745E-01
        2   -1    0    0  501    0  0.00000000000E+00  0.00000000000E+00  0.22644235090E+04  0.22644235090E+04  0.25500000920E-02 0. -1.
       -2   -1    0    0    0  501  0.00000000000E+00  0.00000000000E+00 -0.10584668993E+04  0.10584668993E+04  0.25500000920E-02 0.  1.
    10030    2    1    2    0    0  0.00000000000E+00  0.00000000000E+00  0.12059566096E+04  0.33228904083E+04  0.30963315909E+04 0.  0.
        1    1    3    3  502    0 -0.28313385172E+03 -0.12047718499E+04 -0.39522987169E+03  0.12991715206E+04  0.50400001928E-02 0.  1.
       -1    1    3    3    0  502  0.28313385172E+03  0.12047718499E+04  0.16011864813E+04  0.20237188877E+04  0.50400001928E-02 0. -1.
</event>
<event>
 5   0  0.2097842E-06  0.2168467E+04  0.7818609E-02  0.8531668E-01
       -1   -1    0    0    0  501  0.00000000000E+00  0.00000000000E+00  0.13370767415E+04  0.13370767415E+04  0.50400001928E-02 0. -1.
        1   -1    0    0  501    0  0.00000000000E+00  0.00000000000E+00 -0.87920358904E+03  0.87920358905E+03  0.50400001928E-02 0.  1.
    10030    2    1    2    0    0  0.00000000000E+00  0.00000000000E+00  0.45787315248E+03  0.22162803306E+04  0.21684673574E+04 0.  0.
        4    1    3    3  502    0 -0.48757149192E+02  0.14089763585E+03  0.13265487342E+04  0.13349017044E+04  0.12699999809E+01 0. -1.
       -4    1    3    3    0  502  0.48757149192E+02 -0.14089763585E+03 -0.86867558174E+03  0.88137862613E+03  0.12699999809E+01 0.  1.
</event>
<event>
 5   0  0.5300268E-06  0.2269192E+04  0.7818609E-02  0.8490168E-01
        2   -1    0    0  501    0  0.00000000000E+00  0.00000000000E+00  0.71888111372E+03  0.71888111373E+03  0.25500000920E-02 0.  1.
       -2   -1    0    0    0  501  0.00000000000E+00  0.00000000000E+00 -0.17907100428E+04  0.17907100428E+04  0.25500000920E-02 0. -1.
    10030    2    1    2    0    0  0.00000000000E+00  0.00000000000E+00 -0.10718289291E+04  0.25095911565E+04  0.22691916005E+04 0.  0.
        4    1    3    3  502    0  0.11289244358E+04 -0.40557587853E+02 -0.41892122429E+03  0.12048285790E+04  0.12699999809E+01 0. -1.
       -4    1    3    3    0  502 -0.11289244358E+04  0.40557587853E+02 -0.65290770479E+03  0.13047625775E+04  0.12699999809E+01 0.  1.
</event>
<event>
 5   0  0.5300268E-06  0.3342455E+04  0.7818609E-02  0.8152176E-01
        2   -1    0    0  501    0  0.00000000000E+00  0.00000000000E+00  0.16586248560E+04  0.16586248560E+04  0.25500000920E-02 0.  1.
       -2   -1    0    0    0  501  0.00000000000E+00  0.00000000000E+00 -0.16839256307E+04  0.16839256307E+04  0.25500000920E-02 0. -1.
    10030    2    1    2    0    0  0.00000000000E+00  0.00000000000E+00 -0.25300774750E+02  0.33425504867E+04  0.33424547308E+04 0.  0.
        4    1    3    3  502    0 -0.12820876657E+01  0.12460690770E+04  0.11010733541E+04  0.16628451318E+04  0.12699999809E+01 0.  1.
       -4    1    3    3    0  502  0.12820876657E+01 -0.12460690770E+04 -0.11263741288E+04  0.16797053549E+04  0.12699999809E+01 0. -1.
</event>
<event>
 5   0  0.2037109E-06  0.3275122E+04  0.7818609E-02  0.8169255E-01
       -1   -1    0    0    0  501  0.00000000000E+00  0.00000000000E+00  0.12534326515E+04  0.12534326515E+04  0.50400001928E-02 0. -1.
        1   -1    0    0  501    0  0.00000000000E+00  0.00000000000E+00 -0.21394092563E+04  0.21394092563E+04  0.50400001928E-02 0.  1.
    10030    2    1    2    0    0  0.00000000000E+00  0.00000000000E+00 -0.88597660477E+03  0.33928419078E+04  0.32751216263E+04 0.  0.
        2    1    3    3  502    0 -0.15648006060E+03 -0.86887858731E+03 -0.18717532514E+04  0.20695159442E+04  0.25500000920E-02 0.  1.
       -2    1    3    3    0  502  0.15648006060E+03  0.86887858731E+03  0.98577664666E+03  0.13233259636E+04  0.25500000920E-02 0. -1.
</event>
<event>
 5   0  0.5300268E-06  0.3446910E+04  0.7818609E-02  0.8126488E-01
       -2   -1    0    0    0  501  0.00000000000E+00  0.00000000000E+00  0.10891451973E+04  0.10891451973E+04  0.25500000920E-02 0. -1.
        2   -1    0    0  501    0  0.00000000000E+00  0.00000000000E+00 -0.27271821623E+04  0.27271821623E+04  0.25500000920E-02 0.  1.
    10030    2    1    2    0    0  0.00000000000E+00  0.00000000000E+00 -0.16380369650E+04  0.38163273596E+04  0.34469101260E+04 0.  0.
        4    1    3    3  502    0 -0.78486883451E+02 -0.39343300996E+03 -0.26747633901E+04  0.27046830739E+04  0.12699999809E+01 0.  1.
       -4    1    3    3    0  502  0.78486883451E+02  0.39343300996E+03  0.10367264252E+04  0.11116442856E+04  0.12699999809E+01 0. -1.
</event>
<event>
 5   0  0.1999849E-06  0.3358962E+04  0.7818609E-02  0.8148052E-01
        1   -1    0    0  501    0  0.00000000000E+00  0.00000000000E+00  0.25626225318E+04  0.25626225318E+04  0.50400001928E-02 0. -1.
       -1   -1    0    0    0  501  0.00000000000E+00  0.00000000000E+00 -0.11006914024E+04  0.11006914024E+04  0.50400001928E-02 0.  1.
    10030    2    1    2    0    0  0.00000000000E+00  0.00000000000E+00  0.14619311294E+04  0.36633139342E+04  0.33589620947E+04 0.  0.
        5    1    3    3  502    0  0.90321509937E+03 -0.14139594889E+04  0.81225468534E+03  0.18640972925E+04  0.46999998093E+01 0.  1.
       -5    1    3    3    0  502 -0.90321509937E+03  0.14139594889E+04  0.64967644404E+03  0.17992166418E+04  0.46999998093E+01 0. -1.
</event>
<event>
 5   0  0.1999849E-06  0.2908288E+04  0.7818609E-02  0.8270416E-01
        1   -1    0    0  501    0  0.00000000000E+00  0.00000000000E+00  0.22673953524E+04  0.22673953524E+04  0.50400001928E-02 0. -1.
       -1   -1    0    0    0  501  0.00000000000E+00  0.00000000000E+00 -0.93258298976E+03  0.93258298978E+03  0.50400001928E-02 0.  1.
    10030    2    1    2    0    0  0.00000000000E+00  0.00000000000E+00  0.13348123626E+04  0.31999783421E+04  0.29082877002E+04 0.  0.
        5    1    3    3  502    0 -0.20004490550E+03  0.42702332136E+03 -0.84610948818E+03  0.96865382733E+03  0.46999998093E+01 0.  1.
       -5    1    3    3    0  502  0.20004490550E+03 -0.42702332136E+03  0.21809218508E+04  0.22313245148E+04  0.46999998093E+01 0. -1.
</event>
<event>
 5   0  0.1999849E-06  0.3286454E+04  0.7818609E-02  0.8166351E-01
        1   -1    0    0  501    0  0.00000000000E+00  0.00000000000E+00  0.21705604347E+04  0.21705604347E+04  0.50400001928E-02 0.  1.
       -1   -1    0    0    0  501  0.00000000000E+00  0.00000000000E+00 -0.12440085549E+04  0.12440085549E+04  0.50400001928E-02 0. -1.
    10030    2    1    2    0    0  0.00000000000E+00  0.00000000000E+00  0.92655187986E+03  0.34145689896E+04  0.32864544723E+04 0.  0.
        5    1    3    3  502    0  0.10632474867E+04  0.53106749213E+02  0.17638141223E+04  0.20601888003E+04  0.46999998093E+01 0.  1.
       -5    1    3    3    0  502 -0.10632474867E+04 -0.53106749213E+02 -0.83726224243E+03  0.13543801894E+04  0.46999998093E+01 0. -1.
</event>
<event>
 5   0  0.2037109E-06  0.3329479E+04  0.7818609E-02  0.8155435E-01
       -1   -1    0    0    0  501  0.00000000000E+00  0.00000000000E+00  0.11196745579E+04  0.11196745580E+04  0.50400001928E-02 0. -1.
        1   -1    0    0  501    0  0.00000000000E+00  0.00000000000E+00 -0.24751452671E+04  0.24751452671E+04  0.50400001928E-02 0.  1.
    10030    2    1    2    0    0  0.00000000000E+00  0.00000000000E+00 -0.13554707091E+04  0.35948198250E+04  0.33294787477E+04 0.  0.
        2    1    3    3  502    0 -0.19962360839E+02  0.13902870295E+04  0.31067801000E+03  0.14247165845E+04  0.25500000920E-02 0. -1.
       -2    1    3    3    0  502  0.19962360839E+02 -0.13902870295E+04 -0.16661487191E+04  0.21701032405E+04  0.25500000920E-02 0.  1.
</event>
<event>
 5   0  0.5855568E-06  0.3266441E+04  0.7818609E-02  0.8171487E-01
       -2   -1    0    0    0  501  0.00000000000E+00  0.00000000000E+00  0.14044688731E+04  0.14044688731E+04  0.25500000920E-02 0.  1.
        2   -1    0    0  501    0  0.00000000000E+00  0.00000000000E+00 -0.18992301407E+04  0.18992301407E+04  0.25500000920E-02 0. -1.
    10030    2    1    2    0    0  0.00000000000E+00  0.00000000000E+00 -0.49476126764E+03  0.33036990138E+04  0.32664412534E+04 0.  0.
        3    1    3    3  502    0  0.13058424974E+04  0.98071367304E+03 -0.22751818018E+03  0.16488749100E+04  0.10100000352E+00 0. -1.
       -3    1    3    3    0  502 -0.13058424974E+04 -0.98071367304E+03 -0.26724308746E+03  0.16548241038E+04  0.10100000352E+00 0.  1.
</event>
<event>
 5   0  0.5755250E-06  0.3259516E+04  0.7818609E-02  0.8173274E-01
       -2   -1    0    0    0  501  0.00000000000E+00  0.00000000000E+00  0.11399599508E+04  0.11399599508E+04  0.25500000920E-02 0. -1.
        2   -1    0    0  501    0  0.00000000000E+00  0.00000000000E+00 -0.23300041473E+04  0.23300041473E+04  0.25500000920E-02 0.  1.
    10030    2    1    2    0    0  0.00000000000E+00  0.00000000000E+00 -0.11900441966E+04  0.34699640981E+04  0.32595161684E+04 0.  0.
        5    1    3    3  502    0 -0.11429828666E+02 -0.13510395206E+04  0.37522222549E+03  0.14022311634E+04  0.46999998093E+01 0. -1.
       -5    1    3    3    0  502  0.11429828666E+02  0.13510395206E+04 -0.15652664221E+04  0.20677329347E+04  0.46999998093E+01 0.  1.
</event>
<event>
 5   0  0.5637538E-06  0.2790451E+04  0.7818609E-02  0.8306239E-01
       -2   -1    0    0    0  501  0.00000000000E+00  0.00000000000E+00  0.69982232779E+03  0.69982232780E+03  0.25500000920E-02 0.  1.
        2   -1    0    0  501    0  0.00000000000E+00  0.00000000000E+00 -0.27816405494E+04  0.27816405494E+04  0.25500000920E-02 0. -1.
    10030    2    1    2    0    0  0.00000000000E+00  0.00000000000E+00 -0.20818182216E+04  0.34814628772E+04  0.27904509774E+04 0.  0.
        2    1    3    3  502    0  0.99037747968E+03 -0.52697387120E+03 -0.59700560431E+01  0.11218665940E+04  0.25500000920E-02 0.  1.
       -2    1    3    3    0  502 -0.99037747968E+03  0.52697387120E+03 -0.20758481656E+04  0.23595962832E+04  0.25500000920E-02 0. -1.
</event>
<event>
 5   0  0.2037109E-06  0.1811365E+04  0.7818609E-02  0.8700279E-01
        1   -1    0    0  501    0  0.00000000000E+00  0.00000000000E+00  0.16659789777E+04  0.16659789777E+04  0.50400001928E-02 0. -1.
       -1   -1    0    0    0  501  0.00000000000E+00  0.00000000000E+00 -0.49235968087E+03  0.49235968089E+03  0.50400001928E-02 0.  1.
    10030    2    1    2    0    0  0.00000000000E+00  0.00000000000E+00  0.11736192968E+04  0.21583386586E+04  0.18113650961E+04 0.  0.
        2    1    3    3  502    0  0.32485257059E+03 -0.84152794939E+03  0.49028353991E+03  0.10266822448E+04  0.25500000920E-02 0. -1.
       -2    1    3    3    0  502 -0.32485257059E+03  0.84152794939E+03  0.68333575688E+03  0.11316564138E+04  0.25500000920E-02 0.  1.
</event>
<event>
 5   0  0.5622811E-06  0.1624022E+04  0.7818609E-02  0.8805925E-01
        2   -1    0    0  501    0  0.00000000000E+00  0.00000000000E+00  0.11110946448E+04  0.11110946448E+04  0.25500000920E-02 0.  1.
       -2   -1    0    0    0  501  0.00000000000E+00  0.00000000000E+00 -0.59343460021E+03  0.59343460021E+03  0.25500000920E-02 0. -1.
    10030    2    1    2    0    0  0.00000000000E+00  0.00000000000E+00  0.51766004460E+03  0.17045292450E+04  0.16240221751E+04 0.  0.
        1    1    3    3  502    0  0.12907744121E+03 -0.76110668880E+03 -0.54823554055E+01  0.77199380426E+03  0.50400001928E-02 0. -1.
       -1    1    3    3    0  502 -0.12907744121E+03  0.76110668880E+03  0.52314240001E+03  0.93253544076E+03  0.50400001928E-02 0.  1.
</event>
<event>
 5   0  0.2037109E-06  0.3270133E+04  0.7818609E-02  0.8170537E-01
       -1   -1    0    0    0  501  0.00000000000E+00  0.00000000000E+00  0.12708539704E+04  0.12708539704E+04  0.50400001928E-02 0.  1.
        1   -1    0    0  501    0  0.00000000000E+00  0.00000000000E+00 -0.21036581249E+04  0.21036581249E+04  0.50400001928E-02 0. -1.
    10030    2    1    2    0    0  0.00000000000E+00  0.00000000000E+00 -0.83280415446E+03  0.33745120953E+04  0.32701328906E+04 0.  0.
        2    1    3    3  502    0  0.17230496640E+03 -0.85460268209E+03 -0.18438140241E+04  0.20395305590E+04  0.25500000920E-02 0. -1.
       -2    1    3    3    0  502 -0.17230496640E+03  0.85460268209E+03  0.10110098697E+04  0.13349815363E+04  0.25500000920E-02 0.  1.
</event>
<event>
 5   0  0.1925906E-06  0.3269980E+04  0.7818609E-02  0.8170576E-01
        1   -1    0    0  501    0  0.00000000000E+00  0.00000000000E+00  0.18423237924E+04  0.18423237924E+04  0.50400001928E-02 0.  1.
       -1   -1    0    0    0  501  0.00000000000E+00  0.00000000000E+00 -0.14509890338E+04  0.14509890338E+04  0.50400001928E-02 0. -1.
    10030    2    1    2    0    0  0.00000000000E+00  0.00000000000E+00  0.39133475856E+03  0.32933128262E+04  0.32699795837E+04 0.  0.
        1    1    3    3  502    0 -0.46272324737E+03 -0.11587234771E+04  0.12598236032E+04  0.17731069937E+04  0.50400001928E-02 0.  1.
       -1    1    3    3    0  502  0.46272324737E+03  0.11587234771E+04 -0.86848884459E+03  0.15202058325E+04  0.50400001928E-02 0. -1.
</event>
<event>
 5   0  0.2730981E-06  0.3247992E+04  0.7818609E-02  0.8176256E-01
        1   -1    0    0  501    0  0.00000000000E+00  0.00000000000E+00  0.14472549601E+04  0.14472549601E+04  0.50400001928E-02 0. -1.
       -1   -1    0    0    0  501  0.00000000000E+00  0.00000000000E+00 -0.18223207328E+04  0.18223207328E+04  0.50400001928E-02 0.  1.
    10030    2    1    2    0    0  0.00000000000E+00  0.00000000000E+00 -0.37506577267E+03  0.32695756929E+04  0.32479918223E+04 0.  0.
        3    1    3    3  502    0  0.47511924695E+03  0.66787282112E+03  0.12237717236E+04  0.14728915933E+04  0.10100000352E+00 0. -1.
       -3    1    3    3    0  502 -0.47511924695E+03 -0.66787282112E+03 -0.15988374962E+04  0.17966840996E+04  0.10100000352E+00 0.  1.
</event>
<event>
 5   0  0.2037109E-06  0.3184391E+04  0.7818609E-02  0.8192952E-01
        1   -1    0    0  501    0  0.00000000000E+00  0.00000000000E+00  0.12599174283E+04  0.12599174283E+04  0.50400001928E-02 0.  1.
       -1   -1    0    0    0  501  0.00000000000E+00  0.00000000000E+00 -0.20121053846E+04  0.20121053847E+04  0.50400001928E-02 0. -1.
    10030    2    1    2    0    0  0.00000000000E+00  0.00000000000E+00 -0.75218795637E+03  0.32720228129E+04  0.31843910826E+04 0.  0.
        2    1    3    3  502    0 -0.69707249443E+03  0.77437525664E+03  0.86099791562E+03  0.13516229176E+04  0.25500000920E-02 0.  1.
       -2    1    3    3    0  502  0.69707249443E+03 -0.77437525664E+03 -0.16131858720E+04  0.19203998954E+04  0.25500000920E-02 0. -1.
</event>
<event>
 5   0  0.2730981E-06  0.3479825E+04  0.7818609E-02  0.8118588E-01
        1   -1    0    0  501    0  0.00000000000E+00  0.00000000000E+00  0.20158431395E+04  0.20158431395E+04  0.50400001928E-02 0. -1.
       -1   -1    0    0    0  501  0.00000000000E+00  0.00000000000E+00 -0.15017516749E+04  0.15017516749E+04  0.50400001928E-02 0.  1.
    10030    2    1    2    0    0  0.00000000000E+00  0.00000000000E+00  0.51409146458E+03  0.35175948145E+04  0.34798251744E+04 0.  0.
        3    1    3    3  502    0  0.17148271055E+04 -0.24470455402E+03  0.91612828852E+02  0.17346196244E+04  0.10100000352E+00 0. -1.
       -3    1    3    3    0  502 -0.17148271055E+04  0.24470455402E+03  0.42247863573E+03  0.17829751901E+04  0.10100000352E+00 0.  1.
</event>
<event>
 5   0  0.2097842E-06  0.2692501E+04  0.7818609E-02  0.8337442E-01
       -1   -1    0    0    0  501  0.00000000000E+00  0.00000000000E+00  0.14843515453E+04  0.14843515453E+04  0.50400001928E-02 0. -1.
        1   -1    0    0  501    0  0.00000000000E+00  0.00000000000E+00 -0.12209980218E+04  0.12209980218E+04  0.50400001928E-02 0.  1.
    10030    2    1    2    0    0  0.00000000000E+00  0.00000000000E+00  0.26335352353E+03  0.27053495671E+04  0.26925009195E+04 0.  0.
        4    1    3    3  502    0 -0.28126238361E+03  0.34640392024E+03  0.14078893020E+04  0.14769082923E+04  0.12699999809E+01 0. -1.
       -4    1    3    3    0  502  0.28126238361E+03 -0.34640392024E+03 -0.11445357785E+04  0.12284412747E+04  0.12699999809E+01 0.  1.
</event>
<event>
 5   0  0.2037109E-06  0.3335384E+04  0.7818609E-02  0.8153950E-01
        1   -1    0    0  501    0  0.00000000000E+00  0.00000000000E+00  0.16995055237E+04  0.16995055237E+04  0.50400001928E-02 0.  1.
       -1   -1    0    0    0  501  0.00000000000E+00  0.00000000000E+00 -0.16364739930E+04  0.16364739930E+04  0.50400001928E-02 0. -1.
    10030    2    1    2    0    0  0.00000000000E+00  0.00000000000E+00  0.63031530708E+02  0.33359795167E+04  0.33353839902E+04 0.  0.
        2    1    3    3  502    0 -0.72773289736E+02 -0.62206893615E+03 -0.15143768673E+04  0.16387809522E+04  0.25500000920E-02 0. -1.
       -2    1    3    3    0  502  0.72773289736E+02  0.62206893615E+03  0.15774083980E+04  0.16971985645E+04  0.25500000920E-02 0.  1.
</event>
<event>
 5   0  0.5637538E-06  0.3118723E+04  0.7818609E-02  0.8210618E-01
        2   -1    0    0  501    0  0.00000000000E+00  0.00000000000E+00  0.19943789935E+04  0.19943789935E+04  0.25500000920E-02 0. -1.
       -2   -1    0    0    0  501  0.00000000000E+00  0.00000000000E+00 -0.12192305931E+04  0.12192305931E+04  0.25500000920E-02 0.  1.
    10030    2    1    2    0    0  0.00000000000E+00  0.00000000000E+00  0.77514840035E+03  0.32136095866E+04  0.31187227406E+04 0.  0.
        2    1    3    3  502    0  0.21051576319E+03  0.25790868454E+03 -0.11821840797E+04  0.12281665092E+04  0.25500000920E-02 0.  1.
       -2    1    3    3    0  502 -0.21051576319E+03 -0.25790868454E+03  0.19573324800E+04  0.19854430774E+04  0.25500000920E-02 0. -1.
</event>
<event>
 5   0  0.2037109E-06  0.1746023E+04  0.7818609E-02  0.8735542E-01
        1   -1    0    0  501    0  0.00000000000E+00  0.00000000000E+00  0.11125411132E+04  0.11125411132E+04  0.50400001928E-02 0. -1.
       -1   -1    0    0    0  501  0.00000000000E+00  0.00000000000E+00 -0.68505248018E+03  0.68505248020E+03  0.50400001928E-02 0.  1.
    10030    2    1    2    0    0  0.00000000000E+00  0.00000000000E+00  0.42748863298E+03  0.17975935934E+04  0.17460229654E+04 0.  0.
        2    1    3    3  502    0  0.68729524636E+03 -0.15425165596E+03  0.74471022626E+03  0.10250666564E+04  0.25500000920E-02 0. -1.
       -2    1    3    3    0  502 -0.68729524636E+03  0.15425165596E+03 -0.31722159328E+03  0.77252693694E+03  0.25500000920E-02 0.  1.
</event>
<event>
 5   0  0.1999849E-06  0.3262893E+04  0.7818609E-02  0.8172402E-01
        1   -1    0    0  501    0  0.00000000000E+00  0.00000000000E+00  0.18193059624E+04  0.18193059624E+04  0.50400001928E-02 0.  1.
       -1   -1    0    0    0  501  0.00000000000E+00  0.00000000000E+00 -0.14629855236E+04  0.14629855236E+04  0.50400001928E-02 0. -1.
    10030    2    1    2    0    0  0.00000000000E+00  0.00000000000E+00  0.35632043883E+03  0.32822914861E+04  0.32628933700E+04 0.  0.
        5    1    3    3  502    0 -0.34207414641E+03  0.74817254567E+03 -0.12390515610E+04  0.14872954449E+04  0.46999998093E+01 0. -1.
       -5    1    3    3    0  502  0.34207414641E+03 -0.74817254567E+03  0.15953719998E+04  0.17949960411E+04  0.46999998093E+01 0.  1.
</event>
<event>
 5   0  0.5855568E-06  0.3338403E+04  0.7818609E-02  0.8153192E-01
       -2   -1    0    0    0  501  0.00000000000E+00  0.00000000000E+00  0.15081516674E+04  0.15081516674E+04  0.25500000920E-02 0.  1.
        2   -1    0    0  501    0  0.00000000000E+00  0.00000000000E+00 -0.18474496158E+04  0.18474496158E+04  0.25500000920E-02 0. -1.
    10030    2    1    2    0    0  0.00000000000E+00  0.00000000000E+00 -0.33929794836E+03  0.33556012832E+04  0.33384033420E+04 0.  0.
        3    1    3    3  502    0  0.53343575496E+02  0.41944530795E+03 -0.17927288701E+04  0.18419165875E+04  0.10100000352E+00 0. -1.
       -3    1    3    3    0  502 -0.53343575496E+02 -0.41944530795E+03  0.14534309218E+04  0.15136846957E+04  0.10100000352E+00 0.  1.
</event>
<event>
 5   0  0.5855568E-06  0.1815325E+04  0.7818609E-02  0.8698192E-01
        2   -1    0    0  501    0  0.00000000000E+00  0.00000000000E+00  0.11213044380E+04  0.11213044380E+04  0.25500000920E-02 0.  1.
       -2   -1    0    0    0  501  0.00000000000E+00  0.00000000000E+00 -0.73472582150E+03  0.73472582150E+03  0.25500000920E-02 0. -1.
    10030    2    1    2    0    0  0.00000000000E+00  0.00000000000E+00  0.38657861648E+03  0.18560302595E+04  0.18153251217E+04 0.  0.
        3    1    3    3  502    0  0.56321765242E+03 -0.24474841851E+03 -0.49008055044E+03  0.78568114937E+03  0.10100000352E+00 0. -1.
       -3    1    3    3    0  502 -0.56321765242E+03  0.24474841851E+03  0.87665916692E+03  0.10703491101E+04  0.10100000352E+00 0.  1.
</event>
<event>
 5   0  0.5300268E-06  0.3179345E+04  0.7818609E-02  0.8194293E-01
       -2   -1    0    0    0  501  0.00000000000E+00  0.00000000000E+00  0.30206548575E+04  0.30206548575E+04  0.25500000920E-02 0. -1.
        2   -1    0    0  501    0  0.00000000000E+00  0.00000000000E+00 -0.83659322482E+03  0.83659322482E+03  0.25500000920E-02 0.  1.
    10030    2    1    2    0    0  0.00000000000E+00  0.00000000000E+00  0.21840616327E+04  0.38572480823E+04  0.31793454599E+04 0.  0.
        4    1    3    3  502    0  0.71768056822E+03 -0.14125412594E+04  0.12489053242E+04  0.20174499571E+04  0.12699999809E+01 0. -1.
       -4    1    3    3    0  502 -0.71768056822E+03  0.14125412594E+04  0.93515630845E+03  0.18397981252E+04  0.12699999809E+01 0.  1.
</event>
<event>
 5   0  0.5855568E-06  0.3729070E+04  0.7818609E-02  0.8061550E-01
        2   -1    0    0  501    0  0.00000000000E+00  0.00000000000E+00  0.24246733557E+04  0.24246733557E+04  0.25500000920E-02 0. -1.
       -2   -1    0    0    0  501  0.00000000000E+00  0.00000000000E+00 -0.14337978697E+04  0.14337978697E+04  0.25500000920E-02 0.  1.
    10030    2    1    2    0    0  0.00000000000E+00  0.00000000000E+00  0.99087548599E+03  0.38584712253E+04  0.37290703892E+04 0.  0.
        3    1    3    3  502    0 -0.86328965734E+03 -0.67959533339E+03  0.20541558889E+04  0.23295225424E+04  0.10100000352E+00 0. -1.
       -3    1    3    3    0  502  0.86328965734E+03  0.67959533339E+03 -0.10632804029E+04  0.15289486829E+04  0.10100000352E+00 0.  1.
</event>
<event>
 5   0  0.5622811E-06  0.3224692E+04  0.7818609E-02  0.8182326E-01
        2   -1    0    0  501    0  0.00000000000E+00  0.00000000000E+00  0.15291258022E+04  0.15291258022E+04  0.25500000920E-02 0.  1.
       -2   -1    0    0    0  501  0.00000000000E+00  0.00000000000E+00 -0.17000949895E+04  0.17000949895E+04  0.25500000920E-02 0. -1.
    10030    2    1    2    0    0  0.00000000000E+00  0.00000000000E+00 -0.17096918730E+03  0.32292207916E+04  0.32246916842E+04 0.  0.
        1    1    3    3  502    0 -0.95629528004E+03 -0.30522615192E+03 -0.13489997425E+04  0.16815064590E+04  0.50400001928E-02 0. -1.
       -1    1    3    3    0  502  0.95629528004E+03  0.30522615192E+03  0.11780305552E+04  0.15477143326E+04  0.50400001928E-02 0.  1.
</event>
<event>
 5   0  0.5855568E-06  0.3307478E+04  0.7818609E-02  0.8160995E-01
       -2   -1    0    0    0  501  0.00000000000E+00  0.00000000000E+00  0.17705755759E+04  0.17705755759E+04  0.25500000920E-02 0.  1.
        2   -1    0    0  501    0  0.00000000000E+00  0.00000000000E+00 -0.15446121072E+04  0.15446121072E+04  0.25500000920E-02 0. -1.
    10030    2    1    2    0    0  0.00000000000E+00  0.00000000000E+00  0.22596346872E+03  0.33151876831E+04  0.33074778737E+04 0.  0.
        3    1    3    3  502    0 -0.55834731953E+03  0.14074060829E+04 -0.55363158521E+03  0.16121574222E+04  0.10100000352E+00 0. -1.
       -3    1    3    3    0  502  0.55834731953E+03 -0.14074060829E+04  0.77959505393E+03  0.17030302610E+04  0.10100000352E+00 0.  1.
</event>
<event>
 5   0  0.5755250E-06  0.3342130E+04  0.7818609E-02  0.8152257E-01
        2   -1    0    0  501    0  0.00000000000E+00  0.00000000000E+00  0.18156237711E+04  0.18156237711E+04  0.25500000920E-02 0.  1.
       -2   -1    0    0    0  501  0.00000000000E+00  0.00000000000E+00 -0.15380162383E+04  0.15380162383E+04  0.25500000920E-02 0. -1.
    10030    2    1    2    0    0  0.00000000000E+00  0.00000000000E+00  0.27760753280E+03  0.33536400093E+04  0.33421303640E+04 0.  0.
        5    1    3    3  502    0  0.51331084490E+03 -0.46350880479E+03  0.16652619012E+04  0.18031771198E+04  0.46999998093E+01 0.  1.
       -5    1    3    3    0  502 -0.51331084490E+03  0.46350880479E+03 -0.13876543684E+04  0.15504628895E+04  0.46999998093E+01 0. -1.
</event>
<event>
 5   0  0.2730981E-06  0.2337424E+04  0.7818609E-02  0.8463310E-01
        1   -1    0    0  501    0  0.00000000000E+00  0.00000000000E+00  0.12998334388E+04  0.12998334388E+04  0.50400001928E-02 0.  1.
       -1   -1    0    0    0  501  0.00000000000E+00  0.00000000000E+00 -0.10508171204E+04  0.10508171204E+04  0.50400001928E-02 0. -1.
    10030    2    1    2    0    0  0.00000000000E+00  0.00000000000E+00  0.24901631838E+03  0.23506505592E+04  0.23374235655E+04 0.  0.
        3    1    3    3  502    0 -0.84761300453E+03  0.41948785855E+03 -0.56601363144E+03  0.11021748092E+04  0.10100000352E+00 0. -1.
       -3    1    3    3    0  502  0.84761300453E+03 -0.41948785855E+03  0.81502994982E+03  0.12484757500E+04  0.10100000352E+00 0.  1.
</event>
<event>
 5   0  0.1925906E-06  0.2925107E+04  0.7818609E-02  0.8265446E-01
        1   -1    0    0  501    0  0.00000000000E+00  0.00000000000E+00  0.84168575716E+03  0.84168575717E+03  0.50400001928E-02 0.  1.
       -1   -1    0    0    0  501  0.00000000000E+00  0.00000000000E+00 -0.25414039001E+04  0.25414039001E+04  0.50400001928E-02 0. -1.
    10030    2    1    2    0    0  0.00000000000E+00  0.00000000000E+00 -0.16997181430E+04  0.33830896573E+04  0.29251074961E+04 0.  0.
        1    1    3    3  502    0  0.55493165935E+02  0.14614995523E+04 -0.85187330745E+03  0.16925568129E+04  0.50400001928E-02 0.  1.
       -1    1    3    3    0  502 -0.55493165935E+02 -0.14614995523E+04 -0.84784483553E+03  0.16905328444E+04  0.50400001928E-02 0. -1.
</event>
<event>
 5   0  0.2730981E-06  0.3065608E+04  0.7818609E-02  0.8225240E-01
        1   -1    0    0  501    0  0.00000000000E+00  0.00000000000E+00  0.19318818152E+04  0.19318818152E+04  0.50400001928E-02 0. -1.
       -1   -1    0    0    0  501  0.00000000000E+00  0.00000000000E+00 -0.12161656635E+04  0.12161656635E+04  0.50400001928E-02 0.  1.
    10030    2    1    2    0    0  0.00000000000E+00  0.00000000000E+00  0.71571615172E+03  0.31480474786E+04  0.30656081481E+04 0.  0.
        3    1    3    3  502    0 -0.13084733022E+04  0.15548095978E+03  0.11619946506E+04  0.17568461201E+04  0.10100000352E+00 0. -1.
       -3    1    3    3    0  502  0.13084733022E+04 -0.15548095978E+03 -0.44627849884E+03  0.13912013586E+04  0.10100000352E+00 0.  1.
</event>
<event>
 5   0  0.1925906E-06  0.2197936E+04  0.7818609E-02  0.8519288E-01
        1   -1    0    0  501    0  0.00000000000E+00  0.00000000000E+00  0.15896054757E+04  0.15896054757E+04  0.50400001928E-02 0.  1.
       -1   -1    0    0    0  501  0.00000000000E+00  0.00000000000E+00 -0.75976731043E+03  0.75976731045E+03  0.50400001928E-02 0. -1.
    10030    2    1    2    0    0  0.00000000000E+00  0.00000000000E+00  0.82983816524E+03  0.23493727861E+04  0.21979356469E+04 0.  0.
        1    1    3    3  502    0 -0.37001067113E+03 -0.55675573329E+03  0.13472824043E+04  0.15040128723E+04  0.50400001928E-02 0.  1.
       -1    1    3    3    0  502  0.37001067113E+03  0.55675573329E+03 -0.51744423903E+03  0.84535991378E+03  0.50400001928E-02 0. -1.
</event>
<event>
 5   0  0.2097842E-06  0.3329306E+04  0.7818609E-02  0.8155478E-01
        1   -1    0    0  501    0  0.00000000000E+00  0.00000000000E+00  0.16200096956E+04  0.16200096956E+04  0.50400001928E-02 0. -1.
       -1   -1    0    0    0  501  0.00000000000E+00  0.00000000000E+00 -0.17105261489E+04  0.17105261489E+04  0.50400001928E-02 0.  1.
    10030    2    1    2    0    0  0.00000000000E+00  0.00000000000E+00 -0.90516453229E+02  0.33305358445E+04  0.33293056007E+04 0.  0.
        4    1    3    3  502    0 -0.13032925237E+04  0.73938470596E+03 -0.77065112045E+03  0.16849824652E+04  0.12699999809E+01 0.  1.
       -4    1    3    3    0  502  0.13032925237E+04 -0.73938470596E+03  0.68013466723E+03  0.16455533793E+04  0.12699999809E+01 0. -1.
</event>
<event>
 5   0  0.5300268E-06  0.2911842E+04  0.7818609E-02  0.8269363E-01
        2   -1    0    0  501    0  0.00000000000E+00  0.00000000000E+00  0.18953402728E+04  0.18953402728E+04  0.25500000920E-02 0. -1.
       -2   -1    0    0    0  501  0.00000000000E+00  0.00000000000E+00 -0.11183774943E+04  0.11183774943E+04  0.25500000920E-02 0.  1.
    10030    2    1    2    0    0  0.00000000000E+00  0.00000000000E+00  0.77696277850E+03  0.30137177671E+04  0.29118419635E+04 0.  0.
        4    1    3    3  502    0  0.10545940905E+04 -0.67699689457E+03 -0.37853441548E+03  0.13091155058E+04  0.12699999809E+01 0.  1.
       -4    1    3    3    0  502 -0.10545940905E+04  0.67699689457E+03  0.11554971940E+04  0.17046022613E+04  0.12699999809E+01 0. -1.
</event>
<event>
 5   0  0.5755250E-06  0.2345308E+04  0.7818609E-02  0.8460268E-01
        2   -1    0    0  501    0  0.00000000000E+00  0.00000000000E+00  0.11813144319E+04  0.11813144319E+04  0.25500000920E-02 0. -1.
       -2   -1    0    0    0  501  0.00000000000E+00  0.00000000000E+00 -0.11640569267E+04  0.11640569267E+04  0.25500000920E-02 0.  1.
    10030    2    1    2    0    0  0.00000000000E+00  0.00000000000E+00  0.17257505223E+02  0.23453713586E+04  0.23453078664E+04 0.  0.
        5    1    3    3  502    0  0.24130943925E+03  0.92632794320E+03 -0.66872366222E+03  0.11677016444E+04  0.46999998093E+01 0.  1.
       -5    1    3    3    0  502 -0.24130943925E+03 -0.92632794320E+03  0.68598116744E+03  0.11776697143E+04  0.46999998093E+01 0. -1.
</event>
<event>
 5   0  0.1925906E-06  0.3301631E+04  0.7818609E-02  0.8162481E-01
       -1   -1    0    0    0  501  0.00000000000E+00  0.00000000000E+00  0.23523946878E+04  0.23523946878E+04  0.50400001928E-02 0.  1.
        1   -1    0    0  501    0  0.00000000000E+00  0.00000000000E+00 -0.11584753144E+04  0.11584753144E+04  0.50400001928E-02 0. -1.
    10030    2    1    2    0    0  0.00000000000E+00  0.00000000000E+00  0.11939193733E+04  0.35108700022E+04  0.33016306127E+04 0.  0.
        1    1    3    3  502    0 -0.93724122407E+02  0.15350629619E+04  0.12349743808E+04  0.19724006260E+04  0.50400001928E-02 0.  1.
       -1    1    3    3    0  502  0.93724122407E+02 -0.15350629619E+04 -0.41055007441E+02  0.15384693763E+04  0.50400001928E-02 0. -1.
</event>
<event>
 5   0  0.5855568E-06  0.3281113E+04  0.7818609E-02  0.8167718E-01
       -2   -1    0    0    0  501  0.00000000000E+00  0.00000000000E+00  0.16377115345E+04  0.16377115345E+04  0.25500000920E-02 0.  1.
        2   -1    0    0  501    0  0.00000000000E+00  0.00000000000E+00 -0.16434067552E+04  0.16434067552E+04  0.25500000920E-02 0. -1.
    10030    2    1    2    0    0  0.00000000000E+00  0.00000000000E+00 -0.56952207281E+01  0.32811182897E+04  0.32811133469E+04 0.  0.
        3    1    3    3  502    0 -0.10905602566E+04 -0.12239491541E+04 -0.66510752266E+02  0.16406696485E+04  0.10100000352E+00 0. -1.
       -3    1    3    3    0  502  0.10905602566E+04  0.12239491541E+04  0.60815531537E+02  0.16404486411E+04  0.10100000352E+00 0.  1.
</event>
<event>
 5   0  0.5622811E-06  0.3338729E+04  0.7818609E-02  0.8153110E-01
       -2   -1    0    0    0  501  0.00000000000E+00  0.00000000000E+00  0.14682511050E+04  0.14682511050E+04  0.25500000920E-02 0. -1.
        2   -1    0    0  501    0  0.00000000000E+00  0.00000000000E+00 -0.18980254932E+04  0.18980254932E+04  0.25500000920E-02 0.  1.
    10030    2    1    2    0    0  0.00000000000E+00  0.00000000000E+00 -0.42977438820E+03  0.33662765983E+04  0.33387291162E+04 0.  0.
        1    1    3    3  502    0 -0.14226258475E+04  0.89219415429E+02  0.66116251532E+03  0.15712925500E+04  0.50400001928E-02 0. -1.
       -1    1    3    3    0  502  0.14226258475E+04 -0.89219415429E+02 -0.10909369035E+04  0.17949840483E+04  0.50400001928E-02 0.  1.
</event>
<event>
 5   0  0.5637538E-06  0.3307928E+04  0.7818609E-02  0.8160881E-01
        2   -1    0    0  501    0  0.00000000000E+00  0.00000000000E+00  0.16371736927E+04  0.16371736927E+04  0.25500000920E-02 0. -1.
       -2   -1    0    0    0  501  0.00000000000E+00  0.00000000000E+00 -0.16709265846E+04  0.16709265846E+04  0.25500000920E-02 0.  1.
    10030    2    1    2    0    0  0.00000000000E+00  0.00000000000E+00 -0.33752891973E+02  0.33081002773E+04  0.33079280807E+04 0.  0.
        2    1    3    3  502    0 -0.50063944227E+03  0.10587232347E+04 -0.11848680239E+04  0.16659672785E+04  0.25500000920E-02 0.  1.
       -2    1    3    3    0  502  0.50063944227E+03 -0.10587232347E+04  0.11511151319E+04  0.16421329988E+04  0.25500000920E-02 0. -1.
</event>
<event>
 5   0  0.2037109E-06  0.2636968E+04  0.7818609E-02  0.8355751E-01
        1   -1    0    0  501    0  0.00000000000E+00  0.00000000000E+00  0.12983799072E+04  0.12983799072E+04  0.50400001928E-02 0. -1.
       -1   -1    0    0    0  501  0.00000000000E+00  0.00000000000E+00 -0.13388991001E+04  0.13388991001E+04  0.50400001928E-02 0.  1.
    10030    2    1    2    0    0  0.00000000000E+00  0.00000000000E+00 -0.40519192950E+02  0.26372790073E+04  0.26369677202E+04 0.  0.
        2    1    3    3  502    0  0.68882256747E+03 -0.85372789079E+02 -0.11413890935E+04  0.13358645535E+04  0.25500000920E-02 0.  1.
       -2    1    3    3    0  502 -0.68882256747E+03  0.85372789079E+02  0.11008699006E+04  0.13014144538E+04  0.25500000920E-02 0. -1.
</event>
<event>
 5   0  0.2097842E-06  0.3313164E+04  0.7818609E-02  0.8159554E-01
        1   -1    0    0  501    0  0.00000000000E+00  0.00000000000E+00  0.17690071799E+04  0.17690071799E+04  0.50400001928E-02 0.  1.
       -1   -1    0    0    0  501  0.00000000000E+00  0.00000000000E+00 -0.15513013299E+04  0.15513013299E+04  0.50400001928E-02 0. -1.
    10030    2    1    2    0    0  0.00000000000E+00  0.00000000000E+00  0.21770584998E+03  0.33203085098E+04  0.33131635581E+04 0.  0.
        4    1    3    3  502    0  0.12011101201E+04  0.11361855475E+04  0.52934470345E+01  0.16533640713E+04  0.12699999809E+01 0.  1.
       -4    1    3    3    0  502 -0.12011101201E+04 -0.11361855475E+04  0.21241240294E+03  0.16669444384E+04  0.12699999809E+01 0. -1.
</event>
<event>
 5   0  0.5755250E-06  0.3457646E+04  0.7818609E-02  0.8123901E-01
       -2   -1    0    0    0  501  0.00000000000E+00  0.00000000000E+00  0.17903909523E+04  0.17903909523E+04  0.25500000920E-02 0.  1.
        2   -1    0    0  501    0  0.00000000000E+00  0.00000000000E+00 -0.16693722571E+04  0.16693722571E+04  0.25500000920E-02 0. -1.
    10030    2    1    2    0    0  0.00000000000E+00  0.00000000000E+00  0.12101869521E+03  0.34597632093E+04  0.34576460114E+04 0.  0.
        5    1    3    3  502    0 -0.89453576538E+03 -0.14707673268E+04 -0.99138120797E+02  0.17242973126E+04  0.46999998093E+01 0. -1.
       -5    1    3    3    0  502  0.89453576538E+03  0.14707673268E+04  0.22015681601E+03  0.17354658968E+04  0.46999998093E+01 0.  1.
</event>
<event>
 5   0  0.1878000E-06  0.1928099E+04  0.7818609E-02  0.8640995E-01
        4   -1    0    0  501    0  0.00000000000E+00  0.00000000000E+00  0.60909218428E+03  0.60909350830E+03  0.12699999809E+01 0.  1.
       -4   -1    0    0    0  501  0.00000000000E+00  0.00000000000E+00 -0.15258600824E+04  0.15258606109E+04  0.12699999809E+01 0. -1.
    10030    2    1    2    0    0  0.00000000000E+00  0.00000000000E+00 -0.91676789807E+03  0.21349541192E+04  0.19280989892E+04 0.  0.
        3    1    3    3  502    0  0.16763351340E+03 -0.84365108295E+03  0.23689716255E+02  0.86047042798E+03  0.10100000352E+00 0.  1.
       -3    1    3    3    0  502 -0.16763351340E+03  0.84365108295E+03 -0.94045761433E+03  0.12744836912E+04  0.10100000352E+00 0. -1.
</event>
<event>
 5   0  0.1999849E-06  0.3255251E+04  0.7818609E-02  0.8174376E-01
       -1   -1    0    0    0  501  0.00000000000E+00  0.00000000000E+00  0.12129218581E+04  0.12129218581E+04  0.50400001928E-02 0. -1.
        1   -1    0    0  501    0  0.00000000000E+00  0.00000000000E+00 -0.21841183943E+04  0.21841183943E+04  0.50400001928E-02 0.  1.
    10030    2    1    2    0    0  0.00000000000E+00  0.00000000000E+00 -0.97119653622E+03  0.33970402524E+04  0.32552511062E+04 0.  0.
        5    1    3    3  502    0  0.93726830808E+03  0.13271483246E+04 -0.38470030817E+03  0.16696739125E+04  0.46999998093E+01 0.  1.
       -5    1    3    3    0  502 -0.93726830808E+03 -0.13271483246E+04 -0.58649622805E+03  0.17273663399E+04  0.46999998093E+01 0. -1.
</event>
<event>
 5   0  0.2097842E-06  0.3340272E+04  0.7818609E-02  0.8152723E-01
       -1   -1    0    0    0  501  0.00000000000E+00  0.00000000000E+00  0.11449645336E+04  0.11449645336E+04  0.50400001928E-02 0.  1.
        1   -1    0    0  501    0  0.00000000000E+00  0.00000000000E+00 -0.24361928900E+04  0.24361928900E+04  0.50400001928E-02 0. -1.
    10030    2    1    2    0    0  0.00000000000E+00  0.00000000000E+00 -0.12912283564E+04  0.35811574237E+04  0.33402721184E+04 0.  0.
        4    1    3    3  502    0 -0.10021391513E+04  0.62455596883E+03 -0.19118909423E+04  0.22471496668E+04  0.12699999809E+01 0. -1.
       -4    1    3    3    0  502  0.10021391513E+04 -0.62455596883E+03  0.62066258596E+03  0.13340077568E+04  0.12699999809E+01 0.  1.
</event>
<event>
 5   0  0.2730981E-06  0.3339024E+04  0.7818609E-02  0.8153036E-01
       -1   -1    0    0    0  501  0.00000000000E+00  0.00000000000E+00  0.14169687671E+04  0.14169687671E+04  0.50400001928E-02 0.  1.
        1   -1    0    0  501    0  0.00000000000E+00  0.00000000000E+00 -0.19670657286E+04  0.19670657286E+04  0.50400001928E-02 0. -1.
    10030    2    1    2    0    0  0.00000000000E+00  0.00000000000E+00 -0.55009696145E+03  0.33840344957E+04  0.33390242289E+04 0.  0.
        3    1    3    3  502    0 -0.13971003362E+04 -0.87136501022E+03 -0.55463741513E+03  0.17374662595E+04  0.10100000352E+00 0.  1.
       -3    1    3    3    0  502  0.13971003362E+04  0.87136501022E+03  0.45404536820E+01  0.16465682362E+04  0.10100000352E+00 0. -1.
</event>
<event>
 5   0  0.1999849E-06  0.3211824E+04  0.7818609E-02  0.8185701E-01
       -1   -1    0    0    0  501  0.00000000000E+00  0.00000000000E+00  0.11668340979E+04  0.11668340979E+04  0.50400001928E-02 0. -1.
        1   -1    0    0  501    0  0.00000000000E+00  0.00000000000E+00 -0.22102140224E+04  0.22102140224E+04  0.50400001928E-02 0.  1.
    10030    2    1    2    0    0  0.00000000000E+00  0.00000000000E+00 -0.10433799246E+04  0.33770481204E+04  0.32118238339E+04 0.  0.
        5    1    3    3  502    0 -0.13545750890E+04 -0.85070743493E+03 -0.67169725520E+03  0.17348706304E+04  0.46999998093E+01 0. -1.
       -5    1    3    3    0  502  0.13545750890E+04  0.85070743493E+03 -0.37168266936E+03  0.16421774899E+04  0.46999998093E+01 0.  1.
</event>
<event>
 5   0  0.1925906E-06  0.3231347E+04  0.7818609E-02  0.8180587E-01
        1   -1    0    0  501    0  0.00000000000E+00  0.00000000000E+00  0.16335267022E+04  0.16335267022E+04  0.50400001928E-02 0. -1.
       -1   -1    0    0    0  501  0.00000000000E+00  0.00000000000E+00 -0.15980156947E+04  0.15980156947E+04  0.50400001928E-02 0.  1.
    10030    2    1    2    0    0  0.00000000000E+00  0.00000000000E+00  0.35511007493E+02  0.32315423969E+04  0.32313472781E+04 0.  0.
        1    1    3    3  502    0 -0.59606727886E+03  0.26810061049E+03 -0.14599084762E+04  0.15995333373E+04  0.50400001928E-02 0.  1.
       -1    1    3    3    0  502  0.59606727886E+03 -0.26810061049E+03  0.14954194837E+04  0.16320090596E+04  0.50400001928E-02 0. -1.
</event>
<event>
 5   0  0.5622811E-06  0.3741262E+04  0.7818609E-02  0.8058879E-01
       -2   -1    0    0    0  501  0.00000000000E+00  0.00000000000E+00  0.13567703733E+04  0.13567703733E+04  0.25500000920E-02 0. -1.
        2   -1    0    0  501    0  0.00000000000E+00  0.00000000000E+00 -0.25791105347E+04  0.25791105347E+04  0.25500000920E-02 0.  1.
    10030    2    1    2    0    0  0.00000000000E+00  0.00000000000E+00 -0.12223401615E+04  0.39358809080E+04  0.37412622271E+04 0.  0.
        1    1    3    3  502    0  0.18158797985E+04  0.16964926272E+03 -0.17352433444E+03  0.18320237470E+04  0.50400001928E-02 0.  1.
       -1    1    3    3    0  502 -0.18158797985E+04 -0.16964926272E+03 -0.10488158270E+04  0.21038571610E+04  0.50400001928E-02 0. -1.
</event>
<event>
 5   0  0.1925906E-06  0.3348780E+04  0.7818609E-02  0.8150593E-01
        1   -1    0    0  501    0  0.00000000000E+00  0.00000000000E+00  0.17010705477E+04  0.17010705477E+04  0.50400001928E-02 0.  1.
       -1   -1    0    0    0  501  0.00000000000E+00  0.00000000000E+00 -0.16481275641E+04  0.16481275641E+04  0.50400001928E-02 0. -1.
    10030    2    1    2    0    0  0.00000000000E+00  0.00000000000E+00  0.52942983553E+02  0.33491981118E+04  0.33487796334E+04 0.  0.
        1    1    3    3  502    0  0.10911648677E+03  0.16612548752E+04  0.20511937224E+03  0.16774230608E+04  0.50400001928E-02 0.  1.
       -1    1    3    3    0  502 -0.10911648677E+03 -0.16612548752E+04 -0.15217638868E+03  0.16717750510E+04  0.50400001928E-02 0. -1.
</event>
<event>
 5   0  0.5300268E-06  0.3144308E+04  0.7818609E-02  0.8203682E-01
        2   -1    0    0  501    0  0.00000000000E+00  0.00000000000E+00  0.23152810039E+04  0.23152810039E+04  0.25500000920E-02 0.  1.
       -2   -1    0    0    0  501  0.00000000000E+00  0.00000000000E+00 -0.10675454184E+04  0.10675454184E+04  0.25500000920E-02 0. -1.
    10030    2    1    2    0    0  0.00000000000E+00  0.00000000000E+00  0.12477355855E+04  0.33828264223E+04  0.31443076364E+04 0.  0.
        4    1    3    3  502    0  0.62480290516E+03 -0.14366953006E+04  0.48279521114E+03  0.16393794210E+04  0.12699999809E+01 0. -1.
       -4    1    3    3    0  502 -0.62480290516E+03  0.14366953006E+04  0.76494037434E+03  0.17434470013E+04  0.12699999809E+01 0.  1.
</event>
<event>
 5   0  0.5755250E-06  0.3220719E+04  0.7818609E-02  0.8183367E-01
       -2   -1    0    0    0  501  0.00000000000E+00  0.00000000000E+00  0.10014886845E+04  0.10014886845E+04  0.25500000920E-02 0. -1.
        2   -1    0    0  501    0  0.00000000000E+00  0.00000000000E+00 -0.25894034371E+04  0.25894034371E+04  0.25500000920E-02 0.  1.
    10030    2    1    2    0    0  0.00000000000E+00  0.00000000000E+00 -0.15879147526E+04  0.35908921216E+04  0.32207193246E+04 0.  0.
        5    1    3    3  502    0 -0.12788407150E+04 -0.90213429379E+03 -0.12169811813E+04  0.19825098093E+04  0.46999998093E+01 0.  1.
       -5    1    3    3    0  502  0.12788407150E+04  0.90213429379E+03 -0.37093357138E+03  0.16083823124E+04  0.46999998093E+01 0. -1.
</event>
<event>
 5   0  0.2037109E-06  0.3300495E+04  0.7818609E-02  0.8162769E-01
       -1   -1    0    0    0  501  0.00000000000E+00  0.00000000000E+00  0.95863883288E+03  0.95863883289E+03  0.50400001928E-02 0.  1.
        1   -1    0    0  501    0  0.00000000000E+00  0.00000000000E+00 -0.28408163889E+04  0.28408163889E+04  0.50400001928E-02 0. -1.
    10030    2    1    2    0    0  0.00000000000E+00  0.00000000000E+00 -0.18821775560E+04  0.37994552218E+04  0.33004950583E+04 0.  0.
        2    1    3    3  502    0 -0.92122166440E+03 -0.49617667407E+03  0.52794898426E+03  0.11719943587E+04  0.25500000920E-02 0.  1.
       -2    1    3    3    0  502  0.92122166440E+03  0.49617667407E+03 -0.24101265402E+04  0.26274608631E+04  0.25500000920E-02 0. -1.
</event>
<event>
 5   0  0.1925906E-06  0.3284966E+04  0.7818609E-02  0.8166731E-01
        1   -1    0    0  501    0  0.00000000000E+00  0.00000000000E+00  0.26447696770E+04  0.26447696770E+04  0.50400001928E-02 0. -1.
       -1   -1    0    0    0  501  0.00000000000E+00  0.00000000000E+00 -0.10200322547E+04  0.10200322547E+04  0.50400001928E-02 0.  1.
    10030    2    1    2    0    0  0.00000000000E+00  0.00000000000E+00  0.16247374223E+04  0.36648019318E+04  0.32849659827E+04 0.  0.
        1    1    3    3  502    0 -0.38375691589E+03 -0.81987535629E+03 -0.71660642547E+03  0.11545517483E+04  0.50400001928E-02 0.  1.
       -1    1    3    3    0  502  0.38375691589E+03  0.81987535629E+03  0.23413438477E+04  0.25102501835E+04  0.50400001928E-02 0. -1.
</event>
<event>
 5   0  0.5637538E-06  0.3291969E+04  0.7818609E-02  0.8164942E-01
       -2   -1    0    0    0  501  0.00000000000E+00  0.00000000000E+00  0.18092892155E+04  0.18092892155E+04  0.25500000920E-02 0. -1.
        2   -1    0    0  501    0  0.00000000000E+00  0.00000000000E+00 -0.14974199389E+04  0.14974199389E+04  0.25500000920E-02 0.  1.
    10030    2    1    2    0    0  0.00000000000E+00  0.00000000000E+00  0.31186927654E+03  0.33067091544E+04  0.32919694692E+04 0.  0.
        2    1    3    3  502    0  0.67940679151E+01 -0.14782933478E+04  0.88296288672E+03  0.17219235874E+04  0.25500000920E-02 0. -1.
       -2    1    3    3    0  502 -0.67940679151E+01  0.14782933478E+04 -0.57109361018E+03  0.15847855670E+04  0.25500000920E-02 0.  1.
</event>
<event>
 5   0  0.2730981E-06  0.2094737E+04  0.7818609E-02  0.8563565E-01
        1   -1    0    0  501    0  0.00000000000E+00  0.00000000000E+00  0.17977751701E+04  0.17977751701E+04  0.50400001928E-02 0. -1.
       -1   -1    0    0    0  501  0.00000000000E+00  0.00000000000E+00 -0.61018790070E+03  0.61018790072E+03  0.50400001928E-02 0.  1.
    10030    2    1    2    0    0  0.00000000000E+00  0.00000000000E+00  0.11875872694E+04  0.24079630708E+04  0.20947368875E+04 0.  0.
        3    1    3    3  502    0  0.50646780108E+03 -0.67929163398E+03  0.13015102023E+04  0.15530214340E+04  0.10100000352E+00 0. -1.
       -3    1    3    3    0  502 -0.50646780108E+03  0.67929163398E+03 -0.11392293293E+03  0.85494163682E+03  0.10100000352E+00 0.  1.
</event>
<event>
 5   0  0.2730981E-06  0.3381691E+04  0.7818609E-02  0.8142415E-01
       -1   -1    0    0    0  501  0.00000000000E+00  0.00000000000E+00  0.14133633833E+04  0.14133633833E+04  0.50400001928E-02 0.  1.
        1   -1    0    0  501    0  0.00000000000E+00  0.00000000000E+00 -0.20228045330E+04  0.20228045330E+04  0.50400001928E-02 0. -1.
    10030    2    1    2    0    0  0.00000000000E+00  0.00000000000E+00 -0.60944114968E+03  0.34361679163E+04  0.33816906178E+04 0.  0.
        3    1    3    3  502    0  0.88426040265E+03 -0.13997778190E+04 -0.65326752568E+03  0.17799024896E+04  0.10100000352E+00 0. -1.
       -3    1    3    3    0  502 -0.88426040265E+03  0.13997778190E+04  0.43826376006E+02  0.16562654267E+04  0.10100000352E+00 0.  1.
</event>
<event>
 5   0  0.5637538E-06  0.3379805E+04  0.7818609E-02  0.8142881E-01
        2   -1    0    0  501    0  0.00000000000E+00  0.00000000000E+00  0.22947718235E+04  0.22947718235E+04  0.25500000920E-02 0. -1.
       -2   -1    0    0    0  501  0.00000000000E+00  0.00000000000E+00 -0.12444682556E+04  0.12444682556E+04  0.25500000920E-02 0.  1.
    10030    2    1    2    0    0  0.00000000000E+00  0.00000000000E+00  0.10503035680E+04  0.35392400791E+04  0.33798051353E+04 0.  0.
        2    1    3    3  502    0  0.30016861326E+03  0.14573082330E+04  0.13641471490E+04  0.20185999917E+04  0.25500000920E-02 0. -1.
       -2    1    3    3    0  502 -0.30016861326E+03 -0.14573082330E+04 -0.31384358101E+03  0.15206400875E+04  0.25500000920E-02 0.  1.
</event>
<event>
 5   0  0.1999849E-06  0.3263883E+04  0.7818609E-02  0.8172147E-01
        1   -1    0    0  501    0  0.00000000000E+00  0.00000000000E+00  0.17202752021E+04  0.17202752021E+04  0.50400001928E-02 0.  1.
       -1   -1    0    0    0  501  0.00000000000E+00  0.00000000000E+00 -0.15481435759E+04  0.15481435759E+04  0.50400001928E-02 0. -1.
    10030    2    1    2    0    0  0.00000000000E+00  0.00000000000E+00  0.17213162615E+03  0.32684187780E+04  0.32638829654E+04 0.  0.
        5    1    3    3  502    0 -0.15740898531E+04 -0.41394529796E+03  0.20497989131E+03  0.16404720117E+04  0.46999998093E+01 0. -1.
       -5    1    3    3    0  502  0.15740898531E+04  0.41394529796E+03 -0.32848265158E+02  0.16279467663E+04  0.46999998093E+01 0.  1.
</event>
<event>
 5   0  0.5855568E-06  0.3049275E+04  0.7818609E-02  0.8229798E-01
        2   -1    0    0  501    0  0.00000000000E+00  0.00000000000E+00  0.23962792309E+04  0.23962792309E+04  0.25500000920E-02 0. -1.
       -2   -1    0    0    0  501  0.00000000000E+00  0.00000000000E+00 -0.97005398756E+03  0.97005398757E+03  0.25500000920E-02 0.  1.
    10030    2    1    2    0    0  0.00000000000E+00  0.00000000000E+00  0.14262252434E+04  0.33663332185E+04  0.30492754702E+04 0.  0.
        3    1    3    3  502    0 -0.52052281821E+03  0.36464980432E+01  0.22951416524E+04  0.23534299471E+04  0.10100000352E+00 0. -1.
       -3    1    3    3    0  502  0.52052281821E+03 -0.36464980432E+01 -0.86891640899E+03  0.10129032714E+04  0.10100000352E+00 0.  1.
</event>
<event>
 5   0  0.5855568E-06  0.3172783E+04  0.7818609E-02  0.8196042E-01
        2   -1    0    0  501    0  0.00000000000E+00  0.00000000000E+00  0.17574183814E+04  0.17574183814E+04  0.25500000920E-02 0. -1.
       -2   -1    0    0    0  501  0.00000000000E+00  0.00000000000E+00 -0.14320081490E+04  0.14320081490E+04  0.25500000920E-02 0.  1.
    10030    2    1    2    0    0  0.00000000000E+00  0.00000000000E+00  0.32541023244E+03  0.31894265304E+04  0.31727826546E+04 0.  0.
        3    1    3    3  502    0  0.13369389718E+04  0.23262335612E+03  0.98867102284E+03  0.16789847652E+04  0.10100000352E+00 0. -1.
       -3    1    3    3    0  502 -0.13369389718E+04 -0.23262335612E+03 -0.66326079040E+03  0.15104417653E+04  0.10100000352E+00 0.  1.
</event>
<event>
 5   0  0.5637538E-06  0.3223766E+04  0.7818609E-02  0.8182569E-01
        2   -1    0    0  501    0  0.00000000000E+00  0.00000000000E+00  0.20941621902E+04  0.20941621902E+04  0.25500000920E-02 0.  1.
       -2   -1    0    0    0  501  0.00000000000E+00  0.00000000000E+00 -0.12406715157E+04  0.12406715157E+04  0.25500000920E-02 0. -1.
    10030    2    1    2    0    0  0.00000000000E+00  0.00000000000E+00  0.85349067452E+03  0.33348337059E+04  0.32237663554E+04 0.  0.
        2    1    3    3  502    0 -0.12737931718E+04  0.98169921225E+03  0.53951961323E+03  0.16962793994E+04  0.25500000920E-02 0.  1.
       -2    1    3    3    0  502  0.12737931718E+04 -0.98169921225E+03  0.31397106129E+03  0.16385543064E+04  0.25500000920E-02 0. -1.
</event>
<event>
 5   0  0.2097842E-06  0.3256092E+04  0.7818609E-02  0.8174159E-01
       -1   -1    0    0    0  501  0.00000000000E+00  0.00000000000E+00  0.15225033414E+04  0.15225033414E+04  0.50400001928E-02 0.  1.
        1   -1    0    0  501    0  0.00000000000E+00  0.00000000000E+00 -0.17409045878E+04  0.17409045878E+04  0.50400001928E-02 0. -1.
    10030    2    1    2    0    0  0.00000000000E+00  0.00000000000E+00 -0.21840124642E+03  0.32634079293E+04  0.32560915541E+04 0.  0.
        4    1    3    3  502    0  0.28137418176E+03 -0.10005056974E+04  0.11467505591E+04  0.15476503282E+04  0.12699999809E+01 0.  1.
       -4    1    3    3    0  502 -0.28137418176E+03  0.10005056974E+04 -0.13651518055E+04  0.17157576011E+04  0.12699999809E+01 0. -1.
</event>
<event>
 5   0  0.5622811E-06  0.3217363E+04  0.7818609E-02  0.8184247E-01
        2   -1    0    0  501    0  0.00000000000E+00  0.00000000000E+00  0.30022157998E+04  0.30022157998E+04  0.25500000920E-02 0.  1.
       -2   -1    0    0    0  501  0.00000000000E+00  0.00000000000E+00 -0.86198226214E+03  0.86198226214E+03  0.25500000920E-02 0. -1.
    10030    2    1    2    0    0  0.00000000000E+00  0.00000000000E+00  0.21402335377E+04  0.38641980620E+04  0.32173633718E+04 0.  0.
        1    1    3    3  502    0 -0.57079065828E+03 -0.19928178477E+03 -0.72034342165E+03  0.94043067286E+03  0.50400001928E-02 0. -1.
       -1    1    3    3    0  502  0.57079065828E+03  0.19928178477E+03  0.28605769593E+04  0.29237673891E+04  0.50400001928E-02 0.  1.
</event>
<event>
 5   0  0.5637538E-06  0.2735527E+04  0.7818609E-02  0.8323569E-01
       -2   -1    0    0    0  501  0.00000000000E+00  0.00000000000E+00  0.16883649811E+04  0.16883649811E+04  0.25500000920E-02 0.  1.
        2   -1    0    0  501    0  0.00000000000E+00  0.00000000000E+00 -0.11080405338E+04  0.11080405338E+04  0.25500000920E-02 0. -1.
    10030    2    1    2    0    0  0.00000000000E+00  0.00000000000E+00  0.58032444737E+03  0.27964055149E+04  0.27355268852E+04 0.  0.
        2    1    3    3  502    0 -0.90190171419E+03  0.35068512591E+03  0.12783025492E+04  0.16032667173E+04  0.25500000920E-02 0.  1.
       -2    1    3    3    0  502  0.90190171419E+03 -0.35068512591E+03 -0.69797810184E+03  0.11931387976E+04  0.25500000920E-02 0. -1.
</event>
<event>
 5   0  0.5300268E-06  0.3335235E+04  0.7818609E-02  0.8153987E-01
       -2   -1    0    0    0  501  0.00000000000E+00  0.00000000000E+00  0.95923297160E+03  0.95923297160E+03  0.25500000920E-02 0.  1.
        2   -1    0    0  501    0  0.00000000000E+00  0.00000000000E+00 -0.28991368058E+04  0.28991368058E+04  0.25500000920E-02 0. -1.
    10030    2    1    2    0    0  0.00000000000E+00  0.00000000000E+00 -0.19399038342E+04  0.38583697774E+04  0.33352346924E+04 0.  0.
        4    1    3    3  502    0 -0.45086052218E+03  0.11982055488E+04 -0.22061999218E+04  0.25507433143E+04  0.12699999809E+01 0. -1.
       -4    1    3    3    0  502  0.45086052218E+03 -0.11982055488E+04  0.26629608766E+03  0.13076264630E+04  0.12699999809E+01 0.  1.
</event>
<event>
 5   0  0.5855568E-06  0.3281092E+04  0.7818609E-02  0.8167723E-01
        2   -1    0    0  501    0  0.00000000000E+00  0.00000000000E+00  0.18900530296E+04  0.18900530296E+04  0.25500000920E-02 0. -1.
       -2   -1    0    0    0  501  0.00000000000E+00  0.00000000000E+00 -0.14239764967E+04  0.14239764967E+04  0.25500000920E-02 0.  1.
    10030    2    1    2    0    0  0.00000000000E+00  0.00000000000E+00  0.46607653293E+03  0.33140295264E+04  0.32810919474E+04 0.  0.
        3    1    3    3  502    0 -0.20037994754E+03  0.13695281730E+04  0.11225787201E+04  0.17821174297E+04  0.10100000352E+00 0. -1.
       -3    1    3    3    0  502  0.20037994754E+03 -0.13695281730E+04 -0.65650218715E+03  0.15319120967E+04  0.10100000352E+00 0.  1.
</event>
<event>
 5   0  0.2037109E-06  0.2208898E+04  0.7818609E-02  0.8514734E-01
       -1   -1    0    0    0  501  0.00000000000E+00  0.00000000000E+00  0.87860552148E+03  0.87860552150E+03  0.50400001928E-02 0.  1.
        1   -1    0    0  501    0  0.00000000000E+00  0.00000000000E+00 -0.13883455586E+04  0.13883455586E+04  0.50400001928E-02 0. -1.
    10030    2    1    2    0    0  0.00000000000E+00  0.00000000000E+00 -0.50974003707E+03  0.22669510801E+04  0.22088984345E+04 0.  0.
        2    1    3    3  502    0 -0.64246036781E+02 -0.10335342645E+04 -0.64900404126E+03  0.12220993719E+04  0.25500000920E-02 0. -1.
       -2    1    3    3    0  502  0.64246036781E+02  0.10335342645E+04  0.13926400419E+03  0.10448517082E+04  0.25500000920E-02 0.  1.
</event>
<event>
 5   0  0.5622811E-06  0.3257291E+04  0.7818609E-02  0.8173848E-01
        2   -1    0    0  501    0  0.00000000000E+00  0.00000000000E+00  0.16546775845E+04  0.16546775845E+04  0.25500000920E-02 0. -1.
       -2   -1    0    0    0  501  0.00000000000E+00  0.00000000000E+00 -0.16030232692E+04  0.16030232692E+04  0.25500000920E-02 0.  1.
    10030    2    1    2    0    0  0.00000000000E+00  0.00000000000E+00  0.51654315281E+02  0.32577008537E+04  0.32572913109E+04 0.  0.
        1    1    3    3  502    0  0.28276210358E+03 -0.65570535142E+03  0.14897675827E+04  0.16520627608E+04  0.50400001928E-02 0. -1.
       -1    1    3    3    0  502 -0.28276210358E+03  0.65570535142E+03 -0.14381132675E+04  0.16056380928E+04  0.50400001928E-02 0.  1.
</event>
<event>
 5   0  0.5300268E-06  0.3180942E+04  0.7818609E-02  0.8193868E-01
       -2   -1    0    0    0  501  0.00000000000E+00  0.00000000000E+00  0.17562654989E+04  0.17562654989E+04  0.25500000920E-02 0.  1.
        2   -1    0    0  501    0  0.00000000000E+00  0.00000000000E+00 -0.14403282390E+04  0.14403282390E+04  0.25500000920E-02 0. -1.
    10030    2    1    2    0    0  0.00000000000E+00  0.00000000000E+00  0.31593725989E+03  0.31965937379E+04  0.31809424976E+04 0.  0.
        4    1    3    3  502    0  0.13528799826E+04 -0.34292683579E+03  0.92442321765E+03  0.16740498679E+04  0.12699999809E+01 0. -1.
       -4    1    3    3    0  502 -0.13528799826E+04  0.34292683579E+03 -0.60848595777E+03  0.15225438699E+04  0.12699999809E+01 0.  1.
</event>
<event>
 5   0  0.1925906E-06  0.2092071E+04  0.7818609E-02  0.8564744E-01
        1   -1    0    0  501    0  0.00000000000E+00  0.00000000000E+00  0.86374830481E+03  0.86374830483E+03  0.50400001928E-02 0. -1.
       -1   -1    0    0    0  501  0.00000000000E+00  0.00000000000E+00 -0.12667926909E+04  0.12667926909E+04  0.50400001928E-02 0.  1.
    10030    2    1    2    0    0  0.00000000000E+00  0.00000000000E+00 -0.40304438607E+03  0.21305409957E+04  0.20920707821E+04 0.  0.
        1    1    3    3  502    0  0.79280908370E+03  0.62798246521E+02 -0.89350219132E+03  0.11961755845E+04  0.50400001928E-02 0.  1.
       -1    1    3    3    0  502 -0.79280908370E+03 -0.62798246521E+02  0.49045780526E+03  0.93436541124E+03  0.50400001928E-02 0. -1.
</event>
<event>
 5   0  0.2037109E-06  0.2201233E+04  0.7818609E-02  0.8517915E-01
        1   -1    0    0  501    0  0.00000000000E+00  0.00000000000E+00  0.12276027105E+04  0.12276027105E+04  0.50400001928E-02 0. -1.
       -1   -1    0    0    0  501  0.00000000000E+00  0.00000000000E+00 -0.98676572494E+03  0.98676572495E+03  0.50400001928E-02 0.  1.
    10030    2    1    2    0    0  0.00000000000E+00  0.00000000000E+00  0.24083698553E+03  0.22143684354E+04  0.22012326352E+04 0.  0.
        2    1    3    3  502    0 -0.29053677563E+03  0.41397857436E+03 -0.86294566449E+03  0.10002325219E+04  0.25500000920E-02 0.  1.
       -2    1    3    3    0  502  0.29053677563E+03 -0.41397857436E+03  0.11037826500E+04  0.12141359135E+04  0.25500000920E-02 0. -1.
</event>
<event>
 5   0  0.1999849E-06  0.2944088E+04  0.7818609E-02  0.8259879E-01
        1   -1    0    0  501    0  0.00000000000E+00  0.00000000000E+00  0.16331447406E+04  0.16331447406E+04  0.50400001928E-02 0. -1.
       -1   -1    0    0    0  501  0.00000000000E+00  0.00000000000E+00 -0.13268353784E+04  0.13268353784E+04  0.50400001928E-02 0.  1.
    10030    2    1    2    0    0  0.00000000000E+00  0.00000000000E+00  0.30630936218E+03  0.29599801190E+04  0.29440884633E+04 0.  0.
        5    1    3    3  502    0  0.16848064237E+03 -0.65505752712E+03  0.14676545757E+04  0.16160192246E+04  0.46999998093E+01 0. -1.
       -5    1    3    3    0  502 -0.16848064237E+03  0.65505752712E+03 -0.11613452136E+04  0.13439608944E+04  0.46999998093E+01 0.  1.
</event>
<event>
 5   0  0.1878000E-06  0.2033535E+04  0.7818609E-02  0.8591101E-01
        3   -1    0    0  501    0  0.00000000000E+00  0.00000000000E+00  0.53263384046E+03  0.53263385003E+03  0.10100000352E+00 0.  1.
       -3   -1    0    0    0  501  0.00000000000E+00  0.00000000000E+00 -0.19409507589E+04  0.19409507615E+04  0.10100000352E+00 0. -1.
    10030    2    1    2    0    0  0.00000000000E+00  0.00000000000E+00 -0.14083169184E+04  0.24735846116E+04  0.20335349242E+04 0.  0.
        5    1    3    3  502    0 -0.24078868991E+03  0.70486632137E+03 -0.15460052003E+04  0.17160914584E+04  0.46999998093E+01 0. -1.
       -5    1    3    3    0  502  0.24078868991E+03 -0.70486632137E+03  0.13768828183E+03  0.75749315320E+03  0.46999998093E+01 0.  1.
</event>
<event>
 5   0  0.2730981E-06  0.3281393E+04  0.7818609E-02  0.8167646E-01
        1   -1    0    0  501    0  0.00000000000E+00  0.00000000000E+00  0.18265155698E+04  0.18265155698E+04  0.50400001928E-02 0. -1.
       -1   -1    0    0    0  501  0.00000000000E+00  0.00000000000E+00 -0.14737812934E+04  0.14737812934E+04  0.50400001928E-02 0.  1.
    10030    2    1    2    0    0  0.00000000000E+00  0.00000000000E+00  0.35273427645E+03  0.33002968632E+04  0.32813926792E+04 0.  0.
        3    1    3    3  502    0 -0.98480985883E+03  0.11747346348E+04 -0.41183760180E+03  0.15872813678E+04  0.10100000352E+00 0.  1.
       -3    1    3    3    0  502  0.98480985883E+03 -0.11747346348E+04  0.76457187825E+03  0.17130154954E+04  0.10100000352E+00 0. -1.
</event>
<event>
 5   0  0.5300268E-06  0.3331652E+04  0.7818609E-02  0.8154888E-01
        2   -1    0    0  501    0  0.00000000000E+00  0.00000000000E+00  0.17358060953E+04  0.17358060953E+04  0.25500000920E-02 0.  1.
       -2   -1    0    0    0  501  0.00000000000E+00  0.00000000000E+00 -0.15986673715E+04  0.15986673715E+04  0.25500000920E-02 0. -1.
    10030    2    1    2    0    0  0.00000000000E+00  0.00000000000E+00  0.13713872381E+03  0.33344734667E+04  0.33316521833E+04 0.  0.
        4    1    3    3  502    0  0.72584430980E+03 -0.41453113893E+03  0.15107229146E+04  0.17265489755E+04  0.12699999809E+01 0.  1.
       -4    1    3    3    0  502 -0.72584430980E+03  0.41453113893E+03 -0.13735841908E+04  0.16079244912E+04  0.12699999809E+01 0. -1.
</event>
<event>
 5   0  0.1925906E-06  0.2010805E+04  0.7818609E-02  0.8601585E-01
        1   -1    0    0  501    0  0.00000000000E+00  0.00000000000E+00  0.26430562622E+04  0.26430562622E+04  0.50400001928E-02 0. -1.
       -1   -1    0    0    0  501  0.00000000000E+00  0.00000000000E+00 -0.38244909135E+03  0.38244909138E+03  0.50400001928E-02 0.  1.
    10030    2    1    2    0    0  0.00000000000E+00  0.00000000000E+00  0.22606071708E+04  0.30255053535E+04  0.20108052774E+04 0.  0.
        1    1    3    3  502    0 -0.80094695198E+03  0.10360394810E+03  0.20313014622E+04  0.21859632724E+04  0.50400001928E-02 0. -1.
       -1    1    3    3    0  502  0.80094695198E+03 -0.10360394810E+03  0.22930570858E+03  0.83954208111E+03  0.50400001928E-02 0.  1.
</event>
<event>
 5   0  0.5755250E-06  0.3247158E+04  0.7818609E-02  0.8176473E-01
        2   -1    0    0  501    0  0.00000000000E+00  0.00000000000E+00  0.17619134731E+04  0.17619134731E+04  0.25500000920E-02 0.  1.
       -2   -1    0    0    0  501  0.00000000000E+00  0.00000000000E+00 -0.14961054228E+04  0.14961054228E+04  0.25500000920E-02 0. -1.
    10030    2    1    2    0    0  0.00000000000E+00  0.00000000000E+00  0.26580805035E+03  0.32580188959E+04  0.32471577120E+04 0.  0.
        5    1    3    3  502    0  0.35554352682E+03 -0.14684019598E+04 -0.46353421849E+03  0.15803485618E+04  0.46999998093E+01 0. -1.
       -5    1    3    3    0  502 -0.35554352682E+03  0.14684019598E+04  0.72934226884E+03  0.16776703342E+04  0.46999998093E+01 0.  1.
</event>
<event>
 5   0  0.5755250E-06  0.3236808E+04  0.7818609E-02  0.8179163E-01
       -2   -1    0    0    0  501  0.00000000000E+00  0.00000000000E+00  0.17467489147E+04  0.17467489147E+04  0.25500000920E-02 0.  1.
        2   -1    0    0  501    0  0.00000000000E+00  0.00000000000E+00 -0.14994890366E+04  0.14994890366E+04  0.25500000920E-02 0. -1.
    10030    2    1    2    0    0  0.00000000000E+00  0.00000000000E+00  0.24725987801E+03  0.32462379513E+04  0.32368075922E+04 0.  0.
        5    1    3    3  502    0  0.10153769197E+04 -0.33014942201E+03  0.13434052152E+04  0.17160269789E+04  0.46999998093E+01 0.  1.
       -5    1    3    3    0  502 -0.10153769197E+04  0.33014942201E+03 -0.10961453372E+04  0.15302109724E+04  0.46999998093E+01 0. -1.
</event>
<event>
 5   0  0.5755250E-06  0.2003670E+04  0.7818609E-02  0.8604907E-01
        2   -1    0    0  501    0  0.00000000000E+00  0.00000000000E+00  0.18245711183E+04  0.18245711183E+04  0.25500000920E-02 0.  1.
       -2   -1    0    0    0  501  0.00000000000E+00  0.00000000000E+00 -0.55008755163E+03  0.55008755163E+03  0.25500000920E-02 0. -1.
    10030    2    1    2    0    0  0.00000000000E+00  0.00000000000E+00  0.12744835667E+04  0.23746586699E+04  0.20036704911E+04 0.  0.
        5    1    3    3  502    0  0.40384121946E+03  0.91402994266E+03  0.55249452824E+03  0.11418453312E+04  0.46999998093E+01 0.  1.
       -5    1    3    3    0  502 -0.40384121946E+03 -0.91402994266E+03  0.72198903844E+03  0.12328133388E+04  0.46999998093E+01 0. -1.
</event>
<event>
 5   0  0.5637538E-06  0.3275368E+04  0.7818609E-02  0.8169191E-01
       -2   -1    0    0    0  501  0.00000000000E+00  0.00000000000E+00  0.14620707322E+04  0.14620707322E+04  0.25500000920E-02 0.  1.
        2   -1    0    0  501    0  0.00000000000E+00  0.00000000000E+00 -0.18343903633E+04  0.18343903633E+04  0.25500000920E-02 0. -1.
    10030    2    1    2    0    0  0.00000000000E+00  0.00000000000E+00 -0.37231963105E+03  0.32964610955E+04  0.32753677422E+04 0.  0.
        2    1    3    3  502    0 -0.10014221047E+03 -0.58389355083E+03 -0.17227693556E+04  0.18217833004E+04  0.25500000920E-02 0. -1.
       -2    1    3    3    0  502  0.10014221047E+03  0.58389355083E+03  0.13504497245E+04  0.14746777951E+04  0.25500000920E-02 0.  1.
</event>
<event>
 5   0  0.2097842E-06  0.3310416E+04  0.7818609E-02  0.8160250E-01
       -1   -1    0    0    0  501  0.00000000000E+00  0.00000000000E+00  0.18502449908E+04  0.18502449908E+04  0.50400001928E-02 0. -1.
        1   -1    0    0  501    0  0.00000000000E+00  0.00000000000E+00 -0.14807296923E+04  0.14807296923E+04  0.50400001928E-02 0.  1.
    10030    2    1    2    0    0  0.00000000000E+00  0.00000000000E+00  0.36951529848E+03  0.33309746830E+04  0.33104155001E+04 0.  0.
        4    1    3    3  502    0  0.36797520541E+03  0.33073937440E+03 -0.14045825149E+04  0.14891769336E+04  0.12699999809E+01 0.  1.
       -4    1    3    3    0  502 -0.36797520541E+03 -0.33073937440E+03  0.17740978134E+04  0.18417977494E+04  0.12699999809E+01 0. -1.
</event>
<event>
 5   0  0.5622811E-06  0.1740527E+04  0.7818609E-02  0.8738582E-01
       -2   -1    0    0    0  501  0.00000000000E+00  0.00000000000E+00  0.11336937340E+04  0.11336937340E+04  0.25500000920E-02 0. -1.
        2   -1    0    0  501    0  0.00000000000E+00  0.00000000000E+00 -0.66804513831E+03  0.66804513831E+03  0.25500000920E-02 0.  1.
    10030    2    1    2    0    0  0.00000000000E+00  0.00000000000E+00  0.46564859572E+03  0.18017388723E+04  0.17405270321E+04 0.  0.
        1    1    3    3  502    0 -0.48847334667E+03  0.55399324697E+03 -0.24362754992E+03  0.77773331625E+03  0.50400001928E-02 0.  1.
       -1    1    3    3    0  502  0.48847334667E+03 -0.55399324697E+03  0.70927614564E+03  0.10240055561E+04  0.50400001928E-02 0. -1.
</event>
<event>
 5   0  0.5755250E-06  0.3296434E+04  0.7818609E-02  0.8163803E-01
        2   -1    0    0  501    0  0.00000000000E+00  0.00000000000E+00  0.19167594820E+04  0.19167594820E+04  0.25500000920E-02 0. -1.
       -2   -1    0    0    0  501  0.00000000000E+00  0.00000000000E+00 -0.14172978030E+04  0.14172978030E+04  0.25500000920E-02 0.  1.
    10030    2    1    2    0    0  0.00000000000E+00  0.00000000000E+00  0.49946167899E+03  0.33340572850E+04  0.32964338323E+04 0.  0.
        5    1    3    3  502    0 -0.29156659907E+03 -0.26791522555E+03  0.18679313289E+04  0.19094447333E+04  0.46999998093E+01 0. -1.
       -5    1    3    3    0  502  0.29156659907E+03  0.26791522555E+03 -0.13684696499E+04  0.14246125517E+04  0.46999998093E+01 0.  1.
</event>
<event>
 5   0  0.5300268E-06  0.3330060E+04  0.7818609E-02  0.8155289E-01
       -2   -1    0    0    0  501  0.00000000000E+00  0.00000000000E+00  0.15552644208E+04  0.15552644208E+04  0.25500000920E-02 0.  1.
        2   -1    0    0  501    0  0.00000000000E+00  0.00000000000E+00 -0.17825423431E+04  0.17825423431E+04  0.25500000920E-02 0. -1.
    10030    2    1    2    0    0  0.00000000000E+00  0.00000000000E+00 -0.22727792228E+03  0.33378067638E+04  0.33300598701E+04 0.  0.
        4    1    3    3  502    0  0.10630152237E+04  0.10115247968E+04  0.67504558600E+03  0.16152002775E+04  0.12699999809E+01 0.  1.
       -4    1    3    3    0  502 -0.10630152237E+04 -0.10115247968E+04 -0.90232350828E+03  0.17226064863E+04  0.12699999809E+01 0. -1.
</event>
<event>
 5   0  0.5855568E-06  0.3196432E+04  0.7818609E-02  0.8189760E-01
        2   -1    0    0  501    0  0.00000000000E+00  0.00000000000E+00  0.12365476545E+04  0.12365476545E+04  0.25500000920E-02 0. -1.
       -2   -1    0    0    0  501  0.00000000000E+00  0.00000000000E+00 -0.20656660857E+04  0.20656660857E+04  0.25500000920E-02 0.  1.
    10030    2    1    2    0    0  0.00000000000E+00  0.00000000000E+00 -0.82911843116E+03  0.33022137402E+04  0.31964321067E+04 0.  0.
        3    1    3    3  502    0  0.97881786366E+03  0.11858366130E+04 -0.86487626857E+03  0.17641722856E+04  0.10100000352E+00 0.  1.
       -3    1    3    3    0  502 -0.97881786366E+03 -0.11858366130E+04  0.35757837406E+02  0.15380414546E+04  0.10100000352E+00 0. -1.
</event>
<event>
 5   0  0.5755250E-06  0.2093891E+04  0.7818609E-02  0.8563939E-01
        2   -1    0    0  501    0  0.00000000000E+00  0.00000000000E+00  0.13719545527E+04  0.13719545527E+04  0.25500000920E-02 0.  1.
       -2   -1    0    0    0  501  0.00000000000E+00  0.00000000000E+00 -0.79892981341E+03  0.79892981342E+03  0.25500000920E-02 0. -1.
    10030    2    1    2    0    0  0.00000000000E+00  0.00000000000E+00  0.57302473924E+03  0.21708843661E+04  0.20938914917E+04 0.  0.
        5    1    3    3  502    0  0.46389006659E+03  0.85558933167E+03 -0.11347972128E+03  0.97986062044E+03  0.46999998093E+01 0. -1.
       -5    1    3    3    0  502 -0.46389006659E+03 -0.85558933167E+03  0.68650446052E+03  0.11910237456E+04  0.46999998093E+01 0.  1.
</event>
<event>
 5   0  0.2097842E-06  0.3029122E+04  0.7818609E-02  0.8235464E-01
        1   -1    0    0  501    0  0.00000000000E+00  0.00000000000E+00  0.22854064310E+04  0.22854064310E+04  0.50400001928E-02 0.  1.
       -1   -1    0    0    0  501  0.00000000000E+00  0.00000000000E+00 -0.10037141303E+04  0.10037141303E+04  0.50400001928E-02 0. -1.
    10030    2    1    2    0    0  0.00000000000E+00  0.00000000000E+00  0.12816923007E+04  0.32891205613E+04  0.30291218055E+04 0.  0.
        4    1    3    3  502    0 -0.68165014966E+03 -0.11255443051E+04  0.14551457972E+04  0.19618735467E+04  0.12699999809E+01 0.  1.
       -4    1    3    3    0  502  0.68165014966E+03  0.11255443051E+04 -0.17345349650E+03  0.13272470145E+04  0.12699999809E+01 0. -1.
</event>
<event>
 5   0  0.2730981E-06  0.3361568E+04  0.7818609E-02  0.8147404E-01
        1   -1    0    0  501    0  0.00000000000E+00  0.00000000000E+00  0.16476564440E+04  0.16476564440E+04  0.50400001928E-02 0. -1.
       -1   -1    0    0    0  501  0.00000000000E+00  0.00000000000E+00 -0.17145771734E+04  0.17145771734E+04  0.50400001928E-02 0.  1.
    10030    2    1    2    0    0  0.00000000000E+00  0.00000000000E+00 -0.66920729352E+02  0.33622336174E+04  0.33615675680E+04 0.  0.
        3    1    3    3  502    0  0.71383730855E+03 -0.88206456188E+02  0.14859489292E+04  0.16508750142E+04  0.10100000352E+00 0. -1.
       -3    1    3    3    0  502 -0.71383730855E+03  0.88206456188E+02 -0.15528696586E+04  0.17113586032E+04  0.10100000352E+00 0.  1.
</event>
<event>
 5   0  0.1999849E-06  0.3098774E+04  0.7818609E-02  0.8216074E-01
        1   -1    0    0  501    0  0.00000000000E+00  0.00000000000E+00  0.15698521119E+04  0.15698521119E+04  0.50400001928E-02 0. -1.
       -1   -1    0    0    0  501  0.00000000000E+00  0.00000000000E+00 -0.15291886570E+04  0.15291886570E+04  0.50400001928E-02 0.  1.
    10030    2    1    2    0    0  0.00000000000E+00  0.00000000000E+00  0.40663454850E+02  0.30990407689E+04  0.30987739787E+04 0.  0.
        5    1    3    3  502    0 -0.49022800892E+03 -0.11500482555E+04 -0.89497570875E+03  0.15375103577E+04  0.46999998093E+01 0.  1.
       -5    1    3    3    0  502  0.49022800892E+03  0.11500482555E+04  0.93563916360E+03  0.15615304112E+04  0.46999998093E+01 0. -1.
</event>
<event>
 5   0  0.5622811E-06  0.3312110E+04  0.7818609E-02  0.8159821E-01
       -2   -1    0    0    0  501  0.00000000000E+00  0.00000000000E+00  0.15581792102E+04  0.15581792102E+04  0.25500000920E-02 0.  1.
        2   -1    0    0  501    0  0.00000000000E+00  0.00000000000E+00 -0.17600784733E+04  0.17600784733E+04  0.25500000920E-02 0. -1.
    10030    2    1    2    0    0  0.00000000000E+00  0.00000000000E+00 -0.20189926310E+03  0.33182576835E+04  0.33121097116E+04 0.  0.
        1    1    3    3  502    0  0.92940393436E+03 -0.38121532577E+03  0.12180810629E+04  0.15788724691E+04  0.50400001928E-02 0.  1.
       -1    1    3    3    0  502 -0.92940393436E+03  0.38121532577E+03 -0.14199803260E+04  0.17393852144E+04  0.50400001928E-02 0. -1.
</event>
<event>
 5   0  0.5755250E-06  0.2171613E+04  0.7818609E-02  0.8530337E-01
       -2   -1    0    0    0  501  0.00000000000E+00  0.00000000000E+00  0.85045843693E+03  0.85045843693E+03  0.25500000920E-02 0. -1.
        2   -1    0    0  501    0  0.00000000000E+00  0.00000000000E+00 -0.13862829457E+04  0.13862829457E+04  0.25500000920E-02 0.  1.
    10030    2    1    2    0    0  0.00000000000E+00  0.00000000000E+00 -0.53582450873E+03  0.22367413826E+04  0.21716132502E+04 0.  0.
        5    1    3    3  502    0 -0.25350979408E+02 -0.10641681501E+04 -0.47346508560E+02  0.10655328741E+04  0.46999998093E+01 0. -1.
       -5    1    3    3    0  502  0.25350979408E+02  0.10641681501E+04 -0.48847800017E+03  0.11712085085E+04  0.46999998093E+01 0.  1.
</event>
<event>
 5   0  0.1999849E-06  0.3258208E+04  0.7818609E-02  0.8173612E-01
       -1   -1    0    0    0  501  0.00000000000E+00  0.00000000000E+00  0.12300258862E+04  0.12300258862E+04  0.50400001928E-02 0.  1.
        1   -1    0    0  501    0  0.00000000000E+00  0.00000000000E+00 -0.21576615862E+04  0.21576615862E+04  0.50400001928E-02 0. -1.
    10030    2    1    2    0    0  0.00000000000E+00  0.00000000000E+00 -0.92763570003E+03  0.33876874724E+04  0.32582078538E+04 0.  0.
        5    1    3    3  502    0  0.14242947074E+04  0.14286104136E+03  0.34486480274E+03  0.14724056889E+04  0.46999998093E+01 0.  1.
       -5    1    3    3    0  502 -0.14242947074E+04 -0.14286104136E+03 -0.12725005028E+04  0.19152817835E+04  0.46999998093E+01 0. -1.
</event>
<event>
 5   0  0.1925906E-06  0.2388466E+04  0.7818609E-02  0.8443834E-01
       -1   -1    0    0    0  501  0.00000000000E+00  0.00000000000E+00  0.11001868680E+04  0.11001868680E+04  0.50400001928E-02 0.  1.
        1   -1    0    0  501    0  0.00000000000E+00  0.00000000000E+00 -0.12963187288E+04  0.12963187288E+04  0.50400001928E-02 0. -1.
    10030    2    1    2    0    0  0.00000000000E+00  0.00000000000E+00 -0.19613186079E+03  0.23965055969E+04  0.23884663215E+04 0.  0.
        1    1    3    3  502    0  0.18672958196E+03  0.11743797464E+04 -0.20869636504E+03  0.12073068783E+04  0.50400001928E-02 0.  1.
       -1    1    3    3    0  502 -0.18672958196E+03 -0.11743797464E+04  0.12564504253E+02  0.11891987186E+04  0.50400001928E-02 0. -1.
</event>
<event>
 5   0  0.5637538E-06  0.3326613E+04  0.7818609E-02  0.8156157E-01
        2   -1    0    0  501    0  0.00000000000E+00  0.00000000000E+00  0.19063826877E+04  0.19063826877E+04  0.25500000920E-02 0.  1.
       -2   -1    0    0    0  501  0.00000000000E+00  0.00000000000E+00 -0.14512239602E+04  0.14512239602E+04  0.25500000920E-02 0. -1.
    10030    2    1    2    0    0  0.00000000000E+00  0.00000000000E+00  0.45515872751E+03  0.33576066479E+04  0.33266128321E+04 0.  0.
        2    1    3    3  502    0 -0.11144872400E+04 -0.91735239549E+02  0.14703477660E+04  0.18472735898E+04  0.25500000920E-02 0.  1.
       -2    1    3    3    0  502  0.11144872400E+04  0.91735239549E+02 -0.10151890385E+04  0.15103330581E+04  0.25500000920E-02 0. -1.
</event>
<event>
 5   0  0.1925906E-06  0.3202483E+04  0.7818609E-02  0.8188162E-01
        1   -1    0    0  501    0  0.00000000000E+00  0.00000000000E+00  0.92994902205E+03  0.92994902206E+03  0.50400001928E-02 0. -1.
       -1   -1    0    0    0  501  0.00000000000E+00  0.00000000000E+00 -0.27571129486E+04  0.27571129486E+04  0.50400001928E-02 0.  1.
    10030    2    1    2    0    0  0.00000000000E+00  0.00000000000E+00 -0.18271639266E+04  0.36870619707E+04  0.32024830930E+04 0.  0.
        1    1    3    3  502    0 -0.10275776734E+04 -0.12501476539E+03  0.49292072184E+03  0.11465231809E+04  0.50400001928E-02 0. -1.
       -1    1    3    3    0  502  0.10275776734E+04  0.12501476539E+03 -0.23200846484E+04  0.25405387898E+04  0.50400001928E-02 0.  1.
</event>
<event>
 5   0  0.5300268E-06  0.3302231E+04  0.7818609E-02  0.8162328E-01
        2   -1    0    0  501    0  0.00000000000E+00  0.00000000000E+00  0.95136626320E+03  0.95136626321E+03  0.25500000920E-02 0. -1.
       -2   -1    0    0    0  501  0.00000000000E+00  0.00000000000E+00 -0.28655442495E+04  0.28655442495E+04  0.25500000920E-02 0.  1.
    10030    2    1    2    0    0  0.00000000000E+00  0.00000000000E+00 -0.19141779863E+04  0.38169105127E+04  0.33022308367E+04 0.  0.
        4    1    3    3  502    0  0.14918842009E+04 -0.23534848269E+03 -0.18597206075E+03  0.15217406473E+04  0.12699999809E+01 0. -1.
       -4    1    3    3    0  502 -0.14918842009E+04  0.23534848269E+03 -0.17282059256E+04  0.22951698655E+04  0.12699999809E+01 0.  1.
</event>
<event>
 5   0  0.5622811E-06  0.3307693E+04  0.7818609E-02  0.8160941E-01
       -2   -1    0    0    0  501  0.00000000000E+00  0.00000000000E+00  0.90463343353E+03  0.90463343353E+03  0.25500000920E-02 0.  1.
        2   -1    0    0  501    0  0.00000000000E+00  0.00000000000E+00 -0.30235546475E+04  0.30235546475E+04  0.25500000920E-02 0. -1.
    10030    2    1    2    0    0  0.00000000000E+00  0.00000000000E+00 -0.21189212139E+04  0.39281880810E+04  0.33076932277E+04 0.  0.
        1    1    3    3  502    0 -0.10176350182E+04  0.12954645940E+04 -0.12331865093E+04  0.20578042938E+04  0.50400001928E-02 0. -1.
       -1    1    3    3    0  502  0.10176350182E+04 -0.12954645940E+04 -0.88573470462E+03  0.18703837872E+04  0.50400001928E-02 0.  1.
</event>
<event>
 5   0  0.1878000E-06  0.3248540E+04  0.7818609E-02  0.8176114E-01
        4   -1    0    0  501    0  0.00000000000E+00  0.00000000000E+00  0.16122814594E+04  0.16122819596E+04  0.12699999809E+01 0.  1.
       -4   -1    0    0    0  501  0.00000000000E+00  0.00000000000E+00 -0.16363465252E+04  0.16363470180E+04  0.12699999809E+01 0. -1.
    10030    2    1    2    0    0  0.00000000000E+00  0.00000000000E+00 -0.24065065726E+02  0.32486289776E+04  0.32485398423E+04 0.  0.
        4    1    3    3  502    0  0.10225413213E+04 -0.11320096346E+04  0.54584888476E+03  0.16201818368E+04  0.12699999809E+01 0.  1.
       -4    1    3    3    0  502 -0.10225413213E+04  0.11320096346E+04 -0.56991395049E+03  0.16284471408E+04  0.12699999809E+01 0. -1.
</event>
<event>
 5   0  0.1925906E-06  0.3328669E+04  0.7818609E-02  0.8155639E-01
       -1   -1    0    0    0  501  0.00000000000E+00  0.00000000000E+00  0.11284631366E+04  0.11284631366E+04  0.50400001928E-02 0.  1.
        1   -1    0    0  501    0  0.00000000000E+00  0.00000000000E+00 -0.24546739644E+04  0.24546739644E+04  0.50400001928E-02 0. -1.
    10030    2    1    2    0    0  0.00000000000E+00  0.00000000000E+00 -0.13262108278E+04  0.35831371010E+04  0.33286688518E+04 0.  0.
        1    1    3    3  502    0 -0.93939723907E+03  0.71777522398E+03  0.59791987300E+03  0.13248307890E+04  0.50400001928E-02 0. -1.
       -1    1    3    3    0  502  0.93939723907E+03 -0.71777522398E+03 -0.19241307008E+04  0.22583063120E+04  0.50400001928E-02 0.  1.
</event>
<event>
 5   0  0.1878000E-06  0.3371814E+04  0.7818609E-02  0.8144859E-01
       -3   -1    0    0    0  501  0.00000000000E+00  0.00000000000E+00  0.18741846577E+04  0.18741846605E+04  0.10100000352E+00 0.  1.
        3   -1    0    0  501    0  0.00000000000E+00  0.00000000000E+00 -0.15165431723E+04  0.15165431757E+04  0.10100000352E+00 0. -1.
    10030    2    1    2    0    0  0.00000000000E+00  0.00000000000E+00  0.35764148544E+03  0.33907278361E+04  0.33718137295E+04 0.  0.
        1    1    3    3  502    0 -0.10834389040E+04  0.33024042559E+03 -0.10769368265E+04  0.15629112341E+04  0.50400001928E-02 0. -1.
       -1    1    3    3    0  502  0.10834389040E+04 -0.33024042559E+03  0.14345783120E+04  0.18278166020E+04  0.50400001928E-02 0.  1.
</event>
<event>
 5   0  0.5300268E-06  0.3307638E+04  0.7818609E-02  0.8160955E-01
       -2   -1    0    0    0  501  0.00000000000E+00  0.00000000000E+00  0.30822538583E+04  0.30822538583E+04  0.25500000920E-02 0.  1.
        2   -1    0    0  501    0  0.00000000000E+00  0.00000000000E+00 -0.88737554156E+03  0.88737554157E+03  0.25500000920E-02 0. -1.
    10030    2    1    2    0    0  0.00000000000E+00  0.00000000000E+00  0.21948783167E+04  0.39696293999E+04  0.33076376384E+04 0.  0.
        4    1    3    3  502    0 -0.15347848857E+04 -0.58260391338E+03  0.13378363135E+04  0.21177345396E+04  0.12699999809E+01 0.  1.
       -4    1    3    3    0  502  0.15347848857E+04  0.58260391338E+03  0.85704200320E+03  0.18518948603E+04  0.12699999809E+01 0. -1.
</event>
<event>
 5   0  0.2097842E-06  0.3299443E+04  0.7818609E-02  0.8163037E-01
       -1   -1    0    0    0  501  0.00000000000E+00  0.00000000000E+00  0.16205234296E+04  0.16205234296E+04  0.50400001928E-02 0.  1.
        1   -1    0    0  501    0  0.00000000000E+00  0.00000000000E+00 -0.16794454452E+04  0.16794454452E+04  0.50400001928E-02 0. -1.
    10030    2    1    2    0    0  0.00000000000E+00  0.00000000000E+00 -0.58922015640E+02  0.32999688748E+04  0.32994427970E+04 0.  0.
        4    1    3    3  502    0  0.10345924488E+04  0.54332457381E+02 -0.13135058582E+04  0.16729114751E+04  0.12699999809E+01 0. -1.
       -4    1    3    3    0  502 -0.10345924488E+04 -0.54332457381E+02  0.12545838426E+04  0.16270573997E+04  0.12699999809E+01 0.  1.
</event>
<event>
 5   0  0.5300268E-06  0.3357254E+04  0.7818609E-02  0.8148478E-01
        2   -1    0    0  501    0  0.00000000000E+00  0.00000000000E+00  0.23997005665E+04  0.23997005665E+04  0.25500000920E-02 0. -1.
       -2   -1    0    0    0  501  0.00000000000E+00  0.00000000000E+00 -0.11742253926E+04  0.11742253926E+04  0.25500000920E-02 0.  1.
    10030    2    1    2    0    0  0.00000000000E+00  0.00000000000E+00  0.12254751739E+04  0.35739259590E+04  0.33572544376E+04 0.  0.
        4    1    3    3  502    0  0.93713049441E+03  0.71474813468E+03  0.18851656106E+04  0.22232699907E+04  0.12699999809E+01 0. -1.
       -4    1    3    3    0  502 -0.93713049441E+03 -0.71474813468E+03 -0.65969043666E+03  0.13506559683E+04  0.12699999809E+01 0.  1.
</event>
<event>
 5   0  0.2037109E-06  0.3304332E+04  0.7818609E-02  0.8161794E-01
        1   -1    0    0  501    0  0.00000000000E+00  0.00000000000E+00  0.25455378260E+04  0.25455378260E+04  0.50400001928E-02 0.  1.
       -1   -1    0    0    0  501  0.00000000000E+00  0.00000000000E+00 -0.10723287154E+04  0.10723287154E+04  0.50400001928E-02 0. -1.
    10030    2    1    2    0    0  0.00000000000E+00  0.00000000000E+00  0.14732091106E+04  0.36178665415E+04  0.33043324936E+04 0.  0.
        2    1    3    3  502    0 -0.10060143241E+04  0.11884931552E+04  0.13413468401E+04  0.20551866450E+04  0.25500000920E-02 0.  1.
       -2    1    3    3    0  502  0.10060143241E+04 -0.11884931552E+04  0.13186227043E+03  0.15626798964E+04  0.25500000920E-02 0. -1.
</event>
<event>
 5   0  0.5622811E-06  0.3491781E+04  0.7818609E-02  0.8115741E-01
        2   -1    0    0  501    0  0.00000000000E+00  0.00000000000E+00  0.21322777437E+04  0.21322777437E+04  0.25500000920E-02 0. -1.
       -2   -1    0    0    0  501  0.00000000000E+00  0.00000000000E+00 -0.14295196541E+04  0.14295196541E+04  0.25500000920E-02 0.  1.
    10030    2    1    2    0    0  0.00000000000E+00  0.00000000000E+00  0.70275808955E+03  0.35617973978E+04  0.34917806017E+04 0.  0.
        1    1    3    3  502    0  0.13527684509E+04  0.77814042421E+03 -0.44703423808E+03  0.16233682920E+04  0.50400001928E-02 0.  1.
       -1    1    3    3    0  502 -0.13527684509E+04 -0.77814042421E+03  0.11497923276E+04  0.19384291058E+04  0.50400001928E-02 0. -1.
</event>
<event>
 5   0  0.1925906E-06  0.1736241E+04  0.7818609E-02  0.8740960E-01
       -1   -1    0    0    0  501  0.00000000000E+00  0.00000000000E+00  0.47081781142E+03  0.47081781145E+03  0.50400001928E-02 0.  1.
        1   -1    0    0  501    0  0.00000000000E+00  0.00000000000E+00 -0.16006900647E+04  0.16006900647E+04  0.50400001928E-02 0. -1.
    10030    2    1    2    0    0  0.00000000000E+00  0.00000000000E+00 -0.11298722533E+04  0.20715078761E+04  0.17362412195E+04 0.  0.
        1    1    3    3  502    0  0.45569066692E+03  0.45907768345E+03  0.12585393343E+03  0.65897307680E+03  0.50400001928E-02 0.  1.
       -1    1    3    3    0  502 -0.45569066692E+03 -0.45907768345E+03 -0.12557261867E+04  0.14125347993E+04  0.50400001928E-02 0. -1.
</event>
<event>
 5   0  0.1925906E-06  0.2258893E+04  0.7818609E-02  0.8494308E-01
       -1   -1    0    0    0  501  0.00000000000E+00  0.00000000000E+00  0.61848613137E+03  0.61848613139E+03  0.50400001928E-02 0.  1.
        1   -1    0    0  501    0  0.00000000000E+00  0.00000000000E+00 -0.20625348815E+04  0.20625348815E+04  0.50400001928E-02 0. -1.
    10030    2    1    2    0    0  0.00000000000E+00  0.00000000000E+00 -0.14440487501E+04  0.26810210129E+04  0.22588928436E+04 0.  0.
        1    1    3    3  502    0  0.60515208970E+03  0.73793179859E+03 -0.14389756358E+04  0.17266740490E+04  0.50400001928E-02 0. -1.
       -1    1    3    3    0  502 -0.60515208970E+03 -0.73793179859E+03 -0.50731143567E+01  0.95434696392E+03  0.50400001928E-02 0.  1.
</event>
<event>
 5   0  0.2730981E-06  0.2679245E+04  0.7818609E-02  0.8341771E-01
       -1   -1    0    0    0  501  0.00000000000E+00  0.00000000000E+00  0.16108269566E+04  0.16108269566E+04  0.50400001928E-02 0. -1.
        1   -1    0    0  501    0  0.00000000000E+00  0.00000000000E+00 -0.11140787117E+04  0.11140787117E+04  0.50400001928E-02 0.  1.
    10030    2    1    2    0    0  0.00000000000E+00  0.00000000000E+00  0.49674824488E+03  0.27249056683E+04  0.26792446851E+04 0.  0.
        3    1    3    3  502    0 -0.10566778610E+04 -0.45798454692E+03 -0.44759070441E+03  0.12355789720E+04  0.10100000352E+00 0.  1.
       -3    1    3    3    0  502  0.10566778610E+04  0.45798454692E+03  0.94433894929E+03  0.14893266963E+04  0.10100000352E+00 0. -1.
</event>
<event>
 5   0  0.5855568E-06  0.3335002E+04  0.7818609E-02  0.8154046E-01
       -2   -1    0    0    0  501  0.00000000000E+00  0.00000000000E+00  0.98934752167E+03  0.98934752167E+03  0.25500000920E-02 0.  1.
        2   -1    0    0  501    0  0.00000000000E+00  0.00000000000E+00 -0.28104990735E+04  0.28104990735E+04  0.25500000920E-02 0. -1.
    10030    2    1    2    0    0  0.00000000000E+00  0.00000000000E+00 -0.18211515518E+04  0.37998465952E+04  0.33350024246E+04 0.  0.
        3    1    3    3  502    0 -0.30081406610E+03  0.14633615329E+04 -0.17545230367E+04  0.23044016956E+04  0.10100000352E+00 0.  1.
       -3    1    3    3    0  502  0.30081406610E+03 -0.14633615329E+04 -0.66628515117E+02  0.14954448995E+04  0.10100000352E+00 0. -1.
</event>
<event>
 5   0  0.5637538E-06  0.3301339E+04  0.7818609E-02  0.8162555E-01
        2   -1    0    0  501    0  0.00000000000E+00  0.00000000000E+00  0.23783108996E+04  0.23783108996E+04  0.25500000920E-02 0. -1.
       -2   -1    0    0    0  501  0.00000000000E+00  0.00000000000E+00 -0.11456492398E+04  0.11456492398E+04  0.25500000920E-02 0.  1.
    10030    2    1    2    0    0  0.00000000000E+00  0.00000000000E+00  0.12326616598E+04  0.35239601393E+04  0.33013391671E+04 0.  0.
        2    1    3    3  502    0 -0.59392210398E+03  0.71291181830E+03  0.20735724476E+04  0.22717150837E+04  0.25500000920E-02 0. -1.
       -2    1    3    3    0  502  0.59392210398E+03 -0.71291181830E+03 -0.84091078777E+03  0.12522450556E+04  0.25500000920E-02 0.  1.
</event>
<event>
 5   0  0.2097842E-06  0.2579577E+04  0.7818609E-02  0.8375172E-01
        1   -1    0    0  501    0  0.00000000000E+00  0.00000000000E+00  0.14543213717E+04  0.14543213717E+04  0.50400001928E-02 0.  1.
       -1   -1    0    0    0  501  0.00000000000E+00  0.00000000000E+00 -0.11438697378E+04  0.11438697379E+04  0.50400001928E-02 0. -1.
    10030    2    1    2    0    0  0.00000000000E+00  0.00000000000E+00  0.31045163382E+03  0.25981911095E+04  0.25795768693E+04 0.  0.
        4    1    3    3  502    0  0.44021848281E+03 -0.43398951767E+03  0.12953896098E+04  0.14353309960E+04  0.12699999809E+01 0.  1.
       -4    1    3    3    0  502 -0.44021848281E+03  0.43398951767E+03 -0.98493797600E+03  0.11628601135E+04  0.12699999809E+01 0. -1.
</event>
<event>
 5   0  0.5300268E-06  0.3174137E+04  0.7818609E-02  0.8195681E-01
        2   -1    0    0  501    0  0.00000000000E+00  0.00000000000E+00  0.21634209067E+04  0.21634209067E+04  0.25500000920E-02 0. -1.
       -2   -1    0    0    0  501  0.00000000000E+00  0.00000000000E+00 -0.11642610283E+04  0.11642610283E+04  0.25500000920E-02 0.  1.
    10030    2    1    2    0    0  0.00000000000E+00  0.00000000000E+00  0.99915987847E+03  0.33276819350E+04  0.31741371423E+04 0.  0.
        4    1    3    3  502    0  0.23136369772E+03 -0.12230038290E+04 -0.53269159305E+03  0.13538941881E+04  0.12699999809E+01 0.  1.
       -4    1    3    3    0  502 -0.23136369772E+03  0.12230038290E+04  0.15318514715E+04  0.19737877469E+04  0.12699999809E+01 0. -1.
</event>
<event>
 5   0  0.5755250E-06  0.2670588E+04  0.7818609E-02  0.8344612E-01
       -2   -1    0    0    0  501  0.00000000000E+00  0.00000000000E+00  0.13010342712E+04  0.13010342712E+04  0.25500000920E-02 0. -1.
        2   -1    0    0  501    0  0.00000000000E+00  0.00000000000E+00 -0.13704556179E+04  0.13704556179E+04  0.25500000920E-02 0.  1.
    10030    2    1    2    0    0  0.00000000000E+00  0.00000000000E+00 -0.69421346656E+02  0.26714898892E+04  0.26705877451E+04 0.  0.
        5    1    3    3  502    0 -0.64650044532E+03  0.58962669077E+03  0.97427527241E+03  0.13095254319E+04  0.46999998093E+01 0. -1.
       -5    1    3    3    0  502  0.64650044532E+03 -0.58962669077E+03 -0.10436966191E+04  0.13619644573E+04  0.46999998093E+01 0.  1.
</event>
<event>
 5   0  0.2097842E-06  0.2522093E+04  0.7818609E-02  0.8395157E-01
        1   -1    0    0  501    0  0.00000000000E+00  0.00000000000E+00  0.17329906787E+04  0.17329906787E+04  0.50400001928E-02 0. -1.
       -1   -1    0    0    0  501  0.00000000000E+00  0.00000000000E+00 -0.91762690753E+03  0.91762690754E+03  0.50400001928E-02 0.  1.
    10030    2    1    2    0    0  0.00000000000E+00  0.00000000000E+00  0.81536377117E+03  0.26506175862E+04  0.25220934775E+04 0.  0.
        4    1    3    3  502    0  0.56163896378E+03  0.32823885534E+02  0.15937868981E+04  0.16901698206E+04  0.12699999809E+01 0. -1.
       -4    1    3    3    0  502 -0.56163896378E+03 -0.32823885534E+02 -0.77842312691E+03  0.96044776563E+03  0.12699999809E+01 0.  1.
</event>
<event>
 5   0  0.5300268E-06  0.2786760E+04  0.7818609E-02  0.8307391E-01
       -2   -1    0    0    0  501  0.00000000000E+00  0.00000000000E+00  0.88029754570E+03  0.88029754570E+03  0.25500000920E-02 0. -1.
        2   -1    0    0  501    0  0.00000000000E+00  0.00000000000E+00 -0.22055133588E+04  0.22055133588E+04  0.25500000920E-02 0.  1.
    10030    2    1    2    0    0  0.00000000000E+00  0.00000000000E+00 -0.13252158131E+04  0.30858109045E+04  0.27867601237E+04 0.  0.
        4    1    3    3  502    0 -0.87651211574E+03  0.59600187575E+03  0.33889050560E+03  0.11128073115E+04  0.12699999809E+01 0. -1.
       -4    1    3    3    0  502  0.87651211574E+03 -0.59600187575E+03 -0.16641063187E+04  0.19730035929E+04  0.12699999809E+01 0.  1.
</event>
<event>
 5   0  0.1925906E-06  0.2167727E+04  0.7818609E-02  0.8531982E-01
        1   -1    0    0  501    0  0.00000000000E+00  0.00000000000E+00  0.10932781378E+04  0.10932781378E+04  0.50400001928E-02 0.  1.
       -1   -1    0    0    0  501  0.00000000000E+00  0.00000000000E+00 -0.10745301134E+04  0.10745301134E+04  0.50400001928E-02 0. -1.
    10030    2    1    2    0    0  0.00000000000E+00  0.00000000000E+00  0.18748024418E+02  0.21678082513E+04  0.21677271798E+04 0.  0.
        1    1    3    3  502    0 -0.66034601466E+03 -0.59064654001E+03  0.63376911724E+03  0.10893041303E+04  0.50400001928E-02 0.  1.
       -1    1    3    3    0  502  0.66034601466E+03  0.59064654001E+03 -0.61502109282E+03  0.10785041210E+04  0.50400001928E-02 0. -1.
</event>
<event>
 5   0  0.5622811E-06  0.3184670E+04  0.7818609E-02  0.8192877E-01
       -2   -1    0    0    0  501  0.00000000000E+00  0.00000000000E+00  0.81805595340E+03  0.81805595340E+03  0.25500000920E-02 0. -1.
        2   -1    0    0  501    0  0.00000000000E+00  0.00000000000E+00 -0.30994596010E+04  0.30994596010E+04  0.25500000920E-02 0.  1.
    10030    2    1    2    0    0  0.00000000000E+00  0.00000000000E+00 -0.22814036476E+04  0.39175155545E+04  0.31846703936E+04 0.  0.
        1    1    3    3  502    0 -0.15374474291E+04  0.49270455852E+02 -0.63446860423E+03  0.16639478913E+04  0.50400001928E-02 0. -1.
       -1    1    3    3    0  502  0.15374474291E+04 -0.49270455852E+02 -0.16469350434E+04  0.22535676632E+04  0.50400001928E-02 0.  1.
</event>
<event>
 5   0  0.2097842E-06  0.2627005E+04  0.7818609E-02  0.8359086E-01
       -1   -1    0    0    0  501  0.00000000000E+00  0.00000000000E+00  0.10416681208E+04  0.10416681208E+04  0.50400001928E-02 0.  1.
        1   -1    0    0  501    0  0.00000000000E+00  0.00000000000E+00 -0.16562745314E+04  0.16562745314E+04  0.50400001928E-02 0. -1.
    10030    2    1    2    0    0  0.00000000000E+00  0.00000000000E+00 -0.61460641063E+03  0.26979426522E+04  0.26270046659E+04 0.  0.
        4    1    3    3  502    0  0.30670055414E+03 -0.12738132642E+04 -0.21194493867E+03  0.13272481802E+04  0.12699999809E+01 0.  1.
       -4    1    3    3    0  502 -0.30670055414E+03  0.12738132642E+04 -0.40266147195E+03  0.13706944721E+04  0.12699999809E+01 0. -1.
</event>
<event>
 5   0  0.5637538E-06  0.3129276E+04  0.7818609E-02  0.8207749E-01
        2   -1    0    0  501    0  0.00000000000E+00  0.00000000000E+00  0.22467202397E+04  0.22467202397E+04  0.25500000920E-02 0. -1.
       -2   -1    0    0    0  501  0.00000000000E+00  0.00000000000E+00 -0.10896291082E+04  0.10896291082E+04  0.25500000920E-02 0.  1.
    10030    2    1    2    0    0  0.00000000000E+00  0.00000000000E+00  0.11570911315E+04  0.33363493479E+04  0.31292758083E+04 0.  0.
        2    1    3    3  502    0  0.88749326796E+03  0.12375594991E+04  0.96132090876E+03  0.18009263461E+04  0.25500000920E-02 0. -1.
       -2    1    3    3    0  502 -0.88749326796E+03 -0.12375594991E+04  0.19577022270E+03  0.15354230018E+04  0.25500000920E-02 0.  1.
</event>
<event>
 5   0  0.5637538E-06  0.2466763E+04  0.7818609E-02  0.8414923E-01
        2   -1    0    0  501    0  0.00000000000E+00  0.00000000000E+00  0.18033542014E+04  0.18033542014E+04  0.25500000920E-02 0. -1.
       -2   -1    0    0    0  501  0.00000000000E+00  0.00000000000E+00 -0.84355605361E+03  0.84355605362E+03  0.25500000920E-02 0.  1.
    10030    2    1    2    0    0  0.00000000000E+00  0.00000000000E+00  0.95979814781E+03  0.26469102550E+04  0.24667633477E+04 0.  0.
        2    1    3    3  502    0  0.51555425030E+03 -0.84011882477E+03 -0.31561658663E+03  0.10349925867E+04  0.25500000920E-02 0.  1.
       -2    1    3    3    0  502 -0.51555425030E+03  0.84011882477E+03  0.12754147344E+04  0.16119176684E+04  0.25500000920E-02 0. -1.
</event>
<event>
 5   0  0.2097842E-06  0.1753143E+04  0.7818609E-02  0.8731622E-01
        1   -1    0    0  501    0  0.00000000000E+00  0.00000000000E+00  0.10363390028E+04  0.10363390028E+04  0.50400001928E-02 0.  1.
       -1   -1    0    0    0  501  0.00000000000E+00  0.00000000000E+00 -0.74143460948E+03  0.74143460950E+03  0.50400001928E-02 0. -1.
    10030    2    1    2    0    0  0.00000000000E+00  0.00000000000E+00  0.29490439334E+03  0.17777736123E+04  0.17531430106E+04 0.  0.
        4    1    3    3  502    0  0.79648313917E+03  0.95961171304E+02  0.50566010966E+03  0.94830780698E+03  0.12699999809E+01 0. -1.
       -4    1    3    3    0  502 -0.79648313917E+03 -0.95961171304E+02 -0.21075571633E+03  0.82946580535E+03  0.12699999809E+01 0.  1.
</event>
<event>
 5   0  0.1999849E-06  0.3238827E+04  0.7818609E-02  0.8178638E-01
       -1   -1    0    0    0  501  0.00000000000E+00  0.00000000000E+00  0.22612677698E+04  0.22612677698E+04  0.50400001928E-02 0. -1.
        1   -1    0    0  501    0  0.00000000000E+00  0.00000000000E+00 -0.11597477618E+04  0.11597477619E+04  0.50400001928E-02 0.  1.
    10030    2    1    2    0    0  0.00000000000E+00  0.00000000000E+00  0.11015200079E+04  0.34210155316E+04  0.32388270932E+04 0.  0.
        5    1    3    3  502    0 -0.31853553248E+03 -0.21371957071E+02  0.22276921913E+04  0.22504568947E+04  0.46999998093E+01 0. -1.
       -5    1    3    3    0  502  0.31853553248E+03  0.21371957071E+02 -0.11261721833E+04  0.11705586369E+04  0.46999998093E+01 0.  1.
</event>
<event>
 5   0  0.2037109E-06  0.3273839E+04  0.7818609E-02  0.8169584E-01
        1   -1    0    0  501    0  0.00000000000E+00  0.00000000000E+00  0.28407697639E+04  0.28407697639E+04  0.50400001928E-02 0.  1.
       -1   -1    0    0    0  501  0.00000000000E+00  0.00000000000E+00 -0.94323210750E+03  0.94323210751E+03  0.50400001928E-02 0. -1.
    10030    2    1    2    0    0  0.00000000000E+00  0.00000000000E+00  0.18975376564E+04  0.37840018714E+04  0.32738388790E+04 0.  0.
        2    1    3    3  502    0  0.13477425059E+04  0.12251247540E+03  0.20131912363E+04  0.24257695940E+04  0.25500000920E-02 0.  1.
       -2    1    3    3    0  502 -0.13477425059E+04 -0.12251247540E+03 -0.11565357993E+03  0.13582322774E+04  0.25500000920E-02 0. -1.
</event>
<event>
 5   0  0.5855568E-06  0.2803751E+04  0.7818609E-02  0.8302105E-01
        2   -1    0    0  501    0  0.00000000000E+00  0.00000000000E+00  0.21518909067E+04  0.21518909067E+04  0.25500000920E-02 0.  1.
       -2   -1    0    0    0  501  0.00000000000E+00  0.00000000000E+00 -0.91326914929E+03  0.91326914930E+03  0.25500000920E-02 0. -1.
    10030    2    1    2    0    0  0.00000000000E+00  0.00000000000E+00  0.12386217574E+04  0.30651600560E+04  0.28037514709E+04 0.  0.
        3    1    3    3  502    0 -0.45622079547E+03  0.47881648438E+03 -0.73199734033E+03  0.98652053013E+03  0.10100000352E+00 0. -1.
       -3    1    3    3    0  502  0.45622079547E+03 -0.47881648438E+03  0.19706190977E+04  0.20786395258E+04  0.10100000352E+00 0.  1.
</event>
<event>
 5   0  0.2037109E-06  0.3421381E+04  0.7818609E-02  0.8132679E-01
       -1   -1    0    0    0  501  0.00000000000E+00  0.00000000000E+00  0.22829787740E+04  0.22829787740E+04  0.50400001928E-02 0.  1.
        1   -1    0    0  501    0  0.00000000000E+00  0.00000000000E+00 -0.12818611276E+04  0.12818611276E+04  0.50400001928E-02 0. -1.
    10030    2    1    2    0    0  0.00000000000E+00  0.00000000000E+00  0.10011176465E+04  0.35648399016E+04  0.34213808590E+04 0.  0.
        2    1    3    3  502    0  0.32711731234E+03  0.13178613988E+04  0.15847157389E+04  0.20868848496E+04  0.25500000920E-02 0.  1.
       -2    1    3    3    0  502 -0.32711731234E+03 -0.13178613988E+04 -0.58359809239E+03  0.14779550520E+04  0.25500000920E-02 0. -1.
</event>
<event>
 5   0  0.1925906E-06  0.3221250E+04  0.7818609E-02  0.8183228E-01
       -1   -1    0    0    0  501  0.00000000000E+00  0.00000000000E+00  0.16442692597E+04  0.16442692597E+04  0.50400001928E-02 0. -1.
        1   -1    0    0  501    0  0.00000000000E+00  0.00000000000E+00 -0.15776691260E+04  0.15776691260E+04  0.50400001928E-02 0.  1.
    10030    2    1    2    0    0  0.00000000000E+00  0.00000000000E+00  0.66600133688E+02  0.32219383856E+04  0.32212499721E+04 0.  0.
        1    1    3    3  502    0 -0.19361094194E+03  0.29797679467E+02 -0.15657097013E+04  0.15779163372E+04  0.50400001928E-02 0.  1.
       -1    1    3    3    0  502  0.19361094194E+03 -0.29797679467E+02  0.16323098349E+04  0.16440220485E+04  0.50400001928E-02 0. -1.
</event>
<event>
 5   0  0.5622811E-06  0.3071877E+04  0.7818609E-02  0.8223499E-01
       -2   -1    0    0    0  501  0.00000000000E+00  0.00000000000E+00  0.10087443573E+04  0.10087443573E+04  0.25500000920E-02 0.  1.
        2   -1    0    0  501    0  0.00000000000E+00  0.00000000000E+00 -0.23386566848E+04  0.23386566848E+04  0.25500000920E-02 0. -1.
    10030    2    1    2    0    0  0.00000000000E+00  0.00000000000E+00 -0.13299123274E+04  0.33474010421E+04  0.30718767778E+04 0.  0.
        1    1    3    3  502    0  0.28924643591E+03  0.14429681521E+04 -0.18588026932E+03  0.14833651146E+04  0.50400001928E-02 0.  1.
       -1    1    3    3    0  502 -0.28924643591E+03 -0.14429681521E+04 -0.11440320581E+04  0.18640359274E+04  0.50400001928E-02 0. -1.
</event>
<event>
 5   0  0.1878000E-06  0.3175619E+04  0.7818609E-02  0.8195286E-01
       -3   -1    0    0    0  501  0.00000000000E+00  0.00000000000E+00  0.17272126476E+04  0.17272126506E+04  0.10100000352E+00 0.  1.
        3   -1    0    0  501    0  0.00000000000E+00  0.00000000000E+00 -0.14596579628E+04  0.14596579663E+04  0.10100000352E+00 0. -1.
    10030    2    1    2    0    0  0.00000000000E+00  0.00000000000E+00  0.26755468480E+03  0.31868706169E+04  0.31756194387E+04 0.  0.
        2    1    3    3  502    0  0.52020081575E+03 -0.85593181122E+03  0.13701779596E+04  0.16972376955E+04  0.25500000920E-02 0.  1.
       -2    1    3    3    0  502 -0.52020081575E+03  0.85593181122E+03 -0.11026232748E+04  0.14896329213E+04  0.25500000920E-02 0. -1.
</event>
<event>
 5   0  0.1999849E-06  0.3258986E+04  0.7818609E-02  0.8173411E-01
       -1   -1    0    0    0  501  0.00000000000E+00  0.00000000000E+00  0.99809833769E+03  0.99809833770E+03  0.50400001928E-02 0.  1.
        1   -1    0    0  501    0  0.00000000000E+00  0.00000000000E+00 -0.26603061103E+04  0.26603061103E+04  0.50400001928E-02 0. -1.
    10030    2    1    2    0    0  0.00000000000E+00  0.00000000000E+00 -0.16622077726E+04  0.36584044480E+04  0.32589857971E+04 0.  0.
        5    1    3    3  502    0  0.18683000010E+03  0.44490520734E+03 -0.25782542713E+04  0.26230255946E+04  0.46999998093E+01 0. -1.
       -5    1    3    3    0  502 -0.18683000010E+03 -0.44490520734E+03  0.91604649865E+03  0.10353788534E+04  0.46999998093E+01 0.  1.
</event>
<event>
 5   0  0.5637538E-06  0.3053412E+04  0.7818609E-02  0.8228641E-01
       -2   -1    0    0    0  501  0.00000000000E+00  0.00000000000E+00  0.10474117524E+04  0.10474117524E+04  0.25500000920E-02 0. -1.
        2   -1    0    0  501    0  0.00000000000E+00  0.00000000000E+00 -0.22253239849E+04  0.22253239849E+04  0.25500000920E-02 0.  1.
    10030    2    1    2    0    0  0.00000000000E+00  0.00000000000E+00 -0.11779122325E+04  0.32727357374E+04  0.30534115312E+04 0.  0.
        2    1    3    3  502    0  0.44723457040E+03 -0.11225716143E+03  0.97099184560E+03  0.10749165528E+04  0.25500000920E-02 0. -1.
       -2    1    3    3    0  502 -0.44723457040E+03  0.11225716143E+03 -0.21489040781E+04  0.21978191846E+04  0.25500000920E-02 0.  1.
</event>
<event>
 5   0  0.5637538E-06  0.1621179E+04  0.7818609E-02  0.8807641E-01
       -2   -1    0    0    0  501  0.00000000000E+00  0.00000000000E+00  0.55236307561E+03  0.55236307562E+03  0.25500000920E-02 0.  1.
        2   -1    0    0  501    0  0.00000000000E+00  0.00000000000E+00 -0.11895356225E+04  0.11895356225E+04  0.25500000920E-02 0. -1.
    10030    2    1    2    0    0  0.00000000000E+00  0.00000000000E+00 -0.63717254689E+03  0.17418986981E+04  0.16211792683E+04 0.  0.
        2    1    3    3  502    0 -0.22032955446E+02 -0.62668956049E+03 -0.87047838656E+03  0.10728270494E+04  0.25500000920E-02 0. -1.
       -2    1    3    3    0  502  0.22032955446E+02  0.62668956049E+03  0.23330583967E+03  0.66907164877E+03  0.25500000920E-02 0.  1.
</event>
<event>
 5   0  0.2730981E-06  0.3053770E+04  0.7818609E-02  0.8228541E-01
       -1   -1    0    0    0  501  0.00000000000E+00  0.00000000000E+00  0.18904711744E+04  0.18904711744E+04  0.50400001928E-02 0. -1.
        1   -1    0    0  501    0  0.00000000000E+00  0.00000000000E+00 -0.12332260078E+04  0.12332260078E+04  0.50400001928E-02 0.  1.
    10030    2    1    2    0    0  0.00000000000E+00  0.00000000000E+00  0.65724516658E+03  0.31236971821E+04  0.30537702724E+04 0.  0.
        3    1    3    3  502    0  0.86442749761E+03 -0.48770571629E+03  0.15154875187E+04  0.18115722988E+04  0.10100000352E+00 0. -1.
       -3    1    3    3    0  502 -0.86442749761E+03  0.48770571629E+03 -0.85824235209E+03  0.13121248833E+04  0.10100000352E+00 0.  1.
</event>
<event>
 5   0  0.5755250E-06  0.3234188E+04  0.7818609E-02  0.8179846E-01
       -2   -1    0    0    0  501  0.00000000000E+00  0.00000000000E+00  0.11253188197E+04  0.11253188197E+04  0.25500000920E-02 0. -1.
        2   -1    0    0  501    0  0.00000000000E+00  0.00000000000E+00 -0.23237801643E+04  0.23237801643E+04  0.25500000920E-02 0.  1.
    10030    2    1    2    0    0  0.00000000000E+00  0.00000000000E+00 -0.11984613445E+04  0.34490989840E+04  0.32341883382E+04 0.  0.
        5    1    3    3  502    0 -0.55176699356E+03  0.22696057959E+03 -0.22021060902E+04  0.22815019707E+04  0.46999998093E+01 0.  1.
       -5    1    3    3    0  502  0.55176699356E+03 -0.22696057959E+03  0.10036447457E+04  0.11675970133E+04  0.46999998093E+01 0. -1.
</event>
<event>
 5   0  0.2097842E-06  0.3284336E+04  0.7818609E-02  0.8166893E-01
        1   -1    0    0  501    0  0.00000000000E+00  0.00000000000E+00  0.15071293515E+04  0.15071293515E+04  0.50400001928E-02 0.  1.
       -1   -1    0    0    0  501  0.00000000000E+00  0.00000000000E+00 -0.17893062915E+04  0.17893062915E+04  0.50400001928E-02 0. -1.
    10030    2    1    2    0    0  0.00000000000E+00  0.00000000000E+00 -0.28217694001E+03  0.32964356430E+04  0.32843361769E+04 0.  0.
        4    1    3    3  502    0  0.38321264983E+02 -0.16415577796E+04 -0.16428105827E+03  0.16502031214E+04  0.12699999809E+01 0.  1.
       -4    1    3    3    0  502 -0.38321264983E+02  0.16415577796E+04 -0.11789588174E+03  0.16462325215E+04  0.12699999809E+01 0. -1.
</event>
<event>
 5   0  0.5637538E-06  0.3207007E+04  0.7818609E-02  0.8186969E-01
        2   -1    0    0  501    0  0.00000000000E+00  0.00000000000E+00  0.19597810030E+04  0.19597810030E+04  0.25500000920E-02 0.  1.
       -2   -1    0    0    0  501  0.00000000000E+00  0.00000000000E+00 -0.13119955950E+04  0.13119955950E+04  0.25500000920E-02 0. -1.
    10030    2    1    2    0    0  0.00000000000E+00  0.00000000000E+00  0.64778540802E+03  0.32717765979E+04  0.32070073545E+04 0.  0.
        2    1    3    3  502    0  0.21646701966E+03 -0.10029667031E+04  0.15810227207E+04  0.18847899145E+04  0.25500000920E-02 0.  1.
       -2    1    3    3    0  502 -0.21646701966E+03  0.10029667031E+04 -0.93323731272E+03  0.13869866835E+04  0.25500000920E-02 0. -1.
</event>
<event>
 5   0  0.1999849E-06  0.3287543E+04  0.7818609E-02  0.8166072E-01
       -1   -1    0    0    0  501  0.00000000000E+00  0.00000000000E+00  0.10421373942E+04  0.10421373942E+04  0.50400001928E-02 0.  1.
        1   -1    0    0  501    0  0.00000000000E+00  0.00000000000E+00 -0.25927331535E+04  0.25927331535E+04  0.50400001928E-02 0. -1.
    10030    2    1    2    0    0  0.00000000000E+00  0.00000000000E+00 -0.15505957594E+04  0.36348705477E+04  0.32875426522E+04 0.  0.
        5    1    3    3  502    0  0.11163238112E+04  0.11772287223E+02 -0.21092653401E+04  0.23864911068E+04  0.46999998093E+01 0. -1.
       -5    1    3    3    0  502 -0.11163238112E+04 -0.11772287223E+02  0.55866958072E+03  0.12483794409E+04  0.46999998093E+01 0.  1.
</event>
<event>
 5   0  0.1878000E-06  0.2561637E+04  0.7818609E-02  0.8381350E-01
       -3   -1    0    0    0  501  0.00000000000E+00  0.00000000000E+00  0.19439198604E+04  0.19439198630E+04  0.10100000352E+00 0.  1.
        3   -1    0    0  501    0  0.00000000000E+00  0.00000000000E+00 -0.84391102465E+03  0.84391103070E+03  0.10100000352E+00 0. -1.
    10030    2    1    2    0    0  0.00000000000E+00  0.00000000000E+00  0.11000088357E+04  0.27878308937E+04  0.25616365185E+04 0.  0.
        2    1    3    3  502    0 -0.92828242962E+03 -0.16335105324E+03  0.14938213141E+04  0.17663221547E+04  0.25500000920E-02 0.  1.
       -2    1    3    3    0  502  0.92828242962E+03  0.16335105324E+03 -0.39381247837E+03  0.10215087390E+04  0.25500000920E-02 0. -1.
</event>
<event>
 5   0  0.2037109E-06  0.3081419E+04  0.7818609E-02  0.8220856E-01
        1   -1    0    0  501    0  0.00000000000E+00  0.00000000000E+00  0.28749851318E+04  0.28749851318E+04  0.50400001928E-02 0. -1.
       -1   -1    0    0    0  501  0.00000000000E+00  0.00000000000E+00 -0.82566898256E+03  0.82566898257E+03  0.50400001928E-02 0.  1.
    10030    2    1    2    0    0  0.00000000000E+00  0.00000000000E+00  0.20493161493E+04  0.37006541144E+04  0.30814191852E+04 0.  0.
        2    1    3    3  502    0  0.53001123964E+03 -0.93157583931E+03 -0.30458054992E+03  0.11142328167E+04  0.25500000920E-02 0.  1.
       -2    1    3    3    0  502 -0.53001123964E+03  0.93157583931E+03  0.23538966992E+04  0.25864212977E+04  0.25500000920E-02 0. -1.
</event>
<event>
 5   0  0.1999849E-06  0.3074894E+04  0.7818609E-02  0.8222662E-01
        1   -1    0    0  501    0  0.00000000000E+00  0.00000000000E+00  0.21111240133E+04  0.21111240133E+04  0.50400001928E-02 0.  1.
       -1   -1    0    0    0  501  0.00000000000E+00  0.00000000000E+00 -0.11196608680E+04  0.11196608680E+04  0.50400001928E-02 0. -1.
    10030    2    1    2    0    0  0.00000000000E+00  0.00000000000E+00  0.99146314531E+03  0.32307848813E+04  0.30748937836E+04 0.  0.
        5    1    3    3  502    0  0.48895506545E+03  0.17210016554E+03 -0.10250700342E+04  0.11486888996E+04  0.46999998093E+01 0. -1.
       -5    1    3    3    0  502 -0.48895506545E+03 -0.17210016554E+03  0.20165331795E+04  0.20820959817E+04  0.46999998093E+01 0.  1.
</event>
<event>
 5   0  0.5637538E-06  0.3338848E+04  0.7818609E-02  0.8153080E-01
       -2   -1    0    0    0  501  0.00000000000E+00  0.00000000000E+00  0.16646839162E+04  0.16646839162E+04  0.25500000920E-02 0. -1.
        2   -1    0    0  501    0  0.00000000000E+00  0.00000000000E+00 -0.16741779609E+04  0.16741779609E+04  0.25500000920E-02 0.  1.
    10030    2    1    2    0    0  0.00000000000E+00  0.00000000000E+00 -0.94940446103E+01  0.33388618771E+04  0.33388483789E+04 0.  0.
        2    1    3    3  502    0 -0.34180232619E+03 -0.33742718759E+03  0.15941000174E+04  0.16648846214E+04  0.25500000920E-02 0. -1.
       -2    1    3    3    0  502  0.34180232619E+03  0.33742718759E+03 -0.16035940620E+04  0.16739772557E+04  0.25500000920E-02 0.  1.
</event>
<event>
 5   0  0.5637538E-06  0.2670096E+04  0.7818609E-02  0.8344774E-01
        2   -1    0    0  501    0  0.00000000000E+00  0.00000000000E+00  0.14814188933E+04  0.14814188933E+04  0.25500000920E-02 0.  1.
       -2   -1    0    0    0  501  0.00000000000E+00  0.00000000000E+00 -0.12031388815E+04  0.12031388815E+04  0.25500000920E-02 0. -1.
    10030    2    1    2    0    0  0.00000000000E+00  0.00000000000E+00  0.27828001179E+03  0.26845577748E+04  0.26700956315E+04 0.  0.
        2    1    3    3  502    0 -0.23668301258E+03  0.79783121838E+03  0.11887287747E+04  0.14510787716E+04  0.25500000920E-02 0.  1.
       -2    1    3    3    0  502  0.23668301258E+03 -0.79783121838E+03 -0.91044876295E+03  0.12334790032E+04  0.25500000920E-02 0. -1.
</event>
<event>
 5   0  0.2097842E-06  0.2024620E+04  0.7818609E-02  0.8595196E-01
       -1   -1    0    0    0  501  0.00000000000E+00  0.00000000000E+00  0.53144582542E+03  0.53144582544E+03  0.50400001928E-02 0. -1.
        1   -1    0    0  501    0  0.00000000000E+00  0.00000000000E+00 -0.19282711040E+04  0.19282711040E+04  0.50400001928E-02 0.  1.
    10030    2    1    2    0    0  0.00000000000E+00  0.00000000000E+00 -0.13968252785E+04  0.24597169294E+04  0.20246200913E+04 0.  0.
        4    1    3    3  502    0 -0.96593129755E+02 -0.77791234917E+03  0.79781932593E+02  0.78793694251E+03  0.12699999809E+01 0. -1.
       -4    1    3    3    0  502  0.96593129755E+02  0.77791234917E+03 -0.14766072111E+04  0.16717799869E+04  0.12699999809E+01 0.  1.
</event>
<event>
 5   0  0.5300268E-06  0.3337334E+04  0.7818609E-02  0.8153460E-01
       -2   -1    0    0    0  501  0.00000000000E+00  0.00000000000E+00  0.15051903353E+04  0.15051903353E+04  0.25500000920E-02 0. -1.
        2   -1    0    0  501    0  0.00000000000E+00  0.00000000000E+00 -0.18498990319E+04  0.18498990319E+04  0.25500000920E-02 0.  1.
    10030    2    1    2    0    0  0.00000000000E+00  0.00000000000E+00 -0.34470869656E+03  0.33550893672E+04  0.33373343519E+04 0.  0.
        4    1    3    3  502    0  0.62856447009E+03  0.49979294118E+03 -0.16428604728E+04  0.18286274698E+04  0.12699999809E+01 0.  1.
       -4    1    3    3    0  502 -0.62856447009E+03 -0.49979294118E+03  0.12981517763E+04  0.15264618974E+04  0.12699999809E+01 0. -1.
</event>
<event>
 5   0  0.1878000E-06  0.3367087E+04  0.7818609E-02  0.8146032E-01
        3   -1    0    0  501    0  0.00000000000E+00  0.00000000000E+00  0.21325167166E+04  0.21325167190E+04  0.10100000352E+00 0.  1.
       -3   -1    0    0    0  501  0.00000000000E+00  0.00000000000E+00 -0.13290956602E+04  0.13290956640E+04  0.10100000352E+00 0. -1.
    10030    2    1    2    0    0  0.00000000000E+00  0.00000000000E+00  0.80342105646E+03  0.34616123830E+04  0.33670870046E+04 0.  0.
        3    1    3    3  502    0 -0.16446940932E+04  0.32406755093E+03  0.24151480885E+03  0.16936256525E+04  0.10100000352E+00 0. -1.
       -3    1    3    3    0  502  0.16446940932E+04 -0.32406755093E+03  0.56190624760E+03  0.17679867305E+04  0.10100000352E+00 0.  1.
</event>
<event>
 5   0  0.1878000E-06  0.2471110E+04  0.7818609E-02  0.8413351E-01
        3   -1    0    0  501    0  0.00000000000E+00  0.00000000000E+00  0.82102790135E+03  0.82102790756E+03  0.10100000352E+00 0.  1.
       -3   -1    0    0    0  501  0.00000000000E+00  0.00000000000E+00 -0.18593714781E+04  0.18593714808E+04  0.10100000352E+00 0. -1.
    10030    2    1    2    0    0  0.00000000000E+00  0.00000000000E+00 -0.10383435768E+04  0.26803993884E+04  0.24711097705E+04 0.  0.
        2    1    3    3  502    0 -0.10702057747E+04  0.52030019337E+03 -0.15853215307E+03  0.12004937047E+04  0.25500000920E-02 0.  1.
       -2    1    3    3    0  502  0.10702057747E+04 -0.52030019337E+03 -0.87981142368E+03  0.14799056837E+04  0.25500000920E-02 0. -1.
</event>
<event>
 5   0  0.2730981E-06  0.3386425E+04  0.7818609E-02  0.8141246E-01
       -1   -1    0    0    0  501  0.00000000000E+00  0.00000000000E+00  0.13119704788E+04  0.13119704788E+04  0.50400001928E-02 0.  1.
        1   -1    0    0  501    0  0.00000000000E+00  0.00000000000E+00 -0.21852388928E+04  0.21852388928E+04  0.50400001928E-02 0. -1.
    10030    2    1    2    0    0  0.00000000000E+00  0.00000000000E+00 -0.87326841399E+03  0.34972093716E+04  0.33864252046E+04 0.  0.
        3    1    3    3  502    0  0.38432070530E+03  0.15105828638E+04 -0.11196369859E+04  0.19191534549E+04  0.10100000352E+00 0. -1.
       -3    1    3    3    0  502 -0.38432070530E+03 -0.15105828638E+04  0.24636857192E+03  0.15780559168E+04  0.10100000352E+00 0.  1.
</event>
<event>
 5   0  0.5637538E-06  0.3300871E+04  0.7818609E-02  0.8162674E-01
       -2   -1    0    0    0  501  0.00000000000E+00  0.00000000000E+00  0.11717624734E+04  0.11717624734E+04  0.25500000920E-02 0. -1.
        2   -1    0    0  501    0  0.00000000000E+00  0.00000000000E+00 -0.23246494776E+04  0.23246494776E+04  0.25500000920E-02 0.  1.
    10030    2    1    2    0    0  0.00000000000E+00  0.00000000000E+00 -0.11528870042E+04  0.34964119511E+04  0.33008708074E+04 0.  0.
        2    1    3    3  502    0  0.16309507270E+04 -0.20840388232E+03 -0.72812038601E+03  0.17982190492E+04  0.25500000920E-02 0. -1.
       -2    1    3    3    0  502 -0.16309507270E+04  0.20840388232E+03 -0.42476661820E+03  0.16981929019E+04  0.25500000920E-02 0.  1.
</event>
<event>
 5   0  0.1925906E-06  0.1986761E+04  0.7818609E-02  0.8612835E-01
       -1   -1    0    0    0  501  0.00000000000E+00  0.00000000000E+00  0.72540011397E+03  0.72540011399E+03  0.50400001928E-02 0.  1.
        1   -1    0    0  501    0  0.00000000000E+00  0.00000000000E+00 -0.13603597300E+04  0.13603597300E+04  0.50400001928E-02 0. -1.
    10030    2    1    2    0    0  0.00000000000E+00  0.00000000000E+00 -0.63495961606E+03  0.20857598440E+04  0.19867612874E+04 0.  0.
        1    1    3    3  502    0  0.18094365089E+02  0.81101813842E+03 -0.91939663382E+03  0.12261190795E+04  0.50400001928E-02 0. -1.
       -1    1    3    3    0  502 -0.18094365089E+02 -0.81101813842E+03  0.28443701776E+03  0.85964076450E+03  0.50400001928E-02 0.  1.
</event>
<event>
 5   0  0.5637538E-06  0.3254923E+04  0.7818609E-02  0.8174461E-01
        2   -1    0    0  501    0  0.00000000000E+00  0.00000000000E+00  0.20300925764E+04  0.20300925764E+04  0.25500000920E-02 0.  1.
       -2   -1    0    0    0  501  0.00000000000E+00  0.00000000000E+00 -0.13046851107E+04  0.13046851107E+04  0.25500000920E-02 0. -1.
    10030    2    1    2    0    0  0.00000000000E+00  0.00000000000E+00  0.72540746570E+03  0.33347776870E+04  0.32549233832E+04 0.  0.
        2    1    3    3  502    0 -0.48951910269E+03  0.14363774631E+04 -0.23979018930E+03  0.15363295556E+04  0.25500000920E-02 0. -1.
       -2    1    3    3    0  502  0.48951910269E+03 -0.14363774631E+04  0.96519765499E+03  0.17984481315E+04  0.25500000920E-02 0.  1.
</event>
<event>
 5   0  0.5637538E-06  0.3004594E+04  0.7818609E-02  0.8242420E-01
       -2   -1    0    0    0  501  0.00000000000E+00  0.00000000000E+00  0.15118372268E+04  0.15118372268E+04  0.25500000920E-02 0. -1.
        2   -1    0    0  501    0  0.00000000000E+00  0.00000000000E+00 -0.14928167168E+04  0.14928167168E+04  0.25500000920E-02 0.  1.
    10030    2    1    2    0    0  0.00000000000E+00  0.00000000000E+00  0.19020509948E+02  0.30046539436E+04  0.30045937398E+04 0.  0.
        2    1    3    3  502    0  0.11223839091E+04 -0.30221620529E+03  0.96127278404E+03  0.15083519614E+04  0.25500000920E-02 0. -1.
       -2    1    3    3    0  502 -0.11223839091E+04  0.30221620529E+03 -0.94225227409E+03  0.14963019823E+04  0.25500000920E-02 0.  1.
</event>
<event>
 5   0  0.2730981E-06  0.3094473E+04  0.7818609E-02  0.8217256E-01
       -1   -1    0    0    0  501  0.00000000000E+00  0.00000000000E+00  0.22856746411E+04  0.22856746411E+04  0.50400001928E-02 0. -1.
        1   -1    0    0  501    0  0.00000000000E+00  0.00000000000E+00 -0.10473670098E+04  0.10473670098E+04  0.50400001928E-02 0.  1.
    10030    2    1    2    0    0  0.00000000000E+00  0.00000000000E+00  0.12383076312E+04  0.33330416509E+04  0.30944726299E+04 0.  0.
        3    1    3    3  502    0  0.13921692600E+04  0.31417712426E+03 -0.24492986025E+02  0.14273900765E+04  0.10100000352E+00 0.  1.
       -3    1    3    3    0  502 -0.13921692600E+04 -0.31417712426E+03  0.12628006173E+04  0.19056515744E+04  0.10100000352E+00 0. -1.
</event>
<event>
 5   0  0.1925906E-06  0.2860027E+04  0.7818609E-02  0.8284871E-01
       -1   -1    0    0    0  501  0.00000000000E+00  0.00000000000E+00  0.90198093926E+03  0.90198093927E+03  0.50400001928E-02 0.  1.
        1   -1    0    0  501    0  0.00000000000E+00  0.00000000000E+00 -0.22671636157E+04  0.22671636157E+04  0.50400001928E-02 0. -1.
    10030    2    1    2    0    0  0.00000000000E+00  0.00000000000E+00 -0.13651826765E+04  0.31691445550E+04  0.28600268304E+04 0.  0.
        1    1    3    3  502    0 -0.93147408283E+03 -0.10648128397E+04 -0.91361520902E+03  0.16840911795E+04  0.50400001928E-02 0. -1.
       -1    1    3    3    0  502  0.93147408283E+03  0.10648128397E+04 -0.45156746744E+03  0.14850533755E+04  0.50400001928E-02 0.  1.
</event>
<event>
 5   0  0.3956063E-06  0.1768024E+04  0.7818609E-02  0.8723491E-01
        1   -1    0    0  501    0  0.00000000000E+00  0.00000000000E+00  0.10098141560E+04  0.10098141560E+04  0.50400001928E-02 0. -1.
       -1   -1    0    0    0  501  0.00000000000E+00  0.00000000000E+00 -0.77388191819E+03  0.77388191821E+03  0.50400001928E-02 0.  1.
    10030    2    1    2    0    0  0.00000000000E+00  0.00000000000E+00  0.23593223782E+03  0.17836960742E+04  0.17680236606E+04 0.  0.
        3    1    3    3  502    0  0.14282705437E+03 -0.16163000579E+03 -0.74692729666E+03  0.77744724768E+03  0.10100000352E+00 0.  1.
       -3    1    3    3    0  502 -0.14282705437E+03  0.16163000579E+03  0.98285953448E+03  0.10062488266E+04  0.10100000352E+00 0. -1.
</event>
<event>
 5   0  0.1878000E-06  0.3147508E+04  0.7818609E-02  0.8202819E-01
       -3   -1    0    0    0  501  0.00000000000E+00  0.00000000000E+00  0.12965123718E+04  0.12965123757E+04  0.10100000352E+00 0. -1.
        3   -1    0    0  501    0  0.00000000000E+00  0.00000000000E+00 -0.19102803337E+04  0.19102803364E+04  0.10100000352E+00 0.  1.
    10030    2    1    2    0    0  0.00000000000E+00  0.00000000000E+00 -0.61376796194E+03  0.32067927120E+04  0.31475082823E+04 0.  0.
        1    1    3    3  502    0 -0.70603985232E+03  0.58386645523E+02 -0.17386289184E+04  0.18774269065E+04  0.50400001928E-02 0.  1.
       -1    1    3    3    0  502  0.70603985232E+03 -0.58386645523E+02  0.11248609565E+04  0.13293658055E+04  0.50400001928E-02 0. -1.
</event>
<event>
 5   0  0.2097842E-06  0.3182921E+04  0.7818609E-02  0.8193342E-01
       -1   -1    0    0    0  501  0.00000000000E+00  0.00000000000E+00  0.17305026441E+04  0.17305026441E+04  0.50400001928E-02 0.  1.
        1   -1    0    0  501    0  0.00000000000E+00  0.00000000000E+00 -0.14635902401E+04  0.14635902401E+04  0.50400001928E-02 0. -1.
    10030    2    1    2    0    0  0.00000000000E+00  0.00000000000E+00  0.26691240403E+03  0.31940928842E+04  0.31829211617E+04 0.  0.
        4    1    3    3  502    0  0.63286870821E+02 -0.12913677694E+04  0.10646729544E+04  0.16748629963E+04  0.12699999809E+01 0.  1.
       -4    1    3    3    0  502 -0.63286870821E+02  0.12913677694E+04 -0.79776055032E+03  0.15192298879E+04  0.12699999809E+01 0. -1.
</event>
<event>
 5   0  0.2097842E-06  0.3128596E+04  0.7818609E-02  0.8207934E-01
        1   -1    0    0  501    0  0.00000000000E+00  0.00000000000E+00  0.92126831148E+03  0.92126831150E+03  0.50400001928E-02 0. -1.
       -1   -1    0    0    0  501  0.00000000000E+00  0.00000000000E+00 -0.26561511041E+04  0.26561511041E+04  0.50400001928E-02 0.  1.
    10030    2    1    2    0    0  0.00000000000E+00  0.00000000000E+00 -0.17348827926E+04  0.35774194156E+04  0.31285957506E+04 0.  0.
        4    1    3    3  502    0 -0.11320737051E+03  0.15431429963E+04 -0.11304865980E+04  0.19162744524E+04  0.12699999809E+01 0.  1.
       -4    1    3    3    0  502  0.11320737051E+03 -0.15431429963E+04 -0.60439619463E+03  0.16611449632E+04  0.12699999809E+01 0. -1.
</event>
<event>
 5   0  0.5622811E-06  0.3324114E+04  0.7818609E-02  0.8156786E-01
        2   -1    0    0  501    0  0.00000000000E+00  0.00000000000E+00  0.19084430077E+04  0.19084430077E+04  0.25500000920E-02 0.  1.
       -2   -1    0    0    0  501  0.00000000000E+00  0.00000000000E+00 -0.14474804376E+04  0.14474804376E+04  0.25500000920E-02 0. -1.
    10030    2    1    2    0    0  0.00000000000E+00  0.00000000000E+00  0.46096257007E+03  0.33559234453E+04  0.33241142700E+04 0.  0.
        1    1    3    3  502    0 -0.22295874917E+03 -0.19331878573E+03  0.18817832513E+04  0.19047810798E+04  0.50400001928E-02 0.  1.
       -1    1    3    3    0  502  0.22295874917E+03  0.19331878573E+03 -0.14208206813E+04  0.14511423655E+04  0.50400001928E-02 0. -1.
</event>
<event>
 5   0  0.5855568E-06  0.2155490E+04  0.7818609E-02  0.8537186E-01
        2   -1    0    0  501    0  0.00000000000E+00  0.00000000000E+00  0.25704967621E+04  0.25704967621E+04  0.25500000920E-02 0. -1.
       -2   -1    0    0    0  501  0.00000000000E+00  0.00000000000E+00 -0.45187171448E+03  0.45187171449E+03  0.25500000920E-02 0.  1.
    10030    2    1    2    0    0  0.00000000000E+00  0.00000000000E+00  0.21186250476E+04  0.30223684766E+04  0.21554904583E+04 0.  0.
        3    1    3    3  502    0  0.32424073395E+03  0.10127263389E+04  0.13053450883E+04  0.16836485681E+04  0.10100000352E+00 0. -1.
       -3    1    3    3    0  502 -0.32424073395E+03 -0.10127263389E+04  0.81327995928E+03  0.13387199085E+04  0.10100000352E+00 0.  1.
</event>
<event>
 5   0  0.1878000E-06  0.1654305E+04  0.7818609E-02  0.8787864E-01
        3   -1    0    0  501    0  0.00000000000E+00  0.00000000000E+00  0.16368736491E+04  0.16368736522E+04  0.10100000352E+00 0.  1.
       -3   -1    0    0    0  501  0.00000000000E+00  0.00000000000E+00 -0.41798062408E+03  0.41798063628E+03  0.10100000352E+00 0. -1.
    10030    2    1    2    0    0  0.00000000000E+00  0.00000000000E+00  0.12188930250E+04  0.20548542885E+04  0.16543052743E+04 0.  0.
        2    1    3    3  502    0  0.79724970810E+03  0.18204345177E+03  0.76376311030E+03  0.11189642550E+04  0.25500000920E-02 0.  1.
       -2    1    3    3    0  502 -0.79724970810E+03 -0.18204345177E+03  0.45512991468E+03  0.93589003341E+03  0.25500000920E-02 0. -1.
</event>
<event>
 5   0  0.5637538E-06  0.3396859E+04  0.7818609E-02  0.8138678E-01
        2   -1    0    0  501    0  0.00000000000E+00  0.00000000000E+00  0.23635322376E+04  0.23635322376E+04  0.25500000920E-02 0.  1.
       -2   -1    0    0    0  501  0.00000000000E+00  0.00000000000E+00 -0.12204883333E+04  0.12204883333E+04  0.25500000920E-02 0. -1.
    10030    2    1    2    0    0  0.00000000000E+00  0.00000000000E+00  0.11430439043E+04  0.35840205709E+04  0.33968594444E+04 0.  0.
        2    1    3    3  502    0 -0.72619335373E+03  0.12005439021E+04 -0.43829093305E+03  0.14699528530E+04  0.25500000920E-02 0. -1.
       -2    1    3    3    0  502  0.72619335373E+03 -0.12005439021E+04  0.15813348374E+04  0.21140677179E+04  0.25500000920E-02 0.  1.
</event>
<event>
 5   0  0.5300268E-06  0.3330490E+04  0.7818609E-02  0.8155180E-01
       -2   -1    0    0    0  501  0.00000000000E+00  0.00000000000E+00  0.16437630715E+04  0.16437630715E+04  0.25500000920E-02 0. -1.
        2   -1    0    0  501    0  0.00000000000E+00  0.00000000000E+00 -0.16870075129E+04  0.16870075129E+04  0.25500000920E-02 0.  1.
    10030    2    1    2    0    0  0.00000000000E+00  0.00000000000E+00 -0.43244441438E+02  0.33307705843E+04  0.33304898444E+04 0.  0.
        4    1    3    3  502    0  0.49515659586E+03  0.14186434059E+04  0.69628915903E+03  0.16560644231E+04  0.12699999809E+01 0. -1.
       -4    1    3    3    0  502 -0.49515659586E+03 -0.14186434059E+04 -0.73953360047E+03  0.16747061613E+04  0.12699999809E+01 0.  1.
</event>
<event>
 5   0  0.2097842E-06  0.1679535E+04  0.7818609E-02  0.8773123E-01
       -1   -1    0    0    0  501  0.00000000000E+00  0.00000000000E+00  0.57022464761E+03  0.57022464763E+03  0.50400001928E-02 0. -1.
        1   -1    0    0  501    0  0.00000000000E+00  0.00000000000E+00 -0.12367220682E+04  0.12367220683E+04  0.50400001928E-02 0.  1.
    10030    2    1    2    0    0  0.00000000000E+00  0.00000000000E+00 -0.66649742064E+03  0.18069467159E+04  0.16795349423E+04 0.  0.
        4    1    3    3  502    0  0.43331458275E+03  0.60509002086E+03  0.85249364341E+02  0.74910915625E+03  0.12699999809E+01 0. -1.
       -4    1    3    3    0  502 -0.43331458275E+03 -0.60509002086E+03 -0.75174678498E+03  0.10578375596E+04  0.12699999809E+01 0.  1.
</event>
<event>
 5   0  0.5755250E-06  0.3231130E+04  0.7818609E-02  0.8180644E-01
       -2   -1    0    0    0  501  0.00000000000E+00  0.00000000000E+00  0.12909921597E+04  0.12909921597E+04  0.25500000920E-02 0. -1.
        2   -1    0    0  501    0  0.00000000000E+00  0.00000000000E+00 -0.20217399252E+04  0.20217399252E+04  0.25500000920E-02 0.  1.
    10030    2    1    2    0    0  0.00000000000E+00  0.00000000000E+00 -0.73074776556E+03  0.33127320849E+04  0.32311300762E+04 0.  0.
        5    1    3    3  502    0  0.14948858439E+03 -0.14736931414E+04 -0.10265719090E+04  0.18022181572E+04  0.46999998093E+01 0.  1.
       -5    1    3    3    0  502 -0.14948858439E+03  0.14736931414E+04  0.29582414339E+03  0.15105139277E+04  0.46999998093E+01 0. -1.
</event>
<event>
 5   0  0.5622811E-06  0.3310419E+04  0.7818609E-02  0.8160249E-01
       -2   -1    0    0    0  501  0.00000000000E+00  0.00000000000E+00  0.11323648106E+04  0.11323648106E+04  0.25500000920E-02 0.  1.
        2   -1    0    0  501    0  0.00000000000E+00  0.00000000000E+00 -0.24194669252E+04  0.24194669252E+04  0.25500000920E-02 0. -1.
    10030    2    1    2    0    0  0.00000000000E+00  0.00000000000E+00 -0.12871021146E+04  0.35518317358E+04  0.33104194336E+04 0.  0.
        1    1    3    3  502    0  0.30735950304E+03 -0.15523212739E+04 -0.12282528162E+03  0.15872168256E+04  0.50400001928E-02 0.  1.
       -1    1    3    3    0  502 -0.30735950304E+03  0.15523212739E+04 -0.11642768330E+04  0.19646149102E+04  0.50400001928E-02 0. -1.
</event>
<event>
 5   0  0.2097842E-06  0.2421431E+04  0.7818609E-02  0.8431523E-01
        1   -1    0    0  501    0  0.00000000000E+00  0.00000000000E+00  0.16896986723E+04  0.16896986723E+04  0.50400001928E-02 0.  1.
       -1   -1    0    0    0  501  0.00000000000E+00  0.00000000000E+00 -0.86751118074E+03  0.86751118076E+03  0.50400001928E-02 0. -1.
    10030    2    1    2    0    0  0.00000000000E+00  0.00000000000E+00  0.82218749157E+03  0.25572098531E+04  0.24214313869E+04 0.  0.
        4    1    3    3  502    0  0.11101452882E+04 -0.47515055120E+03  0.50340370505E+03  0.13082841857E+04  0.12699999809E+01 0.  1.
       -4    1    3    3    0  502 -0.11101452882E+04  0.47515055120E+03  0.31878378652E+03  0.12489256674E+04  0.12699999809E+01 0. -1.
</event>
<event>
 5   0  0.1925906E-06  0.1775450E+04  0.7818609E-02  0.8719465E-01
        1   -1    0    0  501    0  0.00000000000E+00  0.00000000000E+00  0.18145244043E+04  0.18145244043E+04  0.50400001928E-02 0.  1.
       -1   -1    0    0    0  501  0.00000000000E+00  0.00000000000E+00 -0.43430410366E+03  0.43430410369E+03  0.50400001928E-02 0. -1.
    10030    2    1    2    0    0  0.00000000000E+00  0.00000000000E+00  0.13802203007E+04  0.22488285080E+04  0.17754496839E+04 0.  0.
        1    1    3    3  502    0  0.44189689055E+03 -0.11377854714E+03  0.16546072417E+04  0.17163751175E+04  0.50400001928E-02 0.  1.
       -1    1    3    3    0  502 -0.44189689055E+03  0.11377854714E+03 -0.27438694102E+03  0.53245339054E+03  0.50400001928E-02 0. -1.
</event>
<event>
 5   0  0.5300268E-06  0.3292627E+04  0.7818609E-02  0.8164774E-01
        2   -1    0    0  501    0  0.00000000000E+00  0.00000000000E+00  0.21239666031E+04  0.21239666031E+04  0.25500000920E-02 0.  1.
       -2   -1    0    0    0  501  0.00000000000E+00  0.00000000000E+00 -0.12760784971E+04  0.12760784971E+04  0.25500000920E-02 0. -1.
    10030    2    1    2    0    0  0.00000000000E+00  0.00000000000E+00  0.84788810602E+03  0.34000451002E+04  0.32926269821E+04 0.  0.
        4    1    3    3  502    0  0.81148314245E+03  0.13251369255E+04  0.98561333670E+03  0.18400891349E+04  0.12699999809E+01 0.  1.
       -4    1    3    3    0  502 -0.81148314245E+03 -0.13251369255E+04 -0.13772523068E+03  0.15599559654E+04  0.12699999809E+01 0. -1.
</event>
<event>
 5   0  0.5855568E-06  0.2314003E+04  0.7818609E-02  0.8472420E-01
       -2   -1    0    0    0  501  0.00000000000E+00  0.00000000000E+00  0.12041129784E+04  0.12041129784E+04  0.25500000920E-02 0.  1.
        2   -1    0    0  501    0  0.00000000000E+00  0.00000000000E+00 -0.11117330425E+04  0.11117330425E+04  0.25500000920E-02 0. -1.
    10030    2    1    2    0    0  0.00000000000E+00  0.00000000000E+00  0.92379935877E+02  0.23158460210E+04  0.23140027529E+04 0.  0.
        3    1    3    3  502    0  0.36390294696E+03 -0.37291654149E+02  0.11447146116E+04  0.12017435561E+04  0.10100000352E+00 0.  1.
       -3    1    3    3    0  502 -0.36390294696E+03  0.37291654149E+02 -0.10523346758E+04  0.11141024649E+04  0.10100000352E+00 0. -1.
</event>
<event>
 5   0  0.5637538E-06  0.3193004E+04  0.7818609E-02  0.8190667E-01
        2   -1    0    0  501    0  0.00000000000E+00  0.00000000000E+00  0.19395239123E+04  0.19395239123E+04  0.25500000920E-02 0. -1.
       -2   -1    0    0    0  501  0.00000000000E+00  0.00000000000E+00 -0.13141468818E+04  0.13141468818E+04  0.25500000920E-02 0.  1.
    10030    2    1    2    0    0  0.00000000000E+00  0.00000000000E+00  0.62537703045E+03  0.32536707941E+04  0.31930044169E+04 0.  0.
        2    1    3    3  502    0  0.76005246563E+03 -0.31790474509E+03 -0.10808010867E+04  0.13589974859E+04  0.25500000920E-02 0.  1.
       -2    1    3    3    0  502 -0.76005246563E+03  0.31790474509E+03  0.17061781172E+04  0.18946733083E+04  0.25500000920E-02 0. -1.
</event>
<event>
 5   0  0.5637538E-06  0.1668663E+04  0.7818609E-02  0.8779441E-01
       -2   -1    0    0    0  501  0.00000000000E+00  0.00000000000E+00  0.37227714283E+03  0.37227714284E+03  0.25500000920E-02 0. -1.
        2   -1    0    0  501    0  0.00000000000E+00  0.00000000000E+00 -0.18698681643E+04  0.18698681643E+04  0.25500000920E-02 0.  1.
    10030    2    1    2    0    0  0.00000000000E+00  0.00000000000E+00 -0.14975910215E+04  0.22421453072E+04  0.16686631508E+04 0.  0.
        2    1    3    3  502    0 -0.11449212175E+03  0.35104641102E+03 -0.17541026873E+04  0.17925451923E+04  0.25500000920E-02 0.  1.
       -2    1    3    3    0  502  0.11449212175E+03 -0.35104641102E+03  0.25651166581E+03  0.44960011492E+03  0.25500000920E-02 0. -1.
</event>
<event>
 5   0  0.5300268E-06  0.3170881E+04  0.7818609E-02  0.8196550E-01
        2   -1    0    0  501    0  0.00000000000E+00  0.00000000000E+00  0.14601698990E+04  0.14601698990E+04  0.25500000920E-02 0. -1.
       -2   -1    0    0    0  501  0.00000000000E+00  0.00000000000E+00 -0.17214586610E+04  0.17214586610E+04  0.25500000920E-02 0.  1.
    10030    2    1    2    0    0  0.00000000000E+00  0.00000000000E+00 -0.26128876205E+03  0.31816285600E+04  0.31708813407E+04 0.  0.
        4    1    3    3  502    0  0.11747090318E+04  0.10497675928E+04  0.47911559911E+02  0.15761505127E+04  0.12699999809E+01 0.  1.
       -4    1    3    3    0  502 -0.11747090318E+04 -0.10497675928E+04 -0.30920032196E+03  0.16054780473E+04  0.12699999809E+01 0. -1.
</event>
<event>
 5   0  0.5755250E-06  0.2185404E+04  0.7818609E-02  0.8524528E-01
        2   -1    0    0  501    0  0.00000000000E+00  0.00000000000E+00  0.93026520210E+03  0.93026520210E+03  0.25500000920E-02 0.  1.
       -2   -1    0    0    0  501  0.00000000000E+00  0.00000000000E+00 -0.12835018633E+04  0.12835018633E+04  0.25500000920E-02 0. -1.
    10030    2    1    2    0    0  0.00000000000E+00  0.00000000000E+00 -0.35323666116E+03  0.22137670654E+04  0.21854035053E+04 0.  0.
        5    1    3    3  502    0 -0.10338964934E+04  0.30636018000E+03 -0.35547866768E+03  0.11354231335E+04  0.46999998093E+01 0.  1.
       -5    1    3    3    0  502  0.10338964934E+04 -0.30636018000E+03  0.22420065216E+01  0.10783439319E+04  0.46999998093E+01 0. -1.
</event>
<event>
 5   0  0.5755250E-06  0.2981036E+04  0.7818609E-02  0.8249167E-01
       -2   -1    0    0    0  501  0.00000000000E+00  0.00000000000E+00  0.23448896044E+04  0.23448896044E+04  0.25500000920E-02 0. -1.
        2   -1    0    0  501    0  0.00000000000E+00  0.00000000000E+00 -0.94744070732E+03  0.94744070732E+03  0.25500000920E-02 0.  1.
    10030    2    1    2    0    0  0.00000000000E+00  0.00000000000E+00  0.13974488970E+04  0.32923303117E+04  0.29810359712E+04 0.  0.
        5    1    3    3  502    0  0.21031216365E+03 -0.35577751376E+03 -0.88288484185E+03  0.97484182278E+03  0.46999998093E+01 0.  1.
       -5    1    3    3    0  502 -0.21031216365E+03  0.35577751376E+03  0.22803337389E+04  0.23174884889E+04  0.46999998093E+01 0. -1.
</event>
<event>
 5   0  0.5855568E-06  0.3240896E+04  0.7818609E-02  0.8178099E-01
        2   -1    0    0  501    0  0.00000000000E+00  0.00000000000E+00  0.20158317278E+04  0.20158317278E+04  0.25500000920E-02 0.  1.
       -2   -1    0    0    0  501  0.00000000000E+00  0.00000000000E+00 -0.13026144383E+04  0.13026144383E+04  0.25500000920E-02 0. -1.
    10030    2    1    2    0    0  0.00000000000E+00  0.00000000000E+00  0.71321728951E+03  0.33184461660E+04  0.32408958723E+04 0.  0.
        3    1    3    3  502    0  0.15844553558E+04  0.15162500818E+03  0.45424299526E+02  0.15923417644E+04  0.10100000352E+00 0.  1.
       -3    1    3    3    0  502 -0.15844553558E+04 -0.15162500818E+03  0.66779298998E+03  0.17261044016E+04  0.10100000352E+00 0. -1.
</event>
<event>
 5   0  0.1925906E-06  0.3234140E+04  0.7818609E-02  0.8179859E-01
       -1   -1    0    0    0  501  0.00000000000E+00  0.00000000000E+00  0.23492934760E+04  0.23492934760E+04  0.50400001928E-02 0.  1.
        1   -1    0    0  501    0  0.00000000000E+00  0.00000000000E+00 -0.11130647623E+04  0.11130647623E+04  0.50400001928E-02 0. -1.
    10030    2    1    2    0    0  0.00000000000E+00  0.00000000000E+00  0.12362287137E+04  0.34623582383E+04  0.32341402470E+04 0.  0.
        1    1    3    3  502    0 -0.73331184744E+03 -0.12426196215E+04  0.13997487152E+04  0.20102602456E+04  0.50400001928E-02 0. -1.
       -1    1    3    3    0  502  0.73331184744E+03  0.12426196215E+04 -0.16352000150E+03  0.14520979926E+04  0.50400001928E-02 0.  1.
</event>
<event>
 5   0  0.1925906E-06  0.3273346E+04  0.7818609E-02  0.8169711E-01
       -1   -1    0    0    0  501  0.00000000000E+00  0.00000000000E+00  0.12195865936E+04  0.12195865936E+04  0.50400001928E-02 0. -1.
        1   -1    0    0  501    0  0.00000000000E+00  0.00000000000E+00 -0.21963987159E+04  0.21963987159E+04  0.50400001928E-02 0.  1.
    10030    2    1    2    0    0  0.00000000000E+00  0.00000000000E+00 -0.97681212238E+03  0.34159853095E+04  0.32733459506E+04 0.  0.
        1    1    3    3  502    0 -0.14883729766E+04  0.66108199075E+03 -0.65801497441E+03  0.17564928758E+04  0.50400001928E-02 0.  1.
       -1    1    3    3    0  502  0.14883729766E+04 -0.66108199075E+03 -0.31879714797E+03  0.16594924337E+04  0.50400001928E-02 0. -1.
</event>
<event>
 5   0  0.5637538E-06  0.3304686E+04  0.7818609E-02  0.8161704E-01
       -2   -1    0    0    0  501  0.00000000000E+00  0.00000000000E+00  0.18121069030E+04  0.18121069030E+04  0.25500000920E-02 0. -1.
        2   -1    0    0  501    0  0.00000000000E+00  0.00000000000E+00 -0.15066647075E+04  0.15066647075E+04  0.25500000920E-02 0.  1.
    10030    2    1    2    0    0  0.00000000000E+00  0.00000000000E+00  0.30544219556E+03  0.33187716105E+04  0.33046860770E+04 0.  0.
        2    1    3    3  502    0  0.93014178416E+03 -0.12972262723E+04  0.58148085583E+03  0.16988465869E+04  0.25500000920E-02 0. -1.
       -2    1    3    3    0  502 -0.93014178416E+03  0.12972262723E+04 -0.27603866027E+03  0.16199250236E+04  0.25500000920E-02 0.  1.
</event>
<event>
 5   0  0.5300268E-06  0.3358523E+04  0.7818609E-02  0.8148162E-01
       -2   -1    0    0    0  501  0.00000000000E+00  0.00000000000E+00  0.23202744878E+04  0.23202744878E+04  0.25500000920E-02 0. -1.
        2   -1    0    0  501    0  0.00000000000E+00  0.00000000000E+00 -0.12153385716E+04  0.12153385716E+04  0.25500000920E-02 0.  1.
    10030    2    1    2    0    0  0.00000000000E+00  0.00000000000E+00  0.11049359162E+04  0.35356130594E+04  0.33585229383E+04 0.  0.
        4    1    3    3  502    0  0.52792921470E+03  0.11333080520E+04  0.17326612380E+04  0.21366359013E+04  0.12699999809E+01 0. -1.
       -4    1    3    3    0  502 -0.52792921470E+03 -0.11333080520E+04 -0.62772532178E+03  0.13989771581E+04  0.12699999809E+01 0.  1.
</event>
<event>
 5   0  0.1999849E-06  0.1865945E+04  0.7818609E-02  0.8671996E-01
        1   -1    0    0  501    0  0.00000000000E+00  0.00000000000E+00  0.11412985278E+04  0.11412985278E+04  0.50400001928E-02 0. -1.
       -1   -1    0    0    0  501  0.00000000000E+00  0.00000000000E+00 -0.76267337075E+03  0.76267337077E+03  0.50400001928E-02 0.  1.
    10030    2    1    2    0    0  0.00000000000E+00  0.00000000000E+00  0.37862515704E+03  0.19039718986E+04  0.18659453317E+04 0.  0.
        5    1    3    3  502    0  0.26316793356E+03  0.69634794473E+03  0.76314150380E+03  0.10660979628E+04  0.46999998093E+01 0. -1.
       -5    1    3    3    0  502 -0.26316793356E+03 -0.69634794473E+03 -0.38451634676E+03  0.83787393581E+03  0.46999998093E+01 0.  1.
</event>
<event>
 5   0  0.5300268E-06  0.3313287E+04  0.7818609E-02  0.8159523E-01
        2   -1    0    0  501    0  0.00000000000E+00  0.00000000000E+00  0.13745570279E+04  0.13745570279E+04  0.25500000920E-02 0.  1.
       -2   -1    0    0    0  501  0.00000000000E+00  0.00000000000E+00 -0.19966194406E+04  0.19966194406E+04  0.25500000920E-02 0. -1.
    10030    2    1    2    0    0  0.00000000000E+00  0.00000000000E+00 -0.62206241262E+03  0.33711764685E+04  0.33132867574E+04 0.  0.
        4    1    3    3  502    0 -0.68412173581E+03  0.11014608946E+04  0.73811367103E+03  0.14919959973E+04  0.12699999809E+01 0.  1.
       -4    1    3    3    0  502  0.68412173581E+03 -0.11014608946E+04 -0.13601760836E+04  0.18791804712E+04  0.12699999809E+01 0. -1.
</event>
<event>
 5   0  0.1999849E-06  0.3175354E+04  0.7818609E-02  0.8195357E-01
       -1   -1    0    0    0  501  0.00000000000E+00  0.00000000000E+00  0.20817601064E+04  0.20817601065E+04  0.50400001928E-02 0. -1.
        1   -1    0    0  501    0  0.00000000000E+00  0.00000000000E+00 -0.12108587629E+04  0.12108587630E+04  0.50400001928E-02 0.  1.
    10030    2    1    2    0    0  0.00000000000E+00  0.00000000000E+00  0.87090134350E+03  0.32926188694E+04  0.31753535030E+04 0.  0.
        5    1    3    3  502    0 -0.14387227211E+04 -0.51123253694E+03  0.88673989556E+03  0.17656759350E+04  0.46999998093E+01 0.  1.
       -5    1    3    3    0  502  0.14387227211E+04  0.51123253694E+03 -0.15838552056E+02  0.15269429344E+04  0.46999998093E+01 0. -1.
</event>
<event>
 5   0  0.2097842E-06  0.3270966E+04  0.7818609E-02  0.8170323E-01
       -1   -1    0    0    0  501  0.00000000000E+00  0.00000000000E+00  0.10468475486E+04  0.10468475487E+04  0.50400001928E-02 0.  1.
        1   -1    0    0  501    0  0.00000000000E+00  0.00000000000E+00 -0.25551041579E+04  0.25551041579E+04  0.50400001928E-02 0. -1.
    10030    2    1    2    0    0  0.00000000000E+00  0.00000000000E+00 -0.15082566092E+04  0.36019517065E+04  0.32709659272E+04 0.  0.
        4    1    3    3  502    0  0.10517703294E+04  0.10637630473E+04 -0.26184680687E+02  0.14961617215E+04  0.12699999809E+01 0. -1.
       -4    1    3    3    0  502 -0.10517703294E+04 -0.10637630473E+04 -0.14820719285E+04  0.21057899850E+04  0.12699999809E+01 0.  1.
</event>
<event>
 5   0  0.1925906E-06  0.2078523E+04  0.7818609E-02  0.8570764E-01
       -1   -1    0    0    0  501  0.00000000000E+00  0.00000000000E+00  0.83066090419E+03  0.83066090420E+03  0.50400001928E-02 0. -1.
        1   -1    0    0  501    0  0.00000000000E+00  0.00000000000E+00 -0.13002472714E+04  0.13002472714E+04  0.50400001928E-02 0.  1.
    10030    2    1    2    0    0  0.00000000000E+00  0.00000000000E+00 -0.46958636719E+03  0.21309081756E+04  0.20785231046E+04 0.  0.
        1    1    3    3  502    0 -0.66718376328E+03 -0.62287601481E+03  0.27467791966E+03  0.95318238726E+03  0.50400001928E-02 0. -1.
       -1    1    3    3    0  502  0.66718376328E+03  0.62287601481E+03 -0.74426428685E+03  0.11777257883E+04  0.50400001928E-02 0.  1.
</event>
<event>
 5   0  0.1925906E-06  0.1891387E+04  0.7818609E-02  0.8659155E-01
       -1   -1    0    0    0  501  0.00000000000E+00  0.00000000000E+00  0.47740228681E+03  0.47740228683E+03  0.50400001928E-02 0. -1.
        1   -1    0    0  501    0  0.00000000000E+00  0.00000000000E+00 -0.18733389455E+04  0.18733389455E+04  0.50400001928E-02 0.  1.
    10030    2    1    2    0    0  0.00000000000E+00  0.00000000000E+00 -0.13959366587E+04  0.23507412323E+04  0.18913871064E+04 0.  0.
        1    1    3    3  502    0 -0.26978204365E+03  0.86598800872E+03 -0.36535652302E+03  0.97785631422E+03  0.50400001928E-02 0. -1.
       -1    1    3    3    0  502  0.26978204365E+03 -0.86598800872E+03 -0.10305801357E+04  0.13728849181E+04  0.50400001928E-02 0.  1.
</event>
<event>
 5   0  0.1925906E-06  0.3218515E+04  0.7818609E-02  0.8183945E-01
       -1   -1    0    0    0  501  0.00000000000E+00  0.00000000000E+00  0.13681460833E+04  0.13681460833E+04  0.50400001928E-02 0. -1.
        1   -1    0    0  501    0  0.00000000000E+00  0.00000000000E+00 -0.18928600008E+04  0.18928600008E+04  0.50400001928E-02 0.  1.
    10030    2    1    2    0    0  0.00000000000E+00  0.00000000000E+00 -0.52471391748E+03  0.32610060841E+04  0.32185145619E+04 0.  0.
        1    1    3    3  502    0  0.25540057679E+03  0.15502823006E+04  0.90237892909E+02  0.15737685800E+04  0.50400001928E-02 0.  1.
       -1    1    3    3    0  502 -0.25540057679E+03 -0.15502823006E+04 -0.61495181039E+03  0.16872375041E+04  0.50400001928E-02 0. -1.
</event>
<event>
 5   0  0.2037109E-06  0.3314625E+04  0.7818609E-02  0.8159184E-01
        1   -1    0    0  501    0  0.00000000000E+00  0.00000000000E+00  0.23852967318E+04  0.23852967318E+04  0.50400001928E-02 0. -1.
       -1   -1    0    0    0  501  0.00000000000E+00  0.00000000000E+00 -0.11515062289E+04  0.11515062289E+04  0.50400001928E-02 0.  1.
    10030    2    1    2    0    0  0.00000000000E+00  0.00000000000E+00  0.12337905029E+04  0.35368029607E+04  0.33146245907E+04 0.  0.
        2    1    3    3  502    0 -0.73848264928E+02  0.14351091515E+04 -0.26409414289E+03  0.14610741115E+04  0.25500000920E-02 0.  1.
       -2    1    3    3    0  502  0.73848264928E+02 -0.14351091515E+04  0.14978846458E+04  0.20757288492E+04  0.25500000920E-02 0. -1.
</event>
<event>
 5   0  0.1999849E-06  0.2924423E+04  0.7818609E-02  0.8265648E-01
       -1   -1    0    0    0  501  0.00000000000E+00  0.00000000000E+00  0.86081238452E+03  0.86081238453E+03  0.50400001928E-02 0. -1.
        1   -1    0    0  501    0  0.00000000000E+00  0.00000000000E+00 -0.24837736862E+04  0.24837736862E+04  0.50400001928E-02 0.  1.
    10030    2    1    2    0    0  0.00000000000E+00  0.00000000000E+00 -0.16229613017E+04  0.33445860707E+04  0.29244234642E+04 0.  0.
        5    1    3    3  502    0 -0.11930083479E+04 -0.11794060451E+03  0.14597446014E+03  0.12076876820E+04  0.46999998093E+01 0. -1.
       -5    1    3    3    0  502  0.11930083479E+04  0.11794060451E+03 -0.17689357618E+04  0.21368983887E+04  0.46999998093E+01 0.  1.
</event>
<event>
 5   0  0.5855568E-06  0.3235656E+04  0.7818609E-02  0.8179464E-01
       -2   -1    0    0    0  501  0.00000000000E+00  0.00000000000E+00  0.10415631943E+04  0.10415631943E+04  0.25500000920E-02 0. -1.
        2   -1    0    0  501    0  0.00000000000E+00  0.00000000000E+00 -0.25129218872E+04  0.25129218872E+04  0.25500000920E-02 0.  1.
    10030    2    1    2    0    0  0.00000000000E+00  0.00000000000E+00 -0.14713586929E+04  0.35544850816E+04  0.32356556974E+04 0.  0.
        3    1    3    3  502    0 -0.70005878378E+02 -0.67343288173E+03  0.87844175379E+03  0.11090863782E+04  0.10100000352E+00 0. -1.
       -3    1    3    3    0  502  0.70005878378E+02  0.67343288173E+03 -0.23498004467E+04  0.24453987034E+04  0.10100000352E+00 0.  1.
</event>
<event>
 5   0  0.2730981E-06  0.3307572E+04  0.7818609E-02  0.8160971E-01
       -1   -1    0    0    0  501  0.00000000000E+00  0.00000000000E+00  0.16622872413E+04  0.16622872413E+04  0.50400001928E-02 0.  1.
        1   -1    0    0  501    0  0.00000000000E+00  0.00000000000E+00 -0.16453278432E+04  0.16453278432E+04  0.50400001928E-02 0. -1.
    10030    2    1    2    0    0  0.00000000000E+00  0.00000000000E+00  0.16959398091E+02  0.33076150846E+04  0.33075716057E+04 0.  0.
        3    1    3    3  502    0  0.68212265786E+03 -0.12039577162E+04  0.91414162957E+03  0.16584512148E+04  0.10100000352E+00 0.  1.
       -3    1    3    3    0  502 -0.68212265786E+03  0.12039577162E+04 -0.89718223148E+03  0.16491638698E+04  0.10100000352E+00 0. -1.
</event>
<event>
 5   0  0.2037109E-06  0.3310732E+04  0.7818609E-02  0.8160170E-01
        1   -1    0    0  501    0  0.00000000000E+00  0.00000000000E+00  0.20864878926E+04  0.20864878926E+04  0.50400001928E-02 0. -1.
       -1   -1    0    0    0  501  0.00000000000E+00  0.00000000000E+00 -0.13133249438E+04  0.13133249438E+04  0.50400001928E-02 0.  1.
    10030    2    1    2    0    0  0.00000000000E+00  0.00000000000E+00  0.77316294887E+03  0.33998128364E+04  0.33107320002E+04 0.  0.
        2    1    3    3  502    0 -0.21522114186E+03  0.95509241623E+03 -0.98414276397E+03  0.13881853779E+04  0.25500000920E-02 0.  1.
       -2    1    3    3    0  502  0.21522114186E+03 -0.95509241623E+03  0.17573057128E+04  0.20116274585E+04  0.25500000920E-02 0. -1.
</event>
<event>
 5   0  0.5755250E-06  0.3318669E+04  0.7818609E-02  0.8158161E-01
       -2   -1    0    0    0  501  0.00000000000E+00  0.00000000000E+00  0.10998851031E+04  0.10998851031E+04  0.25500000920E-02 0.  1.
        2   -1    0    0  501    0  0.00000000000E+00  0.00000000000E+00 -0.25033445958E+04  0.25033445958E+04  0.25500000920E-02 0. -1.
    10030    2    1    2    0    0  0.00000000000E+00  0.00000000000E+00 -0.14034594927E+04  0.36032296989E+04  0.33186692688E+04 0.  0.
        5    1    3    3  502    0 -0.72907199795E+03 -0.73707924803E+03  0.70494439620E+03  0.12537146756E+04  0.46999998093E+01 0.  1.
       -5    1    3    3    0  502  0.72907199795E+03  0.73707924803E+03 -0.21084038889E+04  0.23495150233E+04  0.46999998093E+01 0. -1.
</event>
<event>
 5   0  0.5855568E-06  0.3337668E+04  0.7818609E-02  0.8153376E-01
        2   -1    0    0  501    0  0.00000000000E+00  0.00000000000E+00  0.14000998426E+04  0.14000998426E+04  0.25500000920E-02 0.  1.
       -2   -1    0    0    0  501  0.00000000000E+00  0.00000000000E+00 -0.19891488750E+04  0.19891488750E+04  0.25500000920E-02 0. -1.
    10030    2    1    2    0    0  0.00000000000E+00  0.00000000000E+00 -0.58904903238E+03  0.33892487176E+04  0.33376680643E+04 0.  0.
        3    1    3    3  502    0  0.59509428172E+03 -0.15383328122E+04 -0.55222182191E+03  0.17394119684E+04  0.10100000352E+00 0. -1.
       -3    1    3    3    0  502 -0.59509428172E+03  0.15383328122E+04 -0.36827210477E+02  0.16498367491E+04  0.10100000352E+00 0.  1.
</event>
<event>
 5   0  0.1925906E-06  0.2960294E+04  0.7818609E-02  0.8255161E-01
       -1   -1    0    0    0  501  0.00000000000E+00  0.00000000000E+00  0.18668436709E+04  0.18668436709E+04  0.50400001928E-02 0.  1.
        1   -1    0    0  501    0  0.00000000000E+00  0.00000000000E+00 -0.11735507414E+04  0.11735507414E+04  0.50400001928E-02 0. -1.
    10030    2    1    2    0    0  0.00000000000E+00  0.00000000000E+00  0.69329292950E+03  0.30403944123E+04  0.29602944273E+04 0.  0.
        1    1    3    3  502    0  0.12970520163E+04  0.71149262611E+03  0.39558105758E+03  0.15313556292E+04  0.50400001928E-02 0.  1.
       -1    1    3    3    0  502 -0.12970520163E+04 -0.71149262611E+03  0.29771187192E+03  0.15090387831E+04  0.50400001928E-02 0. -1.
</event>
<event>
 5   0  0.5300268E-06  0.3284666E+04  0.7818609E-02  0.8166808E-01
        2   -1    0    0  501    0  0.00000000000E+00  0.00000000000E+00  0.19813436050E+04  0.19813436051E+04  0.25500000920E-02 0.  1.
       -2   -1    0    0    0  501  0.00000000000E+00  0.00000000000E+00 -0.13613279662E+04  0.13613279662E+04  0.25500000920E-02 0. -1.
    10030    2    1    2    0    0  0.00000000000E+00  0.00000000000E+00  0.62001563883E+03  0.33426715713E+04  0.32846664733E+04 0.  0.
        4    1    3    3  502    0  0.57628825439E+03 -0.48451717818E+03 -0.11753537079E+04  0.13958234128E+04  0.12699999809E+01 0. -1.
       -4    1    3    3    0  502 -0.57628825439E+03  0.48451717818E+03  0.17953693467E+04  0.19468481585E+04  0.12699999809E+01 0.  1.
</event>
<event>
 5   0  0.5622811E-06  0.3054916E+04  0.7818609E-02  0.8228221E-01
       -2   -1    0    0    0  501  0.00000000000E+00  0.00000000000E+00  0.13993990046E+04  0.13993990046E+04  0.25500000920E-02 0. -1.
        2   -1    0    0  501    0  0.00000000000E+00  0.00000000000E+00 -0.16672355917E+04  0.16672355917E+04  0.25500000920E-02 0.  1.
    10030    2    1    2    0    0  0.00000000000E+00  0.00000000000E+00 -0.26783658709E+03  0.30666345963E+04  0.30549159252E+04 0.  0.
        1    1    3    3  502    0 -0.41713308846E+03 -0.13001981039E+04 -0.82109716476E+03  0.15933347661E+04  0.50400001928E-02 0.  1.
       -1    1    3    3    0  502  0.41713308846E+03  0.13001981039E+04  0.55326057768E+03  0.14732998302E+04  0.50400001928E-02 0. -1.
</event>
<event>
 5   0  0.5855568E-06  0.3407443E+04  0.7818609E-02  0.8136082E-01
        2   -1    0    0  501    0  0.00000000000E+00  0.00000000000E+00  0.91306224094E+03  0.91306224094E+03  0.25500000920E-02 0.  1.
       -2   -1    0    0    0  501  0.00000000000E+00  0.00000000000E+00 -0.31790466269E+04  0.31790466269E+04  0.25500000920E-02 0. -1.
    10030    2    1    2    0    0  0.00000000000E+00  0.00000000000E+00 -0.22659843860E+04  0.40921088678E+04  0.34074432862E+04 0.  0.
        3    1    3    3  502    0  0.19469912571E+03  0.86450962422E+03 -0.28804964094E+04  0.30137259688E+04  0.10100000352E+00 0. -1.
       -3    1    3    3    0  502 -0.19469912571E+03 -0.86450962422E+03  0.61451202344E+03  0.10783828991E+04  0.10100000352E+00 0.  1.
</event>
<event>
 5   0  0.1999849E-06  0.2265054E+04  0.7818609E-02  0.8491829E-01
       -1   -1    0    0    0  501  0.00000000000E+00  0.00000000000E+00  0.75202056199E+03  0.75202056200E+03  0.50400001928E-02 0.  1.
        1   -1    0    0  501    0  0.00000000000E+00  0.00000000000E+00 -0.17055608875E+04  0.17055608875E+04  0.50400001928E-02 0. -1.
    10030    2    1    2    0    0  0.00000000000E+00  0.00000000000E+00 -0.95354032555E+03  0.24575814495E+04  0.22650535156E+04 0.  0.
        5    1    3    3  502    0  0.10189768950E+04 -0.47146817546E+03 -0.31584382991E+03  0.11663513912E+04  0.46999998093E+01 0. -1.
       -5    1    3    3    0  502 -0.10189768950E+04  0.47146817546E+03 -0.63769649564E+03  0.12912300583E+04  0.46999998093E+01 0.  1.
</event>
<event>
 5   0  0.2037109E-06  0.3294146E+04  0.7818609E-02  0.8164386E-01
        1   -1    0    0  501    0  0.00000000000E+00  0.00000000000E+00  0.30629746698E+04  0.30629746698E+04  0.50400001928E-02 0.  1.
       -1   -1    0    0    0  501  0.00000000000E+00  0.00000000000E+00 -0.88569137619E+03  0.88569137620E+03  0.50400001928E-02 0. -1.
    10030    2    1    2    0    0  0.00000000000E+00  0.00000000000E+00  0.21772832936E+04  0.39486660460E+04  0.32941464756E+04 0.  0.
        2    1    3    3  502    0  0.87917332695E+02  0.16061313773E+04  0.66405632805E+03  0.17402178787E+04  0.25500000920E-02 0.  1.
       -2    1    3    3    0  502 -0.87917332695E+02 -0.16061313773E+04  0.15132269656E+04  0.22084481674E+04  0.25500000920E-02 0. -1.
</event>
<event>
 5   0  0.1925906E-06  0.3287853E+04  0.7818609E-02  0.8165993E-01
        1   -1    0    0  501    0  0.00000000000E+00  0.00000000000E+00  0.20029447847E+04  0.20029447847E+04  0.50400001928E-02 0.  1.
       -1   -1    0    0    0  501  0.00000000000E+00  0.00000000000E+00 -0.13492608881E+04  0.13492608881E+04  0.50400001928E-02 0. -1.
    10030    2    1    2    0    0  0.00000000000E+00  0.00000000000E+00  0.65368389659E+03  0.33522056729E+04  0.32878534390E+04 0.  0.
        1    1    3    3  502    0 -0.10129644429E+04 -0.10179522263E+04  0.11426093139E+04  0.18351783951E+04  0.50400001928E-02 0.  1.
       -1    1    3    3    0  502  0.10129644429E+04  0.10179522263E+04 -0.48892541730E+03  0.15170272777E+04  0.50400001928E-02 0. -1.
</event>
<event>
 5   0  0.5637538E-06  0.3222070E+04  0.7818609E-02  0.8183013E-01
       -2   -1    0    0    0  501  0.00000000000E+00  0.00000000000E+00  0.82190184424E+03  0.82190184424E+03  0.25500000920E-02 0. -1.
        2   -1    0    0  501    0  0.00000000000E+00  0.00000000000E+00 -0.31578400363E+04  0.31578400363E+04  0.25500000920E-02 0.  1.
    10030    2    1    2    0    0  0.00000000000E+00  0.00000000000E+00 -0.23359381920E+04  0.39797418805E+04  0.32220704832E+04 0.  0.
        2    1    3    3  502    0  0.37565024743E+03  0.38505165053E+03 -0.30436322907E+04  0.30908049765E+04  0.25500000920E-02 0.  1.
       -2    1    3    3    0  502 -0.37565024743E+03 -0.38505165053E+03  0.70769409867E+03  0.88893690398E+03  0.25500000920E-02 0. -1.
</event>
<event>
 5   0  0.5300268E-06  0.3275617E+04  0.7818609E-02  0.8169128E-01
       -2   -1    0    0    0  501  0.00000000000E+00  0.00000000000E+00  0.13987637375E+04  0.13987637376E+04  0.25500000920E-02 0.  1.
        2   -1    0    0  501    0  0.00000000000E+00  0.00000000000E+00 -0.19177051510E+04  0.19177051510E+04  0.25500000920E-02 0. -1.
    10030    2    1    2    0    0  0.00000000000E+00  0.00000000000E+00 -0.51894141343E+03  0.33164688885E+04  0.32756168424E+04 0.  0.
        4    1    3    3  502    0  0.46104450939E+03 -0.44977480647E+03 -0.17840913116E+04  0.18967980486E+04  0.12699999809E+01 0. -1.
       -4    1    3    3    0  502 -0.46104450939E+03  0.44977480647E+03  0.12651498981E+04  0.14196708400E+04  0.12699999809E+01 0.  1.
</event>
<event>
 5   0  0.2037109E-06  0.3232603E+04  0.7818609E-02  0.8180260E-01
       -1   -1    0    0    0  501  0.00000000000E+00  0.00000000000E+00  0.16704588328E+04  0.16704588328E+04  0.50400001928E-02 0. -1.
        1   -1    0    0  501    0  0.00000000000E+00  0.00000000000E+00 -0.15638997636E+04  0.15638997636E+04  0.50400001928E-02 0.  1.
    10030    2    1    2    0    0  0.00000000000E+00  0.00000000000E+00  0.10655906917E+03  0.32343585964E+04  0.32326027741E+04 0.  0.
        2    1    3    3  502    0  0.72672112004E+03 -0.13621311610E+04 -0.42542080986E+03  0.16014080528E+04  0.25500000920E-02 0. -1.
       -2    1    3    3    0  502 -0.72672112004E+03  0.13621311610E+04  0.53197987903E+03  0.16329505436E+04  0.25500000920E-02 0.  1.
</event>
<event>
 5   0  0.1999849E-06  0.3250088E+04  0.7818609E-02  0.8175713E-01
       -1   -1    0    0    0  501  0.00000000000E+00  0.00000000000E+00  0.10450358593E+04  0.10450358593E+04  0.50400001928E-02 0.  1.
        1   -1    0    0  501    0  0.00000000000E+00  0.00000000000E+00 -0.25269642669E+04  0.25269642669E+04  0.50400001928E-02 0. -1.
    10030    2    1    2    0    0  0.00000000000E+00  0.00000000000E+00 -0.14819284076E+04  0.35720001262E+04  0.32500881675E+04 0.  0.
        5    1    3    3  502    0 -0.29721647575E+02 -0.14582377036E+04 -0.15284570676E+04  0.21127100307E+04  0.46999998093E+01 0.  1.
       -5    1    3    3    0  502  0.29721647575E+02  0.14582377036E+04  0.46528660051E+02  0.14592900954E+04  0.46999998093E+01 0. -1.
</event>
<event>
 5   0  0.2037109E-06  0.3089786E+04  0.7818609E-02  0.8218547E-01
       -1   -1    0    0    0  501  0.00000000000E+00  0.00000000000E+00  0.18138783286E+04  0.18138783286E+04  0.50400001928E-02 0.  1.
        1   -1    0    0  501    0  0.00000000000E+00  0.00000000000E+00 -0.13157965432E+04  0.13157965432E+04  0.50400001928E-02 0. -1.
    10030    2    1    2    0    0  0.00000000000E+00  0.00000000000E+00  0.49808178541E+03  0.31296748718E+04  0.30897862933E+04 0.  0.
        2    1    3    3  502    0  0.10794306503E+04 -0.59213962574E+03  0.11943060971E+04  0.17152745899E+04  0.25500000920E-02 0.  1.
       -2    1    3    3    0  502 -0.10794306503E+04  0.59213962574E+03 -0.69622431165E+03  0.14144002819E+04  0.25500000920E-02 0. -1.
</event>
<event>
 5   0  0.5637538E-06  0.3182983E+04  0.7818609E-02  0.8193326E-01
       -2   -1    0    0    0  501  0.00000000000E+00  0.00000000000E+00  0.15324027741E+04  0.15324027741E+04  0.25500000920E-02 0.  1.
        2   -1    0    0  501    0  0.00000000000E+00  0.00000000000E+00 -0.16528586943E+04  0.16528586943E+04  0.25500000920E-02 0. -1.
    10030    2    1    2    0    0  0.00000000000E+00  0.00000000000E+00 -0.12045592023E+03  0.31852614685E+04  0.31829830338E+04 0.  0.
        2    1    3    3  502    0  0.15958150851E+03 -0.10403445636E+04  0.11343862363E+04  0.15474544265E+04  0.25500000920E-02 0.  1.
       -2    1    3    3    0  502 -0.15958150851E+03  0.10403445636E+04 -0.12548421566E+04  0.16378070420E+04  0.25500000920E-02 0. -1.
</event>
<event>
 5   0  0.5855568E-06  0.3173162E+04  0.7818609E-02  0.8195941E-01
       -2   -1    0    0    0  501  0.00000000000E+00  0.00000000000E+00  0.13862767942E+04  0.13862767942E+04  0.25500000920E-02 0.  1.
        2   -1    0    0  501    0  0.00000000000E+00  0.00000000000E+00 -0.18158270575E+04  0.18158270575E+04  0.25500000920E-02 0. -1.
    10030    2    1    2    0    0  0.00000000000E+00  0.00000000000E+00 -0.42955026331E+03  0.32021038518E+04  0.31731617748E+04 0.  0.
        3    1    3    3  502    0 -0.11271812524E+04 -0.58046590361E+03  0.74773824927E+03  0.14719343534E+04  0.10100000352E+00 0.  1.
       -3    1    3    3    0  502  0.11271812524E+04  0.58046590361E+03 -0.11772885126E+04  0.17301694984E+04  0.10100000352E+00 0. -1.
</event>
<event>
 5   0  0.5637538E-06  0.3287232E+04  0.7818609E-02  0.8166152E-01
        2   -1    0    0  501    0  0.00000000000E+00  0.00000000000E+00  0.19729366909E+04  0.19729366909E+04  0.25500000920E-02 0. -1.
       -2   -1    0    0    0  501  0.00000000000E+00  0.00000000000E+00 -0.13692653138E+04  0.13692653138E+04  0.25500000920E-02 0.  1.
    10030    2    1    2    0    0  0.00000000000E+00  0.00000000000E+00  0.60367137704E+03  0.33422020047E+04  0.32872321349E+04 0.  0.
        2    1    3    3  502    0  0.39728498419E+03 -0.15546414318E+04 -0.60106627362E+02  0.16057266725E+04  0.25500000920E-02 0. -1.
       -2    1    3    3    0  502 -0.39728498419E+03  0.15546414318E+04  0.66377800440E+03  0.17364753322E+04  0.25500000920E-02 0.  1.
</event>
<event>
 5   0  0.2730981E-06  0.3390768E+04  0.7818609E-02  0.8140176E-01
        1   -1    0    0  501    0  0.00000000000E+00  0.00000000000E+00  0.21733069766E+04  0.21733069766E+04  0.50400001928E-02 0. -1.
       -1   -1    0    0    0  501  0.00000000000E+00  0.00000000000E+00 -0.13225589095E+04  0.13225589095E+04  0.50400001928E-02 0.  1.
    10030    2    1    2    0    0  0.00000000000E+00  0.00000000000E+00  0.85074806707E+03  0.34958658861E+04  0.33907677626E+04 0.  0.
        3    1    3    3  502    0  0.14462166916E+04  0.74334519459E+02  0.13343227095E+04  0.19691331705E+04  0.10100000352E+00 0. -1.
       -3    1    3    3    0  502 -0.14462166916E+04 -0.74334519459E+02 -0.48357464245E+03  0.15267327156E+04  0.10100000352E+00 0.  1.
</event>
<event>
 5   0  0.1999849E-06  0.3308180E+04  0.7818609E-02  0.8160817E-01
       -1   -1    0    0    0  501  0.00000000000E+00  0.00000000000E+00  0.18768895163E+04  0.18768895163E+04  0.50400001928E-02 0. -1.
        1   -1    0    0  501    0  0.00000000000E+00  0.00000000000E+00 -0.14577379830E+04  0.14577379830E+04  0.50400001928E-02 0.  1.
    10030    2    1    2    0    0  0.00000000000E+00  0.00000000000E+00  0.41915153332E+03  0.33346274993E+04  0.33081796432E+04 0.  0.
        5    1    3    3  502    0 -0.49014371494E+03  0.88830318027E+03 -0.11072633544E+04  0.15017914726E+04  0.46999998093E+01 0.  1.
       -5    1    3    3    0  502  0.49014371494E+03 -0.88830318027E+03  0.15264148877E+04  0.18328360267E+04  0.46999998093E+01 0. -1.
</event>
<event>
 5   0  0.5755250E-06  0.3267573E+04  0.7818609E-02  0.8171196E-01
        2   -1    0    0  501    0  0.00000000000E+00  0.00000000000E+00  0.30693105341E+04  0.30693105341E+04  0.25500000920E-02 0.  1.
       -2   -1    0    0    0  501  0.00000000000E+00  0.00000000000E+00 -0.86966045599E+03  0.86966045599E+03  0.25500000920E-02 0. -1.
    10030    2    1    2    0    0  0.00000000000E+00  0.00000000000E+00  0.21996500781E+04  0.39389709901E+04  0.32675727987E+04 0.  0.
        5    1    3    3  502    0 -0.14390950023E+04  0.65916019597E+02  0.17083102503E+03  0.14507048895E+04  0.46999998093E+01 0. -1.
       -5    1    3    3    0  502  0.14390950023E+04 -0.65916019597E+02  0.20288190531E+04  0.24882661006E+04  0.46999998093E+01 0.  1.
</event>
<event>
 5   0  0.1999849E-06  0.1716857E+04  0.7818609E-02  0.8751808E-01
       -1   -1    0    0    0  501  0.00000000000E+00  0.00000000000E+00  0.58024057079E+03  0.58024057081E+03  0.50400001928E-02 0.  1.
        1   -1    0    0  501    0  0.00000000000E+00  0.00000000000E+00 -0.12699892468E+04  0.12699892468E+04  0.50400001928E-02 0. -1.
    10030    2    1    2    0    0  0.00000000000E+00  0.00000000000E+00 -0.68974867599E+03  0.18502298176E+04  0.17168567622E+04 0.  0.
        5    1    3    3  502    0  0.54878082478E+03 -0.66006002446E+03 -0.33826909651E+03  0.92265253546E+03  0.46999998093E+01 0. -1.
       -5    1    3    3    0  502 -0.54878082478E+03  0.66006002446E+03 -0.35147957948E+03  0.92757728214E+03  0.46999998093E+01 0.  1.
</event>
<event>
 5   0  0.2037109E-06  0.3246546E+04  0.7818609E-02  0.8176631E-01
        1   -1    0    0  501    0  0.00000000000E+00  0.00000000000E+00  0.23144394665E+04  0.23144394665E+04  0.50400001928E-02 0.  1.
       -1   -1    0    0    0  501  0.00000000000E+00  0.00000000000E+00 -0.11385113262E+04  0.11385113262E+04  0.50400001928E-02 0. -1.
    10030    2    1    2    0    0  0.00000000000E+00  0.00000000000E+00  0.11759281403E+04  0.34529507926E+04  0.32465461933E+04 0.  0.
        2    1    3    3  502    0  0.19262347579E+03  0.10729478005E+04 -0.69129132432E+03  0.12908154326E+04  0.25500000920E-02 0. -1.
       -2    1    3    3    0  502 -0.19262347579E+03 -0.10729478005E+04  0.18672194646E+04  0.21621353600E+04  0.25500000920E-02 0.  1.
</event>
<event>
 5   0  0.5755250E-06  0.2149263E+04  0.7818609E-02  0.8539848E-01
        2   -1    0    0  501    0  0.00000000000E+00  0.00000000000E+00  0.11329352917E+04  0.11329352917E+04  0.25500000920E-02 0.  1.
       -2   -1    0    0    0  501  0.00000000000E+00  0.00000000000E+00 -0.10193286423E+04  0.10193286423E+04  0.25500000920E-02 0. -1.
    10030    2    1    2    0    0  0.00000000000E+00  0.00000000000E+00  0.11360664938E+03  0.21522639340E+04  0.21492634950E+04 0.  0.
        5    1    3    3  502    0  0.37209620401E+03 -0.33677024046E+03 -0.89475558141E+03  0.10259041965E+04  0.46999998093E+01 0. -1.
       -5    1    3    3    0  502 -0.37209620401E+03  0.33677024046E+03  0.10083622308E+04  0.11263597376E+04  0.46999998093E+01 0.  1.
</event>
<event>
 5   0  0.1925906E-06  0.3324438E+04  0.7818609E-02  0.8156705E-01
       -1   -1    0    0    0  501  0.00000000000E+00  0.00000000000E+00  0.15229897951E+04  0.15229897951E+04  0.50400001928E-02 0. -1.
        1   -1    0    0  501    0  0.00000000000E+00  0.00000000000E+00 -0.18141760579E+04  0.18141760579E+04  0.50400001928E-02 0.  1.
    10030    2    1    2    0    0  0.00000000000E+00  0.00000000000E+00 -0.29118626287E+03  0.33371658530E+04  0.33244377706E+04 0.  0.
        1    1    3    3  502    0  0.41260532165E+02  0.45363200374E+03 -0.17503026839E+04  0.18086027512E+04  0.50400001928E-02 0.  1.
       -1    1    3    3    0  502 -0.41260532165E+02 -0.45363200374E+03  0.14591164210E+04  0.15285631019E+04  0.50400001928E-02 0. -1.
</event>
<event>
 5   0  0.5855568E-06  0.3517575E+04  0.7818609E-02  0.8109638E-01
        2   -1    0    0  501    0  0.00000000000E+00  0.00000000000E+00  0.20924938561E+04  0.20924938561E+04  0.25500000920E-02 0. -1.
       -2   -1    0    0    0  501  0.00000000000E+00  0.00000000000E+00 -0.14782997328E+04  0.14782997328E+04  0.25500000920E-02 0.  1.
    10030    2    1    2    0    0  0.00000000000E+00  0.00000000000E+00  0.61419412328E+03  0.35707935888E+04  0.35175747942E+04 0.  0.
        3    1    3    3  502    0 -0.10186730613E+04  0.94552060521E+03  0.14011923380E+04  0.19735865826E+04  0.10100000352E+00 0. -1.
       -3    1    3    3    0  502  0.10186730613E+04 -0.94552060521E+03 -0.78699821472E+03  0.15972070063E+04  0.10100000352E+00 0.  1.
</event>
<event>
 5   0  0.5300268E-06  0.2180497E+04  0.7818609E-02  0.8526590E-01
       -2   -1    0    0    0  501  0.00000000000E+00  0.00000000000E+00  0.13383155743E+04  0.13383155743E+04  0.25500000920E-02 0.  1.
        2   -1    0    0  501    0  0.00000000000E+00  0.00000000000E+00 -0.88816221539E+03  0.88816221540E+03  0.25500000920E-02 0. -1.
    10030    2    1    2    0    0  0.00000000000E+00  0.00000000000E+00  0.45015335889E+03  0.22264777897E+04  0.21804965722E+04 0.  0.
        4    1    3    3  502    0 -0.42025292053E+03 -0.59039191761E+03  0.10567865003E+04  0.12813955103E+04  0.12699999809E+01 0.  1.
       -4    1    3    3    0  502  0.42025292053E+03  0.59039191761E+03 -0.60663314146E+03  0.94508227938E+03  0.12699999809E+01 0. -1.
</event>
<event>
 5   0  0.5855568E-06  0.1682940E+04  0.7818609E-02  0.8771154E-01
        2   -1    0    0  501    0  0.00000000000E+00  0.00000000000E+00  0.90187232745E+03  0.90187232746E+03  0.25500000920E-02 0.  1.
       -2   -1    0    0    0  501  0.00000000000E+00  0.00000000000E+00 -0.78511354372E+03  0.78511354373E+03  0.25500000920E-02 0. -1.
    10030    2    1    2    0    0  0.00000000000E+00  0.00000000000E+00  0.11675878373E+03  0.16869858712E+04  0.16829404969E+04 0.  0.
        3    1    3    3  502    0 -0.68837620195E+03  0.30899847621E+03 -0.31498110908E+03  0.81765210389E+03  0.10100000352E+00 0. -1.
       -3    1    3    3    0  502  0.68837620195E+03 -0.30899847621E+03  0.43173989281E+03  0.86933376729E+03  0.10100000352E+00 0.  1.
</event>
<event>
 5   0  0.2037109E-06  0.3304705E+04  0.7818609E-02  0.8161699E-01
        1   -1    0    0  501    0  0.00000000000E+00  0.00000000000E+00  0.23255007411E+04  0.23255007411E+04  0.50400001928E-02 0.  1.
       -1   -1    0    0    0  501  0.00000000000E+00  0.00000000000E+00 -0.11740559776E+04  0.11740559776E+04  0.50400001928E-02 0. -1.
    10030    2    1    2    0    0  0.00000000000E+00  0.00000000000E+00  0.11514447635E+04  0.34995567187E+04  0.33047045533E+04 0.  0.
        2    1    3    3  502    0 -0.10720147213E+04 -0.87979594540E+03 -0.37558371613E+03  0.14367740240E+04  0.25500000920E-02 0.  1.
       -2    1    3    3    0  502  0.10720147213E+04  0.87979594540E+03  0.15270284796E+04  0.20627826947E+04  0.25500000920E-02 0. -1.
</event>
<event>
 5   0  0.5300268E-06  0.3302542E+04  0.7818609E-02  0.8162249E-01
        2   -1    0    0  501    0  0.00000000000E+00  0.00000000000E+00  0.18350392668E+04  0.18350392668E+04  0.25500000920E-02 0.  1.
       -2   -1    0    0    0  501  0.00000000000E+00  0.00000000000E+00 -0.14859062905E+04  0.14859062905E+04  0.25500000920E-02 0. -1.
    10030    2    1    2    0    0  0.00000000000E+00  0.00000000000E+00  0.34913297636E+03  0.33209455573E+04  0.33025422873E+04 0.  0.
        4    1    3    3  502    0  0.16030040244E+04  0.83965100142E+02  0.56405254094E+03  0.17014196784E+04  0.12699999809E+01 0. -1.
       -4    1    3    3    0  502 -0.16030040244E+04 -0.83965100142E+02 -0.21491956458E+03  0.16195258789E+04  0.12699999809E+01 0.  1.
</event>
<event>
 5   0  0.1999849E-06  0.3226858E+04  0.7818609E-02  0.8181760E-01
        1   -1    0    0  501    0  0.00000000000E+00  0.00000000000E+00  0.25591013750E+04  0.25591013750E+04  0.50400001928E-02 0. -1.
       -1   -1    0    0    0  501  0.00000000000E+00  0.00000000000E+00 -0.10172140017E+04  0.10172140017E+04  0.50400001928E-02 0.  1.
    10030    2    1    2    0    0  0.00000000000E+00  0.00000000000E+00  0.15418873733E+04  0.35763153768E+04  0.32268583796E+04 0.  0.
        5    1    3    3  502    0 -0.75057691452E+03 -0.51160762182E+02  0.23528008014E+04  0.24701572479E+04  0.46999998093E+01 0. -1.
       -5    1    3    3    0  502  0.75057691452E+03  0.51160762182E+02 -0.81091342810E+03  0.11061581289E+04  0.46999998093E+01 0.  1.
</event>
<event>
 5   0  0.2037109E-06  0.3290301E+04  0.7818609E-02  0.8165368E-01
        1   -1    0    0  501    0  0.00000000000E+00  0.00000000000E+00  0.20170553356E+04  0.20170553356E+04  0.50400001928E-02 0. -1.
       -1   -1    0    0    0  501  0.00000000000E+00  0.00000000000E+00 -0.13418173787E+04  0.13418173787E+04  0.50400001928E-02 0.  1.
    10030    2    1    2    0    0  0.00000000000E+00  0.00000000000E+00  0.67523795685E+03  0.33588727143E+04  0.32903008392E+04 0.  0.
        2    1    3    3  502    0 -0.35660306032E+03 -0.13737095992E+04 -0.51175236921E+03  0.15086862805E+04  0.25500000920E-02 0.  1.
       -2    1    3    3    0  502  0.35660306032E+03  0.13737095992E+04  0.11869903261E+04  0.18501864338E+04  0.25500000920E-02 0. -1.
</event>
<event>
 5   0  0.2037109E-06  0.1799861E+04  0.7818609E-02  0.8706373E-01
        1   -1    0    0  501    0  0.00000000000E+00  0.00000000000E+00  0.78469236276E+03  0.78469236278E+03  0.50400001928E-02 0.  1.
       -1   -1    0    0    0  501  0.00000000000E+00  0.00000000000E+00 -0.10320926074E+04  0.10320926074E+04  0.50400001928E-02 0. -1.
    10030    2    1    2    0    0  0.00000000000E+00  0.00000000000E+00 -0.24740024460E+03  0.18167849702E+04  0.17998613132E+04 0.  0.
        2    1    3    3  502    0  0.84588523698E+03 -0.12311812731E+03  0.16036252722E+03  0.86971032394E+03  0.25500000920E-02 0.  1.
       -2    1    3    3    0  502 -0.84588523698E+03  0.12311812731E+03 -0.40776277182E+03  0.94707464622E+03  0.25500000920E-02 0. -1.
</event>
<event>
 5   0  0.2730981E-06  0.3122144E+04  0.7818609E-02  0.8209687E-01
        1   -1    0    0  501    0  0.00000000000E+00  0.00000000000E+00  0.15713650577E+04  0.15713650577E+04  0.50400001928E-02 0.  1.
       -1   -1    0    0    0  501  0.00000000000E+00  0.00000000000E+00 -0.15508459955E+04  0.15508459955E+04  0.50400001928E-02 0. -1.
    10030    2    1    2    0    0  0.00000000000E+00  0.00000000000E+00  0.20519062142E+02  0.31222110532E+04  0.31221436272E+04 0.  0.
        3    1    3    3  502    0  0.16077405001E+03  0.94379807061E+01 -0.15425160368E+04  0.15509007397E+04  0.10100000352E+00 0. -1.
       -3    1    3    3    0  502 -0.16077405001E+03 -0.94379807061E+01  0.15630350989E+04  0.15713103135E+04  0.10100000352E+00 0.  1.
</event>
<event>
 5   0  0.1999849E-06  0.3282997E+04  0.7818609E-02  0.8167235E-01
        1   -1    0    0  501    0  0.00000000000E+00  0.00000000000E+00  0.20752617777E+04  0.20752617777E+04  0.50400001928E-02 0. -1.
       -1   -1    0    0    0  501  0.00000000000E+00  0.00000000000E+00 -0.12983985412E+04  0.12983985412E+04  0.50400001928E-02 0.  1.
    10030    2    1    2    0    0  0.00000000000E+00  0.00000000000E+00  0.77686323645E+03  0.33736603189E+04  0.32829967193E+04 0.  0.
        5    1    3    3  502    0  0.50584284428E+03 -0.11772303796E+04  0.14428010148E+04  0.19296230741E+04  0.46999998093E+01 0. -1.
       -5    1    3    3    0  502 -0.50584284428E+03  0.11772303796E+04 -0.66593777835E+03  0.14440372448E+04  0.46999998093E+01 0.  1.
</event>
<event>
 5   0  0.9506315E-06  0.1728932E+04  0.7818609E-02  0.8745033E-01
       -2   -1    0    0    0  501  0.00000000000E+00  0.00000000000E+00  0.68373474726E+03  0.68373474727E+03  0.25500000920E-02 0. -1.
        2   -1    0    0  501    0  0.00000000000E+00  0.00000000000E+00 -0.10929698263E+04  0.10929698263E+04  0.25500000920E-02 0.  1.
    10030    2    1    2    0    0  0.00000000000E+00  0.00000000000E+00 -0.40923507902E+03  0.17767045735E+04  0.17289319801E+04 0.  0.
        5    1    3    3  502    0  0.20889025885E+03 -0.10676511126E+03 -0.10596199931E+04  0.10852882332E+04  0.46999998093E+01 0.  1.
       -5    1    3    3    0  502 -0.20889025885E+03  0.10676511126E+03  0.65038491412E+03  0.69141634037E+03  0.46999998093E+01 0. -1.
</event>
<event>
 5   0  0.1925906E-06  0.2993559E+04  0.7818609E-02  0.8245573E-01
        1   -1    0    0  501    0  0.00000000000E+00  0.00000000000E+00  0.17119807240E+04  0.17119807241E+04  0.50400001928E-02 0.  1.
       -1   -1    0    0    0  501  0.00000000000E+00  0.00000000000E+00 -0.13086293041E+04  0.13086293041E+04  0.50400001928E-02 0. -1.
    10030    2    1    2    0    0  0.00000000000E+00  0.00000000000E+00  0.40335141996E+03  0.30206100281E+04  0.29935585136E+04 0.  0.
        1    1    3    3  502    0  0.17354082407E+03  0.55179671374E+02 -0.12974100068E+04  0.13101274516E+04  0.50400001928E-02 0. -1.
       -1    1    3    3    0  502 -0.17354082407E+03 -0.55179671374E+02  0.17007614268E+04  0.17104825765E+04  0.50400001928E-02 0.  1.
</event>
<event>
 5   0  0.1999849E-06  0.1866787E+04  0.7818609E-02  0.8671568E-01
       -1   -1    0    0    0  501  0.00000000000E+00  0.00000000000E+00  0.85765329451E+03  0.85765329452E+03  0.50400001928E-02 0.  1.
        1   -1    0    0  501    0  0.00000000000E+00  0.00000000000E+00 -0.10158223369E+04  0.10158223369E+04  0.50400001928E-02 0. -1.
    10030    2    1    2    0    0  0.00000000000E+00  0.00000000000E+00 -0.15816904239E+03  0.18734756314E+04  0.18667869444E+04 0.  0.
        5    1    3    3  502    0 -0.55555667101E+03 -0.55405200893E+03 -0.58644951502E+03  0.97957233882E+03  0.46999998093E+01 0. -1.
       -5    1    3    3    0  502  0.55555667101E+03  0.55405200893E+03  0.42828047263E+03  0.89390329261E+03  0.46999998093E+01 0.  1.
</event>
<event>
 5   0  0.2097842E-06  0.1976896E+04  0.7818609E-02  0.8617499E-01
       -1   -1    0    0    0  501  0.00000000000E+00  0.00000000000E+00  0.76228606681E+03  0.76228606683E+03  0.50400001928E-02 0.  1.
        1   -1    0    0  501    0  0.00000000000E+00  0.00000000000E+00 -0.12817098204E+04  0.12817098204E+04  0.50400001928E-02 0. -1.
    10030    2    1    2    0    0  0.00000000000E+00  0.00000000000E+00 -0.51942375359E+03  0.20439958872E+04  0.19768960902E+04 0.  0.
        4    1    3    3  502    0  0.74325943725E+03  0.62026583494E+03 -0.53276280974E+02  0.96953817463E+03  0.12699999809E+01 0.  1.
       -4    1    3    3    0  502 -0.74325943725E+03 -0.62026583494E+03 -0.46614747261E+03  0.10744577126E+04  0.12699999809E+01 0. -1.
</event>
<event>
 5   0  0.2037109E-06  0.2932600E+04  0.7818609E-02  0.8263244E-01
       -1   -1    0    0    0  501  0.00000000000E+00  0.00000000000E+00  0.13357708465E+04  0.13357708465E+04  0.50400001928E-02 0.  1.
        1   -1    0    0  501    0  0.00000000000E+00  0.00000000000E+00 -0.16095840339E+04  0.16095840339E+04  0.50400001928E-02 0. -1.
    10030    2    1    2    0    0  0.00000000000E+00  0.00000000000E+00 -0.27381318739E+03  0.29453548805E+04  0.29325998210E+04 0.  0.
        2    1    3    3  502    0 -0.66224475477E+03 -0.92108726471E+02 -0.14475665165E+04  0.15945221705E+04  0.25500000920E-02 0. -1.
       -2    1    3    3    0  502  0.66224475477E+03  0.92108726471E+02  0.11737533291E+04  0.13508327099E+04  0.25500000920E-02 0.  1.
</event>
<event>
 5   0  0.5637538E-06  0.3377882E+04  0.7818609E-02  0.8143356E-01
       -2   -1    0    0    0  501  0.00000000000E+00  0.00000000000E+00  0.16060245237E+04  0.16060245237E+04  0.25500000920E-02 0. -1.
        2   -1    0    0  501    0  0.00000000000E+00  0.00000000000E+00 -0.17761383015E+04  0.17761383015E+04  0.25500000920E-02 0.  1.
    10030    2    1    2    0    0  0.00000000000E+00  0.00000000000E+00 -0.17011377780E+03  0.33821628252E+04  0.33778819812E+04 0.  0.
        2    1    3    3  502    0 -0.20786640636E+03 -0.45315201748E+03  0.15306691878E+04  0.16098146963E+04  0.25500000920E-02 0. -1.
       -2    1    3    3    0  502  0.20786640636E+03  0.45315201748E+03 -0.17007829656E+04  0.17723481289E+04  0.25500000920E-02 0.  1.
</event>
<event>
 5   0  0.5855568E-06  0.3330454E+04  0.7818609E-02  0.8155189E-01
        2   -1    0    0  501    0  0.00000000000E+00  0.00000000000E+00  0.22703510529E+04  0.22703510529E+04  0.25500000920E-02 0. -1.
       -2   -1    0    0    0  501  0.00000000000E+00  0.00000000000E+00 -0.12213883428E+04  0.12213883428E+04  0.25500000920E-02 0.  1.
    10030    2    1    2    0    0  0.00000000000E+00  0.00000000000E+00  0.10489627101E+04  0.34917393956E+04  0.33304536087E+04 0.  0.
        3    1    3    3  502    0 -0.14881778508E+04  0.35134317744E+03 -0.16689677828E+03  0.15381709556E+04  0.10100000352E+00 0.  1.
       -3    1    3    3    0  502  0.14881778508E+04 -0.35134317744E+03  0.12158594884E+04  0.19535684400E+04  0.10100000352E+00 0. -1.
</event>
<event>
 5   0  0.5300268E-06  0.3310458E+04  0.7818609E-02  0.8160239E-01
        2   -1    0    0  501    0  0.00000000000E+00  0.00000000000E+00  0.18021725801E+04  0.18021725801E+04  0.25500000920E-02 0.  1.
       -2   -1    0    0    0  501  0.00000000000E+00  0.00000000000E+00 -0.15202666241E+04  0.15202666241E+04  0.25500000920E-02 0. -1.
    10030    2    1    2    0    0  0.00000000000E+00  0.00000000000E+00  0.28190595596E+03  0.33224392042E+04  0.33104578682E+04 0.  0.
        4    1    3    3  502    0 -0.14132427117E+04 -0.52134746021E+03 -0.54762276861E+03  0.16027945739E+04  0.12699999809E+01 0. -1.
       -4    1    3    3    0  502  0.14132427117E+04  0.52134746021E+03  0.82952872457E+03  0.17196446303E+04  0.12699999809E+01 0.  1.
</event>
<event>
 5   0  0.1999849E-06  0.3318494E+04  0.7818609E-02  0.8158206E-01
        1   -1    0    0  501    0  0.00000000000E+00  0.00000000000E+00  0.17100445183E+04  0.17100445183E+04  0.50400001928E-02 0. -1.
       -1   -1    0    0    0  501  0.00000000000E+00  0.00000000000E+00 -0.16099580121E+04  0.16099580121E+04  0.50400001928E-02 0.  1.
    10030    2    1    2    0    0  0.00000000000E+00  0.00000000000E+00  0.10008650621E+03  0.33200025304E+04  0.33184935578E+04 0.  0.
        5    1    3    3  502    0  0.59019386914E+03  0.14037976584E+04  0.70920635105E+03  0.16798727354E+04  0.46999998093E+01 0. -1.
       -5    1    3    3    0  502 -0.59019386914E+03 -0.14037976584E+04 -0.60911984485E+03  0.16401297949E+04  0.46999998093E+01 0.  1.
</event>
<event>
 5   0  0.5622811E-06  0.3629390E+04  0.7818609E-02  0.8083792E-01
       -2   -1    0    0    0  501  0.00000000000E+00  0.00000000000E+00  0.15610504503E+04  0.15610504503E+04  0.25500000920E-02 0.  1.
        2   -1    0    0  501    0  0.00000000000E+00  0.00000000000E+00 -0.21095528271E+04  0.21095528271E+04  0.25500000920E-02 0. -1.
    10030    2    1    2    0    0  0.00000000000E+00  0.00000000000E+00 -0.54850237676E+03  0.36706032774E+04  0.36293902467E+04 0.  0.
        1    1    3    3  502    0 -0.58655189515E+03  0.14419306562E+04  0.66903017328E+03  0.16943460437E+04  0.50400001928E-02 0.  1.
       -1    1    3    3    0  502  0.58655189515E+03 -0.14419306562E+04 -0.12175325500E+04  0.19762572336E+04  0.50400001928E-02 0. -1.
</event>
<event>
 5   0  0.5755250E-06  0.3290219E+04  0.7818609E-02  0.8165389E-01
        2   -1    0    0  501    0  0.00000000000E+00  0.00000000000E+00  0.25578311460E+04  0.25578311460E+04  0.25500000920E-02 0.  1.
       -2   -1    0    0    0  501  0.00000000000E+00  0.00000000000E+00 -0.10580781837E+04  0.10580781837E+04  0.25500000920E-02 0. -1.
    10030    2    1    2    0    0  0.00000000000E+00  0.00000000000E+00  0.14997529623E+04  0.36159093297E+04  0.32902190403E+04 0.  0.
        5    1    3    3  502    0 -0.63932439402E+03 -0.10320947976E+04  0.19699049246E+04  0.23139798732E+04  0.46999998093E+01 0.  1.
       -5    1    3    3    0  502  0.63932439402E+03  0.10320947976E+04 -0.47015196232E+03  0.13019294565E+04  0.46999998093E+01 0. -1.
</event>
<event>
 5   0  0.2097842E-06  0.3305887E+04  0.7818609E-02  0.8161399E-01
        1   -1    0    0  501    0  0.00000000000E+00  0.00000000000E+00  0.97111468881E+03  0.97111468882E+03  0.50400001928E-02 0. -1.
       -1   -1    0    0    0  501  0.00000000000E+00  0.00000000000E+00 -0.28134901952E+04  0.28134901952E+04  0.50400001928E-02 0.  1.
    10030    2    1    2    0    0  0.00000000000E+00  0.00000000000E+00 -0.18423755064E+04  0.37846048841E+04  0.33058866620E+04 0.  0.
        4    1    3    3  502    0  0.40048696919E+03 -0.96024573333E+03  0.54923682833E+03  0.11764881586E+04  0.12699999809E+01 0. -1.
       -4    1    3    3    0  502 -0.40048696919E+03  0.96024573333E+03 -0.23916123348E+04  0.26081167255E+04  0.12699999809E+01 0.  1.
</event>
<event>
 5   0  0.2037109E-06  0.3119822E+04  0.7818609E-02  0.8210319E-01
        1   -1    0    0  501    0  0.00000000000E+00  0.00000000000E+00  0.26608931681E+04  0.26608931681E+04  0.50400001928E-02 0. -1.
       -1   -1    0    0    0  501  0.00000000000E+00  0.00000000000E+00 -0.91447572894E+03  0.91447572896E+03  0.50400001928E-02 0.  1.
    10030    2    1    2    0    0  0.00000000000E+00  0.00000000000E+00  0.17464174392E+04  0.35753688971E+04  0.31198219306E+04 0.  0.
        2    1    3    3  502    0  0.10069414157E+04  0.10105023856E+04  0.15964499769E+04  0.21409574061E+04  0.25500000920E-02 0. -1.
       -2    1    3    3    0  502 -0.10069414157E+04 -0.10105023856E+04  0.14996746227E+03  0.14344114910E+04  0.25500000920E-02 0.  1.
</event>
<event>
 5   0  0.2037109E-06  0.3498251E+04  0.7818609E-02  0.8114204E-01
       -1   -1    0    0    0  501  0.00000000000E+00  0.00000000000E+00  0.14240731312E+04  0.14240731313E+04  0.50400001928E-02 0.  1.
        1   -1    0    0  501    0  0.00000000000E+00  0.00000000000E+00 -0.21483731242E+04  0.21483731242E+04  0.50400001928E-02 0. -1.
    10030    2    1    2    0    0  0.00000000000E+00  0.00000000000E+00 -0.72429999298E+03  0.35724462555E+04  0.34982512443E+04 0.  0.
        2    1    3    3  502    0  0.10636153563E+04  0.31745039464E+03  0.10183299379E+04  0.15063360321E+04  0.25500000920E-02 0.  1.
       -2    1    3    3    0  502 -0.10636153563E+04 -0.31745039464E+03 -0.17426299309E+04  0.20661102234E+04  0.25500000920E-02 0. -1.
</event>
<event>
 5   0  0.1999849E-06  0.3282490E+04  0.7818609E-02  0.8167365E-01
       -1   -1    0    0    0  501  0.00000000000E+00  0.00000000000E+00  0.11723423381E+04  0.11723423381E+04  0.50400001928E-02 0.  1.
        1   -1    0    0  501    0  0.00000000000E+00  0.00000000000E+00 -0.22976953811E+04  0.22976953811E+04  0.50400001928E-02 0. -1.
    10030    2    1    2    0    0  0.00000000000E+00  0.00000000000E+00 -0.11253530430E+04  0.34700377192E+04  0.32824902591E+04 0.  0.
        5    1    3    3  502    0 -0.26984471181E+03  0.30107831143E+03 -0.22442200108E+04  0.22803530132E+04  0.46999998093E+01 0. -1.
       -5    1    3    3    0  502  0.26984471181E+03 -0.30107831143E+03  0.11188669677E+04  0.11896847060E+04  0.46999998093E+01 0.  1.
</event>
<event>
 5   0  0.2037109E-06  0.3395810E+04  0.7818609E-02  0.8138935E-01
       -1   -1    0    0    0  501  0.00000000000E+00  0.00000000000E+00  0.10474371141E+04  0.10474371141E+04  0.50400001928E-02 0.  1.
        1   -1    0    0  501    0  0.00000000000E+00  0.00000000000E+00 -0.27523199217E+04  0.27523199217E+04  0.50400001928E-02 0. -1.
    10030    2    1    2    0    0  0.00000000000E+00  0.00000000000E+00 -0.17048828076E+04  0.37997570358E+04  0.33958103809E+04 0.  0.
        2    1    3    3  502    0  0.14277001559E+04  0.66186064887E+03 -0.15658525393E+04  0.22199732945E+04  0.25500000920E-02 0. -1.
       -2    1    3    3    0  502 -0.14277001559E+04 -0.66186064887E+03 -0.13903026839E+03  0.15797837413E+04  0.25500000920E-02 0.  1.
</event>
<event>
 5   0  0.5637538E-06  0.3350825E+04  0.7818609E-02  0.8150082E-01
       -2   -1    0    0    0  501  0.00000000000E+00  0.00000000000E+00  0.16431872343E+04  0.16431872343E+04  0.25500000920E-02 0. -1.
        2   -1    0    0  501    0  0.00000000000E+00  0.00000000000E+00 -0.17082694796E+04  0.17082694796E+04  0.25500000920E-02 0.  1.
    10030    2    1    2    0    0  0.00000000000E+00  0.00000000000E+00 -0.65082245204E+02  0.33514567139E+04  0.33508247353E+04 0.  0.
        2    1    3    3  502    0 -0.15582361048E+04 -0.48600989763E+03 -0.41037052286E+03  0.16830654607E+04  0.25500000920E-02 0.  1.
       -2    1    3    3    0  502  0.15582361048E+04  0.48600989763E+03  0.34528827766E+03  0.16683912532E+04  0.25500000920E-02 0. -1.
</event>
<event>
 5   0  0.5637538E-06  0.3198494E+04  0.7818609E-02  0.8189215E-01
        2   -1    0    0  501    0  0.00000000000E+00  0.00000000000E+00  0.15043640333E+04  0.15043640333E+04  0.25500000920E-02 0. -1.
       -2   -1    0    0    0  501  0.00000000000E+00  0.00000000000E+00 -0.17001146781E+04  0.17001146781E+04  0.25500000920E-02 0.  1.
    10030    2    1    2    0    0  0.00000000000E+00  0.00000000000E+00 -0.19575064483E+03  0.32044787115E+04  0.31984942547E+04 0.  0.
        2    1    3    3  502    0  0.26239141977E+03  0.30579234687E+03  0.14526744563E+04  0.15075215728E+04  0.25500000920E-02 0. -1.
       -2    1    3    3    0  502 -0.26239141977E+03 -0.30579234687E+03 -0.16484251011E+04  0.16969571387E+04  0.25500000920E-02 0.  1.
</event>
<event>
 5   0  0.5855568E-06  0.2928259E+04  0.7818609E-02  0.8264519E-01
       -2   -1    0    0    0  501  0.00000000000E+00  0.00000000000E+00  0.19435190834E+04  0.19435190834E+04  0.25500000920E-02 0. -1.
        2   -1    0    0  501    0  0.00000000000E+00  0.00000000000E+00 -0.11029866436E+04  0.11029866436E+04  0.25500000920E-02 0.  1.
    10030    2    1    2    0    0  0.00000000000E+00  0.00000000000E+00  0.84053243971E+03  0.30465057270E+04  0.29282592717E+04 0.  0.
        3    1    3    3  502    0 -0.10936072928E+03 -0.41947080453E+02 -0.10981044770E+04  0.11043336358E+04  0.10100000352E+00 0.  1.
       -3    1    3    3    0  502  0.10936072928E+03  0.41947080453E+02  0.19386369167E+04  0.19421720912E+04  0.10100000352E+00 0. -1.
</event>
<event>
 5   0  0.2474096E-06  0.1710591E+04  0.7818609E-02  0.8755347E-01
       -1   -1    0    0    0  501  0.00000000000E+00  0.00000000000E+00  0.76688411267E+03  0.76688411269E+03  0.50400001928E-02 0.  1.
        1   -1    0    0  501    0  0.00000000000E+00  0.00000000000E+00 -0.95389982833E+03  0.95389982834E+03  0.50400001928E-02 0. -1.
    10030    2    1    2    0    0  0.00000000000E+00  0.00000000000E+00 -0.18701571566E+03  0.17207839410E+04  0.17105912702E+04 0.  0.
        1    1    3    3  502    0 -0.60270454960E+02  0.48896002342E+03  0.60981200775E+03  0.78395479275E+03  0.50400001928E-02 0.  1.
       -1    1    3    3    0  502  0.60270454960E+02 -0.48896002342E+03 -0.79682772341E+03  0.93682914828E+03  0.50400001928E-02 0. -1.
</event>
<event>
 5   0  0.2037109E-06  0.3201181E+04  0.7818609E-02  0.8188505E-01
       -1   -1    0    0    0  501  0.00000000000E+00  0.00000000000E+00  0.13226802414E+04  0.13226802414E+04  0.50400001928E-02 0.  1.
        1   -1    0    0  501    0  0.00000000000E+00  0.00000000000E+00 -0.19368934334E+04  0.19368934334E+04  0.50400001928E-02 0. -1.
    10030    2    1    2    0    0  0.00000000000E+00  0.00000000000E+00 -0.61421319203E+03  0.32595736748E+04  0.32011814532E+04 0.  0.
        2    1    3    3  502    0  0.87731374751E+03 -0.10759014369E+04  0.50407249679E+03  0.14769334432E+04  0.25500000920E-02 0.  1.
       -2    1    3    3    0  502 -0.87731374751E+03  0.10759014369E+04 -0.11182856888E+04  0.17826402316E+04  0.25500000920E-02 0. -1.
</event>
<event>
 5   0  0.2037109E-06  0.2275043E+04  0.7818609E-02  0.8487827E-01
       -1   -1    0    0    0  501  0.00000000000E+00  0.00000000000E+00  0.12498265016E+04  0.12498265016E+04  0.50400001928E-02 0. -1.
        1   -1    0    0  501    0  0.00000000000E+00  0.00000000000E+00 -0.10353080323E+04  0.10353080323E+04  0.50400001928E-02 0.  1.
    10030    2    1    2    0    0  0.00000000000E+00  0.00000000000E+00  0.21451846927E+03  0.22851345339E+04  0.22750432226E+04 0.  0.
        2    1    3    3  502    0  0.10488082581E+04  0.41173726150E+03 -0.49732103168E+02  0.11278296045E+04  0.25500000920E-02 0.  1.
       -2    1    3    3    0  502 -0.10488082581E+04 -0.41173726150E+03  0.26425057243E+03  0.11573049295E+04  0.25500000920E-02 0. -1.
</event>
<event>
 5   0  0.5855568E-06  0.3180964E+04  0.7818609E-02  0.8193863E-01
        2   -1    0    0  501    0  0.00000000000E+00  0.00000000000E+00  0.16200367819E+04  0.16200367819E+04  0.25500000920E-02 0. -1.
       -2   -1    0    0    0  501  0.00000000000E+00  0.00000000000E+00 -0.15614661861E+04  0.15614661861E+04  0.25500000920E-02 0.  1.
    10030    2    1    2    0    0  0.00000000000E+00  0.00000000000E+00  0.58570595804E+02  0.31815029680E+04  0.31809637880E+04 0.  0.
        3    1    3    3  502    0 -0.61555194139E+03 -0.63626260410E+03  0.13508337336E+04  0.16150808277E+04  0.10100000352E+00 0. -1.
       -3    1    3    3    0  502  0.61555194139E+03  0.63626260410E+03 -0.12922631378E+04  0.15664221403E+04  0.10100000352E+00 0.  1.
</event>
<event>
 5   0  0.5637538E-06  0.2874561E+04  0.7818609E-02  0.8280487E-01
       -2   -1    0    0    0  501  0.00000000000E+00  0.00000000000E+00  0.13841861119E+04  0.13841861119E+04  0.25500000920E-02 0. -1.
        2   -1    0    0  501    0  0.00000000000E+00  0.00000000000E+00 -0.14924115782E+04  0.14924115782E+04  0.25500000920E-02 0.  1.
    10030    2    1    2    0    0  0.00000000000E+00  0.00000000000E+00 -0.10822546623E+03  0.28765976901E+04  0.28745611003E+04 0.  0.
        2    1    3    3  502    0  0.81558492301E+03  0.99040617958E+03  0.59418281399E+03  0.14139081949E+04  0.25500000920E-02 0. -1.
       -2    1    3    3    0  502 -0.81558492301E+03 -0.99040617958E+03 -0.70240828022E+03  0.14626894952E+04  0.25500000920E-02 0.  1.
</event>
<event>
 5   0  0.5637538E-06  0.3390514E+04  0.7818609E-02  0.8140239E-01
       -2   -1    0    0    0  501  0.00000000000E+00  0.00000000000E+00  0.12021699086E+04  0.12021699086E+04  0.25500000920E-02 0.  1.
        2   -1    0    0  501    0  0.00000000000E+00  0.00000000000E+00 -0.23905900945E+04  0.23905900945E+04  0.25500000920E-02 0. -1.
    10030    2    1    2    0    0  0.00000000000E+00  0.00000000000E+00 -0.11884201859E+04  0.35927600031E+04  0.33905135159E+04 0.  0.
        2    1    3    3  502    0  0.10762497523E+04  0.54040258990E+03 -0.18585057045E+04  0.22145861785E+04  0.25500000920E-02 0. -1.
       -2    1    3    3    0  502 -0.10762497523E+04 -0.54040258990E+03  0.67008551862E+03  0.13781738246E+04  0.25500000920E-02 0.  1.
</event>
<event>
 5   0  0.2097842E-06  0.3088428E+04  0.7818609E-02  0.8218921E-01
        1   -1    0    0  501    0  0.00000000000E+00  0.00000000000E+00  0.15941235904E+04  0.15941235904E+04  0.50400001928E-02 0.  1.
       -1   -1    0    0    0  501  0.00000000000E+00  0.00000000000E+00 -0.14958667470E+04  0.14958667470E+04  0.50400001928E-02 0. -1.
    10030    2    1    2    0    0  0.00000000000E+00  0.00000000000E+00  0.98256843418E+02  0.30899903374E+04  0.30884277356E+04 0.  0.
        4    1    3    3  502    0 -0.10490332650E+04  0.52578319803E+03  0.10534670236E+04  0.15769315601E+04  0.12699999809E+01 0.  1.
       -4    1    3    3    0  502  0.10490332650E+04 -0.52578319803E+03 -0.95521018018E+03  0.15130587773E+04  0.12699999809E+01 0. -1.
</event>
<event>
 5   0  0.1878000E-06  0.2951773E+04  0.7818609E-02  0.8257638E-01
       -3   -1    0    0    0  501  0.00000000000E+00  0.00000000000E+00  0.13881682551E+04  0.13881682588E+04  0.10100000352E+00 0.  1.
        3   -1    0    0  501    0  0.00000000000E+00  0.00000000000E+00 -0.15691473961E+04  0.15691473993E+04  0.10100000352E+00 0. -1.
    10030    2    1    2    0    0  0.00000000000E+00  0.00000000000E+00 -0.18097914100E+03  0.29573156581E+04  0.29517727643E+04 0.  0.
        1    1    3    3  502    0  0.13871682382E+04 -0.32407989885E+03  0.29621075322E+03  0.14549928908E+04  0.50400001928E-02 0.  1.
       -1    1    3    3    0  502 -0.13871682382E+04  0.32407989885E+03 -0.47718989422E+03  0.15023227673E+04  0.50400001928E-02 0. -1.
</event>
<event>
 5   0  0.5622811E-06  0.3137151E+04  0.7818609E-02  0.8205615E-01
       -2   -1    0    0    0  501  0.00000000000E+00  0.00000000000E+00  0.90089406525E+03  0.90089406525E+03  0.25500000920E-02 0. -1.
        2   -1    0    0  501    0  0.00000000000E+00  0.00000000000E+00 -0.27310971272E+04  0.27310971272E+04  0.25500000920E-02 0.  1.
    10030    2    1    2    0    0  0.00000000000E+00  0.00000000000E+00 -0.18302030620E+04  0.36319911925E+04  0.31371510601E+04 0.  0.
        1    1    3    3  502    0 -0.24474458195E+03  0.44186816001E+02  0.87792274861E+03  0.91246958177E+03  0.50400001928E-02 0. -1.
       -1    1    3    3    0  502  0.24474458195E+03 -0.44186816001E+02 -0.27081258106E+04  0.27195216107E+04  0.50400001928E-02 0.  1.
</event>
<event>
 5   0  0.5855568E-06  0.1858213E+04  0.7818609E-02  0.8675941E-01
       -2   -1    0    0    0  501  0.00000000000E+00  0.00000000000E+00  0.82044045977E+03  0.82044045977E+03  0.25500000920E-02 0. -1.
        2   -1    0    0  501    0  0.00000000000E+00  0.00000000000E+00 -0.10521649315E+04  0.10521649315E+04  0.25500000920E-02 0.  1.
    10030    2    1    2    0    0  0.00000000000E+00  0.00000000000E+00 -0.23172447177E+03  0.18726053913E+04  0.18582127760E+04 0.  0.
        3    1    3    3  502    0 -0.49585661017E+03  0.29266658802E+03  0.61897087291E+03  0.84537119735E+03  0.10100000352E+00 0. -1.
       -3    1    3    3    0  502  0.49585661017E+03 -0.29266658802E+03 -0.85069534468E+03  0.10272341940E+04  0.10100000352E+00 0.  1.
</event>
<event>
 5   0  0.2037109E-06  0.3234399E+04  0.7818609E-02  0.8179791E-01
       -1   -1    0    0    0  501  0.00000000000E+00  0.00000000000E+00  0.29162701437E+04  0.29162701437E+04  0.50400001928E-02 0. -1.
        1   -1    0    0  501    0  0.00000000000E+00  0.00000000000E+00 -0.89680816841E+03  0.89680816843E+03  0.50400001928E-02 0.  1.
    10030    2    1    2    0    0  0.00000000000E+00  0.00000000000E+00  0.20194619753E+04  0.38130783122E+04  0.32343994102E+04 0.  0.
        2    1    3    3  502    0 -0.99261039894E+03 -0.46854988991E+03  0.24098719912E+04  0.26480742847E+04  0.25500000920E-02 0. -1.
       -2    1    3    3    0  502  0.99261039894E+03  0.46854988991E+03 -0.39041001589E+03  0.11650040274E+04  0.25500000920E-02 0.  1.
</event>
<event>
 5   0  0.5855568E-06  0.3314342E+04  0.7818609E-02  0.8159256E-01
       -2   -1    0    0    0  501  0.00000000000E+00  0.00000000000E+00  0.12886457430E+04  0.12886457430E+04  0.25500000920E-02 0.  1.
        2   -1    0    0  501    0  0.00000000000E+00  0.00000000000E+00 -0.21310868463E+04  0.21310868463E+04  0.25500000920E-02 0. -1.
    10030    2    1    2    0    0  0.00000000000E+00  0.00000000000E+00 -0.84244110327E+03  0.34197325894E+04  0.33143421625E+04 0.  0.
        3    1    3    3  502    0  0.15979577981E+04  0.88231241434E+01  0.31677798748E+02  0.15982961131E+04  0.10100000352E+00 0.  1.
       -3    1    3    3    0  502 -0.15979577981E+04 -0.88231241434E+01 -0.87411890202E+03  0.18214364763E+04  0.10100000352E+00 0. -1.
</event>
<event>
 5   0  0.5637538E-06  0.3290263E+04  0.7818609E-02  0.8165377E-01
       -2   -1    0    0    0  501  0.00000000000E+00  0.00000000000E+00  0.23464147197E+04  0.23464147197E+04  0.25500000920E-02 0.  1.
        2   -1    0    0  501    0  0.00000000000E+00  0.00000000000E+00 -0.11534439264E+04  0.11534439264E+04  0.25500000920E-02 0. -1.
    10030    2    1    2    0    0  0.00000000000E+00  0.00000000000E+00  0.11929707933E+04  0.34998586461E+04  0.32902630942E+04 0.  0.
        2    1    3    3  502    0  0.10438597667E+04 -0.83302879758E+03  0.16183466561E+04  0.20982435724E+04  0.25500000920E-02 0.  1.
       -2    1    3    3    0  502 -0.10438597667E+04  0.83302879758E+03 -0.42537586277E+03  0.14016150737E+04  0.25500000920E-02 0. -1.
</event>
<event>
 5   0  0.5855568E-06  0.3516119E+04  0.7818609E-02  0.8109981E-01
        2   -1    0    0  501    0  0.00000000000E+00  0.00000000000E+00  0.18769572662E+04  0.18769572662E+04  0.25500000920E-02 0. -1.
       -2   -1    0    0    0  501  0.00000000000E+00  0.00000000000E+00 -0.16466932227E+04  0.16466932227E+04  0.25500000920E-02 0.  1.
    10030    2    1    2    0    0  0.00000000000E+00  0.00000000000E+00  0.23026404353E+03  0.35236504889E+04  0.35161187747E+04 0.  0.
        3    1    3    3  502    0  0.12785617878E+04 -0.15993591323E+03  0.13137178220E+04  0.18401506101E+04  0.10100000352E+00 0. -1.
       -3    1    3    3    0  502 -0.12785617878E+04  0.15993591323E+03 -0.10834537785E+04  0.16834998788E+04  0.10100000352E+00 0.  1.
</event>
<event>
 5   0  0.1999849E-06  0.3336445E+04  0.7818609E-02  0.8153683E-01
        1   -1    0    0  501    0  0.00000000000E+00  0.00000000000E+00  0.16315438122E+04  0.16315438122E+04  0.50400001928E-02 0.  1.
       -1   -1    0    0    0  501  0.00000000000E+00  0.00000000000E+00 -0.17057261457E+04  0.17057261458E+04  0.50400001928E-02 0. -1.
    10030    2    1    2    0    0  0.00000000000E+00  0.00000000000E+00 -0.74182333562E+02  0.33372699579E+04  0.33364453770E+04 0.  0.
        5    1    3    3  502    0  0.16166453888E+04 -0.38923000700E+03  0.96742262893E+02  0.16656600695E+04  0.46999998093E+01 0.  1.
       -5    1    3    3    0  502 -0.16166453888E+04  0.38923000700E+03 -0.17092459645E+03  0.16716098885E+04  0.46999998093E+01 0. -1.
</event>
<event>
 5   0  0.1999849E-06  0.2004903E+04  0.7818609E-02  0.8604332E-01
        1   -1    0    0  501    0  0.00000000000E+00  0.00000000000E+00  0.86297142516E+03  0.86297142518E+03  0.50400001928E-02 0. -1.
       -1   -1    0    0    0  501  0.00000000000E+00  0.00000000000E+00 -0.11644755418E+04  0.11644755418E+04  0.50400001928E-02 0.  1.
    10030    2    1    2    0    0  0.00000000000E+00  0.00000000000E+00 -0.30150411665E+03  0.20274469670E+04  0.20049031078E+04 0.  0.
        5    1    3    3  502    0 -0.23047645523E+02 -0.29237668422E+03 -0.11201086189E+04  0.11578776825E+04  0.46999998093E+01 0.  1.
       -5    1    3    3    0  502  0.23047645523E+02  0.29237668422E+03  0.81860450227E+03  0.86956928451E+03  0.46999998093E+01 0. -1.
</event>
<event>
 5   0  0.5622811E-06  0.3297797E+04  0.7818609E-02  0.8163456E-01
        2   -1    0    0  501    0  0.00000000000E+00  0.00000000000E+00  0.18456573054E+04  0.18456573054E+04  0.25500000920E-02 0. -1.
       -2   -1    0    0    0  501  0.00000000000E+00  0.00000000000E+00 -0.14731151227E+04  0.14731151228E+04  0.25500000920E-02 0.  1.
    10030    2    1    2    0    0  0.00000000000E+00  0.00000000000E+00  0.37254218264E+03  0.33187724281E+04  0.32977966511E+04 0.  0.
        1    1    3    3  502    0  0.13233979412E+04 -0.98278468049E+03  0.22674942014E+03  0.16639300282E+04  0.50400001928E-02 0.  1.
       -1    1    3    3    0  502 -0.13233979412E+04  0.98278468049E+03  0.14579276250E+03  0.16548424000E+04  0.50400001928E-02 0. -1.
</event>
<event>
 5   0  0.2037109E-06  0.3218254E+04  0.7818609E-02  0.8184013E-01
        1   -1    0    0  501    0  0.00000000000E+00  0.00000000000E+00  0.17408203871E+04  0.17408203871E+04  0.50400001928E-02 0.  1.
       -1   -1    0    0    0  501  0.00000000000E+00  0.00000000000E+00 -0.14873962524E+04  0.14873962525E+04  0.50400001928E-02 0. -1.
    10030    2    1    2    0    0  0.00000000000E+00  0.00000000000E+00  0.25342413467E+03  0.32282166396E+04  0.32182540111E+04 0.  0.
        2    1    3    3  502    0  0.37006236289E+03  0.82532222134E+03  0.14616913801E+04  0.17189079708E+04  0.25500000920E-02 0.  1.
       -2    1    3    3    0  502 -0.37006236289E+03 -0.82532222134E+03 -0.12082672454E+04  0.15093086688E+04  0.25500000920E-02 0. -1.
</event>
<event>
 5   0  0.5637538E-06  0.3303320E+04  0.7818609E-02  0.8162051E-01
       -2   -1    0    0    0  501  0.00000000000E+00  0.00000000000E+00  0.20672257196E+04  0.20672257196E+04  0.25500000920E-02 0. -1.
        2   -1    0    0  501    0  0.00000000000E+00  0.00000000000E+00 -0.13196336685E+04  0.13196336685E+04  0.25500000920E-02 0.  1.
    10030    2    1    2    0    0  0.00000000000E+00  0.00000000000E+00  0.74759205108E+03  0.33868593880E+04  0.33033199421E+04 0.  0.
        2    1    3    3  502    0  0.80099344456E+03 -0.25080781803E+03  0.18322629561E+04  0.20153616549E+04  0.25500000920E-02 0. -1.
       -2    1    3    3    0  502 -0.80099344456E+03  0.25080781803E+03 -0.10846709050E+04  0.13714977331E+04  0.25500000920E-02 0.  1.
</event>
<event>
 5   0  0.1925906E-06  0.3445756E+04  0.7818609E-02  0.8126767E-01
        1   -1    0    0  501    0  0.00000000000E+00  0.00000000000E+00  0.31207701271E+04  0.31207701271E+04  0.50400001928E-02 0. -1.
       -1   -1    0    0    0  501  0.00000000000E+00  0.00000000000E+00 -0.95114620678E+03  0.95114620679E+03  0.50400001928E-02 0.  1.
    10030    2    1    2    0    0  0.00000000000E+00  0.00000000000E+00  0.21696239204E+04  0.40719163339E+04  0.34457560382E+04 0.  0.
        1    1    3    3  502    0 -0.11890430963E+04 -0.13632046958E+02 -0.38845569042E+03  0.12509624859E+04  0.50400001928E-02 0.  1.
       -1    1    3    3    0  502  0.11890430963E+04  0.13632046958E+02  0.25580796108E+04  0.28209538480E+04  0.50400001928E-02 0. -1.
</event>
<event>
 5   0  0.5300268E-06  0.3208305E+04  0.7818609E-02  0.8186627E-01
        2   -1    0    0  501    0  0.00000000000E+00  0.00000000000E+00  0.16238029518E+04  0.16238029518E+04  0.25500000920E-02 0.  1.
       -2   -1    0    0    0  501  0.00000000000E+00  0.00000000000E+00 -0.15847393785E+04  0.15847393785E+04  0.25500000920E-02 0. -1.
    10030    2    1    2    0    0  0.00000000000E+00  0.00000000000E+00  0.39063573214E+02  0.32085423303E+04  0.32083045246E+04 0.  0.
        4    1    3    3  502    0 -0.15097351191E+04 -0.44977346972E+03  0.32238514952E+03  0.16079583643E+04  0.12699999809E+01 0. -1.
       -4    1    3    3    0  502  0.15097351191E+04  0.44977346972E+03 -0.28332157630E+03  0.16005839660E+04  0.12699999809E+01 0.  1.
</event>
<event>
 5   0  0.2097842E-06  0.3170128E+04  0.7818609E-02  0.8196751E-01
        1   -1    0    0  501    0  0.00000000000E+00  0.00000000000E+00  0.16420113215E+04  0.16420113215E+04  0.50400001928E-02 0.  1.
       -1   -1    0    0    0  501  0.00000000000E+00  0.00000000000E+00 -0.15300918646E+04  0.15300918646E+04  0.50400001928E-02 0. -1.
    10030    2    1    2    0    0  0.00000000000E+00  0.00000000000E+00  0.11191945698E+03  0.31721031861E+04  0.31701281770E+04 0.  0.
        4    1    3    3  502    0 -0.80735121519E+03  0.48626752905E+03  0.13311768880E+04  0.16310443325E+04  0.12699999809E+01 0.  1.
       -4    1    3    3    0  502  0.80735121519E+03 -0.48626752905E+03 -0.12192574310E+04  0.15410588537E+04  0.12699999809E+01 0. -1.
</event>
<event>
 5   0  0.5755250E-06  0.3370527E+04  0.7818609E-02  0.8145178E-01
        2   -1    0    0  501    0  0.00000000000E+00  0.00000000000E+00  0.23270648840E+04  0.23270648840E+04  0.25500000920E-02 0.  1.
       -2   -1    0    0    0  501  0.00000000000E+00  0.00000000000E+00 -0.12204704283E+04  0.12204704283E+04  0.25500000920E-02 0. -1.
    10030    2    1    2    0    0  0.00000000000E+00  0.00000000000E+00  0.11065944557E+04  0.35475353123E+04  0.33705274814E+04 0.  0.
        5    1    3    3  502    0  0.79832832415E+03  0.12270648879E+04  0.14320541183E+04  0.20478812075E+04  0.46999998093E+01 0.  1.
       -5    1    3    3    0  502 -0.79832832415E+03 -0.12270648879E+04 -0.32545966262E+03  0.14996541049E+04  0.46999998093E+01 0. -1.
</event>
<event>
 5   0  0.2097842E-06  0.2340233E+04  0.7818609E-02  0.8462224E-01
        1   -1    0    0  501    0  0.00000000000E+00  0.00000000000E+00  0.20460927261E+04  0.20460927261E+04  0.50400001928E-02 0. -1.
       -1   -1    0    0    0  501  0.00000000000E+00  0.00000000000E+00 -0.66916470368E+03  0.66916470370E+03  0.50400001928E-02 0.  1.
    10030    2    1    2    0    0  0.00000000000E+00  0.00000000000E+00  0.13769280224E+04  0.27152574298E+04  0.23402333497E+04 0.  0.
        4    1    3    3  502    0  0.10556582800E+03 -0.85604897919E+03  0.16058749389E+04  0.18228548848E+04  0.12699999809E+01 0. -1.
       -4    1    3    3    0  502 -0.10556582800E+03  0.85604897919E+03 -0.22894691649E+03  0.89240254498E+03  0.12699999809E+01 0.  1.
</event>
<event>
 5   0  0.1999849E-06  0.2946278E+04  0.7818609E-02  0.8259240E-01
       -1   -1    0    0    0  501  0.00000000000E+00  0.00000000000E+00  0.25166857637E+04  0.25166857637E+04  0.50400001928E-02 0.  1.
        1   -1    0    0  501    0  0.00000000000E+00  0.00000000000E+00 -0.86230019424E+03  0.86230019426E+03  0.50400001928E-02 0. -1.
    10030    2    1    2    0    0  0.00000000000E+00  0.00000000000E+00  0.16543855694E+04  0.33789859579E+04  0.29462780744E+04 0.  0.
        5    1    3    3  502    0 -0.50951610764E+03 -0.89839324395E+03  0.20318931287E+04  0.22793264051E+04  0.46999998093E+01 0.  1.
       -5    1    3    3    0  502  0.50951610764E+03  0.89839324395E+03 -0.37750755927E+03  0.10996595528E+04  0.46999998093E+01 0. -1.
</event>
<event>
 5   0  0.5622811E-06  0.3222579E+04  0.7818609E-02  0.8182879E-01
        2   -1    0    0  501    0  0.00000000000E+00  0.00000000000E+00  0.19502720586E+04  0.19502720586E+04  0.25500000920E-02 0. -1.
       -2   -1    0    0    0  501  0.00000000000E+00  0.00000000000E+00 -0.13312265759E+04  0.13312265759E+04  0.25500000920E-02 0.  1.
    10030    2    1    2    0    0  0.00000000000E+00  0.00000000000E+00  0.61904548274E+03  0.32814986346E+04  0.32225790881E+04 0.  0.
        1    1    3    3  502    0  0.28905469012E+03 -0.94277561886E+03 -0.98808972690E+03  0.13959583768E+04  0.50400001928E-02 0.  1.
       -1    1    3    3    0  502 -0.28905469012E+03  0.94277561886E+03  0.16071352096E+04  0.18855402577E+04  0.50400001928E-02 0. -1.
</event>
<event>
 5   0  0.1999849E-06  0.3370250E+04  0.7818609E-02  0.8145247E-01
        1   -1    0    0  501    0  0.00000000000E+00  0.00000000000E+00  0.15386331872E+04  0.15386331873E+04  0.50400001928E-02 0. -1.
       -1   -1    0    0    0  501  0.00000000000E+00  0.00000000000E+00 -0.18455646459E+04  0.18455646459E+04  0.50400001928E-02 0.  1.
    10030    2    1    2    0    0  0.00000000000E+00  0.00000000000E+00 -0.30693145869E+03  0.33841978332E+04  0.33702504438E+04 0.  0.
        5    1    3    3  502    0  0.55997273791E+03  0.28433949042E+03 -0.17236525950E+04  0.18345077735E+04  0.46999998093E+01 0.  1.
       -5    1    3    3    0  502 -0.55997273791E+03 -0.28433949042E+03  0.14167211363E+04  0.15496900597E+04  0.46999998093E+01 0. -1.
</event>
<event>
 5   0  0.5622811E-06  0.3317836E+04  0.7818609E-02  0.8158372E-01
        2   -1    0    0  501    0  0.00000000000E+00  0.00000000000E+00  0.18449946804E+04  0.18449946804E+04  0.25500000920E-02 0. -1.
       -2   -1    0    0    0  501  0.00000000000E+00  0.00000000000E+00 -0.14916081339E+04  0.14916081339E+04  0.25500000920E-02 0.  1.
    10030    2    1    2    0    0  0.00000000000E+00  0.00000000000E+00  0.35338654642E+03  0.33366028143E+04  0.33178360853E+04 0.  0.
        1    1    3    3  502    0  0.87481799309E+03  0.92607112786E+03  0.12452923446E+04  0.17814789582E+04  0.50400001928E-02 0. -1.
       -1    1    3    3    0  502 -0.87481799309E+03 -0.92607112786E+03 -0.89190579821E+03  0.15551238561E+04  0.50400001928E-02 0.  1.
</event>
<event>
 5   0  0.2730981E-06  0.3318754E+04  0.7818609E-02  0.8158140E-01
        1   -1    0    0  501    0  0.00000000000E+00  0.00000000000E+00  0.20420084673E+04  0.20420084674E+04  0.50400001928E-02 0. -1.
       -1   -1    0    0    0  501  0.00000000000E+00  0.00000000000E+00 -0.13484431114E+04  0.13484431114E+04  0.50400001928E-02 0.  1.
    10030    2    1    2    0    0  0.00000000000E+00  0.00000000000E+00  0.69356535596E+03  0.33904515787E+04  0.33187541344E+04 0.  0.
        3    1    3    3  502    0 -0.17349836598E+03 -0.96151598725E+03 -0.10234303673E+04  0.14149291161E+04  0.10100000352E+00 0.  1.
       -3    1    3    3    0  502  0.17349836598E+03  0.96151598725E+03  0.17169957232E+04  0.19755224627E+04  0.10100000352E+00 0. -1.
</event>
<event>
 5   0  0.1999849E-06  0.1720332E+04  0.7818609E-02  0.8749852E-01
       -1   -1    0    0    0  501  0.00000000000E+00  0.00000000000E+00  0.32531300434E+03  0.32531300438E+03  0.50400001928E-02 0. -1.
        1   -1    0    0  501    0  0.00000000000E+00  0.00000000000E+00 -0.22743813154E+04  0.22743813154E+04  0.50400001928E-02 0.  1.
    10030    2    1    2    0    0  0.00000000000E+00  0.00000000000E+00 -0.19490683110E+04  0.25996943198E+04  0.17203323153E+04 0.  0.
        5    1    3    3  502    0  0.45029065703E+00 -0.38041976500E+03 -0.21403262006E+04  0.21738762005E+04  0.46999998093E+01 0.  1.
       -5    1    3    3    0  502 -0.45029065703E+00  0.38041976500E+03  0.19125788953E+03  0.42581811924E+03  0.46999998093E+01 0. -1.
</event>
<event>
 5   0  0.5300268E-06  0.1951968E+04  0.7818609E-02  0.8629412E-01
       -2   -1    0    0    0  501  0.00000000000E+00  0.00000000000E+00  0.37162452979E+03  0.37162452979E+03  0.25500000920E-02 0. -1.
        2   -1    0    0  501    0  0.00000000000E+00  0.00000000000E+00 -0.25631906107E+04  0.25631906107E+04  0.25500000920E-02 0.  1.
    10030    2    1    2    0    0  0.00000000000E+00  0.00000000000E+00 -0.21915660809E+04  0.29348151405E+04  0.19519677307E+04 0.  0.
        4    1    3    3  502    0  0.43252730107E+03  0.75649447574E+03 -0.17566107193E+04  0.19608790351E+04  0.12699999809E+01 0.  1.
       -4    1    3    3    0  502 -0.43252730107E+03 -0.75649447574E+03 -0.43495536159E+03  0.97393610544E+03  0.12699999809E+01 0. -1.
</event>
<event>
 5   0  0.5637538E-06  0.2171435E+04  0.7818609E-02  0.8530412E-01
        2   -1    0    0  501    0  0.00000000000E+00  0.00000000000E+00  0.20379429195E+04  0.20379429195E+04  0.25500000920E-02 0.  1.
       -2   -1    0    0    0  501  0.00000000000E+00  0.00000000000E+00 -0.57841786389E+03  0.57841786390E+03  0.25500000920E-02 0. -1.
    10030    2    1    2    0    0  0.00000000000E+00  0.00000000000E+00  0.14595250556E+04  0.26163607834E+04  0.21714350925E+04 0.  0.
        2    1    3    3  502    0 -0.19838329077E+03 -0.87129180835E+03  0.14727832877E+04  0.17226711694E+04  0.25500000920E-02 0.  1.
       -2    1    3    3    0  502  0.19838329077E+03  0.87129180835E+03 -0.13258232130E+02  0.89368961395E+03  0.25500000920E-02 0. -1.
</event>
<event>
 5   0  0.2097842E-06  0.3229854E+04  0.7818609E-02  0.8180977E-01
       -1   -1    0    0    0  501  0.00000000000E+00  0.00000000000E+00  0.31438910849E+04  0.31438910849E+04  0.50400001928E-02 0.  1.
        1   -1    0    0  501    0  0.00000000000E+00  0.00000000000E+00 -0.82954167158E+03  0.82954167160E+03  0.50400001928E-02 0. -1.
    10030    2    1    2    0    0  0.00000000000E+00  0.00000000000E+00  0.23143494133E+04  0.39734327565E+04  0.32298536598E+04 0.  0.
        4    1    3    3  502    0 -0.11028478095E+03  0.29582742568E+03  0.31055547221E+04  0.31215618436E+04  0.12699999809E+01 0.  1.
       -4    1    3    3    0  502  0.11028478095E+03 -0.29582742568E+03 -0.79120530878E+03  0.85187091289E+03  0.12699999809E+01 0. -1.
</event>
<event>
 5   0  0.5755250E-06  0.3561525E+04  0.7818609E-02  0.8099362E-01
       -2   -1    0    0    0  501  0.00000000000E+00  0.00000000000E+00  0.24440623062E+04  0.24440623062E+04  0.25500000920E-02 0. -1.
        2   -1    0    0  501    0  0.00000000000E+00  0.00000000000E+00 -0.12974768656E+04  0.12974768656E+04  0.25500000920E-02 0.  1.
    10030    2    1    2    0    0  0.00000000000E+00  0.00000000000E+00  0.11465854406E+04  0.37415391719E+04  0.35615245615E+04 0.  0.
        5    1    3    3  502    0 -0.13984819212E+04  0.85475146355E+03  0.13047163537E+04  0.20949125523E+04  0.46999998093E+01 0. -1.
       -5    1    3    3    0  502  0.13984819212E+04 -0.85475146355E+03 -0.15813091305E+03  0.16466266195E+04  0.46999998093E+01 0.  1.
</event>
<event>
 5   0  0.1925906E-06  0.3245716E+04  0.7818609E-02  0.8176847E-01
        1   -1    0    0  501    0  0.00000000000E+00  0.00000000000E+00  0.23083011228E+04  0.23083011228E+04  0.50400001928E-02 0. -1.
       -1   -1    0    0    0  501  0.00000000000E+00  0.00000000000E+00 -0.11409550961E+04  0.11409550961E+04  0.50400001928E-02 0.  1.
    10030    2    1    2    0    0  0.00000000000E+00  0.00000000000E+00  0.11673460268E+04  0.34492562189E+04  0.32457159021E+04 0.  0.
        1    1    3    3  502    0 -0.33307572894E+03 -0.15870126626E+04  0.65187962984E+03  0.17477115563E+04  0.50400001928E-02 0.  1.
       -1    1    3    3    0  502  0.33307572894E+03  0.15870126626E+04  0.51546639695E+03  0.17015446626E+04  0.50400001928E-02 0. -1.
</event>
<event>
 5   0  0.5300268E-06  0.2817173E+04  0.7818609E-02  0.8297956E-01
       -2   -1    0    0    0  501  0.00000000000E+00  0.00000000000E+00  0.90450164376E+03  0.90450164377E+03  0.25500000920E-02 0.  1.
        2   -1    0    0  501    0  0.00000000000E+00  0.00000000000E+00 -0.21936017800E+04  0.21936017800E+04  0.25500000920E-02 0. -1.
    10030    2    1    2    0    0  0.00000000000E+00  0.00000000000E+00 -0.12891001362E+04  0.30981034238E+04  0.28171733463E+04 0.  0.
        4    1    3    3  502    0  0.54970010646E+03 -0.27861295446E+03 -0.20374751570E+04  0.21286385353E+04  0.12699999809E+01 0. -1.
       -4    1    3    3    0  502 -0.54970010646E+03  0.27861295446E+03  0.74837502077E+03  0.96946488851E+03  0.12699999809E+01 0.  1.
</event>
<event>
 5   0  0.2037109E-06  0.3279353E+04  0.7818609E-02  0.8168169E-01
       -1   -1    0    0    0  501  0.00000000000E+00  0.00000000000E+00  0.17688210722E+04  0.17688210722E+04  0.50400001928E-02 0. -1.
        1   -1    0    0  501    0  0.00000000000E+00  0.00000000000E+00 -0.15199610215E+04  0.15199610215E+04  0.50400001928E-02 0.  1.
    10030    2    1    2    0    0  0.00000000000E+00  0.00000000000E+00  0.24886005070E+03  0.32887820937E+04  0.32793530361E+04 0.  0.
        2    1    3    3  502    0  0.84634190388E+03  0.69634291181E+03  0.13475066426E+04  0.17369404771E+04  0.25500000920E-02 0. -1.
       -2    1    3    3    0  502 -0.84634190388E+03 -0.69634291181E+03 -0.10986465919E+04  0.15518416166E+04  0.25500000920E-02 0.  1.
</event>
<event>
 5   0  0.2037109E-06  0.3261263E+04  0.7818609E-02  0.8172823E-01
       -1   -1    0    0    0  501  0.00000000000E+00  0.00000000000E+00  0.16156501087E+04  0.16156501087E+04  0.50400001928E-02 0.  1.
        1   -1    0    0  501    0  0.00000000000E+00  0.00000000000E+00 -0.16457517886E+04  0.16457517886E+04  0.50400001928E-02 0. -1.
    10030    2    1    2    0    0  0.00000000000E+00  0.00000000000E+00 -0.30101679883E+02  0.32614018974E+04  0.32612629801E+04 0.  0.
        2    1    3    3  502    0  0.11091227175E+04  0.11418490798E+04 -0.36860024381E+03  0.16339640948E+04  0.25500000920E-02 0. -1.
       -2    1    3    3    0  502 -0.11091227175E+04 -0.11418490798E+04  0.33849856392E+03  0.16274378026E+04  0.25500000920E-02 0.  1.
</event>
<event>
 5   0  0.5637538E-06  0.3261233E+04  0.7818609E-02  0.8172830E-01
        2   -1    0    0  501    0  0.00000000000E+00  0.00000000000E+00  0.23492931002E+04  0.23492931002E+04  0.25500000920E-02 0. -1.
       -2   -1    0    0    0  501  0.00000000000E+00  0.00000000000E+00 -0.11317917245E+04  0.11317917245E+04  0.25500000920E-02 0.  1.
    10030    2    1    2    0    0  0.00000000000E+00  0.00000000000E+00  0.12175013757E+04  0.34810848247E+04  0.32612331957E+04 0.  0.
        2    1    3    3  502    0  0.32634229139E+03  0.77766663255E+02  0.23120577837E+04  0.23362701343E+04  0.25500000920E-02 0. -1.
       -2    1    3    3    0  502 -0.32634229139E+03 -0.77766663255E+02 -0.10945564080E+04  0.11448146904E+04  0.25500000920E-02 0.  1.
</event>
<event>
 5   0  0.1999849E-06  0.3189459E+04  0.7818609E-02  0.8191607E-01
        1   -1    0    0  501    0  0.00000000000E+00  0.00000000000E+00  0.22743014425E+04  0.22743014425E+04  0.50400001928E-02 0.  1.
       -1   -1    0    0    0  501  0.00000000000E+00  0.00000000000E+00 -0.11182169785E+04  0.11182169785E+04  0.50400001928E-02 0. -1.
    10030    2    1    2    0    0  0.00000000000E+00  0.00000000000E+00  0.11560844640E+04  0.33925184210E+04  0.31894591938E+04 0.  0.
        5    1    3    3  502    0  0.80188213947E+02 -0.15614772373E+04  0.24421538329E+03  0.15824994646E+04  0.46999998093E+01 0.  1.
       -5    1    3    3    0  502 -0.80188213947E+02  0.15614772373E+04  0.91186908072E+03  0.18100189564E+04  0.46999998093E+01 0. -1.
</event>
<event>
 5   0  0.2097842E-06  0.3407944E+04  0.7818609E-02  0.8135959E-01
       -1   -1    0    0    0  501  0.00000000000E+00  0.00000000000E+00  0.17556642073E+04  0.17556642073E+04  0.50400001928E-02 0. -1.
        1   -1    0    0  501    0  0.00000000000E+00  0.00000000000E+00 -0.16538016619E+04  0.16538016619E+04  0.50400001928E-02 0.  1.
    10030    2    1    2    0    0  0.00000000000E+00  0.00000000000E+00  0.10186254540E+03  0.34094658692E+04  0.34079438868E+04 0.  0.
        4    1    3    3  502    0 -0.53989430401E+03  0.15199261720E+04  0.60059209662E+03  0.17211548179E+04  0.12699999809E+01 0. -1.
       -4    1    3    3    0  502  0.53989430401E+03 -0.15199261720E+04 -0.49872955122E+03  0.16883110513E+04  0.12699999809E+01 0.  1.
</event>
<event>
 5   0  0.1999849E-06  0.2384902E+04  0.7818609E-02  0.8445178E-01
       -1   -1    0    0    0  501  0.00000000000E+00  0.00000000000E+00  0.14594724822E+04  0.14594724823E+04  0.50400001928E-02 0. -1.
        1   -1    0    0  501    0  0.00000000000E+00  0.00000000000E+00 -0.97428336396E+03  0.97428336397E+03  0.50400001928E-02 0.  1.
    10030    2    1    2    0    0  0.00000000000E+00  0.00000000000E+00  0.48518911828E+03  0.24337558462E+04  0.23849023122E+04 0.  0.
        5    1    3    3  502    0  0.54678631499E+03  0.10577065822E+04  0.30872306716E+03  0.12300611816E+04  0.46999998093E+01 0.  1.
       -5    1    3    3    0  502 -0.54678631499E+03 -0.10577065822E+04  0.17646605112E+03  0.12036946646E+04  0.46999998093E+01 0. -1.
</event>
<event>
 5   0  0.5637538E-06  0.3287726E+04  0.7818609E-02  0.8166025E-01
        2   -1    0    0  501    0  0.00000000000E+00  0.00000000000E+00  0.15158046129E+04  0.15158046129E+04  0.25500000920E-02 0.  1.
       -2   -1    0    0    0  501  0.00000000000E+00  0.00000000000E+00 -0.17827402296E+04  0.17827402296E+04  0.25500000920E-02 0. -1.
    10030    2    1    2    0    0  0.00000000000E+00  0.00000000000E+00 -0.26693561671E+03  0.32985448425E+04  0.32877261831E+04 0.  0.
        2    1    3    3  502    0 -0.16207174301E+04 -0.17743573518E+03  0.77169312629E+02  0.16322265564E+04  0.25500000920E-02 0. -1.
       -2    1    3    3    0  502  0.16207174301E+04  0.17743573518E+03 -0.34410492934E+03  0.16663182862E+04  0.25500000920E-02 0.  1.
</event>
<event>
 5   0  0.5637538E-06  0.3441749E+04  0.7818609E-02  0.8127735E-01
        2   -1    0    0  501    0  0.00000000000E+00  0.00000000000E+00  0.22439941598E+04  0.22439941598E+04  0.25500000920E-02 0.  1.
       -2   -1    0    0    0  501  0.00000000000E+00  0.00000000000E+00 -0.13197044852E+04  0.13197044852E+04  0.25500000920E-02 0. -1.
    10030    2    1    2    0    0  0.00000000000E+00  0.00000000000E+00  0.92428967465E+03  0.35636986450E+04  0.34417490655E+04 0.  0.
        2    1    3    3  502    0  0.10136339668E+03 -0.13601013660E+04  0.15487367870E+04  0.20636704920E+04  0.25500000920E-02 0.  1.
       -2    1    3    3    0  502 -0.10136339668E+03  0.13601013660E+04 -0.62444711235E+03  0.15000281531E+04  0.25500000920E-02 0. -1.
</event>
<event>
 5   0  0.1925906E-06  0.2788936E+04  0.7818609E-02  0.8306712E-01
        1   -1    0    0  501    0  0.00000000000E+00  0.00000000000E+00  0.17752712517E+04  0.17752712517E+04  0.50400001928E-02 0.  1.
       -1   -1    0    0    0  501  0.00000000000E+00  0.00000000000E+00 -0.10953485319E+04  0.10953485319E+04  0.50400001928E-02 0. -1.
    10030    2    1    2    0    0  0.00000000000E+00  0.00000000000E+00  0.67992271975E+03  0.28706197836E+04  0.27889358252E+04 0.  0.
        1    1    3    3  502    0 -0.65370679530E+03  0.15721425569E+01  0.16077865817E+04  0.17356015493E+04  0.50400001928E-02 0.  1.
       -1    1    3    3    0  502  0.65370679530E+03 -0.15721425569E+01 -0.92786386190E+03  0.11350182343E+04  0.50400001928E-02 0. -1.
</event>
<event>
 5   0  0.5855568E-06  0.3142224E+04  0.7818609E-02  0.8204244E-01
        2   -1    0    0  501    0  0.00000000000E+00  0.00000000000E+00  0.24579324702E+04  0.24579324702E+04  0.25500000920E-02 0. -1.
       -2   -1    0    0    0  501  0.00000000000E+00  0.00000000000E+00 -0.10042560773E+04  0.10042560773E+04  0.25500000920E-02 0.  1.
    10030    2    1    2    0    0  0.00000000000E+00  0.00000000000E+00  0.14536763929E+04  0.34621885474E+04  0.31422244482E+04 0.  0.
        3    1    3    3  502    0 -0.39027431547E+02 -0.20845038048E+03  0.24420895005E+04  0.24512804492E+04  0.10100000352E+00 0. -1.
       -3    1    3    3    0  502  0.39027431547E+02  0.20845038048E+03 -0.98841310769E+03  0.10109080983E+04  0.10100000352E+00 0.  1.
</event>
<event>
 5   0  0.5855568E-06  0.2199300E+04  0.7818609E-02  0.8518720E-01
        2   -1    0    0  501    0  0.00000000000E+00  0.00000000000E+00  0.75876517795E+03  0.75876517795E+03  0.25500000920E-02 0.  1.
       -2   -1    0    0    0  501  0.00000000000E+00  0.00000000000E+00 -0.15936815709E+04  0.15936815709E+04  0.25500000920E-02 0. -1.
    10030    2    1    2    0    0  0.00000000000E+00  0.00000000000E+00 -0.83491639300E+03  0.23524467489E+04  0.21992999621E+04 0.  0.
        3    1    3    3  502    0 -0.10646052068E+04 -0.45708908163E+00 -0.71203637627E+03  0.12807733080E+04  0.10100000352E+00 0. -1.
       -3    1    3    3    0  502  0.10646052068E+04  0.45708908163E+00 -0.12288001673E+03  0.10716734409E+04  0.10100000352E+00 0.  1.
</event>
<event>
 5   0  0.5300268E-06  0.3422393E+04  0.7818609E-02  0.8132432E-01
       -2   -1    0    0    0  501  0.00000000000E+00  0.00000000000E+00  0.17722765010E+04  0.17722765010E+04  0.25500000920E-02 0.  1.
        2   -1    0    0  501    0  0.00000000000E+00  0.00000000000E+00 -0.16522218854E+04  0.16522218854E+04  0.25500000920E-02 0. -1.
    10030    2    1    2    0    0  0.00000000000E+00  0.00000000000E+00  0.12005461556E+03  0.34244983864E+04  0.34223933274E+04 0.  0.
        4    1    3    3  502    0  0.95808985446E+03  0.84722770825E+03  0.11975913207E+04  0.17521294311E+04  0.12699999809E+01 0.  1.
       -4    1    3    3    0  502 -0.95808985446E+03 -0.84722770825E+03 -0.10775367052E+04  0.16723689553E+04  0.12699999809E+01 0. -1.
</event>
<event>
 5   0  0.2097842E-06  0.3565036E+04  0.7818609E-02  0.8098548E-01
       -1   -1    0    0    0  501  0.00000000000E+00  0.00000000000E+00  0.12695125332E+04  0.12695125332E+04  0.50400001928E-02 0. -1.
        1   -1    0    0  501    0  0.00000000000E+00  0.00000000000E+00 -0.25028272650E+04  0.25028272650E+04  0.50400001928E-02 0.  1.
    10030    2    1    2    0    0  0.00000000000E+00  0.00000000000E+00 -0.12333147318E+04  0.37723397982E+04  0.35650360904E+04 0.  0.
        4    1    3    3  502    0 -0.89620942095E+03 -0.14874828085E+04 -0.19132283120E+03  0.17471126096E+04  0.12699999809E+01 0. -1.
       -4    1    3    3    0  502  0.89620942095E+03  0.14874828085E+04 -0.10419919006E+04  0.20252271887E+04  0.12699999809E+01 0.  1.
</event>
<event>
 5   0  0.2097842E-06  0.3307824E+04  0.7818609E-02  0.8160907E-01
        1   -1    0    0  501    0  0.00000000000E+00  0.00000000000E+00  0.19578327981E+04  0.19578327982E+04  0.50400001928E-02 0.  1.
       -1   -1    0    0    0  501  0.00000000000E+00  0.00000000000E+00 -0.13971698692E+04  0.13971698692E+04  0.50400001928E-02 0. -1.
    10030    2    1    2    0    0  0.00000000000E+00  0.00000000000E+00  0.56066292892E+03  0.33550026674E+04  0.33078240549E+04 0.  0.
        4    1    3    3  502    0 -0.92091866783E+03 -0.10595665486E+04 -0.60658369031E+03  0.15292867128E+04  0.12699999809E+01 0. -1.
       -4    1    3    3    0  502  0.92091866783E+03  0.10595665486E+04  0.11672466192E+04  0.18257159546E+04  0.12699999809E+01 0.  1.
</event>
<event>
 5   0  0.5755250E-06  0.3433582E+04  0.7818609E-02  0.8129713E-01
       -2   -1    0    0    0  501  0.00000000000E+00  0.00000000000E+00  0.12970356478E+04  0.12970356478E+04  0.25500000920E-02 0.  1.
        2   -1    0    0  501    0  0.00000000000E+00  0.00000000000E+00 -0.22723904375E+04  0.22723904375E+04  0.25500000920E-02 0. -1.
    10030    2    1    2    0    0  0.00000000000E+00  0.00000000000E+00 -0.97535478976E+03  0.35694260853E+04  0.34335820381E+04 0.  0.
        5    1    3    3  502    0 -0.66423566519E+03  0.95390153065E+03 -0.18010751594E+04  0.21436023346E+04  0.46999998093E+01 0. -1.
       -5    1    3    3    0  502  0.66423566519E+03 -0.95390153065E+03  0.82572036969E+03  0.14258237507E+04  0.46999998093E+01 0.  1.
</event>
<event>
 5   0  0.2097842E-06  0.3375606E+04  0.7818609E-02  0.8143919E-01
        1   -1    0    0  501    0  0.00000000000E+00  0.00000000000E+00  0.19881484321E+04  0.19881484321E+04  0.50400001928E-02 0.  1.
       -1   -1    0    0    0  501  0.00000000000E+00  0.00000000000E+00 -0.14328303757E+04  0.14328303757E+04  0.50400001928E-02 0. -1.
    10030    2    1    2    0    0  0.00000000000E+00  0.00000000000E+00  0.55531805645E+03  0.34209788078E+04  0.33756062951E+04 0.  0.
        4    1    3    3  502    0 -0.82609873881E+03 -0.10016857183E+04  0.13705155345E+04  0.18878897870E+04  0.12699999809E+01 0.  1.
       -4    1    3    3    0  502  0.82609873881E+03  0.10016857183E+04 -0.81519747809E+03  0.15330890208E+04  0.12699999809E+01 0. -1.
</event>
<event>
 5   0  0.5855568E-06  0.3332005E+04  0.7818609E-02  0.8154799E-01
        2   -1    0    0  501    0  0.00000000000E+00  0.00000000000E+00  0.24486810037E+04  0.24486810037E+04  0.25500000920E-02 0. -1.
       -2   -1    0    0    0  501  0.00000000000E+00  0.00000000000E+00 -0.11334938487E+04  0.11334938487E+04  0.25500000920E-02 0.  1.
    10030    2    1    2    0    0  0.00000000000E+00  0.00000000000E+00  0.13151871550E+04  0.35821748524E+04  0.33320053152E+04 0.  0.
        3    1    3    3  502    0  0.68327216780E+03  0.68795843681E+03 -0.79889972296E+03  0.12563393027E+04  0.10100000352E+00 0.  1.
       -3    1    3    3    0  502 -0.68327216780E+03 -0.68795843681E+03  0.21140868780E+04  0.23258355496E+04  0.10100000352E+00 0. -1.
</event>
<event>
 5   0  0.5855568E-06  0.3225116E+04  0.7818609E-02  0.8182215E-01
        2   -1    0    0  501    0  0.00000000000E+00  0.00000000000E+00  0.25066770528E+04  0.25066770528E+04  0.25500000920E-02 0.  1.
       -2   -1    0    0    0  501  0.00000000000E+00  0.00000000000E+00 -0.10373669426E+04  0.10373669426E+04  0.25500000920E-02 0. -1.
    10030    2    1    2    0    0  0.00000000000E+00  0.00000000000E+00  0.14693101103E+04  0.35440439954E+04  0.32251163764E+04 0.  0.
        3    1    3    3  502    0  0.15167674341E+03 -0.70655086862E+03  0.23187800129E+04  0.24287776191E+04  0.10100000352E+00 0.  1.
       -3    1    3    3    0  502 -0.15167674341E+03  0.70655086862E+03 -0.84946990266E+03  0.11152663763E+04  0.10100000352E+00 0. -1.
</event>
<event>
 5   0  0.2097842E-06  0.3279195E+04  0.7818609E-02  0.8168209E-01
       -1   -1    0    0    0  501  0.00000000000E+00  0.00000000000E+00  0.84341231352E+03  0.84341231354E+03  0.50400001928E-02 0.  1.
        1   -1    0    0  501    0  0.00000000000E+00  0.00000000000E+00 -0.31873856977E+04  0.31873856977E+04  0.50400001928E-02 0. -1.
    10030    2    1    2    0    0  0.00000000000E+00  0.00000000000E+00 -0.23439733842E+04  0.40307980112E+04  0.32791952338E+04 0.  0.
        4    1    3    3  502    0  0.97244709369E+03 -0.54046573936E+03 -0.26524101110E+04  0.28762888546E+04  0.12699999809E+01 0. -1.
       -4    1    3    3    0  502 -0.97244709369E+03  0.54046573936E+03  0.30843672679E+03  0.11545091566E+04  0.12699999809E+01 0.  1.
</event>
<event>
 5   0  0.2730981E-06  0.3421748E+04  0.7818609E-02  0.8132589E-01
        1   -1    0    0  501    0  0.00000000000E+00  0.00000000000E+00  0.18328411289E+04  0.18328411289E+04  0.50400001928E-02 0.  1.
       -1   -1    0    0    0  501  0.00000000000E+00  0.00000000000E+00 -0.15970234034E+04  0.15970234034E+04  0.50400001928E-02 0. -1.
    10030    2    1    2    0    0  0.00000000000E+00  0.00000000000E+00  0.23581772545E+03  0.34298645323E+04  0.34217481950E+04 0.  0.
        3    1    3    3  502    0 -0.13682840714E+04 -0.33716686482E+03  0.10903684911E+04  0.17817929877E+04  0.10100000352E+00 0.  1.
       -3    1    3    3    0  502  0.13682840714E+04  0.33716686482E+03 -0.85455076561E+03  0.16480715445E+04  0.10100000352E+00 0. -1.
</event>
<event>
 5   0  0.2097842E-06  0.3237355E+04  0.7818609E-02  0.8179021E-01
        1   -1    0    0  501    0  0.00000000000E+00  0.00000000000E+00  0.17477070857E+04  0.17477070857E+04  0.50400001928E-02 0.  1.
       -1   -1    0    0    0  501  0.00000000000E+00  0.00000000000E+00 -0.14991741636E+04  0.14991741636E+04  0.50400001928E-02 0. -1.
    10030    2    1    2    0    0  0.00000000000E+00  0.00000000000E+00  0.24853292210E+03  0.32468812493E+04  0.32373552838E+04 0.  0.
        4    1    3    3  502    0 -0.66433988423E+03  0.14100317897E+04  0.56210407526E+03  0.16569549583E+04  0.12699999809E+01 0. -1.
       -4    1    3    3    0  502  0.66433988423E+03 -0.14100317897E+04 -0.31357115317E+03  0.15899262909E+04  0.12699999809E+01 0.  1.
</event>
<event>
 5   0  0.5755250E-06  0.3234399E+04  0.7818609E-02  0.8179791E-01
        2   -1    0    0  501    0  0.00000000000E+00  0.00000000000E+00  0.15132891948E+04  0.15132891949E+04  0.25500000920E-02 0. -1.
       -2   -1    0    0    0  501  0.00000000000E+00  0.00000000000E+00 -0.17282445572E+04  0.17282445572E+04  0.25500000920E-02 0.  1.
    10030    2    1    2    0    0  0.00000000000E+00  0.00000000000E+00 -0.21495536233E+03  0.32415337520E+04  0.32343987475E+04 0.  0.
        5    1    3    3  502    0 -0.87676714899E+03  0.11181019970E+04 -0.88147598694E+03  0.16720929145E+04  0.46999998093E+01 0. -1.
       -5    1    3    3    0  502  0.87676714899E+03 -0.11181019970E+04  0.66652062461E+03  0.15694408375E+04  0.46999998093E+01 0.  1.
</event>
<event>
 5   0  0.2097842E-06  0.2903656E+04  0.7818609E-02  0.8271790E-01
       -1   -1    0    0    0  501  0.00000000000E+00  0.00000000000E+00  0.15353865203E+04  0.15353865203E+04  0.50400001928E-02 0.  1.
        1   -1    0    0  501    0  0.00000000000E+00  0.00000000000E+00 -0.13728170732E+04  0.13728170733E+04  0.50400001928E-02 0. -1.
    10030    2    1    2    0    0  0.00000000000E+00  0.00000000000E+00  0.16256944708E+03  0.29082035936E+04  0.29036561981E+04 0.  0.
        4    1    3    3  502    0  0.48286812615E+03  0.36595927721E+02  0.14521145645E+04  0.15307315932E+04  0.12699999809E+01 0.  1.
       -4    1    3    3    0  502 -0.48286812615E+03 -0.36595927721E+02 -0.12895451174E+04  0.13774720004E+04  0.12699999809E+01 0. -1.
</event>
<event>
 5   0  0.2037109E-06  0.3255168E+04  0.7818609E-02  0.8174397E-01
        1   -1    0    0  501    0  0.00000000000E+00  0.00000000000E+00  0.13874528613E+04  0.13874528613E+04  0.50400001928E-02 0.  1.
       -1   -1    0    0    0  501  0.00000000000E+00  0.00000000000E+00 -0.19092755700E+04  0.19092755700E+04  0.50400001928E-02 0. -1.
    10030    2    1    2    0    0  0.00000000000E+00  0.00000000000E+00 -0.52182270871E+03  0.32967284313E+04  0.32551681078E+04 0.  0.
        2    1    3    3  502    0  0.60419988785E+03 -0.69493201031E+03 -0.16200746997E+04  0.18634994059E+04  0.25500000920E-02 0. -1.
       -2    1    3    3    0  502 -0.60419988785E+03  0.69493201031E+03  0.10982519909E+04  0.14332290253E+04  0.25500000920E-02 0.  1.
</event>
<event>
 5   0  0.1999849E-06  0.3310810E+04  0.7818609E-02  0.8160150E-01
       -1   -1    0    0    0  501  0.00000000000E+00  0.00000000000E+00  0.11420280236E+04  0.11420280236E+04  0.50400001928E-02 0.  1.
        1   -1    0    0  501    0  0.00000000000E+00  0.00000000000E+00 -0.23995611186E+04  0.23995611186E+04  0.50400001928E-02 0. -1.
    10030    2    1    2    0    0  0.00000000000E+00  0.00000000000E+00 -0.12575330950E+04  0.35415891422E+04  0.33108101979E+04 0.  0.
        5    1    3    3  502    0  0.39959221724E+03 -0.13164996526E+04 -0.16135333680E+04  0.21204615759E+04  0.46999998093E+01 0. -1.
       -5    1    3    3    0  502 -0.39959221724E+03  0.13164996526E+04  0.35600027292E+03  0.14211275663E+04  0.46999998093E+01 0.  1.
</event>
<event>
 5   0  0.5637538E-06  0.3407788E+04  0.7818609E-02  0.8135998E-01
        2   -1    0    0  501    0  0.00000000000E+00  0.00000000000E+00  0.21001471815E+04  0.21001471815E+04  0.25500000920E-02 0. -1.
       -2   -1    0    0    0  501  0.00000000000E+00  0.00000000000E+00 -0.13824050233E+04  0.13824050233E+04  0.25500000920E-02 0.  1.
    10030    2    1    2    0    0  0.00000000000E+00  0.00000000000E+00  0.71774215825E+03  0.34825522048E+04  0.34077875599E+04 0.  0.
        2    1    3    3  502    0 -0.79808682119E+03 -0.15007721671E+04  0.23797802268E+03  0.17163604549E+04  0.25500000920E-02 0. -1.
       -2    1    3    3    0  502  0.79808682119E+03  0.15007721671E+04  0.47976413558E+03  0.17661917499E+04  0.25500000920E-02 0.  1.
</event>
<event>
 5   0  0.5300268E-06  0.3425931E+04  0.7818609E-02  0.8131571E-01
       -2   -1    0    0    0  501  0.00000000000E+00  0.00000000000E+00  0.20929452357E+04  0.20929452357E+04  0.25500000920E-02 0.  1.
        2   -1    0    0  501    0  0.00000000000E+00  0.00000000000E+00 -0.14019718424E+04  0.14019718424E+04  0.25500000920E-02 0. -1.
    10030    2    1    2    0    0  0.00000000000E+00  0.00000000000E+00  0.69097339322E+03  0.34949170781E+04  0.34259306988E+04 0.  0.
        4    1    3    3  502    0 -0.13724401490E+01  0.11452263638E+04  0.16449914459E+04  0.20043811458E+04  0.12699999809E+01 0.  1.
       -4    1    3    3    0  502  0.13724401490E+01 -0.11452263638E+04 -0.95401805264E+03  0.14905359323E+04  0.12699999809E+01 0. -1.
</event>
<event>
 5   0  0.5855568E-06  0.2704718E+04  0.7818609E-02  0.8333476E-01
        2   -1    0    0  501    0  0.00000000000E+00  0.00000000000E+00  0.15628669838E+04  0.15628669838E+04  0.25500000920E-02 0.  1.
       -2   -1    0    0    0  501  0.00000000000E+00  0.00000000000E+00 -0.11702052194E+04  0.11702052194E+04  0.25500000920E-02 0. -1.
    10030    2    1    2    0    0  0.00000000000E+00  0.00000000000E+00  0.39266176440E+03  0.27330722032E+04  0.27047181751E+04 0.  0.
        3    1    3    3  502    0 -0.13436857184E+04 -0.14881802467E+03  0.16079149584E+03  0.13614301413E+04  0.10100000352E+00 0. -1.
       -3    1    3    3    0  502  0.13436857184E+04  0.14881802467E+03  0.23187026857E+03  0.13716420619E+04  0.10100000352E+00 0.  1.
</event>
<event>
 5   0  0.2097842E-06  0.3265473E+04  0.7818609E-02  0.8171737E-01
       -1   -1    0    0    0  501  0.00000000000E+00  0.00000000000E+00  0.16727969194E+04  0.16727969194E+04  0.50400001928E-02 0. -1.
        1   -1    0    0  501    0  0.00000000000E+00  0.00000000000E+00 -0.15936358429E+04  0.15936358429E+04  0.50400001928E-02 0.  1.
    10030    2    1    2    0    0  0.00000000000E+00  0.00000000000E+00  0.79161076536E+02  0.32664327623E+04  0.32654733983E+04 0.  0.
        4    1    3    3  502    0  0.14684009588E+04  0.61217720455E+03 -0.32776734313E+03  0.16243138089E+04  0.12699999809E+01 0.  1.
       -4    1    3    3    0  502 -0.14684009588E+04 -0.61217720455E+03  0.40692841966E+03  0.16421189534E+04  0.12699999809E+01 0. -1.
</event>
<event>
 5   0  0.2730981E-06  0.3339671E+04  0.7818609E-02  0.8152874E-01
        1   -1    0    0  501    0  0.00000000000E+00  0.00000000000E+00  0.16267883499E+04  0.16267883499E+04  0.50400001928E-02 0.  1.
       -1   -1    0    0    0  501  0.00000000000E+00  0.00000000000E+00 -0.17140217953E+04  0.17140217953E+04  0.50400001928E-02 0. -1.
    10030    2    1    2    0    0  0.00000000000E+00  0.00000000000E+00 -0.87233445409E+02  0.33408101452E+04  0.33396710545E+04 0.  0.
        3    1    3    3  502    0 -0.58936130837E+03  0.22862468545E+03 -0.15896970732E+04  0.17107754947E+04  0.10100000352E+00 0. -1.
       -3    1    3    3    0  502  0.58936130837E+03 -0.22862468545E+03  0.15024636278E+04  0.16300346504E+04  0.10100000352E+00 0.  1.
</event>
<event>
 5   0  0.1999849E-06  0.2374943E+04  0.7818609E-02  0.8448945E-01
       -1   -1    0    0    0  501  0.00000000000E+00  0.00000000000E+00  0.14880489540E+04  0.14880489541E+04  0.50400001928E-02 0.  1.
        1   -1    0    0  501    0  0.00000000000E+00  0.00000000000E+00 -0.94760883506E+03  0.94760883507E+03  0.50400001928E-02 0. -1.
    10030    2    1    2    0    0  0.00000000000E+00  0.00000000000E+00  0.54044011898E+03  0.24356577891E+04  0.23749428085E+04 0.  0.
        5    1    3    3  502    0 -0.43964264221E+03 -0.10917743722E+04  0.10868362748E+03  0.11819861054E+04  0.46999998093E+01 0. -1.
       -5    1    3    3    0  502  0.43964264221E+03  0.10917743722E+04  0.43175649151E+03  0.12536716837E+04  0.46999998093E+01 0.  1.
</event>
<event>
 5   0  0.1999849E-06  0.3073154E+04  0.7818609E-02  0.8223144E-01
        1   -1    0    0  501    0  0.00000000000E+00  0.00000000000E+00  0.25372983036E+04  0.25372983036E+04  0.50400001928E-02 0. -1.
       -1   -1    0    0    0  501  0.00000000000E+00  0.00000000000E+00 -0.93054445596E+03  0.93054445598E+03  0.50400001928E-02 0.  1.
    10030    2    1    2    0    0  0.00000000000E+00  0.00000000000E+00  0.16067538476E+04  0.34678427596E+04  0.30731539952E+04 0.  0.
        5    1    3    3  502    0  0.44871668871E+03 -0.11668472156E+04  0.18115199386E+04  0.22010237775E+04  0.46999998093E+01 0. -1.
       -5    1    3    3    0  502 -0.44871668871E+03  0.11668472156E+04 -0.20476609095E+03  0.12668189821E+04  0.46999998093E+01 0.  1.
</event>
<event>
 5   0  0.5637538E-06  0.3062229E+04  0.7818609E-02  0.8226181E-01
       -2   -1    0    0    0  501  0.00000000000E+00  0.00000000000E+00  0.10686023569E+04  0.10686023569E+04  0.25500000920E-02 0. -1.
        2   -1    0    0  501    0  0.00000000000E+00  0.00000000000E+00 -0.21938110278E+04  0.21938110278E+04  0.25500000920E-02 0.  1.
    10030    2    1    2    0    0  0.00000000000E+00  0.00000000000E+00 -0.11252086709E+04  0.32624133847E+04  0.30622290149E+04 0.  0.
        2    1    3    3  502    0 -0.93931127638E+03 -0.78474038150E+03 -0.15426242053E+04  0.19692162347E+04  0.25500000920E-02 0.  1.
       -2    1    3    3    0  502  0.93931127638E+03  0.78474038150E+03  0.41741553439E+03  0.12931971500E+04  0.25500000920E-02 0. -1.
</event>
<event>
 5   0  0.5637538E-06  0.3204963E+04  0.7818609E-02  0.8187508E-01
       -2   -1    0    0    0  501  0.00000000000E+00  0.00000000000E+00  0.13498677429E+04  0.13498677429E+04  0.25500000920E-02 0.  1.
        2   -1    0    0  501    0  0.00000000000E+00  0.00000000000E+00 -0.19023688406E+04  0.19023688406E+04  0.25500000920E-02 0. -1.
    10030    2    1    2    0    0  0.00000000000E+00  0.00000000000E+00 -0.55250109770E+03  0.32522365834E+04  0.32049626100E+04 0.  0.
        2    1    3    3  502    0 -0.60409934540E+03 -0.23572436680E+03 -0.17632818874E+04  0.18787402723E+04  0.25500000920E-02 0. -1.
       -2    1    3    3    0  502  0.60409934540E+03  0.23572436680E+03  0.12107807897E+04  0.13734963112E+04  0.25500000920E-02 0.  1.
</event>
<event>
 5   0  0.2730981E-06  0.3353103E+04  0.7818609E-02  0.8149513E-01
        1   -1    0    0  501    0  0.00000000000E+00  0.00000000000E+00  0.21131201732E+04  0.21131201732E+04  0.50400001928E-02 0.  1.
       -1   -1    0    0    0  501  0.00000000000E+00  0.00000000000E+00 -0.13301777456E+04  0.13301777456E+04  0.50400001928E-02 0. -1.
    10030    2    1    2    0    0  0.00000000000E+00  0.00000000000E+00  0.78294242760E+03  0.34432979189E+04  0.33531032959E+04 0.  0.
        3    1    3    3  502    0 -0.50413166029E+03  0.26667934556E+03  0.20104445253E+04  0.20897736250E+04  0.10100000352E+00 0.  1.
       -3    1    3    3    0  502  0.50413166029E+03 -0.26667934556E+03 -0.12275020977E+04  0.13535242939E+04  0.10100000352E+00 0. -1.
</event>
<event>
 5   0  0.1925906E-06  0.3261690E+04  0.7818609E-02  0.8172712E-01
        1   -1    0    0  501    0  0.00000000000E+00  0.00000000000E+00  0.25296989261E+04  0.25296989261E+04  0.50400001928E-02 0. -1.
       -1   -1    0    0    0  501  0.00000000000E+00  0.00000000000E+00 -0.10513724570E+04  0.10513724570E+04  0.50400001928E-02 0.  1.
    10030    2    1    2    0    0  0.00000000000E+00  0.00000000000E+00  0.14783264692E+04  0.35810713831E+04  0.32616902215E+04 0.  0.
        1    1    3    3  502    0 -0.12687566434E+04 -0.42269875464E+03  0.17639622526E+04  0.22135899543E+04  0.50400001928E-02 0. -1.
       -1    1    3    3    0  502  0.12687566434E+04  0.42269875464E+03 -0.28563578339E+03  0.13674814288E+04  0.50400001928E-02 0.  1.
</event>
<event>
 5   0  0.5622811E-06  0.3264352E+04  0.7818609E-02  0.8172026E-01
       -2   -1    0    0    0  501  0.00000000000E+00  0.00000000000E+00  0.32186467296E+04  0.32186467296E+04  0.25500000920E-02 0. -1.
        2   -1    0    0  501    0  0.00000000000E+00  0.00000000000E+00 -0.82767676658E+03  0.82767676658E+03  0.25500000920E-02 0.  1.
    10030    2    1    2    0    0  0.00000000000E+00  0.00000000000E+00  0.23909699630E+04  0.40463234961E+04  0.32643523816E+04 0.  0.
        1    1    3    3  502    0 -0.20437177186E+03  0.11645739631E+04 -0.19921312293E+03  0.11990355312E+04  0.50400001928E-02 0.  1.
       -1    1    3    3    0  502  0.20437177186E+03 -0.11645739631E+04  0.25901830859E+04  0.28472879649E+04  0.50400001928E-02 0. -1.
</event>
<event>
 5   0  0.5755250E-06  0.3220442E+04  0.7818609E-02  0.8183439E-01
       -2   -1    0    0    0  501  0.00000000000E+00  0.00000000000E+00  0.20450692880E+04  0.20450692880E+04  0.25500000920E-02 0.  1.
        2   -1    0    0  501    0  0.00000000000E+00  0.00000000000E+00 -0.12678359202E+04  0.12678359202E+04  0.25500000920E-02 0. -1.
    10030    2    1    2    0    0  0.00000000000E+00  0.00000000000E+00  0.77723336785E+03  0.33129052082E+04  0.32204423936E+04 0.  0.
        5    1    3    3  502    0  0.30938743005E+03  0.11760587679E+04  0.14743605318E+04  0.19111765683E+04  0.46999998093E+01 0.  1.
       -5    1    3    3    0  502 -0.30938743005E+03 -0.11760587679E+04 -0.69712716395E+03  0.14017286400E+04  0.46999998093E+01 0. -1.
</event>
<event>
 5   0  0.2037109E-06  0.3331174E+04  0.7818609E-02  0.8155008E-01
        1   -1    0    0  501    0  0.00000000000E+00  0.00000000000E+00  0.21917971843E+04  0.21917971843E+04  0.50400001928E-02 0.  1.
       -1   -1    0    0    0  501  0.00000000000E+00  0.00000000000E+00 -0.12657101449E+04  0.12657101449E+04  0.50400001928E-02 0. -1.
    10030    2    1    2    0    0  0.00000000000E+00  0.00000000000E+00  0.92608703943E+03  0.34575073291E+04  0.33311739262E+04 0.  0.
        2    1    3    3  502    0  0.14823525396E+04  0.37535748006E+03 -0.22223642781E+03  0.15452026790E+04  0.25500000920E-02 0. -1.
       -2    1    3    3    0  502 -0.14823525396E+04 -0.37535748006E+03  0.11483234672E+04  0.19123046501E+04  0.25500000920E-02 0.  1.
</event>
<event>
 5   0  0.2037109E-06  0.3341572E+04  0.7818609E-02  0.8152397E-01
       -1   -1    0    0    0  501  0.00000000000E+00  0.00000000000E+00  0.29140269211E+04  0.29140269211E+04  0.50400001928E-02 0. -1.
        1   -1    0    0  501    0  0.00000000000E+00  0.00000000000E+00 -0.95796138699E+03  0.95796138700E+03  0.50400001928E-02 0.  1.
    10030    2    1    2    0    0  0.00000000000E+00  0.00000000000E+00  0.19560655341E+04  0.38719883081E+04  0.33415716488E+04 0.  0.
        2    1    3    3  502    0  0.18388066143E+03 -0.12431544148E+04 -0.29777364049E+03  0.12914775018E+04  0.25500000920E-02 0.  1.
       -2    1    3    3    0  502 -0.18388066143E+03  0.12431544148E+04  0.22538391746E+04  0.25805108063E+04  0.25500000920E-02 0. -1.
</event>
<event>
 5   0  0.2730981E-06  0.3423787E+04  0.7818609E-02  0.8132093E-01
        1   -1    0    0  501    0  0.00000000000E+00  0.00000000000E+00  0.13912773141E+04  0.13912773141E+04  0.50400001928E-02 0.  1.
       -1   -1    0    0    0  501  0.00000000000E+00  0.00000000000E+00 -0.21063944903E+04  0.21063944903E+04  0.50400001928E-02 0. -1.
    10030    2    1    2    0    0  0.00000000000E+00  0.00000000000E+00 -0.71511717625E+03  0.34976718044E+04  0.34237867159E+04 0.  0.
        3    1    3    3  502    0  0.12753250041E+04  0.10417728231E+04  0.12033381622E+03  0.16511283167E+04  0.10100000352E+00 0.  1.
       -3    1    3    3    0  502 -0.12753250041E+04 -0.10417728231E+04 -0.83545099248E+03  0.18465434877E+04  0.10100000352E+00 0. -1.
</event>
<event>
 5   0  0.5855568E-06  0.3319854E+04  0.7818609E-02  0.8157862E-01
        2   -1    0    0  501    0  0.00000000000E+00  0.00000000000E+00  0.15947910491E+04  0.15947910491E+04  0.25500000920E-02 0. -1.
       -2   -1    0    0    0  501  0.00000000000E+00  0.00000000000E+00 -0.17277229889E+04  0.17277229889E+04  0.25500000920E-02 0.  1.
    10030    2    1    2    0    0  0.00000000000E+00  0.00000000000E+00 -0.13293193979E+03  0.33225140380E+04  0.33198537064E+04 0.  0.
        3    1    3    3  502    0  0.96790106765E+03 -0.13456494866E+04 -0.15458270717E+03  0.16647825207E+04  0.10100000352E+00 0. -1.
       -3    1    3    3    0  502 -0.96790106765E+03  0.13456494866E+04  0.21650767373E+02  0.16577315173E+04  0.10100000352E+00 0.  1.
</event>
<event>
 5   0  0.1999849E-06  0.3283507E+04  0.7818609E-02  0.8167105E-01
        1   -1    0    0  501    0  0.00000000000E+00  0.00000000000E+00  0.20221577852E+04  0.20221577852E+04  0.50400001928E-02 0.  1.
       -1   -1    0    0    0  501  0.00000000000E+00  0.00000000000E+00 -0.13329102699E+04  0.13329102699E+04  0.50400001928E-02 0. -1.
    10030    2    1    2    0    0  0.00000000000E+00  0.00000000000E+00  0.68924751527E+03  0.33550680551E+04  0.32835071976E+04 0.  0.
        5    1    3    3  502    0 -0.15195000255E+04 -0.24989014331E+03  0.92624573838E+03  0.17970193848E+04  0.46999998093E+01 0.  1.
       -5    1    3    3    0  502  0.15195000255E+04  0.24989014331E+03 -0.23699822311E+03  0.15580486703E+04  0.46999998093E+01 0. -1.
</event>
<event>
 5   0  0.2037109E-06  0.3307844E+04  0.7818609E-02  0.8160902E-01
        1   -1    0    0  501    0  0.00000000000E+00  0.00000000000E+00  0.10004997398E+04  0.10004997398E+04  0.50400001928E-02 0.  1.
       -1   -1    0    0    0  501  0.00000000000E+00  0.00000000000E+00 -0.27340920657E+04  0.27340920657E+04  0.50400001928E-02 0. -1.
    10030    2    1    2    0    0  0.00000000000E+00  0.00000000000E+00 -0.17335923260E+04  0.37345918055E+04  0.33078442529E+04 0.  0.
        2    1    3    3  502    0  0.24831312860E+03  0.15040589515E+04 -0.15911299716E+04  0.22035306501E+04  0.25500000920E-02 0. -1.
       -2    1    3    3    0  502 -0.24831312860E+03 -0.15040589515E+04 -0.14246235441E+03  0.15310611555E+04  0.25500000920E-02 0.  1.
</event>
<event>
 5   0  0.5622811E-06  0.3245521E+04  0.7818609E-02  0.8176898E-01
        2   -1    0    0  501    0  0.00000000000E+00  0.00000000000E+00  0.13809413046E+04  0.13809413046E+04  0.25500000920E-02 0. -1.
       -2   -1    0    0    0  501  0.00000000000E+00  0.00000000000E+00 -0.19069251470E+04  0.19069251470E+04  0.25500000920E-02 0.  1.
    10030    2    1    2    0    0  0.00000000000E+00  0.00000000000E+00 -0.52598384235E+03  0.32878664516E+04  0.32455210370E+04 0.  0.
        1    1    3    3  502    0  0.33281577295E+03  0.10070137202E+04  0.98124663225E+03  0.14448833603E+04  0.50400001928E-02 0. -1.
       -1    1    3    3    0  502 -0.33281577295E+03 -0.10070137202E+04 -0.15072304746E+04  0.18429830914E+04  0.50400001928E-02 0.  1.
</event>
<event>
 5   0  0.5755250E-06  0.2327683E+04  0.7818609E-02  0.8467086E-01
        2   -1    0    0  501    0  0.00000000000E+00  0.00000000000E+00  0.16840531088E+04  0.16840531089E+04  0.25500000920E-02 0.  1.
       -2   -1    0    0    0  501  0.00000000000E+00  0.00000000000E+00 -0.80432530712E+03  0.80432530713E+03  0.25500000920E-02 0. -1.
    10030    2    1    2    0    0  0.00000000000E+00  0.00000000000E+00  0.87972780173E+03  0.24883784160E+04  0.23276825677E+04 0.  0.
        5    1    3    3  502    0 -0.26565806606E+03  0.61006341513E+03  0.14606417563E+04  0.16050694716E+04  0.46999998093E+01 0.  1.
       -5    1    3    3    0  502  0.26565806606E+03 -0.61006341513E+03 -0.58091395457E+03  0.88330894434E+03  0.46999998093E+01 0. -1.
</event>
<event>
 5   0  0.5755250E-06  0.2922219E+04  0.7818609E-02  0.8266297E-01
       -2   -1    0    0    0  501  0.00000000000E+00  0.00000000000E+00  0.15000753706E+04  0.15000753706E+04  0.25500000920E-02 0. -1.
        2   -1    0    0  501    0  0.00000000000E+00  0.00000000000E+00 -0.14231562137E+04  0.14231562137E+04  0.25500000920E-02 0.  1.
    10030    2    1    2    0    0  0.00000000000E+00  0.00000000000E+00  0.76919156925E+02  0.29232315843E+04  0.29222194201E+04 0.  0.
        5    1    3    3  502    0 -0.10127877786E+04  0.80199037205E+03 -0.64433954985E+03  0.14436492603E+04  0.46999998093E+01 0.  1.
       -5    1    3    3    0  502  0.10127877786E+04 -0.80199037205E+03  0.72125870677E+03  0.14795823240E+04  0.46999998093E+01 0. -1.
</event>
<event>
 5   0  0.5755250E-06  0.3269747E+04  0.7818609E-02  0.8170636E-01
        2   -1    0    0  501    0  0.00000000000E+00  0.00000000000E+00  0.18050030936E+04  0.18050030936E+04  0.25500000920E-02 0. -1.
       -2   -1    0    0    0  501  0.00000000000E+00  0.00000000000E+00 -0.14807790747E+04  0.14807790747E+04  0.25500000920E-02 0.  1.
    10030    2    1    2    0    0  0.00000000000E+00  0.00000000000E+00  0.32422401886E+03  0.32857821683E+04  0.32697466634E+04 0.  0.
        5    1    3    3  502    0  0.16122676127E+04  0.11692643798E+03  0.40766683188E+03  0.16671211661E+04  0.46999998093E+01 0. -1.
       -5    1    3    3    0  502 -0.16122676127E+04 -0.11692643798E+03 -0.83442813018E+02  0.16186610021E+04  0.46999998093E+01 0.  1.
</event>
<event>
 5   0  0.5637538E-06  0.3142329E+04  0.7818609E-02  0.8204216E-01
       -2   -1    0    0    0  501  0.00000000000E+00  0.00000000000E+00  0.11372164051E+04  0.11372164052E+04  0.25500000920E-02 0. -1.
        2   -1    0    0  501    0  0.00000000000E+00  0.00000000000E+00 -0.21707014045E+04  0.21707014046E+04  0.25500000920E-02 0.  1.
    10030    2    1    2    0    0  0.00000000000E+00  0.00000000000E+00 -0.10334849994E+04  0.33079178097E+04  0.31423285939E+04 0.  0.
        2    1    3    3  502    0 -0.13562291072E+04  0.79204281850E+03 -0.56224079087E+03  0.16681738292E+04  0.25500000920E-02 0. -1.
       -2    1    3    3    0  502  0.13562291072E+04 -0.79204281850E+03 -0.47124420853E+03  0.16397439805E+04  0.25500000920E-02 0.  1.
</event>
<event>
 5   0  0.5300268E-06  0.3295615E+04  0.7818609E-02  0.8164012E-01
       -2   -1    0    0    0  501  0.00000000000E+00  0.00000000000E+00  0.22637847541E+04  0.22637847541E+04  0.25500000920E-02 0. -1.
        2   -1    0    0  501    0  0.00000000000E+00  0.00000000000E+00 -0.11994382517E+04  0.11994382517E+04  0.25500000920E-02 0.  1.
    10030    2    1    2    0    0  0.00000000000E+00  0.00000000000E+00  0.10643465024E+04  0.34632230058E+04  0.32956152856E+04 0.  0.
        4    1    3    3  502    0 -0.10172146693E+03  0.15794918763E+04  0.50464611572E+02  0.15835687968E+04  0.12699999809E+01 0.  1.
       -4    1    3    3    0  502  0.10172146693E+03 -0.15794918763E+04  0.10138818908E+04  0.18796542090E+04  0.12699999809E+01 0. -1.
</event>
<event>
 5   0  0.5855568E-06  0.2910297E+04  0.7818609E-02  0.8269820E-01
       -2   -1    0    0    0  501  0.00000000000E+00  0.00000000000E+00  0.12066934847E+04  0.12066934847E+04  0.25500000920E-02 0.  1.
        2   -1    0    0  501    0  0.00000000000E+00  0.00000000000E+00 -0.17547594622E+04  0.17547594622E+04  0.25500000920E-02 0. -1.
    10030    2    1    2    0    0  0.00000000000E+00  0.00000000000E+00 -0.54806597749E+03  0.29614529470E+04  0.29102967618E+04 0.  0.
        3    1    3    3  502    0  0.83970812759E+03  0.46850616373E+03  0.83734119040E+03  0.12750482518E+04  0.10100000352E+00 0.  1.
       -3    1    3    3    0  502 -0.83970812759E+03 -0.46850616373E+03 -0.13854071679E+04  0.16864046952E+04  0.10100000352E+00 0. -1.
</event>
<event>
 5   0  0.5755250E-06  0.2611877E+04  0.7818609E-02  0.8364178E-01
        2   -1    0    0  501    0  0.00000000000E+00  0.00000000000E+00  0.16678290364E+04  0.16678290364E+04  0.25500000920E-02 0.  1.
       -2   -1    0    0    0  501  0.00000000000E+00  0.00000000000E+00 -0.10225722208E+04  0.10225722208E+04  0.25500000920E-02 0. -1.
    10030    2    1    2    0    0  0.00000000000E+00  0.00000000000E+00  0.64525681556E+03  0.26904012572E+04  0.26118772112E+04 0.  0.
        5    1    3    3  502    0  0.56255067400E+03  0.91400033793E+03  0.10890361090E+04  0.15290132816E+04  0.46999998093E+01 0.  1.
       -5    1    3    3    0  502 -0.56255067400E+03 -0.91400033793E+03 -0.44377929344E+03  0.11613879756E+04  0.46999998093E+01 0. -1.
</event>
<event>
 5   0  0.5300268E-06  0.3297937E+04  0.7818609E-02  0.8163420E-01
       -2   -1    0    0    0  501  0.00000000000E+00  0.00000000000E+00  0.10573431185E+04  0.10573431185E+04  0.25500000920E-02 0.  1.
        2   -1    0    0  501    0  0.00000000000E+00  0.00000000000E+00 -0.25716324005E+04  0.25716324005E+04  0.25500000920E-02 0. -1.
    10030    2    1    2    0    0  0.00000000000E+00  0.00000000000E+00 -0.15142892820E+04  0.36289755190E+04  0.32979374293E+04 0.  0.
        4    1    3    3  502    0 -0.63457543444E+03  0.88964289201E+03 -0.21159862096E+04  0.23815015662E+04  0.12699999809E+01 0. -1.
       -4    1    3    3    0  502  0.63457543444E+03 -0.88964289201E+03  0.60169692765E+03  0.12474739528E+04  0.12699999809E+01 0.  1.
</event>
<event>
 5   0  0.5622811E-06  0.3271333E+04  0.7818609E-02  0.8170228E-01
        2   -1    0    0  501    0  0.00000000000E+00  0.00000000000E+00  0.25685910530E+04  0.25685910530E+04  0.25500000920E-02 0. -1.
       -2   -1    0    0    0  501  0.00000000000E+00  0.00000000000E+00 -0.10415845337E+04  0.10415845337E+04  0.25500000920E-02 0.  1.
    10030    2    1    2    0    0  0.00000000000E+00  0.00000000000E+00  0.15270065193E+04  0.36101755867E+04  0.32713328869E+04 0.  0.
        1    1    3    3  502    0  0.56802404878E+02  0.27312710231E+03  0.25421431715E+04  0.25574043152E+04  0.50400001928E-02 0. -1.
       -1    1    3    3    0  502 -0.56802404878E+02 -0.27312710231E+03 -0.10151366522E+04  0.10527712714E+04  0.50400001928E-02 0.  1.
</event>
<event>
 5   0  0.2037109E-06  0.2776383E+04  0.7818609E-02  0.8310638E-01
       -1   -1    0    0    0  501  0.00000000000E+00  0.00000000000E+00  0.12831485014E+04  0.12831485015E+04  0.50400001928E-02 0.  1.
        1   -1    0    0  501    0  0.00000000000E+00  0.00000000000E+00 -0.15018339637E+04  0.15018339637E+04  0.50400001928E-02 0. -1.
    10030    2    1    2    0    0  0.00000000000E+00  0.00000000000E+00 -0.21868546221E+03  0.27849824651E+04  0.27763832588E+04 0.  0.
        2    1    3    3  502    0  0.66978700222E+03 -0.55651453274E+03  0.97509447009E+03  0.13073378596E+04  0.25500000920E-02 0.  1.
       -2    1    3    3    0  502 -0.66978700222E+03  0.55651453274E+03 -0.11937799323E+04  0.14776446055E+04  0.25500000920E-02 0. -1.
</event>
<event>
 5   0  0.5855568E-06  0.3325091E+04  0.7818609E-02  0.8156540E-01
       -2   -1    0    0    0  501  0.00000000000E+00  0.00000000000E+00  0.15699370073E+04  0.15699370074E+04  0.25500000920E-02 0. -1.
        2   -1    0    0  501    0  0.00000000000E+00  0.00000000000E+00 -0.17606173017E+04  0.17606173017E+04  0.25500000920E-02 0.  1.
    10030    2    1    2    0    0  0.00000000000E+00  0.00000000000E+00 -0.19068029430E+03  0.33305543090E+04  0.33250914319E+04 0.  0.
        3    1    3    3  502    0 -0.13343761184E+03 -0.61967453302E+03  0.14441482489E+04  0.15771386427E+04  0.10100000352E+00 0. -1.
       -3    1    3    3    0  502  0.13343761184E+03  0.61967453302E+03 -0.16348285432E+04  0.17534156664E+04  0.10100000352E+00 0.  1.
</event>
<event>
 5   0  0.2097842E-06  0.1972803E+04  0.7818609E-02  0.8619443E-01
        1   -1    0    0  501    0  0.00000000000E+00  0.00000000000E+00  0.12454370232E+04  0.12454370232E+04  0.50400001928E-02 0. -1.
       -1   -1    0    0    0  501  0.00000000000E+00  0.00000000000E+00 -0.78124185088E+03  0.78124185090E+03  0.50400001928E-02 0.  1.
    10030    2    1    2    0    0  0.00000000000E+00  0.00000000000E+00  0.46419517235E+03  0.20266788741E+04  0.19728026006E+04 0.  0.
        4    1    3    3  502    0  0.71971307253E+03  0.35468338457E+03  0.82152504791E+03  0.11483432533E+04  0.12699999809E+01 0. -1.
       -4    1    3    3    0  502 -0.71971307253E+03 -0.35468338457E+03 -0.35732987556E+03  0.87833562089E+03  0.12699999809E+01 0.  1.
</event>
<event>
 5   0  0.1925906E-06  0.2290439E+04  0.7818609E-02  0.8481701E-01
       -1   -1    0    0    0  501  0.00000000000E+00  0.00000000000E+00  0.62483038240E+03  0.62483038242E+03  0.50400001928E-02 0. -1.
        1   -1    0    0  501    0  0.00000000000E+00  0.00000000000E+00 -0.20990133183E+04  0.20990133183E+04  0.50400001928E-02 0.  1.
    10030    2    1    2    0    0  0.00000000000E+00  0.00000000000E+00 -0.14741829359E+04  0.27238437007E+04  0.22904386430E+04 0.  0.
        1    1    3    3  502    0 -0.74843412401E+03  0.27429437754E+03 -0.17149603623E+04  0.18911583984E+04  0.50400001928E-02 0.  1.
       -1    1    3    3    0  502  0.74843412401E+03 -0.27429437754E+03  0.24077742644E+03  0.83268530229E+03  0.50400001928E-02 0. -1.
</event>
<event>
 5   0  0.2505557E-06  0.1759559E+04  0.7818609E-02  0.8728106E-01
        1   -1    0    0  501    0  0.00000000000E+00  0.00000000000E+00  0.10268688960E+04  0.10268688960E+04  0.50400001928E-02 0. -1.
       -1   -1    0    0    0  501  0.00000000000E+00  0.00000000000E+00 -0.75375926432E+03  0.75375926433E+03  0.50400001928E-02 0.  1.
    10030    2    1    2    0    0  0.00000000000E+00  0.00000000000E+00  0.27310963166E+03  0.17806281603E+04  0.17595589716E+04 0.  0.
        5    1    3    3  502    0  0.30865083810E+03  0.15057744605E+03 -0.68311358678E+03  0.76459477474E+03  0.46999998093E+01 0.  1.
       -5    1    3    3    0  502 -0.30865083810E+03 -0.15057744605E+03  0.95622321844E+03  0.10160333856E+04  0.46999998093E+01 0. -1.
</event>
<event>
 5   0  0.5300268E-06  0.2820378E+04  0.7818609E-02  0.8296969E-01
       -2   -1    0    0    0  501  0.00000000000E+00  0.00000000000E+00  0.18191676825E+04  0.18191676825E+04  0.25500000920E-02 0. -1.
        2   -1    0    0  501    0  0.00000000000E+00  0.00000000000E+00 -0.10931557442E+04  0.10931557442E+04  0.25500000920E-02 0.  1.
    10030    2    1    2    0    0  0.00000000000E+00  0.00000000000E+00  0.72601193829E+03  0.29123234267E+04  0.28203784156E+04 0.  0.
        4    1    3    3  502    0 -0.53429429585E+03  0.39279751326E+03 -0.92210297073E+03  0.11357974214E+04  0.12699999809E+01 0.  1.
       -4    1    3    3    0  502  0.53429429585E+03 -0.39279751326E+03  0.16481149090E+04  0.17765260052E+04  0.12699999809E+01 0. -1.
</event>
<event>
 5   0  0.2037109E-06  0.3310721E+04  0.7818609E-02  0.8160173E-01
       -1   -1    0    0    0  501  0.00000000000E+00  0.00000000000E+00  0.12293050699E+04  0.12293050699E+04  0.50400001928E-02 0.  1.
        1   -1    0    0  501    0  0.00000000000E+00  0.00000000000E+00 -0.22290792613E+04  0.22290792613E+04  0.50400001928E-02 0. -1.
    10030    2    1    2    0    0  0.00000000000E+00  0.00000000000E+00 -0.99977419146E+03  0.34583843312E+04  0.33107210315E+04 0.  0.
        2    1    3    3  502    0  0.57724208235E+03  0.14105808203E+04  0.17488974178E+03  0.15341229071E+04  0.25500000920E-02 0.  1.
       -2    1    3    3    0  502 -0.57724208235E+03 -0.14105808203E+04 -0.11746639332E+04  0.19242614241E+04  0.25500000920E-02 0. -1.
</event>
<event>
 5   0  0.5637538E-06  0.3276531E+04  0.7818609E-02  0.8168893E-01
       -2   -1    0    0    0  501  0.00000000000E+00  0.00000000000E+00  0.18170949871E+04  0.18170949871E+04  0.25500000920E-02 0.  1.
        2   -1    0    0  501    0  0.00000000000E+00  0.00000000000E+00 -0.14770354500E+04  0.14770354500E+04  0.25500000920E-02 0. -1.
    10030    2    1    2    0    0  0.00000000000E+00  0.00000000000E+00  0.34005953705E+03  0.32941304371E+04  0.32765309167E+04 0.  0.
        2    1    3    3  502    0 -0.20866385685E+03  0.18272132849E+03 -0.14532593335E+04  0.14794899051E+04  0.25500000920E-02 0. -1.
       -2    1    3    3    0  502  0.20866385685E+03 -0.18272132849E+03  0.17933188705E+04  0.18146405320E+04  0.25500000920E-02 0.  1.
</event>
<event>
 5   0  0.5622811E-06  0.3210063E+04  0.7818609E-02  0.8186165E-01
       -2   -1    0    0    0  501  0.00000000000E+00  0.00000000000E+00  0.20775452086E+04  0.20775452086E+04  0.25500000920E-02 0.  1.
        2   -1    0    0  501    0  0.00000000000E+00  0.00000000000E+00 -0.12399852458E+04  0.12399852458E+04  0.25500000920E-02 0. -1.
    10030    2    1    2    0    0  0.00000000000E+00  0.00000000000E+00  0.83755996279E+03  0.33175304545E+04  0.32100625578E+04 0.  0.
        1    1    3    3  502    0  0.46420539209E+03  0.51297054958E+03 -0.10779808323E+04  0.12808856723E+04  0.50400001928E-02 0. -1.
       -1    1    3    3    0  502 -0.46420539209E+03 -0.51297054958E+03  0.19155407951E+04  0.20366447821E+04  0.50400001928E-02 0.  1.
</event>
<event>
 5   0  0.5755250E-06  0.2467636E+04  0.7818609E-02  0.8414607E-01
       -2   -1    0    0    0  501  0.00000000000E+00  0.00000000000E+00  0.18590917823E+04  0.18590917823E+04  0.25500000920E-02 0.  1.
        2   -1    0    0  501    0  0.00000000000E+00  0.00000000000E+00 -0.81884440865E+03  0.81884440865E+03  0.25500000920E-02 0. -1.
    10030    2    1    2    0    0  0.00000000000E+00  0.00000000000E+00  0.10402473737E+04  0.26779361910E+04  0.24676360438E+04 0.  0.
        5    1    3    3  502    0 -0.31865038063E+03 -0.11124662160E+04  0.55671337562E+02  0.11585510496E+04  0.46999998093E+01 0. -1.
       -5    1    3    3    0  502  0.31865038063E+03  0.11124662160E+04  0.98457603611E+03  0.15193851413E+04  0.46999998093E+01 0.  1.
</event>
<event>
 5   0  0.2037109E-06  0.3321256E+04  0.7818609E-02  0.8157508E-01
       -1   -1    0    0    0  501  0.00000000000E+00  0.00000000000E+00  0.17570634258E+04  0.17570634258E+04  0.50400001928E-02 0.  1.
        1   -1    0    0  501    0  0.00000000000E+00  0.00000000000E+00 -0.15694854462E+04  0.15694854462E+04  0.50400001928E-02 0. -1.
    10030    2    1    2    0    0  0.00000000000E+00  0.00000000000E+00  0.18757797964E+03  0.33265488720E+04  0.33212560726E+04 0.  0.
        2    1    3    3  502    0 -0.13364287329E+04 -0.52742454044E+03 -0.74028478950E+03  0.16162425479E+04  0.25500000920E-02 0. -1.
       -2    1    3    3    0  502  0.13364287329E+04  0.52742454044E+03  0.92786276914E+03  0.17103063241E+04  0.25500000920E-02 0.  1.
</event>
<event>
 5   0  0.2097842E-06  0.3293150E+04  0.7818609E-02  0.8164641E-01
       -1   -1    0    0    0  501  0.00000000000E+00  0.00000000000E+00  0.12390934922E+04  0.12390934922E+04  0.50400001928E-02 0. -1.
        1   -1    0    0  501    0  0.00000000000E+00  0.00000000000E+00 -0.21880586544E+04  0.21880586544E+04  0.50400001928E-02 0.  1.
    10030    2    1    2    0    0  0.00000000000E+00  0.00000000000E+00 -0.94896516217E+03  0.34271521466E+04  0.32931500053E+04 0.  0.
        4    1    3    3  502    0 -0.15774309828E+04  0.47105874414E+03 -0.50776486094E+03  0.17227918078E+04  0.12699999809E+01 0. -1.
       -4    1    3    3    0  502  0.15774309828E+04 -0.47105874414E+03 -0.44120030122E+03  0.17043603389E+04  0.12699999809E+01 0.  1.
</event>
<event>
 5   0  0.5300268E-06  0.3003956E+04  0.7818609E-02  0.8242602E-01
        2   -1    0    0  501    0  0.00000000000E+00  0.00000000000E+00  0.19107431850E+04  0.19107431850E+04  0.25500000920E-02 0. -1.
       -2   -1    0    0    0  501  0.00000000000E+00  0.00000000000E+00 -0.11806598636E+04  0.11806598636E+04  0.25500000920E-02 0.  1.
    10030    2    1    2    0    0  0.00000000000E+00  0.00000000000E+00  0.73008332144E+03  0.30914030486E+04  0.30039559172E+04 0.  0.
        4    1    3    3  502    0  0.13630575912E+03 -0.12010117643E+04 -0.55250018382E+03  0.13290096252E+04  0.12699999809E+01 0.  1.
       -4    1    3    3    0  502 -0.13630575912E+03  0.12010117643E+04  0.12825835053E+04  0.17623934234E+04  0.12699999809E+01 0. -1.
</event>
<event>
 5   0  0.5855568E-06  0.1643844E+04  0.7818609E-02  0.8794057E-01
        2   -1    0    0  501    0  0.00000000000E+00  0.00000000000E+00  0.73929135354E+03  0.73929135355E+03  0.25500000920E-02 0.  1.
       -2   -1    0    0    0  501  0.00000000000E+00  0.00000000000E+00 -0.91378798899E+03  0.91378798899E+03  0.25500000920E-02 0. -1.
    10030    2    1    2    0    0  0.00000000000E+00  0.00000000000E+00 -0.17449663544E+03  0.16530793425E+04  0.16438437386E+04 0.  0.
        3    1    3    3  502    0  0.14394239802E+03 -0.53632768681E+03 -0.69661379874E+03  0.89086339939E+03  0.10100000352E+00 0. -1.
       -3    1    3    3    0  502 -0.14394239802E+03  0.53632768681E+03  0.52211716329E+03  0.76221594315E+03  0.10100000352E+00 0.  1.
</event>
<event>
 5   0  0.1925906E-06  0.3314730E+04  0.7818609E-02  0.8159157E-01
       -1   -1    0    0    0  501  0.00000000000E+00  0.00000000000E+00  0.24925693102E+04  0.24925693102E+04  0.50400001928E-02 0.  1.
        1   -1    0    0  501    0  0.00000000000E+00  0.00000000000E+00 -0.11020188472E+04  0.11020188472E+04  0.50400001928E-02 0. -1.
    10030    2    1    2    0    0  0.00000000000E+00  0.00000000000E+00  0.13905504630E+04  0.35945881574E+04  0.33147297674E+04 0.  0.
        1    1    3    3  502    0 -0.28684524371E+03 -0.66120476002E+03  0.23137233996E+04  0.24233835640E+04  0.50400001928E-02 0.  1.
       -1    1    3    3    0  502  0.28684524371E+03  0.66120476002E+03 -0.92317293663E+03  0.11712045933E+04  0.50400001928E-02 0. -1.
</event>
<event>
 5   0  0.1925906E-06  0.3301320E+04  0.7818609E-02  0.8162560E-01
       -1   -1    0    0    0  501  0.00000000000E+00  0.00000000000E+00  0.15180800387E+04  0.15180800387E+04  0.50400001928E-02 0. -1.
        1   -1    0    0  501    0  0.00000000000E+00  0.00000000000E+00 -0.17948181814E+04  0.17948181814E+04  0.50400001928E-02 0.  1.
    10030    2    1    2    0    0  0.00000000000E+00  0.00000000000E+00 -0.27673814269E+03  0.33128982201E+04  0.33013195267E+04 0.  0.
        1    1    3    3  502    0  0.36644896608E+03  0.15171261465E+04 -0.67758134420E+03  0.17014914244E+04  0.50400001928E-02 0.  1.
       -1    1    3    3    0  502 -0.36644896608E+03 -0.15171261465E+04  0.40084320151E+03  0.16114067958E+04  0.50400001928E-02 0. -1.
</event>
<event>
 5   0  0.2037109E-06  0.3315400E+04  0.7818609E-02  0.8158988E-01
        1   -1    0    0  501    0  0.00000000000E+00  0.00000000000E+00  0.20010643104E+04  0.20010643104E+04  0.50400001928E-02 0.  1.
       -1   -1    0    0    0  501  0.00000000000E+00  0.00000000000E+00 -0.13732541719E+04  0.13732541719E+04  0.50400001928E-02 0. -1.
    10030    2    1    2    0    0  0.00000000000E+00  0.00000000000E+00  0.62781013857E+03  0.33743184823E+04  0.33154003755E+04 0.  0.
        2    1    3    3  502    0  0.67781491685E+03  0.15124600665E+04  0.28169783016E+03  0.16811669107E+04  0.25500000920E-02 0.  1.
       -2    1    3    3    0  502 -0.67781491685E+03 -0.15124600665E+04  0.34611230841E+03  0.16931515716E+04  0.25500000920E-02 0. -1.
</event>
<event>
 5   0  0.2037109E-06  0.2802553E+04  0.7818609E-02  0.8302476E-01
        1   -1    0    0  501    0  0.00000000000E+00  0.00000000000E+00  0.10156885034E+04  0.10156885034E+04  0.50400001928E-02 0. -1.
       -1   -1    0    0    0  501  0.00000000000E+00  0.00000000000E+00 -0.19332458701E+04  0.19332458701E+04  0.50400001928E-02 0.  1.
    10030    2    1    2    0    0  0.00000000000E+00  0.00000000000E+00 -0.91755736668E+03  0.29489343736E+04  0.28025528395E+04 0.  0.
        2    1    3    3  502    0  0.11989064994E+04 -0.16524988027E+03  0.28443596011E+03  0.12432168486E+04  0.25500000920E-02 0. -1.
       -2    1    3    3    0  502 -0.11989064994E+04  0.16524988027E+03 -0.12019933268E+04  0.17057175249E+04  0.25500000920E-02 0.  1.
</event>
<event>
 5   0  0.5755250E-06  0.3358340E+04  0.7818609E-02  0.8148207E-01
        2   -1    0    0  501    0  0.00000000000E+00  0.00000000000E+00  0.21219484773E+04  0.21219484773E+04  0.25500000920E-02 0.  1.
       -2   -1    0    0    0  501  0.00000000000E+00  0.00000000000E+00 -0.13287841913E+04  0.13287841913E+04  0.25500000920E-02 0. -1.
    10030    2    1    2    0    0  0.00000000000E+00  0.00000000000E+00  0.79316428608E+03  0.34507326686E+04  0.33583398228E+04 0.  0.
        5    1    3    3  502    0  0.32172447771E+02 -0.83382489772E+03  0.18938220076E+04  0.20695127236E+04  0.46999998093E+01 0.  1.
       -5    1    3    3    0  502 -0.32172447771E+02  0.83382489772E+03 -0.11006577216E+04  0.13812199450E+04  0.46999998093E+01 0. -1.
</event>
<event>
 5   0  0.1999849E-06  0.3223872E+04  0.7818609E-02  0.8182541E-01
        1   -1    0    0  501    0  0.00000000000E+00  0.00000000000E+00  0.18447928317E+04  0.18447928317E+04  0.50400001928E-02 0.  1.
       -1   -1    0    0    0  501  0.00000000000E+00  0.00000000000E+00 -0.14084715220E+04  0.14084715220E+04  0.50400001928E-02 0. -1.
    10030    2    1    2    0    0  0.00000000000E+00  0.00000000000E+00  0.43632130971E+03  0.32532643538E+04  0.32238723099E+04 0.  0.
        5    1    3    3  502    0 -0.43991215191E+03 -0.97556205957E+03  0.14345849800E+04  0.17897765749E+04  0.46999998093E+01 0.  1.
       -5    1    3    3    0  502  0.43991215191E+03  0.97556205957E+03 -0.99826367026E+03  0.14634877788E+04  0.46999998093E+01 0. -1.
</event>
<event>
 5   0  0.2730981E-06  0.2147544E+04  0.7818609E-02  0.8540584E-01
        1   -1    0    0  501    0  0.00000000000E+00  0.00000000000E+00  0.14933438294E+04  0.14933438294E+04  0.50400001928E-02 0. -1.
       -1   -1    0    0    0  501  0.00000000000E+00  0.00000000000E+00 -0.77208390334E+03  0.77208390335E+03  0.50400001928E-02 0.  1.
    10030    2    1    2    0    0  0.00000000000E+00  0.00000000000E+00  0.72125992608E+03  0.22654277328E+04  0.21475443957E+04 0.  0.
        3    1    3    3  502    0  0.42723985156E+03  0.89833213102E+03 -0.65854747390E+02  0.99693097371E+03  0.10100000352E+00 0.  1.
       -3    1    3    3    0  502 -0.42723985156E+03 -0.89833213102E+03  0.78711467347E+03  0.12684967591E+04  0.10100000352E+00 0. -1.
</event>
<event>
 5   0  0.1999849E-06  0.3286000E+04  0.7818609E-02  0.8166467E-01
        1   -1    0    0  501    0  0.00000000000E+00  0.00000000000E+00  0.20200360975E+04  0.20200360976E+04  0.50400001928E-02 0. -1.
       -1   -1    0    0    0  501  0.00000000000E+00  0.00000000000E+00 -0.13363373691E+04  0.13363373692E+04  0.50400001928E-02 0.  1.
    10030    2    1    2    0    0  0.00000000000E+00  0.00000000000E+00  0.68369872840E+03  0.33563734667E+04  0.32860004408E+04 0.  0.
        5    1    3    3  502    0 -0.11231506249E+04  0.10340086060E+04 -0.27843405970E+03  0.15518339921E+04  0.46999998093E+01 0.  1.
       -5    1    3    3    0  502  0.11231506249E+04 -0.10340086060E+04  0.96213278810E+03  0.18045394746E+04  0.46999998093E+01 0. -1.
</event>
<event>
 5   0  0.2097842E-06  0.3217458E+04  0.7818609E-02  0.8184222E-01
        1   -1    0    0  501    0  0.00000000000E+00  0.00000000000E+00  0.16048369893E+04  0.16048369893E+04  0.50400001928E-02 0.  1.
       -1   -1    0    0    0  501  0.00000000000E+00  0.00000000000E+00 -0.16126300746E+04  0.16126300746E+04  0.50400001928E-02 0. -1.
    10030    2    1    2    0    0  0.00000000000E+00  0.00000000000E+00 -0.77930852611E+01  0.32174670639E+04  0.32174576260E+04 0.  0.
        4    1    3    3  502    0 -0.13736879524E+04  0.69829387651E+03 -0.46582197405E+03  0.16098523699E+04  0.12699999809E+01 0. -1.
       -4    1    3    3    0  502  0.13736879524E+04 -0.69829387651E+03  0.45802888879E+03  0.16076146940E+04  0.12699999809E+01 0.  1.
</event>
<event>
 5   0  0.5637538E-06  0.3538188E+04  0.7818609E-02  0.8104799E-01
        2   -1    0    0  501    0  0.00000000000E+00  0.00000000000E+00  0.28418637175E+04  0.28418637175E+04  0.25500000920E-02 0. -1.
       -2   -1    0    0    0  501  0.00000000000E+00  0.00000000000E+00 -0.11012820388E+04  0.11012820388E+04  0.25500000920E-02 0.  1.
    10030    2    1    2    0    0  0.00000000000E+00  0.00000000000E+00  0.17405816786E+04  0.39431457563E+04  0.35381879367E+04 0.  0.
        2    1    3    3  502    0 -0.15040143624E+04 -0.38526388912E+03 -0.74832711245E+02  0.15543768530E+04  0.25500000920E-02 0.  1.
       -2    1    3    3    0  502  0.15040143624E+04  0.38526388912E+03  0.18154143899E+04  0.23887689033E+04  0.25500000920E-02 0. -1.
</event>
<event>
 5   0  0.5622811E-06  0.3081070E+04  0.7818609E-02  0.8220952E-01
        2   -1    0    0  501    0  0.00000000000E+00  0.00000000000E+00  0.25546882957E+04  0.25546882957E+04  0.25500000920E-02 0.  1.
       -2   -1    0    0    0  501  0.00000000000E+00  0.00000000000E+00 -0.92897768959E+03  0.92897768959E+03  0.25500000920E-02 0. -1.
    10030    2    1    2    0    0  0.00000000000E+00  0.00000000000E+00  0.16257106062E+04  0.34836659853E+04  0.30810702235E+04 0.  0.
        1    1    3    3  502    0 -0.92571937825E+03 -0.12313773216E+04  0.81443627118E+03  0.17425707777E+04  0.50400001928E-02 0. -1.
       -1    1    3    3    0  502  0.92571937825E+03  0.12313773216E+04  0.81127433497E+03  0.17410952076E+04  0.50400001928E-02 0.  1.
</event>
<event>
 5   0  0.1878000E-06  0.3314580E+04  0.7818609E-02  0.8159195E-01
        3   -1    0    0  501    0  0.00000000000E+00  0.00000000000E+00  0.12275996929E+04  0.12275996970E+04  0.10100000352E+00 0. -1.
       -3   -1    0    0    0  501  0.00000000000E+00  0.00000000000E+00 -0.22373828536E+04  0.22373828559E+04  0.10100000352E+00 0.  1.
    10030    2    1    2    0    0  0.00000000000E+00  0.00000000000E+00 -0.10097831607E+04  0.34649825529E+04  0.33145802239E+04 0.  0.
        2    1    3    3  502    0  0.14958337650E+04  0.33527433357E+03  0.15351521250E+03  0.15406149590E+04  0.25500000920E-02 0. -1.
       -2    1    3    3    0  502 -0.14958337650E+04 -0.33527433357E+03 -0.11632983732E+04  0.19243675939E+04  0.25500000920E-02 0.  1.
</event>
<event>
 5   0  0.2037109E-06  0.2795411E+04  0.7818609E-02  0.8304694E-01
        1   -1    0    0  501    0  0.00000000000E+00  0.00000000000E+00  0.27792809806E+04  0.27792809806E+04  0.50400001928E-02 0. -1.
       -1   -1    0    0    0  501  0.00000000000E+00  0.00000000000E+00 -0.70290874582E+03  0.70290874584E+03  0.50400001928E-02 0.  1.
    10030    2    1    2    0    0  0.00000000000E+00  0.00000000000E+00  0.20763722347E+04  0.34821897264E+04  0.27954111743E+04 0.  0.
        2    1    3    3  502    0 -0.72875506047E+03 -0.14683970844E+03 -0.43621528963E+03  0.86193365003E+03  0.25500000920E-02 0.  1.
       -2    1    3    3    0  502  0.72875506047E+03  0.14683970844E+03  0.25125875244E+04  0.26202560764E+04  0.25500000920E-02 0. -1.
</event>
<event>
 5   0  0.2730981E-06  0.2765592E+04  0.7818609E-02  0.8314031E-01
       -1   -1    0    0    0  501  0.00000000000E+00  0.00000000000E+00  0.56182866148E+03  0.56182866150E+03  0.50400001928E-02 0. -1.
        1   -1    0    0  501    0  0.00000000000E+00  0.00000000000E+00 -0.34033938636E+04  0.34033938636E+04  0.50400001928E-02 0.  1.
    10030    2    1    2    0    0  0.00000000000E+00  0.00000000000E+00 -0.28415652022E+04  0.39652225251E+04  0.27655915960E+04 0.  0.
        3    1    3    3  502    0 -0.35235491510E+03 -0.33429056511E+03  0.43550400963E+03  0.65235567041E+03  0.10100000352E+00 0. -1.
       -3    1    3    3    0  502  0.35235491510E+03  0.33429056511E+03 -0.32770692118E+04  0.33128668547E+04  0.10100000352E+00 0.  1.
</event>
<event>
 5   0  0.5637538E-06  0.3419633E+04  0.7818609E-02  0.8133104E-01
        2   -1    0    0  501    0  0.00000000000E+00  0.00000000000E+00  0.10391837401E+04  0.10391837401E+04  0.25500000920E-02 0.  1.
       -2   -1    0    0    0  501  0.00000000000E+00  0.00000000000E+00 -0.28132399500E+04  0.28132399500E+04  0.25500000920E-02 0. -1.
    10030    2    1    2    0    0  0.00000000000E+00  0.00000000000E+00 -0.17740562098E+04  0.38524236901E+04  0.34196334383E+04 0.  0.
        2    1    3    3  502    0 -0.62820590276E+03  0.14656556530E+04 -0.15821113788E+04  0.22463004172E+04  0.25500000920E-02 0. -1.
       -2    1    3    3    0  502  0.62820590276E+03 -0.14656556530E+04 -0.19194483102E+03  0.16061232729E+04  0.25500000920E-02 0.  1.
</event>
<event>
 5   0  0.5622811E-06  0.3211389E+04  0.7818609E-02  0.8185816E-01
        2   -1    0    0  501    0  0.00000000000E+00  0.00000000000E+00  0.24612228606E+04  0.24612228606E+04  0.25500000920E-02 0.  1.
       -2   -1    0    0    0  501  0.00000000000E+00  0.00000000000E+00 -0.10475500741E+04  0.10475500741E+04  0.25500000920E-02 0. -1.
    10030    2    1    2    0    0  0.00000000000E+00  0.00000000000E+00  0.14136727865E+04  0.35087729347E+04  0.32113886031E+04 0.  0.
        1    1    3    3  502    0 -0.61331996666E+03 -0.31560465235E+03  0.22911057124E+04  0.23926832351E+04  0.50400001928E-02 0.  1.
       -1    1    3    3    0  502  0.61331996666E+03  0.31560465235E+03 -0.87743292592E+03  0.11160896996E+04  0.50400001928E-02 0. -1.
</event>
<event>
 5   0  0.1925906E-06  0.3270910E+04  0.7818609E-02  0.8170337E-01
       -1   -1    0    0    0  501  0.00000000000E+00  0.00000000000E+00  0.17165181252E+04  0.17165181252E+04  0.50400001928E-02 0. -1.
        1   -1    0    0  501    0  0.00000000000E+00  0.00000000000E+00 -0.15582203999E+04  0.15582203999E+04  0.50400001928E-02 0.  1.
    10030    2    1    2    0    0  0.00000000000E+00  0.00000000000E+00  0.15829772537E+03  0.32747385251E+04  0.32709103072E+04 0.  0.
        1    1    3    3  502    0  0.15199551246E+04 -0.43140247420E+03  0.50194856108E+03  0.16578069952E+04  0.50400001928E-02 0. -1.
       -1    1    3    3    0  502 -0.15199551246E+04  0.43140247420E+03 -0.34365083570E+03  0.16169315299E+04  0.50400001928E-02 0.  1.
</event>
<event>
 5   0  0.5637538E-06  0.3226336E+04  0.7818609E-02  0.8181896E-01
        2   -1    0    0  501    0  0.00000000000E+00  0.00000000000E+00  0.90352597161E+03  0.90352597161E+03  0.25500000920E-02 0.  1.
       -2   -1    0    0    0  501  0.00000000000E+00  0.00000000000E+00 -0.28801720036E+04  0.28801720036E+04  0.25500000920E-02 0. -1.
    10030    2    1    2    0    0  0.00000000000E+00  0.00000000000E+00 -0.19766460320E+04  0.37836979752E+04  0.32263355114E+04 0.  0.
        2    1    3    3  502    0 -0.44496911599E+02  0.12792390341E+03  0.89684606038E+03  0.90701563175E+03  0.25500000920E-02 0.  1.
       -2    1    3    3    0  502  0.44496911599E+02 -0.12792390341E+03 -0.28734920924E+04  0.28766823435E+04  0.25500000920E-02 0. -1.
</event>
<event>
 5   0  0.2097842E-06  0.3134876E+04  0.7818609E-02  0.8206231E-01
       -1   -1    0    0    0  501  0.00000000000E+00  0.00000000000E+00  0.79349506231E+03  0.79349506232E+03  0.50400001928E-02 0. -1.
        1   -1    0    0  501    0  0.00000000000E+00  0.00000000000E+00 -0.30962529081E+04  0.30962529081E+04  0.50400001928E-02 0.  1.
    10030    2    1    2    0    0  0.00000000000E+00  0.00000000000E+00 -0.23027578458E+04  0.38897479704E+04  0.31348756877E+04 0.  0.
        4    1    3    3  502    0 -0.37150277211E+03  0.10628738990E+04  0.20168546390E+03  0.11438504597E+04  0.12699999809E+01 0. -1.
       -4    1    3    3    0  502  0.37150277211E+03 -0.10628738990E+04 -0.25044433097E+04  0.27458975107E+04  0.12699999809E+01 0.  1.
</event>
<event>
 5   0  0.2730981E-06  0.1814054E+04  0.7818609E-02  0.8698861E-01
        1   -1    0    0  501    0  0.00000000000E+00  0.00000000000E+00  0.72031541828E+03  0.72031541830E+03  0.50400001928E-02 0. -1.
       -1   -1    0    0    0  501  0.00000000000E+00  0.00000000000E+00 -0.11421357617E+04  0.11421357617E+04  0.50400001928E-02 0.  1.
    10030    2    1    2    0    0  0.00000000000E+00  0.00000000000E+00 -0.42182034338E+03  0.18624511800E+04  0.18140540223E+04 0.  0.
        3    1    3    3  502    0  0.13802078314E+03 -0.88666755979E+03 -0.34660626463E+03  0.96195894457E+03  0.10100000352E+00 0.  1.
       -3    1    3    3    0  502 -0.13802078314E+03  0.88666755979E+03 -0.75214078753E+02  0.90049223540E+03  0.10100000352E+00 0. -1.
</event>
<event>
 5   0  0.5755250E-06  0.3322466E+04  0.7818609E-02  0.8157202E-01
        2   -1    0    0  501    0  0.00000000000E+00  0.00000000000E+00  0.18343241566E+04  0.18343241566E+04  0.25500000920E-02 0. -1.
       -2   -1    0    0    0  501  0.00000000000E+00  0.00000000000E+00 -0.15044755204E+04  0.15044755204E+04  0.25500000920E-02 0.  1.
    10030    2    1    2    0    0  0.00000000000E+00  0.00000000000E+00  0.32984863622E+03  0.33387996770E+04  0.33224664273E+04 0.  0.
        5    1    3    3  502    0  0.92623460878E+03  0.20437984256E+03  0.15354440834E+04  0.18047970229E+04  0.46999998093E+01 0. -1.
       -5    1    3    3    0  502 -0.92623460878E+03 -0.20437984256E+03 -0.12055954472E+04  0.15340026541E+04  0.46999998093E+01 0.  1.
</event>
<event>
 5   0  0.5637538E-06  0.2468242E+04  0.7818609E-02  0.8414388E-01
        2   -1    0    0  501    0  0.00000000000E+00  0.00000000000E+00  0.14925454351E+04  0.14925454351E+04  0.25500000920E-02 0. -1.
       -2   -1    0    0    0  501  0.00000000000E+00  0.00000000000E+00 -0.10204408679E+04  0.10204408679E+04  0.25500000920E-02 0.  1.
    10030    2    1    2    0    0  0.00000000000E+00  0.00000000000E+00  0.47210456725E+03  0.25129863030E+04  0.24682417703E+04 0.  0.
        2    1    3    3  502    0 -0.50472765596E+03 -0.98119554245E+03 -0.32674297872E+03  0.11507630831E+04  0.25500000920E-02 0.  1.
       -2    1    3    3    0  502  0.50472765596E+03  0.98119554245E+03  0.79884754597E+03  0.13622232199E+04  0.25500000920E-02 0. -1.
</event>
<event>
 5   0  0.1878000E-06  0.2693210E+04  0.7818609E-02  0.8337211E-01
        3   -1    0    0  501    0  0.00000000000E+00  0.00000000000E+00  0.17818282446E+04  0.17818282475E+04  0.10100000352E+00 0. -1.
       -3   -1    0    0    0  501  0.00000000000E+00  0.00000000000E+00 -0.10176879738E+04  0.10176879788E+04  0.10100000352E+00 0.  1.
    10030    2    1    2    0    0  0.00000000000E+00  0.00000000000E+00  0.76414027084E+03  0.27995162263E+04  0.26932101195E+04 0.  0.
        3    1    3    3  502    0  0.38801043463E+03 -0.26827279143E+03  0.16931334135E+04  0.17576186031E+04  0.10100000352E+00 0. -1.
       -3    1    3    3    0  502 -0.38801043463E+03  0.26827279143E+03 -0.92899314263E+03  0.10418976232E+04  0.10100000352E+00 0.  1.
</event>
<event>
 5   0  0.1999849E-06  0.2336785E+04  0.7818609E-02  0.8463557E-01
        1   -1    0    0  501    0  0.00000000000E+00  0.00000000000E+00  0.77703207913E+03  0.77703207915E+03  0.50400001928E-02 0.  1.
       -1   -1    0    0    0  501  0.00000000000E+00  0.00000000000E+00 -0.17568664846E+04  0.17568664846E+04  0.50400001928E-02 0. -1.
    10030    2    1    2    0    0  0.00000000000E+00  0.00000000000E+00 -0.97983440550E+03  0.25338985638E+04  0.23367854992E+04 0.  0.
        5    1    3    3  502    0  0.16513531844E+03 -0.23970225205E+03  0.73707546763E+03  0.79248291970E+03  0.46999998093E+01 0.  1.
       -5    1    3    3    0  502 -0.16513531844E+03  0.23970225205E+03 -0.17169098731E+04  0.17414156441E+04  0.46999998093E+01 0. -1.
</event>
<event>
 5   0  0.2037109E-06  0.3199223E+04  0.7818609E-02  0.8189022E-01
        1   -1    0    0  501    0  0.00000000000E+00  0.00000000000E+00  0.15879796934E+04  0.15879796934E+04  0.50400001928E-02 0. -1.
       -1   -1    0    0    0  501  0.00000000000E+00  0.00000000000E+00 -0.16113282236E+04  0.16113282237E+04  0.50400001928E-02 0.  1.
    10030    2    1    2    0    0  0.00000000000E+00  0.00000000000E+00 -0.23348530256E+02  0.31993079170E+04  0.31992227172E+04 0.  0.
        2    1    3    3  502    0  0.32397189970E+03 -0.20737613228E+02 -0.15780392715E+04  0.16110852811E+04  0.25500000920E-02 0.  1.
       -2    1    3    3    0  502 -0.32397189970E+03  0.20737613228E+02  0.15546907413E+04  0.15882226360E+04  0.25500000920E-02 0. -1.
</event>
<event>
 5   0  0.1925906E-06  0.1781555E+04  0.7818609E-02  0.8716170E-01
        1   -1    0    0  501    0  0.00000000000E+00  0.00000000000E+00  0.21100631000E+04  0.21100631000E+04  0.50400001928E-02 0.  1.
       -1   -1    0    0    0  501  0.00000000000E+00  0.00000000000E+00 -0.37604778288E+03  0.37604778291E+03  0.50400001928E-02 0. -1.
    10030    2    1    2    0    0  0.00000000000E+00  0.00000000000E+00  0.17340153171E+04  0.24861108829E+04  0.17815549955E+04 0.  0.
        1    1    3    3  502    0  0.36624143081E+02  0.84283002056E+03  0.12660756390E+04  0.15213978096E+04  0.50400001928E-02 0.  1.
       -1    1    3    3    0  502 -0.36624143081E+02 -0.84283002056E+03  0.46793967813E+03  0.96471307330E+03  0.50400001928E-02 0. -1.
</event>
<event>
 5   0  0.5637538E-06  0.4032011E+04  0.7818609E-02  0.7998120E-01
        2   -1    0    0  501    0  0.00000000000E+00  0.00000000000E+00  0.18602323323E+04  0.18602323323E+04  0.25500000920E-02 0.  1.
       -2   -1    0    0    0  501  0.00000000000E+00  0.00000000000E+00 -0.21848228336E+04  0.21848228336E+04  0.25500000920E-02 0. -1.
    10030    2    1    2    0    0  0.00000000000E+00  0.00000000000E+00 -0.32459050134E+03  0.40450551659E+04  0.40320109501E+04 0.  0.
        2    1    3    3  502    0 -0.16610034963E+04  0.52307566662E+02 -0.13073067450E+04  0.21144076290E+04  0.25500000920E-02 0. -1.
       -2    1    3    3    0  502  0.16610034963E+04 -0.52307566662E+02  0.98271624365E+03  0.19306475369E+04  0.25500000920E-02 0.  1.
</event>
<event>
 5   0  0.1925906E-06  0.3035414E+04  0.7818609E-02  0.8233690E-01
       -1   -1    0    0    0  501  0.00000000000E+00  0.00000000000E+00  0.88388192577E+03  0.88388192578E+03  0.50400001928E-02 0.  1.
        1   -1    0    0  501    0  0.00000000000E+00  0.00000000000E+00 -0.26060432204E+04  0.26060432204E+04  0.50400001928E-02 0. -1.
    10030    2    1    2    0    0  0.00000000000E+00  0.00000000000E+00 -0.17221612946E+04  0.34899251461E+04  0.30354139752E+04 0.  0.
        1    1    3    3  502    0 -0.12587645155E+04 -0.58773819359E+03 -0.15637474276E+04  0.20917051195E+04  0.50400001928E-02 0. -1.
       -1    1    3    3    0  502  0.12587645155E+04  0.58773819359E+03 -0.15841386700E+03  0.13982200266E+04  0.50400001928E-02 0.  1.
</event>
<event>
 5   0  0.5755250E-06  0.3331260E+04  0.7818609E-02  0.8154987E-01
       -2   -1    0    0    0  501  0.00000000000E+00  0.00000000000E+00  0.20287422287E+04  0.20287422287E+04  0.25500000920E-02 0. -1.
        2   -1    0    0  501    0  0.00000000000E+00  0.00000000000E+00 -0.13675090602E+04  0.13675090602E+04  0.25500000920E-02 0.  1.
    10030    2    1    2    0    0  0.00000000000E+00  0.00000000000E+00  0.66123316848E+03  0.33962512888E+04  0.33312600490E+04 0.  0.
        5    1    3    3  502    0 -0.13137491206E+04  0.55950084231E+03  0.12048561479E+04  0.18683357224E+04  0.46999998093E+01 0.  1.
       -5    1    3    3    0  502  0.13137491206E+04 -0.55950084231E+03 -0.54362297942E+03  0.15279155664E+04  0.46999998093E+01 0. -1.
</event>
<event>
 5   0  0.2730981E-06  0.2809714E+04  0.7818609E-02  0.8300259E-01
        1   -1    0    0  501    0  0.00000000000E+00  0.00000000000E+00  0.16116618417E+04  0.16116618417E+04  0.50400001928E-02 0. -1.
       -1   -1    0    0    0  501  0.00000000000E+00  0.00000000000E+00 -0.12245889478E+04  0.12245889478E+04  0.50400001928E-02 0.  1.
    10030    2    1    2    0    0  0.00000000000E+00  0.00000000000E+00  0.38707289386E+03  0.28362507895E+04  0.28097140630E+04 0.  0.
        3    1    3    3  502    0  0.48742244451E+03  0.80870908158E+03 -0.85649572906E+03  0.12748238946E+04  0.10100000352E+00 0.  1.
       -3    1    3    3    0  502 -0.48742244451E+03 -0.80870908158E+03  0.12435686229E+04  0.15614268949E+04  0.10100000352E+00 0. -1.
</event>
<event>
 5   0  0.1878000E-06  0.2020978E+04  0.7818609E-02  0.8596875E-01
       -3   -1    0    0    0  501  0.00000000000E+00  0.00000000000E+00  0.57107716412E+03  0.57107717305E+03  0.10100000352E+00 0. -1.
        3   -1    0    0  501    0  0.00000000000E+00  0.00000000000E+00 -0.17880030794E+04  0.17880030823E+04  0.10100000352E+00 0.  1.
    10030    2    1    2    0    0  0.00000000000E+00  0.00000000000E+00 -0.12169259153E+04  0.23590802553E+04  0.20209777257E+04 0.  0.
        1    1    3    3  502    0 -0.18072039448E+03 -0.26613409604E+03  0.50970750333E+03  0.60273456599E+03  0.50400001928E-02 0. -1.
       -1    1    3    3    0  502  0.18072039448E+03  0.26613409604E+03 -0.17266334187E+04  0.17563456894E+04  0.50400001928E-02 0.  1.
</event>
<event>
 5   0  0.1999849E-06  0.2041361E+04  0.7818609E-02  0.8587524E-01
        1   -1    0    0  501    0  0.00000000000E+00  0.00000000000E+00  0.11999119324E+04  0.11999119324E+04  0.50400001928E-02 0. -1.
       -1   -1    0    0    0  501  0.00000000000E+00  0.00000000000E+00 -0.86822088356E+03  0.86822088357E+03  0.50400001928E-02 0.  1.
    10030    2    1    2    0    0  0.00000000000E+00  0.00000000000E+00  0.33169104884E+03  0.20681328160E+04  0.20413609168E+04 0.  0.
        5    1    3    3  502    0 -0.77054431275E+03 -0.25566392181E+03  0.79255663412E+03  0.11345795200E+04  0.46999998093E+01 0. -1.
       -5    1    3    3    0  502  0.77054431275E+03  0.25566392181E+03 -0.46086558528E+03  0.93355329603E+03  0.46999998093E+01 0.  1.
</event>
<event>
 5   0  0.5637538E-06  0.3264068E+04  0.7818609E-02  0.8172099E-01
       -2   -1    0    0    0  501  0.00000000000E+00  0.00000000000E+00  0.15106288730E+04  0.15106288730E+04  0.25500000920E-02 0.  1.
        2   -1    0    0  501    0  0.00000000000E+00  0.00000000000E+00 -0.17631960584E+04  0.17631960584E+04  0.25500000920E-02 0. -1.
    10030    2    1    2    0    0  0.00000000000E+00  0.00000000000E+00 -0.25256718541E+03  0.32738249313E+04  0.32640679371E+04 0.  0.
        2    1    3    3  502    0 -0.96267365410E+03  0.54473947967E+03 -0.13298928850E+04  0.17297678314E+04  0.25500000920E-02 0. -1.
       -2    1    3    3    0  502  0.96267365410E+03 -0.54473947967E+03  0.10773256996E+04  0.15440571000E+04  0.25500000920E-02 0.  1.
</event>
<event>
 5   0  0.1878000E-06  0.3312231E+04  0.7818609E-02  0.8159790E-01
       -3   -1    0    0    0  501  0.00000000000E+00  0.00000000000E+00  0.14417000017E+04  0.14417000053E+04  0.10100000352E+00 0. -1.
        3   -1    0    0  501    0  0.00000000000E+00  0.00000000000E+00 -0.19024202515E+04  0.19024202542E+04  0.10100000352E+00 0.  1.
    10030    2    1    2    0    0  0.00000000000E+00  0.00000000000E+00 -0.46072024982E+03  0.33441202595E+04  0.33122314474E+04 0.  0.
        3    1    3    3  502    0  0.15000245239E+04 -0.26926967764E+02 -0.93848318272E+03  0.17696184132E+04  0.10100000352E+00 0.  1.
       -3    1    3    3    0  502 -0.15000245239E+04  0.26926967764E+02  0.47776293290E+03  0.15745018463E+04  0.10100000352E+00 0. -1.
</event>
<event>
 5   0  0.1925906E-06  0.3000364E+04  0.7818609E-02  0.8243627E-01
        1   -1    0    0  501    0  0.00000000000E+00  0.00000000000E+00  0.25536655236E+04  0.25536655236E+04  0.50400001928E-02 0. -1.
       -1   -1    0    0    0  501  0.00000000000E+00  0.00000000000E+00 -0.88130041707E+03  0.88130041708E+03  0.50400001928E-02 0.  1.
    10030    2    1    2    0    0  0.00000000000E+00  0.00000000000E+00  0.16723651065E+04  0.34349659407E+04  0.30003643052E+04 0.  0.
        1    1    3    3  502    0  0.52300508688E+03  0.51521470011E+03  0.23339530386E+04  0.24466951781E+04  0.50400001928E-02 0. -1.
       -1    1    3    3    0  502 -0.52300508688E+03 -0.51521470011E+03 -0.66158793213E+03  0.98827076253E+03  0.50400001928E-02 0.  1.
</event>
<event>
 5   0  0.5637538E-06  0.2193454E+04  0.7818609E-02  0.8521157E-01
       -2   -1    0    0    0  501  0.00000000000E+00  0.00000000000E+00  0.61788400549E+03  0.61788400550E+03  0.25500000920E-02 0.  1.
        2   -1    0    0  501    0  0.00000000000E+00  0.00000000000E+00 -0.19466609217E+04  0.19466609217E+04  0.25500000920E-02 0. -1.
    10030    2    1    2    0    0  0.00000000000E+00  0.00000000000E+00 -0.13287769162E+04  0.25645449272E+04  0.21934544879E+04 0.  0.
        2    1    3    3  502    0 -0.69889476212E+03 -0.48965076772E+03 -0.14698504295E+04  0.16996093810E+04  0.25500000920E-02 0. -1.
       -2    1    3    3    0  502  0.69889476212E+03  0.48965076772E+03  0.14107351334E+03  0.86493554616E+03  0.25500000920E-02 0.  1.
</event>
<event>
 5   0  0.2037109E-06  0.3278028E+04  0.7818609E-02  0.8168509E-01
       -1   -1    0    0    0  501  0.00000000000E+00  0.00000000000E+00  0.15196570567E+04  0.15196570567E+04  0.50400001928E-02 0.  1.
        1   -1    0    0  501    0  0.00000000000E+00  0.00000000000E+00 -0.17677452399E+04  0.17677452399E+04  0.50400001928E-02 0. -1.
    10030    2    1    2    0    0  0.00000000000E+00  0.00000000000E+00 -0.24808818321E+03  0.32874022966E+04  0.32780277780E+04 0.  0.
        2    1    3    3  502    0  0.11829167561E+04 -0.70032024786E+03 -0.10191356688E+04  0.17112504237E+04  0.25500000920E-02 0. -1.
       -2    1    3    3    0  502 -0.11829167561E+04  0.70032024786E+03  0.77104748557E+03  0.15761518729E+04  0.25500000920E-02 0.  1.
</event>
<event>
 5   0  0.2037109E-06  0.3316998E+04  0.7818609E-02  0.8158584E-01
       -1   -1    0    0    0  501  0.00000000000E+00  0.00000000000E+00  0.99345346330E+03  0.99345346331E+03  0.50400001928E-02 0. -1.
        1   -1    0    0  501    0  0.00000000000E+00  0.00000000000E+00 -0.27687441252E+04  0.27687441252E+04  0.50400001928E-02 0.  1.
    10030    2    1    2    0    0  0.00000000000E+00  0.00000000000E+00 -0.17752906619E+04  0.37621975885E+04  0.33169977029E+04 0.  0.
        2    1    3    3  502    0  0.13908529487E+04  0.80831669613E+03 -0.13452436891E+04  0.20970284665E+04  0.25500000920E-02 0. -1.
       -2    1    3    3    0  502 -0.13908529487E+04 -0.80831669613E+03 -0.43004697286E+03  0.16651691221E+04  0.25500000920E-02 0.  1.
</event>
<event>
 5   0  0.2097842E-06  0.3212907E+04  0.7818609E-02  0.8185417E-01
       -1   -1    0    0    0  501  0.00000000000E+00  0.00000000000E+00  0.29631645916E+04  0.29631645916E+04  0.50400001928E-02 0. -1.
        1   -1    0    0  501    0  0.00000000000E+00  0.00000000000E+00 -0.87092472503E+03  0.87092472505E+03  0.50400001928E-02 0.  1.
    10030    2    1    2    0    0  0.00000000000E+00  0.00000000000E+00  0.20922398666E+04  0.38340893167E+04  0.32129072861E+04 0.  0.
        4    1    3    3  502    0 -0.41374782524E+03 -0.15336140359E+04  0.75988650315E+03  0.17608487682E+04  0.12699999809E+01 0. -1.
       -4    1    3    3    0  502  0.41374782524E+03  0.15336140359E+04  0.13323533634E+04  0.20732405485E+04  0.12699999809E+01 0.  1.
</event>
<event>
 5   0  0.2097842E-06  0.2887352E+04  0.7818609E-02  0.8276651E-01
        1   -1    0    0  501    0  0.00000000000E+00  0.00000000000E+00  0.18272563571E+04  0.18272563572E+04  0.50400001928E-02 0. -1.
       -1   -1    0    0    0  501  0.00000000000E+00  0.00000000000E+00 -0.11406171776E+04  0.11406171776E+04  0.50400001928E-02 0.  1.
    10030    2    1    2    0    0  0.00000000000E+00  0.00000000000E+00  0.68663917957E+03  0.29678735347E+04  0.28873517201E+04 0.  0.
        4    1    3    3  502    0  0.64538173257E+03 -0.73970347200E+03  0.14313860505E+04  0.17356688756E+04  0.12699999809E+01 0. -1.
       -4    1    3    3    0  502 -0.64538173257E+03  0.73970347200E+03 -0.74474687097E+03  0.12322046591E+04  0.12699999809E+01 0.  1.
</event>
<event>
 5   0  0.1999849E-06  0.3220650E+04  0.7818609E-02  0.8183385E-01
        1   -1    0    0  501    0  0.00000000000E+00  0.00000000000E+00  0.14147629054E+04  0.14147629054E+04  0.50400001928E-02 0.  1.
       -1   -1    0    0    0  501  0.00000000000E+00  0.00000000000E+00 -0.18329197956E+04  0.18329197956E+04  0.50400001928E-02 0. -1.
    10030    2    1    2    0    0  0.00000000000E+00  0.00000000000E+00 -0.41815689015E+03  0.32476827010E+04  0.32206502048E+04 0.  0.
        5    1    3    3  502    0 -0.71968211294E+03  0.20689916663E+03 -0.16466583080E+04  0.18089376115E+04  0.46999998093E+01 0. -1.
       -5    1    3    3    0  502  0.71968211294E+03 -0.20689916663E+03  0.12285014179E+04  0.14387450895E+04  0.46999998093E+01 0.  1.
</event>
<event>
 5   0  0.2730981E-06  0.2939590E+04  0.7818609E-02  0.8261195E-01
       -1   -1    0    0    0  501  0.00000000000E+00  0.00000000000E+00  0.10253211626E+04  0.10253211626E+04  0.50400001928E-02 0. -1.
        1   -1    0    0  501    0  0.00000000000E+00  0.00000000000E+00 -0.21069463816E+04  0.21069463816E+04  0.50400001928E-02 0.  1.
    10030    2    1    2    0    0  0.00000000000E+00  0.00000000000E+00 -0.10816252190E+04  0.31322675442E+04  0.29395895724E+04 0.  0.
        3    1    3    3  502    0 -0.90520513380E+03  0.11494729181E+04 -0.69003613578E+03  0.16176631919E+04  0.10100000352E+00 0.  1.
       -3    1    3    3    0  502  0.90520513380E+03 -0.11494729181E+04 -0.39158908320E+03  0.15146043523E+04  0.10100000352E+00 0. -1.
</event>
<event>
 5   0  0.5755250E-06  0.3482288E+04  0.7818609E-02  0.8118000E-01
       -2   -1    0    0    0  501  0.00000000000E+00  0.00000000000E+00  0.14314102439E+04  0.14314102439E+04  0.25500000920E-02 0. -1.
        2   -1    0    0  501    0  0.00000000000E+00  0.00000000000E+00 -0.21178985531E+04  0.21178985531E+04  0.25500000920E-02 0.  1.
    10030    2    1    2    0    0  0.00000000000E+00  0.00000000000E+00 -0.68648830924E+03  0.35493087970E+04  0.34822875725E+04 0.  0.
        5    1    3    3  502    0  0.16730104619E+04  0.42764184172E+03 -0.11597726460E+03  0.17306976531E+04  0.46999998093E+01 0. -1.
       -5    1    3    3    0  502 -0.16730104619E+04 -0.42764184172E+03 -0.57051104464E+03  0.18186111439E+04  0.46999998093E+01 0.  1.
</event>
<event>
 5   0  0.1999849E-06  0.3302343E+04  0.7818609E-02  0.8162299E-01
       -1   -1    0    0    0  501  0.00000000000E+00  0.00000000000E+00  0.21174307076E+04  0.21174307076E+04  0.50400001928E-02 0. -1.
        1   -1    0    0  501    0  0.00000000000E+00  0.00000000000E+00 -0.12875830681E+04  0.12875830681E+04  0.50400001928E-02 0.  1.
    10030    2    1    2    0    0  0.00000000000E+00  0.00000000000E+00  0.82984763947E+03  0.34050137757E+04  0.33023433662E+04 0.  0.
        5    1    3    3  502    0  0.95301978514E+03  0.10687499794E+04  0.12625982212E+04  0.19090965369E+04  0.46999998093E+01 0. -1.
       -5    1    3    3    0  502 -0.95301978514E+03 -0.10687499794E+04 -0.43275058168E+03  0.14959172388E+04  0.46999998093E+01 0.  1.
</event>
<event>
 5   0  0.5622811E-06  0.3279938E+04  0.7818609E-02  0.8168019E-01
       -2   -1    0    0    0  501  0.00000000000E+00  0.00000000000E+00  0.10574583733E+04  0.10574583733E+04  0.25500000920E-02 0.  1.
        2   -1    0    0  501    0  0.00000000000E+00  0.00000000000E+00 -0.25433609834E+04  0.25433609834E+04  0.25500000920E-02 0. -1.
    10030    2    1    2    0    0  0.00000000000E+00  0.00000000000E+00 -0.14859026101E+04  0.36008193567E+04  0.32799380288E+04 0.  0.
        1    1    3    3  502    0 -0.12509438153E+04  0.10498650967E+04 -0.57856512818E+03  0.17325746039E+04  0.50400001928E-02 0. -1.
       -1    1    3    3    0  502  0.12509438153E+04 -0.10498650967E+04 -0.90733748188E+03  0.18682447528E+04  0.50400001928E-02 0.  1.
</event>
<event>
 5   0  0.2730981E-06  0.3322215E+04  0.7818609E-02  0.8157266E-01
       -1   -1    0    0    0  501  0.00000000000E+00  0.00000000000E+00  0.13368763523E+04  0.13368763523E+04  0.50400001928E-02 0. -1.
        1   -1    0    0  501    0  0.00000000000E+00  0.00000000000E+00 -0.20639745868E+04  0.20639745868E+04  0.50400001928E-02 0.  1.
    10030    2    1    2    0    0  0.00000000000E+00  0.00000000000E+00 -0.72709823442E+03  0.34008509391E+04  0.33222154156E+04 0.  0.
        3    1    3    3  502    0  0.51458167551E+03 -0.15792060830E+04 -0.33862842165E+03  0.16950974519E+04  0.10100000352E+00 0. -1.
       -3    1    3    3    0  502 -0.51458167551E+03  0.15792060830E+04 -0.38846981277E+03  0.17057534872E+04  0.10100000352E+00 0.  1.
</event>
<event>
 5   0  0.2037109E-06  0.2591555E+04  0.7818609E-02  0.8371075E-01
       -1   -1    0    0    0  501  0.00000000000E+00  0.00000000000E+00  0.16827740888E+04  0.16827740888E+04  0.50400001928E-02 0. -1.
        1   -1    0    0  501    0  0.00000000000E+00  0.00000000000E+00 -0.99778094233E+03  0.99778094234E+03  0.50400001928E-02 0.  1.
    10030    2    1    2    0    0  0.00000000000E+00  0.00000000000E+00  0.68499314643E+03  0.26805550311E+04  0.25915554527E+04 0.  0.
        2    1    3    3  502    0 -0.10782198364E+04 -0.71280946778E+03  0.43720844932E+03  0.13644803337E+04  0.25500000920E-02 0.  1.
       -2    1    3    3    0  502  0.10782198364E+04  0.71280946778E+03  0.24778469711E+03  0.13160746974E+04  0.25500000920E-02 0. -1.
</event>
<event>
 5   0  0.5622811E-06  0.2773958E+04  0.7818609E-02  0.8311399E-01
       -2   -1    0    0    0  501  0.00000000000E+00  0.00000000000E+00  0.89922678390E+03  0.89922678390E+03  0.25500000920E-02 0.  1.
        2   -1    0    0  501    0  0.00000000000E+00  0.00000000000E+00 -0.21392935861E+04  0.21392935861E+04  0.25500000920E-02 0. -1.
    10030    2    1    2    0    0  0.00000000000E+00  0.00000000000E+00 -0.12400668022E+04  0.30385203700E+04  0.27739575276E+04 0.  0.
        1    1    3    3  502    0 -0.12790966938E+04  0.50427695914E+02 -0.35182995106E+02  0.12805737573E+04  0.50400001928E-02 0.  1.
       -1    1    3    3    0  502  0.12790966938E+04 -0.50427695914E+02 -0.12048838071E+04  0.17579466127E+04  0.50400001928E-02 0. -1.
</event>
<event>
 5   0  0.5855568E-06  0.3272334E+04  0.7818609E-02  0.8169971E-01
        2   -1    0    0  501    0  0.00000000000E+00  0.00000000000E+00  0.16381461828E+04  0.16381461828E+04  0.25500000920E-02 0. -1.
       -2   -1    0    0    0  501  0.00000000000E+00  0.00000000000E+00 -0.16341902382E+04  0.16341902382E+04  0.25500000920E-02 0.  1.
    10030    2    1    2    0    0  0.00000000000E+00  0.00000000000E+00  0.39559446294E+01  0.32723364210E+04  0.32723340298E+04 0.  0.
        3    1    3    3  502    0 -0.44921435117E+03 -0.15084720347E+04 -0.44496874659E+03  0.16356278943E+04  0.10100000352E+00 0.  1.
       -3    1    3    3    0  502  0.44921435117E+03  0.15084720347E+04  0.44892469122E+03  0.16367085267E+04  0.10100000352E+00 0. -1.
</event>
<event>
 5   0  0.5622811E-06  0.1921447E+04  0.7818609E-02  0.8644254E-01
       -2   -1    0    0    0  501  0.00000000000E+00  0.00000000000E+00  0.71169601706E+03  0.71169601707E+03  0.25500000920E-02 0. -1.
        2   -1    0    0  501    0  0.00000000000E+00  0.00000000000E+00 -0.12968879550E+04  0.12968879550E+04  0.25500000920E-02 0.  1.
    10030    2    1    2    0    0  0.00000000000E+00  0.00000000000E+00 -0.58519193797E+03  0.20085839721E+04  0.19214473630E+04 0.  0.
        1    1    3    3  502    0  0.47890455768E+03 -0.34848264383E+03  0.49814734402E+03  0.77391246585E+03  0.50400001928E-02 0. -1.
       -1    1    3    3    0  502 -0.47890455768E+03  0.34848264383E+03 -0.10833392820E+04  0.12346715063E+04  0.50400001928E-02 0.  1.
</event>
<event>
 5   0  0.5855568E-06  0.3175230E+04  0.7818609E-02  0.8195390E-01
        2   -1    0    0  501    0  0.00000000000E+00  0.00000000000E+00  0.10537476863E+04  0.10537476863E+04  0.25500000920E-02 0.  1.
       -2   -1    0    0    0  501  0.00000000000E+00  0.00000000000E+00 -0.23919585916E+04  0.23919585916E+04  0.25500000920E-02 0. -1.
    10030    2    1    2    0    0  0.00000000000E+00  0.00000000000E+00 -0.13382109053E+04  0.34457062779E+04  0.31752296494E+04 0.  0.
        3    1    3    3  502    0  0.33338742267E+03 -0.26168884254E+03  0.99122241389E+03  0.10780306619E+04  0.10100000352E+00 0.  1.
       -3    1    3    3    0  502 -0.33338742267E+03  0.26168884254E+03 -0.23294333192E+04  0.23676756160E+04  0.10100000352E+00 0. -1.
</event>
<event>
 5   0  0.5637538E-06  0.3354379E+04  0.7818609E-02  0.8149195E-01
       -2   -1    0    0    0  501  0.00000000000E+00  0.00000000000E+00  0.11747809948E+04  0.11747809948E+04  0.25500000920E-02 0.  1.
        2   -1    0    0  501    0  0.00000000000E+00  0.00000000000E+00 -0.23944583104E+04  0.23944583104E+04  0.25500000920E-02 0. -1.
    10030    2    1    2    0    0  0.00000000000E+00  0.00000000000E+00 -0.12196773156E+04  0.35692393052E+04  0.33543787001E+04 0.  0.
        2    1    3    3  502    0 -0.11888625475E+04  0.22918940153E+03 -0.18448023008E+04  0.22066303423E+04  0.25500000920E-02 0. -1.
       -2    1    3    3    0  502  0.11888625475E+04 -0.22918940153E+03  0.62512498518E+03  0.13626089629E+04  0.25500000920E-02 0.  1.
</event>
<event>
 5   0  0.5622811E-06  0.2001159E+04  0.7818609E-02  0.8606079E-01
       -2   -1    0    0    0  501  0.00000000000E+00  0.00000000000E+00  0.97983874002E+03  0.97983874002E+03  0.25500000920E-02 0.  1.
        2   -1    0    0  501    0  0.00000000000E+00  0.00000000000E+00 -0.10217597411E+04  0.10217597411E+04  0.25500000920E-02 0. -1.
    10030    2    1    2    0    0  0.00000000000E+00  0.00000000000E+00 -0.41921001035E+02  0.20015984811E+04  0.20011594412E+04 0.  0.
        1    1    3    3  502    0 -0.66450889925E+03  0.42476825006E+03 -0.63685498970E+03  0.10136983878E+04  0.50400001928E-02 0. -1.
       -1    1    3    3    0  502  0.66450889925E+03 -0.42476825006E+03  0.59493398867E+03  0.98790009330E+03  0.50400001928E-02 0.  1.
</event>
<event>
 5   0  0.1999849E-06  0.3366038E+04  0.7818609E-02  0.8146292E-01
        1   -1    0    0  501    0  0.00000000000E+00  0.00000000000E+00  0.15748716565E+04  0.15748716565E+04  0.50400001928E-02 0.  1.
       -1   -1    0    0    0  501  0.00000000000E+00  0.00000000000E+00 -0.17985930435E+04  0.17985930435E+04  0.50400001928E-02 0. -1.
    10030    2    1    2    0    0  0.00000000000E+00  0.00000000000E+00 -0.22372138704E+03  0.33734647000E+04  0.33660381494E+04 0.  0.
        5    1    3    3  502    0  0.10386802339E+04  0.12084649028E+04  0.43089400523E+03  0.16507379511E+04  0.46999998093E+01 0.  1.
       -5    1    3    3    0  502 -0.10386802339E+04 -0.12084649028E+04 -0.65461539227E+03  0.17227267489E+04  0.46999998093E+01 0. -1.
</event>
<event>
 5   0  0.1999849E-06  0.2820547E+04  0.7818609E-02  0.8296918E-01
       -1   -1    0    0    0  501  0.00000000000E+00  0.00000000000E+00  0.25435632831E+04  0.25435632831E+04  0.50400001928E-02 0.  1.
        1   -1    0    0  501    0  0.00000000000E+00  0.00000000000E+00 -0.78192318013E+03  0.78192318014E+03  0.50400001928E-02 0. -1.
    10030    2    1    2    0    0  0.00000000000E+00  0.00000000000E+00  0.17616401030E+04  0.33254864632E+04  0.28205468202E+04 0.  0.
        5    1    3    3  502    0  0.31459411733E+03  0.10114539548E+04 -0.21689963519E+03  0.10812382268E+04  0.46999998093E+01 0. -1.
       -5    1    3    3    0  502 -0.31459411733E+03 -0.10114539548E+04  0.19785397382E+04  0.22442482365E+04  0.46999998093E+01 0.  1.
</event>
<event>
 5   0  0.5637538E-06  0.3300047E+04  0.7818609E-02  0.8162883E-01
       -2   -1    0    0    0  501  0.00000000000E+00  0.00000000000E+00  0.16832259329E+04  0.16832259330E+04  0.25500000920E-02 0. -1.
        2   -1    0    0  501    0  0.00000000000E+00  0.00000000000E+00 -0.16174761369E+04  0.16174761369E+04  0.25500000920E-02 0.  1.
    10030    2    1    2    0    0  0.00000000000E+00  0.00000000000E+00  0.65749796067E+02  0.33007020698E+04  0.33000471388E+04 0.  0.
        2    1    3    3  502    0 -0.56876808645E+03 -0.46392464317E+03 -0.14452054365E+04  0.16209077594E+04  0.25500000920E-02 0.  1.
       -2    1    3    3    0  502  0.56876808645E+03  0.46392464317E+03  0.15109552326E+04  0.16797943105E+04  0.25500000920E-02 0. -1.
</event>
<event>
 5   0  0.2730981E-06  0.3190558E+04  0.7818609E-02  0.8191315E-01
       -1   -1    0    0    0  501  0.00000000000E+00  0.00000000000E+00  0.15651982709E+04  0.15651982709E+04  0.50400001928E-02 0. -1.
        1   -1    0    0  501    0  0.00000000000E+00  0.00000000000E+00 -0.16259379844E+04  0.16259379844E+04  0.50400001928E-02 0.  1.
    10030    2    1    2    0    0  0.00000000000E+00  0.00000000000E+00 -0.60739713524E+02  0.31911362553E+04  0.31905581466E+04 0.  0.
        3    1    3    3  502    0  0.11700389038E+02 -0.72725484763E+02  0.15634964419E+04  0.15652306633E+04  0.10100000352E+00 0. -1.
       -3    1    3    3    0  502 -0.11700389038E+02  0.72725484763E+02 -0.16242361554E+04  0.16259055920E+04  0.10100000352E+00 0.  1.
</event>
<event>
 5   0  0.1999849E-06  0.3372624E+04  0.7818609E-02  0.8144658E-01
       -1   -1    0    0    0  501  0.00000000000E+00  0.00000000000E+00  0.12040334881E+04  0.12040334882E+04  0.50400001928E-02 0. -1.
        1   -1    0    0  501    0  0.00000000000E+00  0.00000000000E+00 -0.23617684040E+04  0.23617684040E+04  0.50400001928E-02 0.  1.
    10030    2    1    2    0    0  0.00000000000E+00  0.00000000000E+00 -0.11577349159E+04  0.35658018922E+04  0.33726240524E+04 0.  0.
        5    1    3    3  502    0 -0.89030785078E+03  0.13799355541E+03 -0.20859751160E+04  0.22722245851E+04  0.46999998093E+01 0.  1.
       -5    1    3    3    0  502  0.89030785078E+03 -0.13799355541E+03  0.92824020008E+03  0.12935773071E+04  0.46999998093E+01 0. -1.
</event>
<event>
 5   0  0.5755250E-06  0.3290386E+04  0.7818609E-02  0.8165346E-01
        2   -1    0    0  501    0  0.00000000000E+00  0.00000000000E+00  0.25854713405E+04  0.25854713405E+04  0.25500000920E-02 0.  1.
       -2   -1    0    0    0  501  0.00000000000E+00  0.00000000000E+00 -0.10468728869E+04  0.10468728869E+04  0.25500000920E-02 0. -1.
    10030    2    1    2    0    0  0.00000000000E+00  0.00000000000E+00  0.15385984536E+04  0.36323442275E+04  0.32903859022E+04 0.  0.
        5    1    3    3  502    0 -0.10295448743E+03  0.16330989010E+04  0.95737574544E+03  0.18958380877E+04  0.46999998093E+01 0. -1.
       -5    1    3    3    0  502  0.10295448743E+03 -0.16330989010E+04  0.58122270815E+03  0.17365061397E+04  0.46999998093E+01 0.  1.
</event>
<event>
 5   0  0.5855568E-06  0.3322199E+04  0.7818609E-02  0.8157270E-01
        2   -1    0    0  501    0  0.00000000000E+00  0.00000000000E+00  0.17768289413E+04  0.17768289413E+04  0.25500000920E-02 0.  1.
       -2   -1    0    0    0  501  0.00000000000E+00  0.00000000000E+00 -0.15529082523E+04  0.15529082523E+04  0.25500000920E-02 0. -1.
    10030    2    1    2    0    0  0.00000000000E+00  0.00000000000E+00  0.22392068898E+03  0.33297371936E+04  0.33221994677E+04 0.  0.
        3    1    3    3  502    0  0.57902374821E+03  0.13815181364E+04  0.83149689403E+03  0.17132565357E+04  0.10100000352E+00 0. -1.
       -3    1    3    3    0  502 -0.57902374821E+03 -0.13815181364E+04 -0.60757620504E+03  0.16164806579E+04  0.10100000352E+00 0.  1.
</event>
<event>
 5   0  0.1999849E-06  0.2618447E+04  0.7818609E-02  0.8361962E-01
        1   -1    0    0  501    0  0.00000000000E+00  0.00000000000E+00  0.23734253580E+04  0.23734253580E+04  0.50400001928E-02 0.  1.
       -1   -1    0    0    0  501  0.00000000000E+00  0.00000000000E+00 -0.72219113951E+03  0.72219113953E+03  0.50400001928E-02 0. -1.
    10030    2    1    2    0    0  0.00000000000E+00  0.00000000000E+00  0.16512342185E+04  0.30956164975E+04  0.26184474514E+04 0.  0.
        5    1    3    3  502    0 -0.12632759314E+04 -0.31476947073E+03  0.98899980180E+03  0.16349582859E+04  0.46999998093E+01 0.  1.
       -5    1    3    3    0  502  0.12632759314E+04  0.31476947073E+03  0.66223441669E+03  0.14606582117E+04  0.46999998093E+01 0. -1.
</event>
<event>
 5   0  0.5637538E-06  0.3344295E+04  0.7818609E-02  0.8151715E-01
        2   -1    0    0  501    0  0.00000000000E+00  0.00000000000E+00  0.32726383544E+04  0.32726383544E+04  0.25500000920E-02 0. -1.
       -2   -1    0    0    0  501  0.00000000000E+00  0.00000000000E+00 -0.85438004097E+03  0.85438004097E+03  0.25500000920E-02 0.  1.
    10030    2    1    2    0    0  0.00000000000E+00  0.00000000000E+00  0.24182583134E+04  0.41270183954E+04  0.33442947785E+04 0.  0.
        2    1    3    3  502    0  0.13937063827E+04  0.56753322212E+03  0.21088550670E+04  0.25907105459E+04  0.25500000920E-02 0. -1.
       -2    1    3    3    0  502 -0.13937063827E+04 -0.56753322212E+03  0.30940324643E+03  0.15363078494E+04  0.25500000920E-02 0.  1.
</event>
<event>
 5   0  0.1925906E-06  0.3263736E+04  0.7818609E-02  0.8172184E-01
       -1   -1    0    0    0  501  0.00000000000E+00  0.00000000000E+00  0.16644181396E+04  0.16644181396E+04  0.50400001928E-02 0.  1.
        1   -1    0    0  501    0  0.00000000000E+00  0.00000000000E+00 -0.15999547849E+04  0.15999547849E+04  0.50400001928E-02 0. -1.
    10030    2    1    2    0    0  0.00000000000E+00  0.00000000000E+00  0.64463354699E+02  0.32643729245E+04  0.32637363659E+04 0.  0.
        1    1    3    3  502    0  0.31849333778E+03 -0.37288679316E+03 -0.15245137303E+04  0.16014445606E+04  0.50400001928E-02 0. -1.
       -1    1    3    3    0  502 -0.31849333778E+03  0.37288679316E+03  0.15889770850E+04  0.16629283639E+04  0.50400001928E-02 0.  1.
</event>
<event>
 5   0  0.5622811E-06  0.3403780E+04  0.7818609E-02  0.8136979E-01
        2   -1    0    0  501    0  0.00000000000E+00  0.00000000000E+00  0.21517793739E+04  0.21517793739E+04  0.25500000920E-02 0. -1.
       -2   -1    0    0    0  501  0.00000000000E+00  0.00000000000E+00 -0.13460628364E+04  0.13460628364E+04  0.25500000920E-02 0.  1.
    10030    2    1    2    0    0  0.00000000000E+00  0.00000000000E+00  0.80571653754E+03  0.34978422103E+04  0.34037803967E+04 0.  0.
        1    1    3    3  502    0 -0.54129887623E+02  0.15108533697E+04 -0.40029073085E+03  0.15639183542E+04  0.50400001928E-02 0.  1.
       -1    1    3    3    0  502  0.54129887623E+02 -0.15108533697E+04  0.12060072684E+04  0.19339238560E+04  0.50400001928E-02 0. -1.
</event>
<event>
 5   0  0.2037109E-06  0.3240313E+04  0.7818609E-02  0.8178251E-01
        1   -1    0    0  501    0  0.00000000000E+00  0.00000000000E+00  0.19287868154E+04  0.19287868154E+04  0.50400001928E-02 0. -1.
       -1   -1    0    0    0  501  0.00000000000E+00  0.00000000000E+00 -0.13609111647E+04  0.13609111647E+04  0.50400001928E-02 0.  1.
    10030    2    1    2    0    0  0.00000000000E+00  0.00000000000E+00  0.56787565067E+03  0.32896979801E+04  0.32403132635E+04 0.  0.
        2    1    3    3  502    0  0.64259341125E+03 -0.77503459515E+03  0.15726549010E+04  0.18673104598E+04  0.25500000920E-02 0. -1.
       -2    1    3    3    0  502 -0.64259341125E+03  0.77503459515E+03 -0.10047792503E+04  0.14223875202E+04  0.25500000920E-02 0.  1.
</event>
<event>
 5   0  0.2730981E-06  0.3206936E+04  0.7818609E-02  0.8186988E-01
        1   -1    0    0  501    0  0.00000000000E+00  0.00000000000E+00  0.15946818699E+04  0.15946818699E+04  0.50400001928E-02 0. -1.
       -1   -1    0    0    0  501  0.00000000000E+00  0.00000000000E+00 -0.16123029241E+04  0.16123029241E+04  0.50400001928E-02 0.  1.
    10030    2    1    2    0    0  0.00000000000E+00  0.00000000000E+00 -0.17621054184E+02  0.32069847939E+04  0.32069363834E+04 0.  0.
        3    1    3    3  502    0 -0.75044133920E+03  0.27251773770E+03 -0.13994005066E+04  0.16111331134E+04  0.10100000352E+00 0.  1.
       -3    1    3    3    0  502  0.75044133920E+03 -0.27251773770E+03  0.13817794524E+04  0.15958516805E+04  0.10100000352E+00 0. -1.
</event>
<event>
 5   0  0.1999849E-06  0.3205121E+04  0.7818609E-02  0.8187466E-01
        1   -1    0    0  501    0  0.00000000000E+00  0.00000000000E+00  0.20354109178E+04  0.20354109178E+04  0.50400001928E-02 0. -1.
       -1   -1    0    0    0  501  0.00000000000E+00  0.00000000000E+00 -0.12617603920E+04  0.12617603920E+04  0.50400001928E-02 0.  1.
    10030    2    1    2    0    0  0.00000000000E+00  0.00000000000E+00  0.77365052582E+03  0.32971713098E+04  0.32051214501E+04 0.  0.
        5    1    3    3  502    0 -0.13789735591E+04 -0.71842180455E+03 -0.12234185946E+02  0.15549500735E+04  0.46999998093E+01 0.  1.
       -5    1    3    3    0  502  0.13789735591E+04  0.71842180455E+03  0.78588471177E+03  0.17422212363E+04  0.46999998093E+01 0. -1.
</event>
<event>
 5   0  0.2037109E-06  0.3340053E+04  0.7818609E-02  0.8152778E-01
       -1   -1    0    0    0  501  0.00000000000E+00  0.00000000000E+00  0.13756445537E+04  0.13756445538E+04  0.50400001928E-02 0. -1.
        1   -1    0    0  501    0  0.00000000000E+00  0.00000000000E+00 -0.20274052485E+04  0.20274052486E+04  0.50400001928E-02 0.  1.
    10030    2    1    2    0    0  0.00000000000E+00  0.00000000000E+00 -0.65176069480E+03  0.34030498023E+04  0.33400532861E+04 0.  0.
        2    1    3    3  502    0 -0.10686879484E+04 -0.79763842789E+03 -0.13501614637E+04  0.18976978080E+04  0.25500000920E-02 0.  1.
       -2    1    3    3    0  502  0.10686879484E+04  0.79763842789E+03  0.69840076890E+03  0.15053519943E+04  0.25500000920E-02 0. -1.
</event>
<event>
 5   0  0.5300268E-06  0.3419155E+04  0.7818609E-02  0.8133221E-01
        2   -1    0    0  501    0  0.00000000000E+00  0.00000000000E+00  0.10899634537E+04  0.10899634537E+04  0.25500000920E-02 0. -1.
       -2   -1    0    0    0  501  0.00000000000E+00  0.00000000000E+00 -0.26814246025E+04  0.26814246025E+04  0.25500000920E-02 0.  1.
    10030    2    1    2    0    0  0.00000000000E+00  0.00000000000E+00 -0.15914611487E+04  0.37713880562E+04  0.34191547614E+04 0.  0.
        4    1    3    3  502    0 -0.45788797008E+03  0.67451700641E+03 -0.24532026575E+04  0.25851188515E+04  0.12699999809E+01 0.  1.
       -4    1    3    3    0  502  0.45788797008E+03 -0.67451700641E+03  0.86174150874E+03  0.11862692046E+04  0.12699999809E+01 0. -1.
</event>
<event>
 5   0  0.2097842E-06  0.3296993E+04  0.7818609E-02  0.8163661E-01
       -1   -1    0    0    0  501  0.00000000000E+00  0.00000000000E+00  0.18771933741E+04  0.18771933742E+04  0.50400001928E-02 0.  1.
        1   -1    0    0  501    0  0.00000000000E+00  0.00000000000E+00 -0.14476617296E+04  0.14476617296E+04  0.50400001928E-02 0. -1.
    10030    2    1    2    0    0  0.00000000000E+00  0.00000000000E+00  0.42953164455E+03  0.33248551038E+04  0.32969931797E+04 0.  0.
        4    1    3    3  502    0  0.11669836901E+04 -0.78052632645E+00  0.13889454123E+04  0.18141175578E+04  0.12699999809E+01 0.  1.
       -4    1    3    3    0  502 -0.11669836901E+04  0.78052632645E+00 -0.95941376774E+03  0.15107375460E+04  0.12699999809E+01 0. -1.
</event>
<event>
 5   0  0.1999849E-06  0.2326243E+04  0.7818609E-02  0.8467645E-01
       -1   -1    0    0    0  501  0.00000000000E+00  0.00000000000E+00  0.10930126597E+04  0.10930126597E+04  0.50400001928E-02 0. -1.
        1   -1    0    0  501    0  0.00000000000E+00  0.00000000000E+00 -0.12377269310E+04  0.12377269310E+04  0.50400001928E-02 0.  1.
    10030    2    1    2    0    0  0.00000000000E+00  0.00000000000E+00 -0.14471427136E+03  0.23307395907E+04  0.23262426398E+04 0.  0.
        5    1    3    3  502    0  0.92461594873E+03  0.34715345063E+03  0.54315848853E+03  0.11271527867E+04  0.46999998093E+01 0. -1.
       -5    1    3    3    0  502 -0.92461594873E+03 -0.34715345063E+03 -0.68787275989E+03  0.12035868040E+04  0.46999998093E+01 0.  1.
</event>
<event>
 5   0  0.2037109E-06  0.3381693E+04  0.7818609E-02  0.8142414E-01
        1   -1    0    0  501    0  0.00000000000E+00  0.00000000000E+00  0.26675385300E+04  0.26675385300E+04  0.50400001928E-02 0.  1.
       -1   -1    0    0    0  501  0.00000000000E+00  0.00000000000E+00 -0.10717602815E+04  0.10717602815E+04  0.50400001928E-02 0. -1.
    10030    2    1    2    0    0  0.00000000000E+00  0.00000000000E+00  0.15957782484E+04  0.37392988115E+04  0.33816929759E+04 0.  0.
        2    1    3    3  502    0  0.10773832974E+04 -0.56173050440E+03  0.20981024859E+04  0.24245267519E+04  0.25500000920E-02 0.  1.
       -2    1    3    3    0  502 -0.10773832974E+04  0.56173050440E+03 -0.50232423747E+03  0.13147720596E+04  0.25500000920E-02 0. -1.
</event>
<event>
 5   0  0.5622811E-06  0.3222549E+04  0.7818609E-02  0.8182887E-01
        2   -1    0    0  501    0  0.00000000000E+00  0.00000000000E+00  0.85484298935E+03  0.85484298935E+03  0.25500000920E-02 0.  1.
       -2   -1    0    0    0  501  0.00000000000E+00  0.00000000000E+00 -0.30370547896E+04  0.30370547896E+04  0.25500000920E-02 0. -1.
    10030    2    1    2    0    0  0.00000000000E+00  0.00000000000E+00 -0.21822118002E+04  0.38918977789E+04  0.32225486778E+04 0.  0.
        1    1    3    3  502    0  0.36359549367E+03 -0.74429563202E+03 -0.27602034852E+04  0.28818225051E+04  0.50400001928E-02 0. -1.
       -1    1    3    3    0  502 -0.36359549367E+03  0.74429563202E+03  0.57799168501E+03  0.10100752738E+04  0.50400001928E-02 0.  1.
</event>
<event>
 5   0  0.5855568E-06  0.3187997E+04  0.7818609E-02  0.8191994E-01
        2   -1    0    0  501    0  0.00000000000E+00  0.00000000000E+00  0.15567868649E+04  0.15567868649E+04  0.25500000920E-02 0. -1.
       -2   -1    0    0    0  501  0.00000000000E+00  0.00000000000E+00 -0.16320994189E+04  0.16320994189E+04  0.25500000920E-02 0.  1.
    10030    2    1    2    0    0  0.00000000000E+00  0.00000000000E+00 -0.75312553935E+02  0.31888862838E+04  0.31879968240E+04 0.  0.
        3    1    3    3  502    0 -0.61295590656E+03  0.14433211292E+04  0.24867540379E+03  0.15876807903E+04  0.10100000352E+00 0. -1.
       -3    1    3    3    0  502  0.61295590656E+03 -0.14433211292E+04 -0.32398795773E+03  0.16012054934E+04  0.10100000352E+00 0.  1.
</event>
<event>
 5   0  0.5855568E-06  0.3322146E+04  0.7818609E-02  0.8157283E-01
        2   -1    0    0  501    0  0.00000000000E+00  0.00000000000E+00  0.95044745807E+03  0.95044745808E+03  0.25500000920E-02 0. -1.
       -2   -1    0    0    0  501  0.00000000000E+00  0.00000000000E+00 -0.29030155045E+04  0.29030155045E+04  0.25500000920E-02 0.  1.
    10030    2    1    2    0    0  0.00000000000E+00  0.00000000000E+00 -0.19525680464E+04  0.38534629625E+04  0.33221461178E+04 0.  0.
        3    1    3    3  502    0 -0.62783647838E+03 -0.13157772729E+04 -0.52906011886E+02  0.14588514427E+04  0.10100000352E+00 0. -1.
       -3    1    3    3    0  502  0.62783647838E+03  0.13157772729E+04 -0.18996620345E+04  0.23946115199E+04  0.10100000352E+00 0.  1.
</event>
<event>
 5   0  0.2097842E-06  0.3265086E+04  0.7818609E-02  0.8171837E-01
       -1   -1    0    0    0  501  0.00000000000E+00  0.00000000000E+00  0.18391357435E+04  0.18391357435E+04  0.50400001928E-02 0.  1.
        1   -1    0    0  501    0  0.00000000000E+00  0.00000000000E+00 -0.14491569900E+04  0.14491569901E+04  0.50400001928E-02 0. -1.
    10030    2    1    2    0    0  0.00000000000E+00  0.00000000000E+00  0.38997875346E+03  0.32882927336E+04  0.32650858601E+04 0.  0.
        4    1    3    3  502    0  0.45964416111E+03 -0.15478676154E+04  0.43759132161E+03  0.16729180157E+04  0.12699999809E+01 0.  1.
       -4    1    3    3    0  502 -0.45964416111E+03  0.15478676154E+04 -0.47612568148E+02  0.16153747179E+04  0.12699999809E+01 0. -1.
</event>
<event>
 5   0  0.5622811E-06  0.3271723E+04  0.7818609E-02  0.8170128E-01
        2   -1    0    0  501    0  0.00000000000E+00  0.00000000000E+00  0.17667570524E+04  0.17667570524E+04  0.25500000920E-02 0. -1.
       -2   -1    0    0    0  501  0.00000000000E+00  0.00000000000E+00 -0.15146639769E+04  0.15146639769E+04  0.25500000920E-02 0.  1.
    10030    2    1    2    0    0  0.00000000000E+00  0.00000000000E+00  0.25209307551E+03  0.32814210293E+04  0.32717232543E+04 0.  0.
        1    1    3    3  502    0  0.57517132121E+03 -0.29757755928E+03  0.16327205916E+04  0.17564597869E+04  0.50400001928E-02 0. -1.
       -1    1    3    3    0  502 -0.57517132121E+03  0.29757755928E+03 -0.13806275161E+04  0.15249612424E+04  0.50400001928E-02 0.  1.
</event>
<event>
 5   0  0.2037109E-06  0.3290863E+04  0.7818609E-02  0.8165224E-01
        1   -1    0    0  501    0  0.00000000000E+00  0.00000000000E+00  0.14528619692E+04  0.14528619692E+04  0.50400001928E-02 0.  1.
       -1   -1    0    0    0  501  0.00000000000E+00  0.00000000000E+00 -0.18635251845E+04  0.18635251845E+04  0.50400001928E-02 0. -1.
    10030    2    1    2    0    0  0.00000000000E+00  0.00000000000E+00 -0.41066321530E+03  0.33163871537E+04  0.32908630292E+04 0.  0.
        2    1    3    3  502    0 -0.96986786816E+03 -0.12969709833E+04 -0.49856516785E+03  0.16945042460E+04  0.25500000920E-02 0. -1.
       -2    1    3    3    0  502  0.96986786816E+03  0.12969709833E+04  0.87901952554E+02  0.16218829077E+04  0.25500000920E-02 0.  1.
</event>
<event>
 5   0  0.1925906E-06  0.1642441E+04  0.7818609E-02  0.8794891E-01
       -1   -1    0    0    0  501  0.00000000000E+00  0.00000000000E+00  0.37169059105E+03  0.37169059109E+03  0.50400001928E-02 0.  1.
        1   -1    0    0  501    0  0.00000000000E+00  0.00000000000E+00 -0.18144217767E+04  0.18144217767E+04  0.50400001928E-02 0. -1.
    10030    2    1    2    0    0  0.00000000000E+00  0.00000000000E+00 -0.14427311857E+04  0.21861123678E+04  0.16424414786E+04 0.  0.
        1    1    3    3  502    0 -0.63575227955E+03  0.51387830083E+03 -0.61697104737E+03  0.10241607014E+04  0.50400001928E-02 0.  1.
       -1    1    3    3    0  502  0.63575227955E+03 -0.51387830083E+03 -0.82576013829E+03  0.11619516664E+04  0.50400001928E-02 0. -1.
</event>
<event>
 5   0  0.1999849E-06  0.3324910E+04  0.7818609E-02  0.8156586E-01
        1   -1    0    0  501    0  0.00000000000E+00  0.00000000000E+00  0.19113796773E+04  0.19113796773E+04  0.50400001928E-02 0.  1.
       -1   -1    0    0    0  501  0.00000000000E+00  0.00000000000E+00 -0.14459484371E+04  0.14459484371E+04  0.50400001928E-02 0. -1.
    10030    2    1    2    0    0  0.00000000000E+00  0.00000000000E+00  0.46543124015E+03  0.33573281144E+04  0.33249098978E+04 0.  0.
        5    1    3    3  502    0  0.13126784695E+04  0.10093332950E+04  0.38199446881E+03  0.16993587994E+04  0.46999998093E+01 0.  1.
       -5    1    3    3    0  502 -0.13126784695E+04 -0.10093332950E+04  0.83436771343E+02  0.16579693150E+04  0.46999998093E+01 0. -1.
</event>
<event>
 5   0  0.5637538E-06  0.3189223E+04  0.7818609E-02  0.8191669E-01
       -2   -1    0    0    0  501  0.00000000000E+00  0.00000000000E+00  0.21122277283E+04  0.21122277283E+04  0.25500000920E-02 0.  1.
        2   -1    0    0  501    0  0.00000000000E+00  0.00000000000E+00 -0.12038407816E+04  0.12038407816E+04  0.25500000920E-02 0. -1.
    10030    2    1    2    0    0  0.00000000000E+00  0.00000000000E+00  0.90838694673E+03  0.33160685099E+04  0.31892230272E+04 0.  0.
        2    1    3    3  502    0  0.80671048693E+03  0.37335599536E+03  0.18307091696E+04  0.20351099657E+04  0.25500000920E-02 0.  1.
       -2    1    3    3    0  502 -0.80671048693E+03 -0.37335599536E+03 -0.92232222286E+03  0.12809585441E+04  0.25500000920E-02 0. -1.
</event>
<event>
 5   0  0.5300268E-06  0.2572424E+04  0.7818609E-02  0.8377629E-01
       -2   -1    0    0    0  501  0.00000000000E+00  0.00000000000E+00  0.18479529716E+04  0.18479529716E+04  0.25500000920E-02 0. -1.
        2   -1    0    0  501    0  0.00000000000E+00  0.00000000000E+00 -0.89522907555E+03  0.89522907555E+03  0.25500000920E-02 0.  1.
    10030    2    1    2    0    0  0.00000000000E+00  0.00000000000E+00  0.95272389600E+03  0.27431820471E+04  0.25724239389E+04 0.  0.
        4    1    3    3  502    0  0.12588188014E+04 -0.17342407277E+03  0.68867322841E+03  0.14453280293E+04  0.12699999809E+01 0.  1.
       -4    1    3    3    0  502 -0.12588188014E+04  0.17342407277E+03  0.26405066759E+03  0.12978540179E+04  0.12699999809E+01 0. -1.
</event>
<event>
 5   0  0.5855568E-06  0.3273943E+04  0.7818609E-02  0.8169557E-01
       -2   -1    0    0    0  501  0.00000000000E+00  0.00000000000E+00  0.20454712035E+04  0.20454712035E+04  0.25500000920E-02 0.  1.
        2   -1    0    0  501    0  0.00000000000E+00  0.00000000000E+00 -0.13100527892E+04  0.13100527892E+04  0.25500000920E-02 0. -1.
    10030    2    1    2    0    0  0.00000000000E+00  0.00000000000E+00  0.73541841432E+03  0.33555239927E+04  0.32739427333E+04 0.  0.
        3    1    3    3  502    0 -0.16655708822E+03 -0.57970050502E+03  0.19274319988E+04  0.20196009654E+04  0.10100000352E+00 0.  1.
       -3    1    3    3    0  502  0.16655708822E+03  0.57970050502E+03 -0.11920135845E+04  0.13359230273E+04  0.10100000352E+00 0. -1.
</event>
<event>
 5   0  0.1878000E-06  0.1731089E+04  0.7818609E-02  0.8743829E-01
       -4   -1    0    0    0  501  0.00000000000E+00  0.00000000000E+00  0.89617028314E+03  0.89617118303E+03  0.12699999809E+01 0.  1.
        4   -1    0    0  501    0  0.00000000000E+00  0.00000000000E+00 -0.83596368934E+03  0.83596465403E+03  0.12699999809E+01 0. -1.
    10030    2    1    2    0    0  0.00000000000E+00  0.00000000000E+00  0.60206593808E+02  0.17321358371E+04  0.17310891728E+04 0.  0.
        5    1    3    3  502    0 -0.31409741942E+03 -0.44586500367E+03 -0.64238382366E+03  0.84269321659E+03  0.46999998093E+01 0. -1.
       -5    1    3    3    0  502  0.31409741942E+03  0.44586500367E+03  0.70259041747E+03  0.88944262047E+03  0.46999998093E+01 0.  1.
</event>
<event>
 5   0  0.5300268E-06  0.3400438E+04  0.7818609E-02  0.8137799E-01
       -2   -1    0    0    0  501  0.00000000000E+00  0.00000000000E+00  0.21378159887E+04  0.21378159887E+04  0.25500000920E-02 0. -1.
        2   -1    0    0  501    0  0.00000000000E+00  0.00000000000E+00 -0.13521951356E+04  0.13521951356E+04  0.25500000920E-02 0.  1.
    10030    2    1    2    0    0  0.00000000000E+00  0.00000000000E+00  0.78562085312E+03  0.34900111243E+04  0.34004378428E+04 0.  0.
        4    1    3    3  502    0 -0.16314811305E+04  0.24721452555E+03  0.81335644475E+03  0.18396728024E+04  0.12699999809E+01 0. -1.
       -4    1    3    3    0  502  0.16314811305E+04 -0.24721452555E+03 -0.27735591634E+02  0.16503383219E+04  0.12699999809E+01 0.  1.
</event>
<event>
 5   0  0.5622811E-06  0.3297540E+04  0.7818609E-02  0.8163522E-01
       -2   -1    0    0    0  501  0.00000000000E+00  0.00000000000E+00  0.11695954480E+04  0.11695954480E+04  0.25500000920E-02 0.  1.
        2   -1    0    0  501    0  0.00000000000E+00  0.00000000000E+00 -0.23242585939E+04  0.23242585939E+04  0.25500000920E-02 0. -1.
    10030    2    1    2    0    0  0.00000000000E+00  0.00000000000E+00 -0.11546631459E+04  0.34938540419E+04  0.32975398536E+04 0.  0.
        1    1    3    3  502    0 -0.41675772285E+03  0.89271037289E+03  0.82342763960E+03  0.12839983984E+04  0.50400001928E-02 0.  1.
       -1    1    3    3    0  502  0.41675772285E+03 -0.89271037289E+03 -0.19780907855E+04  0.22098556435E+04  0.50400001928E-02 0. -1.
</event>
<event>
 5   0  0.1925906E-06  0.1923910E+04  0.7818609E-02  0.8643046E-01
        1   -1    0    0  501    0  0.00000000000E+00  0.00000000000E+00  0.87770525707E+03  0.87770525708E+03  0.50400001928E-02 0.  1.
       -1   -1    0    0    0  501  0.00000000000E+00  0.00000000000E+00 -0.10542916285E+04  0.10542916285E+04  0.50400001928E-02 0. -1.
    10030    2    1    2    0    0  0.00000000000E+00  0.00000000000E+00 -0.17658637146E+03  0.19319968856E+04  0.19239098782E+04 0.  0.
        1    1    3    3  502    0 -0.17067031146E+03 -0.12302491791E+03  0.85431840312E+03  0.87984283800E+03  0.50400001928E-02 0.  1.
       -1    1    3    3    0  502  0.17067031146E+03  0.12302491791E+03 -0.10309047746E+04  0.10521540476E+04  0.50400001928E-02 0. -1.
</event>
<event>
 5   0  0.1999849E-06  0.3485193E+04  0.7818609E-02  0.8117308E-01
        1   -1    0    0  501    0  0.00000000000E+00  0.00000000000E+00  0.18225034798E+04  0.18225034798E+04  0.50400001928E-02 0.  1.
       -1   -1    0    0    0  501  0.00000000000E+00  0.00000000000E+00 -0.16661934399E+04  0.16661934399E+04  0.50400001928E-02 0. -1.
    10030    2    1    2    0    0  0.00000000000E+00  0.00000000000E+00  0.15631003987E+03  0.34886969197E+04  0.34851934479E+04 0.  0.
        5    1    3    3  502    0 -0.41186770896E+03 -0.16180872999E+04 -0.42112461395E+03  0.17219783827E+04  0.46999998093E+01 0. -1.
       -5    1    3    3    0  502  0.41186770896E+03  0.16180872999E+04  0.57743465381E+03  0.17667185371E+04  0.46999998093E+01 0.  1.
</event>
<event>
 5   0  0.5755250E-06  0.3207383E+04  0.7818609E-02  0.8186870E-01
       -2   -1    0    0    0  501  0.00000000000E+00  0.00000000000E+00  0.16835518949E+04  0.16835518949E+04  0.25500000920E-02 0. -1.
        2   -1    0    0  501    0  0.00000000000E+00  0.00000000000E+00 -0.15276196079E+04  0.15276196079E+04  0.25500000920E-02 0.  1.
    10030    2    1    2    0    0  0.00000000000E+00  0.00000000000E+00  0.15593228703E+03  0.32111715028E+04  0.32073832859E+04 0.  0.
        5    1    3    3  502    0  0.86897910528E+03  0.13045127707E+04 -0.26144242927E+03  0.15891043038E+04  0.46999998093E+01 0.  1.
       -5    1    3    3    0  502 -0.86897910528E+03 -0.13045127707E+04  0.41737471630E+03  0.16220671991E+04  0.46999998093E+01 0. -1.
</event>
<event>
 5   0  0.5755250E-06  0.3344173E+04  0.7818609E-02  0.8151746E-01
        2   -1    0    0  501    0  0.00000000000E+00  0.00000000000E+00  0.21321895228E+04  0.21321895228E+04  0.25500000920E-02 0. -1.
       -2   -1    0    0    0  501  0.00000000000E+00  0.00000000000E+00 -0.13112688183E+04  0.13112688183E+04  0.25500000920E-02 0.  1.
    10030    2    1    2    0    0  0.00000000000E+00  0.00000000000E+00  0.82092070445E+03  0.34434583411E+04  0.33441732228E+04 0.  0.
        5    1    3    3  502    0  0.15819600646E+04  0.32776567166E+03 -0.33410330739E+02  0.16159103693E+04  0.46999998093E+01 0.  1.
       -5    1    3    3    0  502 -0.15819600646E+04 -0.32776567166E+03  0.85433103519E+03  0.18275479718E+04  0.46999998093E+01 0. -1.
</event>
<event>
 5   0  0.5755250E-06  0.3327500E+04  0.7818609E-02  0.8155933E-01
        2   -1    0    0  501    0  0.00000000000E+00  0.00000000000E+00  0.13028218053E+04  0.13028218053E+04  0.25500000920E-02 0. -1.
       -2   -1    0    0    0  501  0.00000000000E+00  0.00000000000E+00 -0.21246684542E+04  0.21246684542E+04  0.25500000920E-02 0.  1.
    10030    2    1    2    0    0  0.00000000000E+00  0.00000000000E+00 -0.82184664894E+03  0.34274902595E+04  0.33275001975E+04 0.  0.
        5    1    3    3  502    0  0.12542218669E+04 -0.12722351498E+03  0.70742026619E+03  0.14455877134E+04  0.46999998093E+01 0. -1.
       -5    1    3    3    0  502 -0.12542218669E+04  0.12722351498E+03 -0.15292669151E+04  0.19819025460E+04  0.46999998093E+01 0.  1.
</event>
<event>
 5   0  0.5300268E-06  0.3326577E+04  0.7818609E-02  0.8156165E-01
       -2   -1    0    0    0  501  0.00000000000E+00  0.00000000000E+00  0.19532181819E+04  0.19532181819E+04  0.25500000920E-02 0. -1.
        2   -1    0    0  501    0  0.00000000000E+00  0.00000000000E+00 -0.14163954755E+04  0.14163954755E+04  0.25500000920E-02 0.  1.
    10030    2    1    2    0    0  0.00000000000E+00  0.00000000000E+00  0.53682270640E+03  0.33696136574E+04  0.33265774577E+04 0.  0.
        4    1    3    3  502    0 -0.20341565315E+03 -0.16495340002E+04  0.20286378132E+03  0.16743642592E+04  0.12699999809E+01 0.  1.
       -4    1    3    3    0  502  0.20341565315E+03  0.16495340002E+04  0.33395892508E+03  0.16952493983E+04  0.12699999809E+01 0. -1.
</event>
<event>
 5   0  0.5300268E-06  0.3290072E+04  0.7818609E-02  0.8165426E-01
       -2   -1    0    0    0  501  0.00000000000E+00  0.00000000000E+00  0.12756031827E+04  0.12756031827E+04  0.25500000920E-02 0.  1.
        2   -1    0    0  501    0  0.00000000000E+00  0.00000000000E+00 -0.21214620744E+04  0.21214620744E+04  0.25500000920E-02 0. -1.
    10030    2    1    2    0    0  0.00000000000E+00  0.00000000000E+00 -0.84585889177E+03  0.33970652571E+04  0.32900722023E+04 0.  0.
        4    1    3    3  502    0 -0.12100882782E+04 -0.10150271735E+04  0.51971778596E+02  0.15802836716E+04  0.12699999809E+01 0. -1.
       -4    1    3    3    0  502  0.12100882782E+04  0.10150271735E+04 -0.89783067036E+03  0.18167815855E+04  0.12699999809E+01 0.  1.
</event>
<event>
 5   0  0.1999849E-06  0.2460803E+04  0.7818609E-02  0.8417084E-01
       -1   -1    0    0    0  501  0.00000000000E+00  0.00000000000E+00  0.57096948675E+03  0.57096948678E+03  0.50400001928E-02 0.  1.
        1   -1    0    0  501    0  0.00000000000E+00  0.00000000000E+00 -0.26514331957E+04  0.26514331957E+04  0.50400001928E-02 0. -1.
    10030    2    1    2    0    0  0.00000000000E+00  0.00000000000E+00 -0.20804637089E+04  0.32224026824E+04  0.24608026747E+04 0.  0.
        5    1    3    3  502    0 -0.85108624107E+03  0.73159387160E+03 -0.17005693141E+04  0.20375317089E+04  0.46999998093E+01 0.  1.
       -5    1    3    3    0  502  0.85108624107E+03 -0.73159387160E+03 -0.37989439477E+03  0.11848709735E+04  0.46999998093E+01 0. -1.
</event>
<event>
 5   0  0.5855568E-06  0.3376900E+04  0.7818609E-02  0.8143599E-01
        2   -1    0    0  501    0  0.00000000000E+00  0.00000000000E+00  0.19819759964E+04  0.19819759964E+04  0.25500000920E-02 0.  1.
       -2   -1    0    0    0  501  0.00000000000E+00  0.00000000000E+00 -0.14383943401E+04  0.14383943401E+04  0.25500000920E-02 0. -1.
    10030    2    1    2    0    0  0.00000000000E+00  0.00000000000E+00  0.54358165636E+03  0.34203703365E+04  0.33768997945E+04 0.  0.
        3    1    3    3  502    0 -0.46689133299E+03  0.10197742269E+04 -0.10065719850E+04  0.15070216196E+04  0.10100000352E+00 0. -1.
       -3    1    3    3    0  502  0.46689133299E+03 -0.10197742269E+04  0.15501536413E+04  0.19133487170E+04  0.10100000352E+00 0.  1.
</event>
<event>
 5   0  0.5637538E-06  0.3226868E+04  0.7818609E-02  0.8181757E-01
       -2   -1    0    0    0  501  0.00000000000E+00  0.00000000000E+00  0.11029251773E+04  0.11029251773E+04  0.25500000920E-02 0.  1.
        2   -1    0    0  501    0  0.00000000000E+00  0.00000000000E+00 -0.23602408746E+04  0.23602408746E+04  0.25500000920E-02 0. -1.
    10030    2    1    2    0    0  0.00000000000E+00  0.00000000000E+00 -0.12573156973E+04  0.34631660520E+04  0.32268678840E+04 0.  0.
        2    1    3    3  502    0  0.77301505293E+03 -0.43387289538E+02 -0.21478482344E+04  0.22831309132E+04  0.25500000920E-02 0. -1.
       -2    1    3    3    0  502 -0.77301505293E+03  0.43387289538E+02  0.89053253713E+03  0.11800351387E+04  0.25500000920E-02 0.  1.
</event>
<event>
 5   0  0.1925906E-06  0.2270572E+04  0.7818609E-02  0.8489616E-01
       -1   -1    0    0    0  501  0.00000000000E+00  0.00000000000E+00  0.16283127956E+04  0.16283127956E+04  0.50400001928E-02 0.  1.
        1   -1    0    0  501    0  0.00000000000E+00  0.00000000000E+00 -0.79153943630E+03  0.79153943631E+03  0.50400001928E-02 0. -1.
    10030    2    1    2    0    0  0.00000000000E+00  0.00000000000E+00  0.83677335931E+03  0.24198522319E+04  0.22705715513E+04 0.  0.
        1    1    3    3  502    0 -0.27605802311E+03 -0.45757433147E+03 -0.64911168669E+03  0.84079027276E+03  0.50400001928E-02 0. -1.
       -1    1    3    3    0  502  0.27605802311E+03  0.45757433147E+03  0.14858850460E+04  0.15790619592E+04  0.50400001928E-02 0.  1.
</event>
<event>
 5   0  0.5755250E-06  0.3274184E+04  0.7818609E-02  0.8169495E-01
        2   -1    0    0  501    0  0.00000000000E+00  0.00000000000E+00  0.19389907470E+04  0.19389907470E+04  0.25500000920E-02 0.  1.
       -2   -1    0    0    0  501  0.00000000000E+00  0.00000000000E+00 -0.13821985491E+04  0.13821985491E+04  0.25500000920E-02 0. -1.
    10030    2    1    2    0    0  0.00000000000E+00  0.00000000000E+00  0.55679219788E+03  0.33211892961E+04  0.32741839883E+04 0.  0.
        5    1    3    3  502    0 -0.27563700658E+03 -0.12290231567E+04  0.13391502070E+04  0.18384284174E+04  0.46999998093E+01 0.  1.
       -5    1    3    3    0  502  0.27563700658E+03  0.12290231567E+04 -0.78235800915E+03  0.14827608787E+04  0.46999998093E+01 0. -1.
</event>
<event>
 5   0  0.5637538E-06  0.3000969E+04  0.7818609E-02  0.8243454E-01
       -2   -1    0    0    0  501  0.00000000000E+00  0.00000000000E+00  0.10281854628E+04  0.10281854628E+04  0.25500000920E-02 0. -1.
        2   -1    0    0  501    0  0.00000000000E+00  0.00000000000E+00 -0.21897347384E+04  0.21897347384E+04  0.25500000920E-02 0.  1.
    10030    2    1    2    0    0  0.00000000000E+00  0.00000000000E+00 -0.11615492756E+04  0.32179202013E+04  0.30009687939E+04 0.  0.
        2    1    3    3  502    0 -0.55155054314E+03 -0.13867446033E+04 -0.41401716637E+03  0.15487668677E+04  0.25500000920E-02 0. -1.
       -2    1    3    3    0  502  0.55155054314E+03  0.13867446033E+04 -0.74753210924E+03  0.16691533335E+04  0.25500000920E-02 0.  1.
</event>
<event>
 5   0  0.1925906E-06  0.3239826E+04  0.7818609E-02  0.8178378E-01
        1   -1    0    0  501    0  0.00000000000E+00  0.00000000000E+00  0.18910970222E+04  0.18910970222E+04  0.50400001928E-02 0. -1.
       -1   -1    0    0    0  501  0.00000000000E+00  0.00000000000E+00 -0.13876170273E+04  0.13876170274E+04  0.50400001928E-02 0.  1.
    10030    2    1    2    0    0  0.00000000000E+00  0.00000000000E+00  0.50347999485E+03  0.32787140496E+04  0.32398261857E+04 0.  0.
        1    1    3    3  502    0  0.12450983901E+04 -0.10362373372E+04  0.25961857611E+03  0.16405668609E+04  0.50400001928E-02 0. -1.
       -1    1    3    3    0  502 -0.12450983901E+04  0.10362373372E+04  0.24386141874E+03  0.16381471886E+04  0.50400001928E-02 0.  1.
</event>
<event>
 5   0  0.5755250E-06  0.3174755E+04  0.7818609E-02  0.8195516E-01
       -2   -1    0    0    0  501  0.00000000000E+00  0.00000000000E+00  0.20120816707E+04  0.20120816707E+04  0.25500000920E-02 0. -1.
        2   -1    0    0  501    0  0.00000000000E+00  0.00000000000E+00 -0.12523188867E+04  0.12523188867E+04  0.25500000920E-02 0.  1.
    10030    2    1    2    0    0  0.00000000000E+00  0.00000000000E+00  0.75976278397E+03  0.32644005574E+04  0.31747553467E+04 0.  0.
        5    1    3    3  502    0  0.13694022080E+03  0.18284267128E+03 -0.12353219046E+04  0.12562747966E+04  0.46999998093E+01 0.  1.
       -5    1    3    3    0  502 -0.13694022080E+03 -0.18284267128E+03  0.19950846886E+04  0.20081257608E+04  0.46999998093E+01 0. -1.
</event>
<event>
 5   0  0.5755250E-06  0.2004085E+04  0.7818609E-02  0.8604713E-01
        2   -1    0    0  501    0  0.00000000000E+00  0.00000000000E+00  0.13201638713E+04  0.13201638713E+04  0.25500000920E-02 0.  1.
       -2   -1    0    0    0  501  0.00000000000E+00  0.00000000000E+00 -0.76057945445E+03  0.76057945446E+03  0.25500000920E-02 0. -1.
    10030    2    1    2    0    0  0.00000000000E+00  0.00000000000E+00  0.55958441683E+03  0.20807433257E+04  0.20040853445E+04 0.  0.
        5    1    3    3  502    0  0.46290847955E+03 -0.84506515482E+03  0.56535470416E+03  0.11171693729E+04  0.46999998093E+01 0.  1.
       -5    1    3    3    0  502 -0.46290847955E+03  0.84506515482E+03 -0.57702873234E+01  0.96357395281E+03  0.46999998093E+01 0. -1.
</event>
<event>
 5   0  0.5855568E-06  0.3327719E+04  0.7818609E-02  0.8155878E-01
       -2   -1    0    0    0  501  0.00000000000E+00  0.00000000000E+00  0.13208234728E+04  0.13208234728E+04  0.25500000920E-02 0.  1.
        2   -1    0    0  501    0  0.00000000000E+00  0.00000000000E+00 -0.20959861847E+04  0.20959861847E+04  0.25500000920E-02 0. -1.
    10030    2    1    2    0    0  0.00000000000E+00  0.00000000000E+00 -0.77516271190E+03  0.34168096576E+04  0.33277185888E+04 0.  0.
        3    1    3    3  502    0  0.13239195930E+04 -0.93808862798E+03 -0.94078485437E+01  0.16226095897E+04  0.10100000352E+00 0.  1.
       -3    1    3    3    0  502 -0.13239195930E+04  0.93808862798E+03 -0.76575486336E+03  0.17942000679E+04  0.10100000352E+00 0. -1.
</event>
<event>
 5   0  0.2037109E-06  0.3262090E+04  0.7818609E-02  0.8172609E-01
       -1   -1    0    0    0  501  0.00000000000E+00  0.00000000000E+00  0.15615398770E+04  0.15615398771E+04  0.50400001928E-02 0.  1.
        1   -1    0    0  501    0  0.00000000000E+00  0.00000000000E+00 -0.17036441184E+04  0.17036441184E+04  0.50400001928E-02 0. -1.
    10030    2    1    2    0    0  0.00000000000E+00  0.00000000000E+00 -0.14210424132E+03  0.32651839954E+04  0.32620902668E+04 0.  0.
        2    1    3    3  502    0 -0.94707013222E+03 -0.58803057842E+02  0.12568214912E+04  0.15748015417E+04  0.25500000920E-02 0.  1.
       -2    1    3    3    0  502  0.94707013222E+03  0.58803057842E+02 -0.13989257325E+04  0.16903824538E+04  0.25500000920E-02 0. -1.
</event>
<event>
 5   0  0.1999849E-06  0.2300157E+04  0.7818609E-02  0.8477859E-01
        1   -1    0    0  501    0  0.00000000000E+00  0.00000000000E+00  0.20772905248E+04  0.20772905248E+04  0.50400001928E-02 0.  1.
       -1   -1    0    0    0  501  0.00000000000E+00  0.00000000000E+00 -0.63673347058E+03  0.63673347060E+03  0.50400001928E-02 0. -1.
    10030    2    1    2    0    0  0.00000000000E+00  0.00000000000E+00  0.14405570542E+04  0.27140239954E+04  0.23001568688E+04 0.  0.
        5    1    3    3  502    0  0.63818403459E+02  0.39436377140E+03  0.19927785516E+04  0.20324330293E+04  0.46999998093E+01 0.  1.
       -5    1    3    3    0  502 -0.63818403459E+02 -0.39436377140E+03 -0.55222149743E+03  0.68159096607E+03  0.46999998093E+01 0. -1.
</event>
<event>
 5   0  0.5637538E-06  0.3304765E+04  0.7818609E-02  0.8161684E-01
       -2   -1    0    0    0  501  0.00000000000E+00  0.00000000000E+00  0.14213204695E+04  0.14213204695E+04  0.25500000920E-02 0. -1.
        2   -1    0    0  501    0  0.00000000000E+00  0.00000000000E+00 -0.19210076190E+04  0.19210076190E+04  0.25500000920E-02 0.  1.
    10030    2    1    2    0    0  0.00000000000E+00  0.00000000000E+00 -0.49968714954E+03  0.33423280886E+04  0.33047647124E+04 0.  0.
        2    1    3    3  502    0  0.13839940264E+04 -0.86543866835E+03 -0.50955786053E+03  0.17099920371E+04  0.25500000920E-02 0. -1.
       -2    1    3    3    0  502 -0.13839940264E+04  0.86543866835E+03  0.98707109936E+01  0.16323360514E+04  0.25500000920E-02 0.  1.
</event>
<event>
 5   0  0.5622811E-06  0.1983650E+04  0.7818609E-02  0.8614303E-01
        2   -1    0    0  501    0  0.00000000000E+00  0.00000000000E+00  0.88272894881E+03  0.88272894881E+03  0.25500000920E-02 0.  1.
       -2   -1    0    0    0  501  0.00000000000E+00  0.00000000000E+00 -0.11144045033E+04  0.11144045033E+04  0.25500000920E-02 0. -1.
    10030    2    1    2    0    0  0.00000000000E+00  0.00000000000E+00 -0.23167555446E+03  0.19971334521E+04  0.19836502874E+04 0.  0.
        1    1    3    3  502    0 -0.68825934863E+03  0.29389235048E+03  0.53946534245E+03  0.92254891490E+03  0.50400001928E-02 0.  1.
       -1    1    3    3    0  502  0.68825934863E+03 -0.29389235048E+03 -0.77114089691E+03  0.10745845372E+04  0.50400001928E-02 0. -1.
</event>
<event>
 5   0  0.2037109E-06  0.2674505E+04  0.7818609E-02  0.8343325E-01
       -1   -1    0    0    0  501  0.00000000000E+00  0.00000000000E+00  0.16621481993E+04  0.16621481993E+04  0.50400001928E-02 0.  1.
        1   -1    0    0  501    0  0.00000000000E+00  0.00000000000E+00 -0.10758636730E+04  0.10758636730E+04  0.50400001928E-02 0. -1.
    10030    2    1    2    0    0  0.00000000000E+00  0.00000000000E+00  0.58628452632E+03  0.27380118723E+04  0.26745054621E+04 0.  0.
        2    1    3    3  502    0  0.69549627663E+03  0.41022853713E+03 -0.79811544049E+03  0.11353372978E+04  0.25500000920E-02 0. -1.
       -2    1    3    3    0  502 -0.69549627663E+03 -0.41022853713E+03  0.13843999668E+04  0.16026745744E+04  0.25500000920E-02 0.  1.
</event>
<event>
 5   0  0.2730981E-06  0.1744517E+04  0.7818609E-02  0.8736374E-01
       -1   -1    0    0    0  501  0.00000000000E+00  0.00000000000E+00  0.39451598649E+03  0.39451598653E+03  0.50400001928E-02 0. -1.
        1   -1    0    0  501    0  0.00000000000E+00  0.00000000000E+00 -0.19285280086E+04  0.19285280086E+04  0.50400001928E-02 0.  1.
    10030    2    1    2    0    0  0.00000000000E+00  0.00000000000E+00 -0.15340120221E+04  0.23230439951E+04  0.17445172740E+04 0.  0.
        3    1    3    3  502    0 -0.69194447607E+03 -0.18326758329E+03 -0.10324576912E+03  0.72321080197E+03  0.10100000352E+00 0. -1.
       -3    1    3    3    0  502  0.69194447607E+03  0.18326758329E+03 -0.14307662530E+04  0.15998331932E+04  0.10100000352E+00 0.  1.
</event>
<event>
 5   0  0.5637538E-06  0.2320168E+04  0.7818609E-02  0.8470011E-01
        2   -1    0    0  501    0  0.00000000000E+00  0.00000000000E+00  0.14300407148E+04  0.14300407148E+04  0.25500000920E-02 0.  1.
       -2   -1    0    0    0  501  0.00000000000E+00  0.00000000000E+00 -0.94108854984E+03  0.94108854985E+03  0.25500000920E-02 0. -1.
    10030    2    1    2    0    0  0.00000000000E+00  0.00000000000E+00  0.48895216495E+03  0.23711292646E+04  0.23201680478E+04 0.  0.
        2    1    3    3  502    0 -0.91443331921E+03 -0.92382654276E+02 -0.47893623065E+03  0.10363892913E+04  0.25500000920E-02 0. -1.
       -2    1    3    3    0  502  0.91443331921E+03  0.92382654276E+02  0.96788839560E+03  0.13347399733E+04  0.25500000920E-02 0.  1.
</event>
<event>
 5   0  0.1925906E-06  0.1991157E+04  0.7818609E-02  0.8610766E-01
       -1   -1    0    0    0  501  0.00000000000E+00  0.00000000000E+00  0.11388949645E+04  0.11388949645E+04  0.50400001928E-02 0.  1.
        1   -1    0    0  501    0  0.00000000000E+00  0.00000000000E+00 -0.87029667491E+03  0.87029667492E+03  0.50400001928E-02 0. -1.
    10030    2    1    2    0    0  0.00000000000E+00  0.00000000000E+00  0.26859828960E+03  0.20091916394E+04  0.19911569508E+04 0.  0.
        1    1    3    3  502    0  0.38041546551E+03  0.88751163555E+03  0.37894858160E+03  0.10373017194E+04  0.50400001928E-02 0. -1.
       -1    1    3    3    0  502 -0.38041546551E+03 -0.88751163555E+03 -0.11035029201E+03  0.97188992000E+03  0.50400001928E-02 0.  1.
</event>
<event>
 5   0  0.1925906E-06  0.2944600E+04  0.7818609E-02  0.8259730E-01
       -1   -1    0    0    0  501  0.00000000000E+00  0.00000000000E+00  0.15270338668E+04  0.15270338668E+04  0.50400001928E-02 0.  1.
        1   -1    0    0  501    0  0.00000000000E+00  0.00000000000E+00 -0.14195283087E+04  0.14195283087E+04  0.50400001928E-02 0. -1.
    10030    2    1    2    0    0  0.00000000000E+00  0.00000000000E+00  0.10750555810E+03  0.29465621755E+04  0.29446003480E+04 0.  0.
        1    1    3    3  502    0 -0.35129875732E+03  0.13633169234E+04  0.48488080688E+03  0.14890108285E+04  0.50400001928E-02 0.  1.
       -1    1    3    3    0  502  0.35129875732E+03 -0.13633169234E+04 -0.37737524878E+03  0.14575513470E+04  0.50400001928E-02 0. -1.
</event>
<event>
 5   0  0.2037109E-06  0.3120597E+04  0.7818609E-02  0.8210108E-01
       -1   -1    0    0    0  501  0.00000000000E+00  0.00000000000E+00  0.10605256076E+04  0.10605256076E+04  0.50400001928E-02 0.  1.
        1   -1    0    0  501    0  0.00000000000E+00  0.00000000000E+00 -0.22955901014E+04  0.22955901014E+04  0.50400001928E-02 0. -1.
    10030    2    1    2    0    0  0.00000000000E+00  0.00000000000E+00 -0.12350644938E+04  0.33561157090E+04  0.31205974345E+04 0.  0.
        2    1    3    3  502    0  0.11899297869E+02 -0.10366803523E+04  0.63652749557E+03  0.12165586705E+04  0.25500000920E-02 0.  1.
       -2    1    3    3    0  502 -0.11899297869E+02  0.10366803523E+04 -0.18715919894E+04  0.21395570385E+04  0.25500000920E-02 0. -1.
</event>
<event>
 5   0  0.5300268E-06  0.3327432E+04  0.7818609E-02  0.8155950E-01
        2   -1    0    0  501    0  0.00000000000E+00  0.00000000000E+00  0.15600739824E+04  0.15600739824E+04  0.25500000920E-02 0. -1.
       -2   -1    0    0    0  501  0.00000000000E+00  0.00000000000E+00 -0.17742430638E+04  0.17742430638E+04  0.25500000920E-02 0.  1.
    10030    2    1    2    0    0  0.00000000000E+00  0.00000000000E+00 -0.21416908137E+03  0.33343170461E+04  0.33274317076E+04 0.  0.
        4    1    3    3  502    0  0.99098033439E+03  0.11826603566E+04  0.51647417516E+03  0.16271062438E+04  0.12699999809E+01 0. -1.
       -4    1    3    3    0  502 -0.99098033439E+03 -0.11826603566E+04 -0.73064325653E+03  0.17072108023E+04  0.12699999809E+01 0.  1.
</event>
<event>
 5   0  0.5755250E-06  0.2924381E+04  0.7818609E-02  0.8265660E-01
        2   -1    0    0  501    0  0.00000000000E+00  0.00000000000E+00  0.18781567987E+04  0.18781567987E+04  0.25500000920E-02 0. -1.
       -2   -1    0    0    0  501  0.00000000000E+00  0.00000000000E+00 -0.11383508312E+04  0.11383508312E+04  0.25500000920E-02 0.  1.
    10030    2    1    2    0    0  0.00000000000E+00  0.00000000000E+00  0.73980596745E+03  0.30165076299E+04  0.29243812015E+04 0.  0.
        5    1    3    3  502    0  0.13417452767E+04 -0.47421459929E+03  0.23435631894E+02  0.14232818388E+04  0.46999998093E+01 0.  1.
       -5    1    3    3    0  502 -0.13417452767E+04  0.47421459929E+03  0.71637033556E+03  0.15932257911E+04  0.46999998093E+01 0. -1.
</event>
<event>
 5   0  0.5300268E-06  0.3309505E+04  0.7818609E-02  0.8160481E-01
        2   -1    0    0  501    0  0.00000000000E+00  0.00000000000E+00  0.28607402377E+04  0.28607402377E+04  0.25500000920E-02 0.  1.
       -2   -1    0    0    0  501  0.00000000000E+00  0.00000000000E+00 -0.95716663741E+03  0.95716663742E+03  0.25500000920E-02 0. -1.
    10030    2    1    2    0    0  0.00000000000E+00  0.00000000000E+00  0.19035736003E+04  0.38179068751E+04  0.33095045634E+04 0.  0.
        4    1    3    3  502    0 -0.12373267934E+04 -0.62796954280E+03  0.19918880275E+04  0.24275384378E+04  0.12699999809E+01 0.  1.
       -4    1    3    3    0  502  0.12373267934E+04  0.62796954280E+03 -0.88314427176E+02  0.13903684373E+04  0.12699999809E+01 0. -1.
</event>
<event>
 5   0  0.5622811E-06  0.3272097E+04  0.7818609E-02  0.8170032E-01
       -2   -1    0    0    0  501  0.00000000000E+00  0.00000000000E+00  0.11368804568E+04  0.11368804568E+04  0.25500000920E-02 0.  1.
        2   -1    0    0  501    0  0.00000000000E+00  0.00000000000E+00 -0.23543859695E+04  0.23543859695E+04  0.25500000920E-02 0. -1.
    10030    2    1    2    0    0  0.00000000000E+00  0.00000000000E+00 -0.12175055127E+04  0.34912664263E+04  0.32720974292E+04 0.  0.
        1    1    3    3  502    0  0.53442053350E+03  0.12725968776E+04 -0.15459651798E+04  0.20724662739E+04  0.50400001928E-02 0. -1.
       -1    1    3    3    0  502 -0.53442053350E+03 -0.12725968776E+04  0.32845966703E+03  0.14188001524E+04  0.50400001928E-02 0.  1.
</event>
<event>
 5   0  0.5755250E-06  0.3238935E+04  0.7818609E-02  0.8178610E-01
        2   -1    0    0  501    0  0.00000000000E+00  0.00000000000E+00  0.11361682128E+04  0.11361682128E+04  0.25500000920E-02 0.  1.
       -2   -1    0    0    0  501  0.00000000000E+00  0.00000000000E+00 -0.23083502881E+04  0.23083502881E+04  0.25500000920E-02 0. -1.
    10030    2    1    2    0    0  0.00000000000E+00  0.00000000000E+00 -0.11721820754E+04  0.34445185009E+04  0.32389345293E+04 0.  0.
        5    1    3    3  502    0  0.72375844897E+03  0.11524675069E+04  0.34749293973E+03  0.14045572541E+04  0.46999998093E+01 0.  1.
       -5    1    3    3    0  502 -0.72375844897E+03 -0.11524675069E+04 -0.15196750151E+04  0.20399612468E+04  0.46999998093E+01 0. -1.
</event>
<event>
 5   0  0.5855568E-06  0.2081130E+04  0.7818609E-02  0.8569602E-01
       -2   -1    0    0    0  501  0.00000000000E+00  0.00000000000E+00  0.58221741533E+03  0.58221741534E+03  0.25500000920E-02 0. -1.
        2   -1    0    0  501    0  0.00000000000E+00  0.00000000000E+00 -0.18597439503E+04  0.18597439503E+04  0.25500000920E-02 0.  1.
    10030    2    1    2    0    0  0.00000000000E+00  0.00000000000E+00 -0.12775265350E+04  0.24419613656E+04  0.20811298046E+04 0.  0.
        3    1    3    3  502    0 -0.73280290000E+02  0.46514036357E+03  0.45005084546E+03  0.65136113825E+03  0.10100000352E+00 0. -1.
       -3    1    3    3    0  502  0.73280290000E+02 -0.46514036357E+03 -0.17275773804E+04  0.17906002274E+04  0.10100000352E+00 0.  1.
</event>
<event>
 5   0  0.5300268E-06  0.3286316E+04  0.7818609E-02  0.8166386E-01
       -2   -1    0    0    0  501  0.00000000000E+00  0.00000000000E+00  0.11547810849E+04  0.11547810849E+04  0.25500000920E-02 0.  1.
        2   -1    0    0  501    0  0.00000000000E+00  0.00000000000E+00 -0.23380772785E+04  0.23380772785E+04  0.25500000920E-02 0. -1.
    10030    2    1    2    0    0  0.00000000000E+00  0.00000000000E+00 -0.11832961936E+04  0.34928583634E+04  0.32863155152E+04 0.  0.
        4    1    3    3  502    0 -0.18026078775E+03 -0.61519731944E+03  0.10163850779E+04  0.12016663151E+04  0.12699999809E+01 0.  1.
       -4    1    3    3    0  502  0.18026078775E+03  0.61519731944E+03 -0.21996812715E+04  0.22911920483E+04  0.12699999809E+01 0. -1.
</event>
<event>
 5   0  0.2730981E-06  0.3091055E+04  0.7818609E-02  0.8218197E-01
       -1   -1    0    0    0  501  0.00000000000E+00  0.00000000000E+00  0.16578911945E+04  0.16578911945E+04  0.50400001928E-02 0.  1.
        1   -1    0    0  501    0  0.00000000000E+00  0.00000000000E+00 -0.14407795113E+04  0.14407795113E+04  0.50400001928E-02 0. -1.
    10030    2    1    2    0    0  0.00000000000E+00  0.00000000000E+00  0.21711168317E+03  0.30986707059E+04  0.30910552665E+04 0.  0.
        3    1    3    3  502    0  0.17863835398E+03 -0.13673800825E+04  0.80814027722E+03  0.15983524860E+04  0.10100000352E+00 0.  1.
       -3    1    3    3    0  502 -0.17863835398E+03  0.13673800825E+04 -0.59102859405E+03  0.15003182199E+04  0.10100000352E+00 0. -1.
</event>
<event>
 5   0  0.2037109E-06  0.3247395E+04  0.7818609E-02  0.8176411E-01
        1   -1    0    0  501    0  0.00000000000E+00  0.00000000000E+00  0.13396399371E+04  0.13396399371E+04  0.50400001928E-02 0.  1.
       -1   -1    0    0    0  501  0.00000000000E+00  0.00000000000E+00 -0.19679863981E+04  0.19679863981E+04  0.50400001928E-02 0. -1.
    10030    2    1    2    0    0  0.00000000000E+00  0.00000000000E+00 -0.62834646105E+03  0.33076263352E+04  0.32473947555E+04 0.  0.
        2    1    3    3  502    0 -0.45981109642E+03 -0.65260143394E+03  0.11259387337E+04  0.13802365406E+04  0.25500000920E-02 0.  1.
       -2    1    3    3    0  502  0.45981109642E+03  0.65260143394E+03 -0.17542851947E+04  0.19273897946E+04  0.25500000920E-02 0. -1.
</event>
<event>
 5   0  0.1999849E-06  0.3351671E+04  0.7818609E-02  0.8149871E-01
        1   -1    0    0  501    0  0.00000000000E+00  0.00000000000E+00  0.16716024748E+04  0.16716024748E+04  0.50400001928E-02 0.  1.
       -1   -1    0    0    0  501  0.00000000000E+00  0.00000000000E+00 -0.16800791365E+04  0.16800791366E+04  0.50400001928E-02 0. -1.
    10030    2    1    2    0    0  0.00000000000E+00  0.00000000000E+00 -0.84766617287E+01  0.33516816114E+04  0.33516708923E+04 0.  0.
        5    1    3    3  502    0 -0.78099375961E+02  0.15760723198E+04 -0.56841996720E+03  0.16772676646E+04  0.46999998093E+01 0.  1.
       -5    1    3    3    0  502  0.78099375961E+02 -0.15760723198E+04  0.55994330547E+03  0.16744139467E+04  0.46999998093E+01 0. -1.
</event>
<event>
 5   0  0.5300268E-06  0.3114955E+04  0.7818609E-02  0.8211646E-01
       -2   -1    0    0    0  501  0.00000000000E+00  0.00000000000E+00  0.16820934720E+04  0.16820934720E+04  0.25500000920E-02 0. -1.
        2   -1    0    0  501    0  0.00000000000E+00  0.00000000000E+00 -0.14420935053E+04  0.14420935053E+04  0.25500000920E-02 0.  1.
    10030    2    1    2    0    0  0.00000000000E+00  0.00000000000E+00  0.23999996671E+03  0.31241869773E+04  0.31149549411E+04 0.  0.
        4    1    3    3  502    0  0.45345819065E+03 -0.66730547403E+03 -0.12161697027E+04  0.14594489663E+04  0.12699999809E+01 0.  1.
       -4    1    3    3    0  502 -0.45345819065E+03  0.66730547403E+03  0.14561696695E+04  0.16647380111E+04  0.12699999809E+01 0. -1.
</event>
<event>
 5   0  0.1925906E-06  0.3058366E+04  0.7818609E-02  0.8227258E-01
        1   -1    0    0  501    0  0.00000000000E+00  0.00000000000E+00  0.18018888018E+04  0.18018888018E+04  0.50400001928E-02 0.  1.
       -1   -1    0    0    0  501  0.00000000000E+00  0.00000000000E+00 -0.12977497998E+04  0.12977497998E+04  0.50400001928E-02 0. -1.
    10030    2    1    2    0    0  0.00000000000E+00  0.00000000000E+00  0.50413900201E+03  0.30996386016E+04  0.30583661205E+04 0.  0.
        1    1    3    3  502    0 -0.12993080665E+04 -0.27379623736E+03 -0.51660812152E+03  0.14247981550E+04  0.50400001928E-02 0. -1.
       -1    1    3    3    0  502  0.12993080665E+04  0.27379623736E+03  0.10207471235E+04  0.16748404466E+04  0.50400001928E-02 0.  1.
</event>
<event>
 5   0  0.1999849E-06  0.1707506E+04  0.7818609E-02  0.8757095E-01
       -1   -1    0    0    0  501  0.00000000000E+00  0.00000000000E+00  0.34115786116E+03  0.34115786119E+03  0.50400001928E-02 0.  1.
        1   -1    0    0  501    0  0.00000000000E+00  0.00000000000E+00 -0.21365311087E+04  0.21365311087E+04  0.50400001928E-02 0. -1.
    10030    2    1    2    0    0  0.00000000000E+00  0.00000000000E+00 -0.17953732476E+04  0.24776889699E+04  0.17075062324E+04 0.  0.
        5    1    3    3  502    0 -0.69687770686E+03  0.49116348427E+03 -0.83292025926E+03  0.11919137363E+04  0.46999998093E+01 0.  1.
       -5    1    3    3    0  502  0.69687770686E+03 -0.49116348427E+03 -0.96245298832E+03  0.12857752336E+04  0.46999998093E+01 0. -1.
</event>
<event>
 5   0  0.1925906E-06  0.2720093E+04  0.7818609E-02  0.8328515E-01
       -1   -1    0    0    0  501  0.00000000000E+00  0.00000000000E+00  0.12332859001E+04  0.12332859002E+04  0.50400001928E-02 0. -1.
        1   -1    0    0  501    0  0.00000000000E+00  0.00000000000E+00 -0.14998358302E+04  0.14998358302E+04  0.50400001928E-02 0.  1.
    10030    2    1    2    0    0  0.00000000000E+00  0.00000000000E+00 -0.26654993003E+03  0.27331217303E+04  0.27200929263E+04 0.  0.
        1    1    3    3  502    0 -0.11627418074E+03 -0.37358144783E+03 -0.14420667053E+04  0.14942018491E+04  0.50400001928E-02 0.  1.
       -1    1    3    3    0  502  0.11627418074E+03  0.37358144783E+03  0.11755167753E+04  0.12389198813E+04  0.50400001928E-02 0. -1.
</event>
<event>
 5   0  0.2037109E-06  0.2964082E+04  0.7818609E-02  0.8254062E-01
        1   -1    0    0  501    0  0.00000000000E+00  0.00000000000E+00  0.13607009854E+04  0.13607009854E+04  0.50400001928E-02 0. -1.
       -1   -1    0    0    0  501  0.00000000000E+00  0.00000000000E+00 -0.16142013784E+04  0.16142013784E+04  0.50400001928E-02 0.  1.
    10030    2    1    2    0    0  0.00000000000E+00  0.00000000000E+00 -0.25350039302E+03  0.29749023639E+04  0.29640819195E+04 0.  0.
        2    1    3    3  502    0 -0.55636751731E+03 -0.98146405649E+03 -0.10913146891E+04  0.15696446283E+04  0.25500000920E-02 0.  1.
       -2    1    3    3    0  502  0.55636751731E+03  0.98146405649E+03  0.83781429612E+03  0.14052577355E+04  0.25500000920E-02 0. -1.
</event>
<event>
 5   0  0.5755250E-06  0.2556651E+04  0.7818609E-02  0.8383077E-01
        2   -1    0    0  501    0  0.00000000000E+00  0.00000000000E+00  0.14182461281E+04  0.14182461281E+04  0.25500000920E-02 0.  1.
       -2   -1    0    0    0  501  0.00000000000E+00  0.00000000000E+00 -0.11522094028E+04  0.11522094028E+04  0.25500000920E-02 0. -1.
    10030    2    1    2    0    0  0.00000000000E+00  0.00000000000E+00  0.26603672531E+03  0.25704555309E+04  0.25566513444E+04 0.  0.
        5    1    3    3  502    0 -0.10762618914E+04 -0.56976054833E+03 -0.25783208595E+03  0.12447755685E+04  0.46999998093E+01 0. -1.
       -5    1    3    3    0  502  0.10762618914E+04  0.56976054833E+03  0.52386881126E+03  0.13256799624E+04  0.46999998093E+01 0.  1.
</event>
<event>
 5   0  0.5300268E-06  0.3273098E+04  0.7818609E-02  0.8169775E-01
       -2   -1    0    0    0  501  0.00000000000E+00  0.00000000000E+00  0.16902311076E+04  0.16902311077E+04  0.25500000920E-02 0. -1.
        2   -1    0    0  501    0  0.00000000000E+00  0.00000000000E+00 -0.15845717468E+04  0.15845717468E+04  0.25500000920E-02 0.  1.
    10030    2    1    2    0    0  0.00000000000E+00  0.00000000000E+00  0.10565936084E+03  0.32748028545E+04  0.32730978957E+04 0.  0.
        4    1    3    3  502    0 -0.10201330407E+04 -0.29527371180E+03  0.12986420755E+04  0.16775967450E+04  0.12699999809E+01 0. -1.
       -4    1    3    3    0  502  0.10201330407E+04  0.29527371180E+03 -0.11929827147E+04  0.15972061095E+04  0.12699999809E+01 0.  1.
</event>
<event>
 5   0  0.2730981E-06  0.3042047E+04  0.7818609E-02  0.8231825E-01
        1   -1    0    0  501    0  0.00000000000E+00  0.00000000000E+00  0.20360078083E+04  0.20360078083E+04  0.50400001928E-02 0. -1.
       -1   -1    0    0    0  501  0.00000000000E+00  0.00000000000E+00 -0.11362981578E+04  0.11362981578E+04  0.50400001928E-02 0.  1.
    10030    2    1    2    0    0  0.00000000000E+00  0.00000000000E+00  0.89970965047E+03  0.31723059661E+04  0.30420466281E+04 0.  0.
        3    1    3    3  502    0  0.14957237177E+04  0.40862553326E+02  0.16492885858E+03  0.15053440559E+04  0.10100000352E+00 0. -1.
       -3    1    3    3    0  502 -0.14957237177E+04 -0.40862553326E+02  0.73478079189E+03  0.16669619103E+04  0.10100000352E+00 0.  1.
</event>
<event>
 5   0  0.2037109E-06  0.2227598E+04  0.7818609E-02  0.8507028E-01
        1   -1    0    0  501    0  0.00000000000E+00  0.00000000000E+00  0.12919036843E+04  0.12919036843E+04  0.50400001928E-02 0. -1.
       -1   -1    0    0    0  501  0.00000000000E+00  0.00000000000E+00 -0.96024815081E+03  0.96024815083E+03  0.50400001928E-02 0.  1.
    10030    2    1    2    0    0  0.00000000000E+00  0.00000000000E+00  0.33165553348E+03  0.22521518351E+04  0.22275979205E+04 0.  0.
        2    1    3    3  502    0  0.31658785254E+03  0.21275263900E+03 -0.89215633138E+03  0.97027546264E+03  0.25500000920E-02 0.  1.
       -2    1    3    3    0  502 -0.31658785254E+03 -0.21275263900E+03  0.12238118649E+04  0.12818763725E+04  0.25500000920E-02 0. -1.
</event>
<event>
 5   0  0.5300268E-06  0.3292412E+04  0.7818609E-02  0.8164829E-01
        2   -1    0    0  501    0  0.00000000000E+00  0.00000000000E+00  0.25327222510E+04  0.25327222510E+04  0.25500000920E-02 0.  1.
       -2   -1    0    0    0  501  0.00000000000E+00  0.00000000000E+00 -0.10699926385E+04  0.10699926385E+04  0.25500000920E-02 0. -1.
    10030    2    1    2    0    0  0.00000000000E+00  0.00000000000E+00  0.14627296125E+04  0.36027148895E+04  0.32924119815E+04 0.  0.
        4    1    3    3  502    0 -0.72851039435E+01 -0.42722185328E+03  0.24709852905E+04  0.25076565761E+04  0.12699999809E+01 0.  1.
       -4    1    3    3    0  502  0.72851039435E+01  0.42722185328E+03 -0.10082556780E+04  0.10950583135E+04  0.12699999809E+01 0. -1.
</event>
<event>
 5   0  0.1925906E-06  0.3238711E+04  0.7818609E-02  0.8178668E-01
       -1   -1    0    0    0  501  0.00000000000E+00  0.00000000000E+00  0.19962167553E+04  0.19962167553E+04  0.50400001928E-02 0. -1.
        1   -1    0    0  501    0  0.00000000000E+00  0.00000000000E+00 -0.13136414309E+04  0.13136414309E+04  0.50400001928E-02 0.  1.
    10030    2    1    2    0    0  0.00000000000E+00  0.00000000000E+00  0.68257532433E+03  0.33098581862E+04  0.32387114937E+04 0.  0.
        1    1    3    3  502    0  0.30893801629E+03  0.10498501292E+04 -0.87853460360E+03  0.14033713127E+04  0.50400001928E-02 0.  1.
       -1    1    3    3    0  502 -0.30893801629E+03 -0.10498501292E+04  0.15611099279E+04  0.19064868735E+04  0.50400001928E-02 0. -1.
</event>
<event>
 5   0  0.5300268E-06  0.3051551E+04  0.7818609E-02  0.8229162E-01
        2   -1    0    0  501    0  0.00000000000E+00  0.00000000000E+00  0.29693201515E+04  0.29693201515E+04  0.25500000920E-02 0. -1.
       -2   -1    0    0    0  501  0.00000000000E+00  0.00000000000E+00 -0.78401475383E+03  0.78401475383E+03  0.25500000920E-02 0.  1.
    10030    2    1    2    0    0  0.00000000000E+00  0.00000000000E+00  0.21853053977E+04  0.37533349053E+04  0.30515509549E+04 0.  0.
        4    1    3    3  502    0 -0.87524070951E+03 -0.39609678973E+03  0.25506026524E+04  0.27255301264E+04  0.12699999809E+01 0. -1.
       -4    1    3    3    0  502  0.87524070951E+03  0.39609678973E+03 -0.36529725474E+03  0.10278047789E+04  0.12699999809E+01 0.  1.
</event>
<event>
 5   0  0.1925906E-06  0.2377144E+04  0.7818609E-02  0.8448110E-01
        1   -1    0    0  501    0  0.00000000000E+00  0.00000000000E+00  0.93346264998E+03  0.93346264999E+03  0.50400001928E-02 0. -1.
       -1   -1    0    0    0  501  0.00000000000E+00  0.00000000000E+00 -0.15134012659E+04  0.15134012659E+04  0.50400001928E-02 0.  1.
    10030    2    1    2    0    0  0.00000000000E+00  0.00000000000E+00 -0.57993861588E+03  0.24468639159E+04  0.23771441321E+04 0.  0.
        1    1    3    3  502    0 -0.36843957758E+03  0.58584498288E+03  0.70467460665E+03  0.98768839599E+03  0.50400001928E-02 0. -1.
       -1    1    3    3    0  502  0.36843957758E+03 -0.58584498288E+03 -0.12846132225E+04  0.14591755199E+04  0.50400001928E-02 0.  1.
</event>
<event>
 5   0  0.1925906E-06  0.1756201E+04  0.7818609E-02  0.8729945E-01
       -1   -1    0    0    0  501  0.00000000000E+00  0.00000000000E+00  0.37981136546E+03  0.37981136549E+03  0.50400001928E-02 0.  1.
        1   -1    0    0  501    0  0.00000000000E+00  0.00000000000E+00 -0.20301137886E+04  0.20301137886E+04  0.50400001928E-02 0. -1.
    10030    2    1    2    0    0  0.00000000000E+00  0.00000000000E+00 -0.16503024231E+04  0.24099251541E+04  0.17562007746E+04 0.  0.
        1    1    3    3  502    0  0.17201425914E+03  0.44344915005E+02 -0.20051998885E+04  0.20130528979E+04  0.50400001928E-02 0. -1.
       -1    1    3    3    0  502 -0.17201425914E+03 -0.44344915005E+02  0.35489746534E+03  0.39687225623E+03  0.50400001928E-02 0.  1.
</event>
<event>
 5   0  0.5855568E-06  0.3318692E+04  0.7818609E-02  0.8158156E-01
       -2   -1    0    0    0  501  0.00000000000E+00  0.00000000000E+00  0.27441183709E+04  0.27441183709E+04  0.25500000920E-02 0.  1.
        2   -1    0    0  501    0  0.00000000000E+00  0.00000000000E+00 -0.10033927766E+04  0.10033927766E+04  0.25500000920E-02 0. -1.
    10030    2    1    2    0    0  0.00000000000E+00  0.00000000000E+00  0.17407255943E+04  0.37475111474E+04  0.33186916406E+04 0.  0.
        3    1    3    3  502    0 -0.16334898957E+04 -0.47405341098E+02  0.11954743736E+04  0.20247704793E+04  0.10100000352E+00 0. -1.
       -3    1    3    3    0  502  0.16334898957E+04  0.47405341098E+02  0.54525122074E+03  0.17227406681E+04  0.10100000352E+00 0.  1.
</event>
<event>
 5   0  0.1999849E-06  0.3282271E+04  0.7818609E-02  0.8167421E-01
        1   -1    0    0  501    0  0.00000000000E+00  0.00000000000E+00  0.15590829059E+04  0.15590829059E+04  0.50400001928E-02 0. -1.
       -1   -1    0    0    0  501  0.00000000000E+00  0.00000000000E+00 -0.17275067754E+04  0.17275067754E+04  0.50400001928E-02 0.  1.
    10030    2    1    2    0    0  0.00000000000E+00  0.00000000000E+00 -0.16842386953E+03  0.32865896814E+04  0.32822713376E+04 0.  0.
        5    1    3    3  502    0  0.14845472815E+04 -0.26616361212E+03  0.56361723669E+03  0.16100963260E+04  0.46999998093E+01 0. -1.
       -5    1    3    3    0  502 -0.14845472815E+04  0.26616361212E+03 -0.73204110622E+03  0.16764933554E+04  0.46999998093E+01 0.  1.
</event>
<event>
 5   0  0.5855568E-06  0.3225864E+04  0.7818609E-02  0.8182020E-01
        2   -1    0    0  501    0  0.00000000000E+00  0.00000000000E+00  0.26248556585E+04  0.26248556586E+04  0.25500000920E-02 0. -1.
       -2   -1    0    0    0  501  0.00000000000E+00  0.00000000000E+00 -0.99112086624E+03  0.99112086625E+03  0.25500000920E-02 0.  1.
    10030    2    1    2    0    0  0.00000000000E+00  0.00000000000E+00  0.16337347923E+04  0.36159765248E+04  0.32258637380E+04 0.  0.
        3    1    3    3  502    0 -0.10209254897E+04  0.25818860170E+03  0.21863330860E+04  0.24267267218E+04  0.10100000352E+00 0. -1.
       -3    1    3    3    0  502  0.10209254897E+04 -0.25818860170E+03 -0.55259829365E+03  0.11892498030E+04  0.10100000352E+00 0.  1.
</event>
<event>
 5   0  0.5300268E-06  0.3313170E+04  0.7818609E-02  0.8159552E-01
        2   -1    0    0  501    0  0.00000000000E+00  0.00000000000E+00  0.22897621816E+04  0.22897621816E+04  0.25500000920E-02 0. -1.
       -2   -1    0    0    0  501  0.00000000000E+00  0.00000000000E+00 -0.11984976897E+04  0.11984976897E+04  0.25500000920E-02 0.  1.
    10030    2    1    2    0    0  0.00000000000E+00  0.00000000000E+00  0.10912644919E+04  0.34882598713E+04  0.33131704965E+04 0.  0.
        4    1    3    3  502    0 -0.14436598769E+04  0.81107288892E+03  0.49535951179E+03  0.17284026528E+04  0.12699999809E+01 0. -1.
       -4    1    3    3    0  502  0.14436598769E+04 -0.81107288892E+03  0.59590498013E+03  0.17598572185E+04  0.12699999809E+01 0.  1.
</event>
<event>
 5   0  0.5855568E-06  0.3204691E+04  0.7818609E-02  0.8187579E-01
       -2   -1    0    0    0  501  0.00000000000E+00  0.00000000000E+00  0.14681925955E+04  0.14681925955E+04  0.25500000920E-02 0. -1.
        2   -1    0    0  501    0  0.00000000000E+00  0.00000000000E+00 -0.17487564913E+04  0.17487564913E+04  0.25500000920E-02 0.  1.
    10030    2    1    2    0    0  0.00000000000E+00  0.00000000000E+00 -0.28056389580E+03  0.32169490867E+04  0.32046911438E+04 0.  0.
        3    1    3    3  502    0 -0.69058297556E+03  0.11211387118E+04 -0.10568211546E+04  0.16884098496E+04  0.10100000352E+00 0.  1.
       -3    1    3    3    0  502  0.69058297556E+03 -0.11211387118E+04  0.77625725879E+03  0.15285392371E+04  0.10100000352E+00 0. -1.
</event>
<event>
 5   0  0.5622811E-06  0.3340710E+04  0.7818609E-02  0.8152613E-01
        2   -1    0    0  501    0  0.00000000000E+00  0.00000000000E+00  0.92148442609E+03  0.92148442610E+03  0.25500000920E-02 0. -1.
       -2   -1    0    0    0  501  0.00000000000E+00  0.00000000000E+00 -0.30278170335E+04  0.30278170335E+04  0.25500000920E-02 0.  1.
    10030    2    1    2    0    0  0.00000000000E+00  0.00000000000E+00 -0.21063326074E+04  0.39493014596E+04  0.33407102487E+04 0.  0.
        1    1    3    3  502    0 -0.75053761316E+03  0.54497569653E+03 -0.26954020154E+04  0.28505257837E+04  0.50400001928E-02 0.  1.
       -1    1    3    3    0  502  0.75053761316E+03 -0.54497569653E+03  0.58906940800E+03  0.10987756759E+04  0.50400001928E-02 0. -1.
</event>
<event>
 5   0  0.2037109E-06  0.3344744E+04  0.7818609E-02  0.8151603E-01
       -1   -1    0    0    0  501  0.00000000000E+00  0.00000000000E+00  0.94124845776E+03  0.94124845777E+03  0.50400001928E-02 0. -1.
        1   -1    0    0  501    0  0.00000000000E+00  0.00000000000E+00 -0.29714034781E+04  0.29714034781E+04  0.50400001928E-02 0.  1.
    10030    2    1    2    0    0  0.00000000000E+00  0.00000000000E+00 -0.20301550204E+04  0.39126519359E+04  0.33447444992E+04 0.  0.
        2    1    3    3  502    0  0.35454680049E+03  0.13400990835E+04 -0.21094793045E+04  0.25241774747E+04  0.25500000920E-02 0.  1.
       -2    1    3    3    0  502 -0.35454680049E+03 -0.13400990835E+04  0.79324284172E+02  0.13884744612E+04  0.25500000920E-02 0. -1.
</event>
<event>
 5   0  0.2097842E-06  0.3976200E+04  0.7818609E-02  0.8009365E-01
        1   -1    0    0  501    0  0.00000000000E+00  0.00000000000E+00  0.31233212748E+04  0.31233212748E+04  0.50400001928E-02 0. -1.
       -1   -1    0    0    0  501  0.00000000000E+00  0.00000000000E+00 -0.12654930879E+04  0.12654930880E+04  0.50400001928E-02 0.  1.
    10030    2    1    2    0    0  0.00000000000E+00  0.00000000000E+00  0.18578281868E+04  0.43888143627E+04  0.39761999370E+04 0.  0.
        4    1    3    3  502    0  0.14218862310E+04 -0.13664513551E+04  0.12072529203E+04  0.23122307381E+04  0.12699999809E+01 0. -1.
       -4    1    3    3    0  502 -0.14218862310E+04  0.13664513551E+04  0.65057526651E+03  0.20765836246E+04  0.12699999809E+01 0.  1.
</event>
<event>
 5   0  0.5755250E-06  0.1926366E+04  0.7818609E-02  0.8641843E-01
       -2   -1    0    0    0  501  0.00000000000E+00  0.00000000000E+00  0.53636312150E+03  0.53636312151E+03  0.25500000920E-02 0. -1.
        2   -1    0    0  501    0  0.00000000000E+00  0.00000000000E+00 -0.17296519407E+04  0.17296519407E+04  0.25500000920E-02 0.  1.
    10030    2    1    2    0    0  0.00000000000E+00  0.00000000000E+00 -0.11932888192E+04  0.22660150622E+04  0.19263660234E+04 0.  0.
        5    1    3    3  502    0  0.29370774767E+03  0.60082805275E+03 -0.14119941527E+04  0.15623726083E+04  0.46999998093E+01 0.  1.
       -5    1    3    3    0  502 -0.29370774767E+03 -0.60082805275E+03  0.21870533350E+03  0.70364245388E+03  0.46999998093E+01 0. -1.
</event>
<event>
 5   0  0.1925906E-06  0.2240026E+04  0.7818609E-02  0.8501951E-01
       -1   -1    0    0    0  501  0.00000000000E+00  0.00000000000E+00  0.11663905368E+04  0.11663905368E+04  0.50400001928E-02 0. -1.
        1   -1    0    0  501    0  0.00000000000E+00  0.00000000000E+00 -0.10754799264E+04  0.10754799264E+04  0.50400001928E-02 0.  1.
    10030    2    1    2    0    0  0.00000000000E+00  0.00000000000E+00  0.90910610434E+02  0.22418704633E+04  0.22400264362E+04 0.  0.
        1    1    3    3  502    0 -0.10606374504E+04  0.24305114277E+03  0.31101116097E+03  0.11317038489E+04  0.50400001928E-02 0. -1.
       -1    1    3    3    0  502  0.10606374504E+04 -0.24305114277E+03 -0.22010055054E+03  0.11101666144E+04  0.50400001928E-02 0.  1.
</event>
<event>
 5   0  0.2097842E-06  0.3389682E+04  0.7818609E-02  0.8140443E-01
       -1   -1    0    0    0  501  0.00000000000E+00  0.00000000000E+00  0.28706109562E+04  0.28706109562E+04  0.50400001928E-02 0.  1.
        1   -1    0    0  501    0  0.00000000000E+00  0.00000000000E+00 -0.10006529665E+04  0.10006529665E+04  0.50400001928E-02 0. -1.
    10030    2    1    2    0    0  0.00000000000E+00  0.00000000000E+00  0.18699579897E+04  0.38712639227E+04  0.33896816186E+04 0.  0.
        4    1    3    3  502    0  0.95401841033E+03 -0.57648422018E+03 -0.52312158951E+03  0.12313175844E+04  0.12699999809E+01 0. -1.
       -4    1    3    3    0  502 -0.95401841033E+03  0.57648422018E+03  0.23930795793E+04  0.26399463383E+04  0.12699999809E+01 0.  1.
</event>
<event>
 5   0  0.1999849E-06  0.3338231E+04  0.7818609E-02  0.8153235E-01
        1   -1    0    0  501    0  0.00000000000E+00  0.00000000000E+00  0.12646021887E+04  0.12646021887E+04  0.50400001928E-02 0. -1.
       -1   -1    0    0    0  501  0.00000000000E+00  0.00000000000E+00 -0.22030225711E+04  0.22030225711E+04  0.50400001928E-02 0.  1.
    10030    2    1    2    0    0  0.00000000000E+00  0.00000000000E+00 -0.93842038239E+03  0.34676247598E+04  0.33382313672E+04 0.  0.
        5    1    3    3  502    0 -0.48986543230E+03  0.95914153835E+03  0.85536472251E+03  0.13753514209E+04  0.46999998093E+01 0. -1.
       -5    1    3    3    0  502  0.48986543230E+03 -0.95914153835E+03 -0.17937851049E+04  0.20922733390E+04  0.46999998093E+01 0.  1.
</event>
<event>
 5   0  0.5300268E-06  0.3279521E+04  0.7818609E-02  0.8168126E-01
        2   -1    0    0  501    0  0.00000000000E+00  0.00000000000E+00  0.13627871557E+04  0.13627871557E+04  0.25500000920E-02 0. -1.
       -2   -1    0    0    0  501  0.00000000000E+00  0.00000000000E+00 -0.19730256160E+04  0.19730256160E+04  0.25500000920E-02 0.  1.
    10030    2    1    2    0    0  0.00000000000E+00  0.00000000000E+00 -0.61023846025E+03  0.33358127717E+04  0.32795206768E+04 0.  0.
        4    1    3    3  502    0 -0.93574937578E+03 -0.79048620876E+03  0.80369158003E+03  0.14650655648E+04  0.12699999809E+01 0. -1.
       -4    1    3    3    0  502  0.93574937578E+03  0.79048620876E+03 -0.14139300403E+04  0.18707472069E+04  0.12699999809E+01 0.  1.
</event>
<event>
 5   0  0.1925906E-06  0.1960087E+04  0.7818609E-02  0.8625512E-01
        1   -1    0    0  501    0  0.00000000000E+00  0.00000000000E+00  0.10266143307E+04  0.10266143307E+04  0.50400001928E-02 0.  1.
       -1   -1    0    0    0  501  0.00000000000E+00  0.00000000000E+00 -0.93558558002E+03  0.93558558003E+03  0.50400001928E-02 0. -1.
    10030    2    1    2    0    0  0.00000000000E+00  0.00000000000E+00  0.91028750683E+02  0.19621999107E+04  0.19600873083E+04 0.  0.
        1    1    3    3  502    0 -0.12206089827E+03 -0.35590482425E+03  0.95143086496E+03  0.10231264817E+04  0.50400001928E-02 0.  1.
       -1    1    3    3    0  502  0.12206089827E+03  0.35590482425E+03 -0.86040211427E+03  0.93907342901E+03  0.50400001928E-02 0. -1.
</event>
<event>
 5   0  0.5637538E-06  0.3241446E+04  0.7818609E-02  0.8177956E-01
       -2   -1    0    0    0  501  0.00000000000E+00  0.00000000000E+00  0.17262827495E+04  0.17262827495E+04  0.25500000920E-02 0. -1.
        2   -1    0    0  501    0  0.00000000000E+00  0.00000000000E+00 -0.15216181586E+04  0.15216181586E+04  0.25500000920E-02 0.  1.
    10030    2    1    2    0    0  0.00000000000E+00  0.00000000000E+00  0.20466459082E+03  0.32479009081E+04  0.32414460838E+04 0.  0.
        2    1    3    3  502    0 -0.90538809560E+03  0.74850820295E+02  0.14471722590E+04  0.17086947639E+04  0.25500000920E-02 0. -1.
       -2    1    3    3    0  502  0.90538809560E+03 -0.74850820295E+02 -0.12425076682E+04  0.15392061442E+04  0.25500000920E-02 0.  1.
</event>
<event>
 5   0  0.5755250E-06  0.3708060E+04  0.7818609E-02  0.8066178E-01
        2   -1    0    0  501    0  0.00000000000E+00  0.00000000000E+00  0.16074166290E+04  0.16074166290E+04  0.25500000920E-02 0. -1.
       -2   -1    0    0    0  501  0.00000000000E+00  0.00000000000E+00 -0.21384796689E+04  0.21384796689E+04  0.25500000920E-02 0.  1.
    10030    2    1    2    0    0  0.00000000000E+00  0.00000000000E+00 -0.53106303987E+03  0.37458962979E+04  0.37080602911E+04 0.  0.
        5    1    3    3  502    0  0.88332298049E+03  0.10067539299E+04  0.10295767263E+04  0.16893381215E+04  0.46999998093E+01 0. -1.
       -5    1    3    3    0  502 -0.88332298049E+03 -0.10067539299E+04 -0.15606397662E+04  0.20565581764E+04  0.46999998093E+01 0.  1.
</event>
<event>
 5   0  0.2730981E-06  0.3509516E+04  0.7818609E-02  0.8111538E-01
       -1   -1    0    0    0  501  0.00000000000E+00  0.00000000000E+00  0.91421997915E+03  0.91421997916E+03  0.50400001928E-02 0. -1.
        1   -1    0    0  501    0  0.00000000000E+00  0.00000000000E+00 -0.33680913508E+04  0.33680913508E+04  0.50400001928E-02 0.  1.
    10030    2    1    2    0    0  0.00000000000E+00  0.00000000000E+00 -0.24538713716E+04  0.42823113299E+04  0.35095164365E+04 0.  0.
        3    1    3    3  502    0  0.20739113596E+03  0.59565526633E+03 -0.32249957046E+04  0.32860939707E+04  0.10100000352E+00 0.  1.
       -3    1    3    3    0  502 -0.20739113596E+03 -0.59565526633E+03  0.77112433300E+03  0.99621735918E+03  0.10100000352E+00 0. -1.
</event>
<event>
 5   0  0.1999849E-06  0.3275682E+04  0.7818609E-02  0.8169111E-01
        1   -1    0    0  501    0  0.00000000000E+00  0.00000000000E+00  0.18162956064E+04  0.18162956064E+04  0.50400001928E-02 0. -1.
       -1   -1    0    0    0  501  0.00000000000E+00  0.00000000000E+00 -0.14769194938E+04  0.14769194939E+04  0.50400001928E-02 0.  1.
    10030    2    1    2    0    0  0.00000000000E+00  0.00000000000E+00  0.33937611259E+03  0.32932151003E+04  0.32756815399E+04 0.  0.
        5    1    3    3  502    0  0.91545522830E+03  0.12916282289E+04  0.59162312428E+03  0.16900892781E+04  0.46999998093E+01 0. -1.
       -5    1    3    3    0  502 -0.91545522830E+03 -0.12916282289E+04 -0.25224701169E+03  0.16031258222E+04  0.46999998093E+01 0.  1.
</event>
<event>
 5   0  0.5637538E-06  0.3098029E+04  0.7818609E-02  0.8216279E-01
       -2   -1    0    0    0  501  0.00000000000E+00  0.00000000000E+00  0.95779166662E+03  0.95779166662E+03  0.25500000920E-02 0.  1.
        2   -1    0    0  501    0  0.00000000000E+00  0.00000000000E+00 -0.25051862249E+04  0.25051862249E+04  0.25500000920E-02 0. -1.
    10030    2    1    2    0    0  0.00000000000E+00  0.00000000000E+00 -0.15473945583E+04  0.34629778916E+04  0.30980293669E+04 0.  0.
        2    1    3    3  502    0 -0.82715880699E+03 -0.53822367410E+03 -0.21083198759E+04  0.23278507501E+04  0.25500000920E-02 0. -1.
       -2    1    3    3    0  502  0.82715880699E+03  0.53822367410E+03  0.56092531763E+03  0.11351271415E+04  0.25500000920E-02 0.  1.
</event>
<event>
 5   0  0.2097842E-06  0.2502687E+04  0.7818609E-02  0.8402029E-01
        1   -1    0    0  501    0  0.00000000000E+00  0.00000000000E+00  0.13369800160E+04  0.13369800160E+04  0.50400001928E-02 0. -1.
       -1   -1    0    0    0  501  0.00000000000E+00  0.00000000000E+00 -0.11711921338E+04  0.11711921338E+04  0.50400001928E-02 0.  1.
    10030    2    1    2    0    0  0.00000000000E+00  0.00000000000E+00  0.16578788215E+03  0.25081721498E+04  0.25026869383E+04 0.  0.
        4    1    3    3  502    0 -0.62364819834E+02  0.23979129330E+03 -0.11463625969E+04  0.11728333435E+04  0.12699999809E+01 0.  1.
       -4    1    3    3    0  502  0.62364819834E+02 -0.23979129330E+03  0.13121504791E+04  0.13353388063E+04  0.12699999809E+01 0. -1.
</event>
<event>
 5   0  0.5855568E-06  0.3086775E+04  0.7818609E-02  0.8219377E-01
        2   -1    0    0  501    0  0.00000000000E+00  0.00000000000E+00  0.19375405967E+04  0.19375405967E+04  0.25500000920E-02 0.  1.
       -2   -1    0    0    0  501  0.00000000000E+00  0.00000000000E+00 -0.12294167194E+04  0.12294167194E+04  0.25500000920E-02 0. -1.
    10030    2    1    2    0    0  0.00000000000E+00  0.00000000000E+00  0.70812387727E+03  0.31669573161E+04  0.30867748892E+04 0.  0.
        3    1    3    3  502    0  0.14992454902E+04  0.10365728929E+03 -0.65842390297E+01  0.15028390585E+04  0.10100000352E+00 0. -1.
       -3    1    3    3    0  502 -0.14992454902E+04 -0.10365728929E+03  0.71470811630E+03  0.16641182576E+04  0.10100000352E+00 0.  1.
</event>
<event>
 5   0  0.5755250E-06  0.3313662E+04  0.7818609E-02  0.8159428E-01
        2   -1    0    0  501    0  0.00000000000E+00  0.00000000000E+00  0.17549401480E+04  0.17549401480E+04  0.25500000920E-02 0. -1.
       -2   -1    0    0    0  501  0.00000000000E+00  0.00000000000E+00 -0.15642066505E+04  0.15642066505E+04  0.25500000920E-02 0.  1.
    10030    2    1    2    0    0  0.00000000000E+00  0.00000000000E+00  0.19073349754E+03  0.33191467985E+04  0.33136620532E+04 0.  0.
        5    1    3    3  502    0 -0.66430223866E+03  0.11860583655E+04 -0.85332025824E+03  0.16050574643E+04  0.46999998093E+01 0.  1.
       -5    1    3    3    0  502  0.66430223866E+03 -0.11860583655E+04  0.10440537558E+04  0.17140893342E+04  0.46999998093E+01 0. -1.
</event>
<event>
 5   0  0.5300268E-06  0.3366056E+04  0.7818609E-02  0.8146288E-01
       -2   -1    0    0    0  501  0.00000000000E+00  0.00000000000E+00  0.11432926928E+04  0.11432926928E+04  0.25500000920E-02 0.  1.
        2   -1    0    0  501    0  0.00000000000E+00  0.00000000000E+00 -0.24775659140E+04  0.24775659140E+04  0.25500000920E-02 0. -1.
    10030    2    1    2    0    0  0.00000000000E+00  0.00000000000E+00 -0.13342732212E+04  0.36208586068E+04  0.33660558554E+04 0.  0.
        4    1    3    3  502    0 -0.15335695023E+04 -0.28537538023E+03 -0.13468778781E+04  0.20609114871E+04  0.12699999809E+01 0. -1.
       -4    1    3    3    0  502  0.15335695023E+04  0.28537538023E+03  0.12604656895E+02  0.15599471197E+04  0.12699999809E+01 0.  1.
</event>
<event>
 5   0  0.2097842E-06  0.3110531E+04  0.7818609E-02  0.8212854E-01
        1   -1    0    0  501    0  0.00000000000E+00  0.00000000000E+00  0.23128564118E+04  0.23128564118E+04  0.50400001928E-02 0.  1.
       -1   -1    0    0    0  501  0.00000000000E+00  0.00000000000E+00 -0.10458280777E+04  0.10458280777E+04  0.50400001928E-02 0. -1.
    10030    2    1    2    0    0  0.00000000000E+00  0.00000000000E+00  0.12670283341E+04  0.33586844896E+04  0.31105306141E+04 0.  0.
        4    1    3    3  502    0  0.94339482169E+03  0.79090402238E+03  0.16597729520E+04  0.20664875580E+04  0.12699999809E+01 0.  1.
       -4    1    3    3    0  502 -0.94339482169E+03 -0.79090402238E+03 -0.39274461792E+03  0.12921969316E+04  0.12699999809E+01 0. -1.
</event>
<event>
 5   0  0.5622811E-06  0.1957879E+04  0.7818609E-02  0.8626571E-01
       -2   -1    0    0    0  501  0.00000000000E+00  0.00000000000E+00  0.47855299621E+03  0.47855299622E+03  0.25500000920E-02 0. -1.
        2   -1    0    0  501    0  0.00000000000E+00  0.00000000000E+00 -0.20025424223E+04  0.20025424223E+04  0.25500000920E-02 0.  1.
    10030    2    1    2    0    0  0.00000000000E+00  0.00000000000E+00 -0.15239894261E+04  0.24810954185E+04  0.19578791344E+04 0.  0.
        1    1    3    3  502    0  0.63561091260E+03  0.72381457551E+03 -0.98299542663E+03  0.13762953102E+04  0.50400001928E-02 0.  1.
       -1    1    3    3    0  502 -0.63561091260E+03 -0.72381457551E+03 -0.54099399943E+03  0.11048001083E+04  0.50400001928E-02 0. -1.
</event>
<event>
 5   0  0.2097842E-06  0.3329550E+04  0.7818609E-02  0.8155417E-01
       -1   -1    0    0    0  501  0.00000000000E+00  0.00000000000E+00  0.12426991686E+04  0.12426991686E+04  0.50400001928E-02 0. -1.
        1   -1    0    0  501    0  0.00000000000E+00  0.00000000000E+00 -0.22302071355E+04  0.22302071355E+04  0.50400001928E-02 0.  1.
    10030    2    1    2    0    0  0.00000000000E+00  0.00000000000E+00 -0.98750796686E+03  0.34729063041E+04  0.33295504520E+04 0.  0.
        4    1    3    3  502    0 -0.68079059824E+03 -0.39783422939E+03  0.10355686813E+04  0.13015959509E+04  0.12699999809E+01 0. -1.
       -4    1    3    3    0  502  0.68079059824E+03  0.39783422939E+03 -0.20230766482E+04  0.21713103532E+04  0.12699999809E+01 0.  1.
</event>
<event>
 5   0  0.5300268E-06  0.2133493E+04  0.7818609E-02  0.8546631E-01
        2   -1    0    0  501    0  0.00000000000E+00  0.00000000000E+00  0.15381736458E+04  0.15381736458E+04  0.25500000920E-02 0. -1.
       -2   -1    0    0    0  501  0.00000000000E+00  0.00000000000E+00 -0.73980439690E+03  0.73980439690E+03  0.25500000920E-02 0.  1.
    10030    2    1    2    0    0  0.00000000000E+00  0.00000000000E+00  0.79836924891E+03  0.22779780427E+04  0.21334925604E+04 0.  0.
        4    1    3    3  502    0 -0.75247375059E+02  0.18458959746E+03 -0.71974095413E+03  0.74683608704E+03  0.12699999809E+01 0.  1.
       -4    1    3    3    0  502  0.75247375059E+02 -0.18458959746E+03  0.15181102030E+04  0.15311419557E+04  0.12699999809E+01 0. -1.
</event>
<event>
 5   0  0.1925906E-06  0.3257572E+04  0.7818609E-02  0.8173776E-01
        1   -1    0    0  501    0  0.00000000000E+00  0.00000000000E+00  0.22425931715E+04  0.22425931715E+04  0.50400001928E-02 0. -1.
       -1   -1    0    0    0  501  0.00000000000E+00  0.00000000000E+00 -0.11829802312E+04  0.11829802312E+04  0.50400001928E-02 0.  1.
    10030    2    1    2    0    0  0.00000000000E+00  0.00000000000E+00  0.10596129402E+04  0.34255734027E+04  0.32575717266E+04 0.  0.
        1    1    3    3  502    0 -0.82499370113E+03 -0.33951800664E+03 -0.90321212762E+03  0.12695192914E+04  0.50400001928E-02 0.  1.
       -1    1    3    3    0  502  0.82499370113E+03  0.33951800664E+03  0.19628250679E+04  0.21560541113E+04  0.50400001928E-02 0. -1.
</event>
<event>
 5   0  0.5755250E-06  0.3238904E+04  0.7818609E-02  0.8178618E-01
       -2   -1    0    0    0  501  0.00000000000E+00  0.00000000000E+00  0.12927922992E+04  0.12927922992E+04  0.25500000920E-02 0.  1.
        2   -1    0    0  501    0  0.00000000000E+00  0.00000000000E+00 -0.20286517379E+04  0.20286517379E+04  0.25500000920E-02 0. -1.
    10030    2    1    2    0    0  0.00000000000E+00  0.00000000000E+00 -0.73585943870E+03  0.33214440371E+04  0.32389043484E+04 0.  0.
        5    1    3    3  502    0 -0.74023677876E+03  0.13332480089E+04  0.19103188819E+03  0.15368851662E+04  0.46999998093E+01 0.  1.
       -5    1    3    3    0  502  0.74023677876E+03 -0.13332480089E+04 -0.92689132689E+03  0.17845588709E+04  0.46999998093E+01 0. -1.
</event>
<event>
 5   0  0.5755250E-06  0.3213744E+04  0.7818609E-02  0.8185197E-01
       -2   -1    0    0    0  501  0.00000000000E+00  0.00000000000E+00  0.11026876864E+04  0.11026876864E+04  0.25500000920E-02 0. -1.
        2   -1    0    0  501    0  0.00000000000E+00  0.00000000000E+00 -0.23415860933E+04  0.23415860933E+04  0.25500000920E-02 0.  1.
    10030    2    1    2    0    0  0.00000000000E+00  0.00000000000E+00 -0.12388984069E+04  0.34442737796E+04  0.32137443281E+04 0.  0.
        5    1    3    3  502    0 -0.86634855823E+03 -0.10312745960E+04 -0.15586249333E+04  0.20599565261E+04  0.46999998093E+01 0.  1.
       -5    1    3    3    0  502  0.86634855823E+03  0.10312745960E+04  0.31972652645E+03  0.13843172535E+04  0.46999998093E+01 0. -1.
</event>
<event>
 5   0  0.5637538E-06  0.3268033E+04  0.7818609E-02  0.8171077E-01
       -2   -1    0    0    0  501  0.00000000000E+00  0.00000000000E+00  0.11684361795E+04  0.11684361795E+04  0.25500000920E-02 0. -1.
        2   -1    0    0  501    0  0.00000000000E+00  0.00000000000E+00 -0.22851142829E+04  0.22851142829E+04  0.25500000920E-02 0.  1.
    10030    2    1    2    0    0  0.00000000000E+00  0.00000000000E+00 -0.11166781034E+04  0.34535504624E+04  0.32680331715E+04 0.  0.
        2    1    3    3  502    0  0.11319859981E+04 -0.11047292329E+04 -0.12494692604E+03  0.15866413307E+04  0.25500000920E-02 0. -1.
       -2    1    3    3    0  502 -0.11319859981E+04  0.11047292329E+04 -0.99173117736E+03  0.18669091317E+04  0.25500000920E-02 0.  1.
</event>
<event>
 5   0  0.5637538E-06  0.3286399E+04  0.7818609E-02  0.8166365E-01
        2   -1    0    0  501    0  0.00000000000E+00  0.00000000000E+00  0.21936471561E+04  0.21936471561E+04  0.25500000920E-02 0. -1.
       -2   -1    0    0    0  501  0.00000000000E+00  0.00000000000E+00 -0.12308744007E+04  0.12308744007E+04  0.25500000920E-02 0.  1.
    10030    2    1    2    0    0  0.00000000000E+00  0.00000000000E+00  0.96277275543E+03  0.34245215567E+04  0.32863987150E+04 0.  0.
        2    1    3    3  502    0  0.13497952910E+04 -0.91645437325E+03  0.27754207825E+03  0.16549518274E+04  0.25500000920E-02 0.  1.
       -2    1    3    3    0  502 -0.13497952910E+04  0.91645437325E+03  0.68523067718E+03  0.17695697293E+04  0.25500000920E-02 0. -1.
</event>
<event>
 5   0  0.5622811E-06  0.2037138E+04  0.7818609E-02  0.8589451E-01
        2   -1    0    0  501    0  0.00000000000E+00  0.00000000000E+00  0.17881898841E+04  0.17881898841E+04  0.25500000920E-02 0.  1.
       -2   -1    0    0    0  501  0.00000000000E+00  0.00000000000E+00 -0.58018631167E+03  0.58018631167E+03  0.25500000920E-02 0. -1.
    10030    2    1    2    0    0  0.00000000000E+00  0.00000000000E+00  0.12080035724E+04  0.23683761958E+04  0.20371384768E+04 0.  0.
        1    1    3    3  502    0 -0.64303295481E+03 -0.35274238798E+03 -0.21772229775E+03  0.76506311650E+03  0.50400001928E-02 0. -1.
       -1    1    3    3    0  502  0.64303295481E+03  0.35274238798E+03  0.14257258702E+04  0.16033130793E+04  0.50400001928E-02 0.  1.
</event>
<event>
 5   0  0.1999849E-06  0.3372638E+04  0.7818609E-02  0.8144655E-01
        1   -1    0    0  501    0  0.00000000000E+00  0.00000000000E+00  0.18938674076E+04  0.18938674076E+04  0.50400001928E-02 0. -1.
       -1   -1    0    0    0  501  0.00000000000E+00  0.00000000000E+00 -0.15015156540E+04  0.15015156540E+04  0.50400001928E-02 0.  1.
    10030    2    1    2    0    0  0.00000000000E+00  0.00000000000E+00  0.39235175363E+03  0.33953830616E+04  0.33726378751E+04 0.  0.
        5    1    3    3  502    0 -0.94218811497E+03  0.13940745094E+04  0.30867603088E+03  0.17106914286E+04  0.46999998093E+01 0.  1.
       -5    1    3    3    0  502  0.94218811497E+03 -0.13940745094E+04  0.83675722753E+02  0.16846916330E+04  0.46999998093E+01 0. -1.
</event>
<event>
 5   0  0.2730981E-06  0.2301383E+04  0.7818609E-02  0.8477376E-01
        1   -1    0    0  501    0  0.00000000000E+00  0.00000000000E+00  0.16054502603E+04  0.16054502603E+04  0.50400001928E-02 0.  1.
       -1   -1    0    0    0  501  0.00000000000E+00  0.00000000000E+00 -0.82474772070E+03  0.82474772071E+03  0.50400001928E-02 0. -1.
    10030    2    1    2    0    0  0.00000000000E+00  0.00000000000E+00  0.78070253958E+03  0.24301979810E+04  0.23013834473E+04 0.  0.
        3    1    3    3  502    0  0.77627348075E+03  0.18025558191E+03  0.12668714438E+04  0.14966816151E+04  0.10100000352E+00 0.  1.
       -3    1    3    3    0  502 -0.77627348075E+03 -0.18025558191E+03 -0.48616890422E+03  0.93351636588E+03  0.10100000352E+00 0. -1.
</event>
<event>
 5   0  0.5855568E-06  0.3181907E+04  0.7818609E-02  0.8193612E-01
        2   -1    0    0  501    0  0.00000000000E+00  0.00000000000E+00  0.27551764544E+04  0.27551764544E+04  0.25500000920E-02 0.  1.
       -2   -1    0    0    0  501  0.00000000000E+00  0.00000000000E+00 -0.91868255955E+03  0.91868255955E+03  0.25500000920E-02 0. -1.
    10030    2    1    2    0    0  0.00000000000E+00  0.00000000000E+00  0.18364938949E+04  0.36738590140E+04  0.31819066970E+04 0.  0.
        3    1    3    3  502    0  0.12439363569E+04  0.63897457906E+03  0.42366117277E+02  0.13990929457E+04  0.10100000352E+00 0. -1.
       -3    1    3    3    0  502 -0.12439363569E+04 -0.63897457906E+03  0.17941277776E+04  0.22747660683E+04  0.10100000352E+00 0.  1.
</event>
<event>
 5   0  0.1925906E-06  0.2152893E+04  0.7818609E-02  0.8538295E-01
       -1   -1    0    0    0  501  0.00000000000E+00  0.00000000000E+00  0.34651601352E+03  0.34651601356E+03  0.50400001928E-02 0.  1.
        1   -1    0    0  501    0  0.00000000000E+00  0.00000000000E+00 -0.33439650941E+04  0.33439650941E+04  0.50400001928E-02 0. -1.
    10030    2    1    2    0    0  0.00000000000E+00  0.00000000000E+00 -0.29974490806E+04  0.36904811077E+04  0.21528933590E+04 0.  0.
        1    1    3    3  502    0  0.19973499927E+03 -0.99997848427E+03 -0.20897777549E+04  0.23253004330E+04  0.50400001928E-02 0. -1.
       -1    1    3    3    0  502 -0.19973499927E+03  0.99997848427E+03 -0.90767132570E+03  0.13651806747E+04  0.50400001928E-02 0.  1.
</event>
<event>
 5   0  0.5637538E-06  0.3216811E+04  0.7818609E-02  0.8184391E-01
       -2   -1    0    0    0  501  0.00000000000E+00  0.00000000000E+00  0.12566214330E+04  0.12566214330E+04  0.25500000920E-02 0. -1.
        2   -1    0    0  501    0  0.00000000000E+00  0.00000000000E+00 -0.20586695580E+04  0.20586695580E+04  0.25500000920E-02 0.  1.
    10030    2    1    2    0    0  0.00000000000E+00  0.00000000000E+00 -0.80204812506E+03  0.33152909910E+04  0.32168110234E+04 0.  0.
        2    1    3    3  502    0 -0.93006974283E+02 -0.60219905229E+03 -0.19351077951E+04  0.20287770145E+04  0.25500000920E-02 0.  1.
       -2    1    3    3    0  502  0.93006974283E+02  0.60219905229E+03  0.11330596700E+04  0.12865139765E+04  0.25500000920E-02 0. -1.
</event>
<event>
 5   0  0.2097842E-06  0.2702288E+04  0.7818609E-02  0.8334263E-01
       -1   -1    0    0    0  501  0.00000000000E+00  0.00000000000E+00  0.81565179864E+03  0.81565179866E+03  0.50400001928E-02 0. -1.
        1   -1    0    0  501    0  0.00000000000E+00  0.00000000000E+00 -0.22381981398E+04  0.22381981398E+04  0.50400001928E-02 0.  1.
    10030    2    1    2    0    0  0.00000000000E+00  0.00000000000E+00 -0.14225463411E+04  0.30538499384E+04  0.27022881700E+04 0.  0.
        4    1    3    3  502    0  0.75943545602E+03  0.99255817265E+03 -0.13097615758E+03  0.12566106416E+04  0.12699999809E+01 0. -1.
       -4    1    3    3    0  502 -0.75943545602E+03 -0.99255817265E+03 -0.12915701836E+04  0.17972392968E+04  0.12699999809E+01 0.  1.
</event>
<event>
 5   0  0.1925906E-06  0.2107910E+04  0.7818609E-02  0.8557767E-01
        1   -1    0    0  501    0  0.00000000000E+00  0.00000000000E+00  0.19193868589E+04  0.19193868589E+04  0.50400001928E-02 0. -1.
       -1   -1    0    0    0  501  0.00000000000E+00  0.00000000000E+00 -0.57873731901E+03  0.57873731903E+03  0.50400001928E-02 0.  1.
    10030    2    1    2    0    0  0.00000000000E+00  0.00000000000E+00  0.13406495399E+04  0.24981241780E+04  0.21079096801E+04 0.  0.
        1    1    3    3  502    0 -0.11806354779E+02  0.93439810500E+03  0.12479796178E+04  0.15590677776E+04  0.50400001928E-02 0. -1.
       -1    1    3    3    0  502  0.11806354779E+02 -0.93439810500E+03  0.92669922163E+02  0.93905640041E+03  0.50400001928E-02 0.  1.
</event>
<event>
 5   0  0.2037109E-06  0.3351582E+04  0.7818609E-02  0.8149893E-01
        1   -1    0    0  501    0  0.00000000000E+00  0.00000000000E+00  0.19995142119E+04  0.19995142119E+04  0.50400001928E-02 0. -1.
       -1   -1    0    0    0  501  0.00000000000E+00  0.00000000000E+00 -0.14044790572E+04  0.14044790572E+04  0.50400001928E-02 0.  1.
    10030    2    1    2    0    0  0.00000000000E+00  0.00000000000E+00  0.59503515470E+03  0.34039932691E+04  0.33515822146E+04 0.  0.
        2    1    3    3  502    0 -0.11227372961E+04 -0.11111427396E+04 -0.27078468686E+03  0.16026545387E+04  0.25500000920E-02 0.  1.
       -2    1    3    3    0  502  0.11227372961E+04  0.11111427396E+04  0.86581984156E+03  0.18013387304E+04  0.25500000920E-02 0. -1.
</event>
<event>
 5   0  0.1999849E-06  0.2370468E+04  0.7818609E-02  0.8450643E-01
       -1   -1    0    0    0  501  0.00000000000E+00  0.00000000000E+00  0.11901741703E+04  0.11901741703E+04  0.50400001928E-02 0.  1.
        1   -1    0    0  501    0  0.00000000000E+00  0.00000000000E+00 -0.11803144449E+04  0.11803144449E+04  0.50400001928E-02 0. -1.
    10030    2    1    2    0    0  0.00000000000E+00  0.00000000000E+00  0.98597253409E+01  0.23704886152E+04  0.23704681100E+04 0.  0.
        5    1    3    3  502    0  0.71087864233E+03  0.41475131288E+03  0.85780919985E+03  0.11887917433E+04  0.46999998093E+01 0.  1.
       -5    1    3    3    0  502 -0.71087864233E+03 -0.41475131288E+03 -0.84794947451E+03  0.11816968719E+04  0.46999998093E+01 0. -1.
</event>
<event>
 5   0  0.5300268E-06  0.3172675E+04  0.7818609E-02  0.8196071E-01
        2   -1    0    0  501    0  0.00000000000E+00  0.00000000000E+00  0.26880264550E+04  0.26880264550E+04  0.25500000920E-02 0. -1.
       -2   -1    0    0    0  501  0.00000000000E+00  0.00000000000E+00 -0.93617658036E+03  0.93617658036E+03  0.25500000920E-02 0.  1.
    10030    2    1    2    0    0  0.00000000000E+00  0.00000000000E+00  0.17518498746E+04  0.36242030353E+04  0.31726754732E+04 0.  0.
        4    1    3    3  502    0 -0.88151445917E+03  0.10303587722E+04  0.18163505971E+04  0.22666799610E+04  0.12699999809E+01 0. -1.
       -4    1    3    3    0  502  0.88151445917E+03 -0.10303587722E+04 -0.64500722557E+02  0.13575230743E+04  0.12699999809E+01 0.  1.
</event>
<event>
 5   0  0.6707505E-06  0.1747540E+04  0.7818609E-02  0.8734706E-01
        2   -1    0    0  501    0  0.00000000000E+00  0.00000000000E+00  0.19879160928E+04  0.19879160928E+04  0.25500000920E-02 0. -1.
       -2   -1    0    0    0  501  0.00000000000E+00  0.00000000000E+00 -0.38405733865E+03  0.38405733866E+03  0.25500000920E-02 0.  1.
    10030    2    1    2    0    0  0.00000000000E+00  0.00000000000E+00  0.16038587542E+04  0.23719734315E+04  0.17475397152E+04 0.  0.
        4    1    3    3  502    0 -0.13016504381E+03 -0.39066691092E+03 -0.24409682752E+03  0.47869452474E+03  0.12699999809E+01 0.  1.
       -4    1    3    3    0  502  0.13016504381E+03  0.39066691092E+03  0.18479555817E+04  0.18932789067E+04  0.12699999809E+01 0. -1.
</event>
<event>
 5   0  0.2037109E-06  0.3077989E+04  0.7818609E-02  0.8221805E-01
        1   -1    0    0  501    0  0.00000000000E+00  0.00000000000E+00  0.25970615817E+04  0.25970615817E+04  0.50400001928E-02 0. -1.
       -1   -1    0    0    0  501  0.00000000000E+00  0.00000000000E+00 -0.91199383764E+03  0.91199383765E+03  0.50400001928E-02 0.  1.
    10030    2    1    2    0    0  0.00000000000E+00  0.00000000000E+00  0.16850677441E+04  0.35090554193E+04  0.30779890568E+04 0.  0.
        2    1    3    3  502    0  0.15370034573E+04  0.88285624788E+01  0.75388395944E+03  0.17119575333E+04  0.25500000920E-02 0.  1.
       -2    1    3    3    0  502 -0.15370034573E+04 -0.88285624788E+01  0.93118378461E+03  0.17970978861E+04  0.25500000920E-02 0. -1.
</event>
<event>
 5   0  0.5300268E-06  0.3516967E+04  0.7818609E-02  0.8109781E-01
        2   -1    0    0  501    0  0.00000000000E+00  0.00000000000E+00  0.27794996268E+04  0.27794996268E+04  0.25500000920E-02 0.  1.
       -2   -1    0    0    0  501  0.00000000000E+00  0.00000000000E+00 -0.11125254268E+04  0.11125254268E+04  0.25500000920E-02 0. -1.
    10030    2    1    2    0    0  0.00000000000E+00  0.00000000000E+00  0.16669742000E+04  0.38920250537E+04  0.35169668800E+04 0.  0.
        4    1    3    3  502    0 -0.70440452873E+03 -0.11705981643E+04  0.20587040909E+04  0.24707792190E+04  0.12699999809E+01 0.  1.
       -4    1    3    3    0  502  0.70440452873E+03  0.11705981643E+04 -0.39172989091E+03  0.14212458347E+04  0.12699999809E+01 0. -1.
</event>
<event>
 5   0  0.5622811E-06  0.3238404E+04  0.7818609E-02  0.8178748E-01
        2   -1    0    0  501    0  0.00000000000E+00  0.00000000000E+00  0.16246787493E+04  0.16246787493E+04  0.25500000920E-02 0. -1.
       -2   -1    0    0    0  501  0.00000000000E+00  0.00000000000E+00 -0.16137432508E+04  0.16137432508E+04  0.25500000920E-02 0.  1.
    10030    2    1    2    0    0  0.00000000000E+00  0.00000000000E+00  0.10935498473E+02  0.32384220000E+04  0.32384035365E+04 0.  0.
        1    1    3    3  502    0  0.74635181977E+03  0.44525452533E+03 -0.13607471017E+04  0.16145975678E+04  0.50400001928E-02 0.  1.
       -1    1    3    3    0  502 -0.74635181977E+03 -0.44525452533E+03  0.13716826001E+04  0.16238244322E+04  0.50400001928E-02 0. -1.
</event>
<event>
 5   0  0.5300268E-06  0.3277686E+04  0.7818609E-02  0.8168596E-01
        2   -1    0    0  501    0  0.00000000000E+00  0.00000000000E+00  0.28202329350E+04  0.28202329350E+04  0.25500000920E-02 0. -1.
       -2   -1    0    0    0  501  0.00000000000E+00  0.00000000000E+00 -0.95233517646E+03  0.95233517646E+03  0.25500000920E-02 0.  1.
    10030    2    1    2    0    0  0.00000000000E+00  0.00000000000E+00  0.18678977585E+04  0.37725681114E+04  0.32776863973E+04 0.  0.
        4    1    3    3  502    0  0.97908074782E+03  0.11998073693E+04  0.31662097614E+03  0.15806287640E+04  0.12699999809E+01 0.  1.
       -4    1    3    3    0  502 -0.97908074782E+03 -0.11998073693E+04  0.15512767824E+04  0.21919393474E+04  0.12699999809E+01 0. -1.
</event>
<event>
 5   0  0.1999849E-06  0.3315579E+04  0.7818609E-02  0.8158943E-01
        1   -1    0    0  501    0  0.00000000000E+00  0.00000000000E+00  0.92405047481E+03  0.92405047483E+03  0.50400001928E-02 0. -1.
       -1   -1    0    0    0  501  0.00000000000E+00  0.00000000000E+00 -0.29741517962E+04  0.29741517962E+04  0.50400001928E-02 0.  1.
    10030    2    1    2    0    0  0.00000000000E+00  0.00000000000E+00 -0.20501013214E+04  0.38982022711E+04  0.33155792130E+04 0.  0.
        5    1    3    3  502    0 -0.13086231387E+04 -0.46717967464E+03  0.37982867791E+02  0.13900417820E+04  0.46999998093E+01 0. -1.
       -5    1    3    3    0  502  0.13086231387E+04  0.46717967464E+03 -0.20880841892E+04  0.25081604890E+04  0.46999998093E+01 0.  1.
</event>
<event>
 5   0  0.5755250E-06  0.3151366E+04  0.7818609E-02  0.8201781E-01
        2   -1    0    0  501    0  0.00000000000E+00  0.00000000000E+00  0.25916723708E+04  0.25916723708E+04  0.25500000920E-02 0. -1.
       -2   -1    0    0    0  501  0.00000000000E+00  0.00000000000E+00 -0.95798227514E+03  0.95798227515E+03  0.25500000920E-02 0.  1.
    10030    2    1    2    0    0  0.00000000000E+00  0.00000000000E+00  0.16336900957E+04  0.35496546460E+04  0.31513655416E+04 0.  0.
        5    1    3    3  502    0 -0.31741699855E+03  0.88845711577E+03  0.22383446539E+04  0.24290571169E+04  0.46999998093E+01 0. -1.
       -5    1    3    3    0  502  0.31741699855E+03 -0.88845711577E+03 -0.60465455817E+03  0.11205975291E+04  0.46999998093E+01 0.  1.
</event>
<event>
 5   0  0.1999849E-06  0.3119469E+04  0.7818609E-02  0.8210415E-01
        1   -1    0    0  501    0  0.00000000000E+00  0.00000000000E+00  0.10524624763E+04  0.10524624763E+04  0.50400001928E-02 0. -1.
       -1   -1    0    0    0  501  0.00000000000E+00  0.00000000000E+00 -0.23115046413E+04  0.23115046413E+04  0.50400001928E-02 0.  1.
    10030    2    1    2    0    0  0.00000000000E+00  0.00000000000E+00 -0.12590421650E+04  0.33639671176E+04  0.31194691207E+04 0.  0.
        5    1    3    3  502    0  0.10499945047E+04  0.49239006074E+03  0.49520883796E+03  0.12610274839E+04  0.46999998093E+01 0. -1.
       -5    1    3    3    0  502 -0.10499945047E+04 -0.49239006074E+03 -0.17542510030E+04  0.21029396338E+04  0.46999998093E+01 0.  1.
</event>
<event>
 5   0  0.2730981E-06  0.3273058E+04  0.7818609E-02  0.8169785E-01
        1   -1    0    0  501    0  0.00000000000E+00  0.00000000000E+00  0.24308253170E+04  0.24308253170E+04  0.50400001928E-02 0. -1.
       -1   -1    0    0    0  501  0.00000000000E+00  0.00000000000E+00 -0.11017770279E+04  0.11017770279E+04  0.50400001928E-02 0.  1.
    10030    2    1    2    0    0  0.00000000000E+00  0.00000000000E+00  0.13290482891E+04  0.35326023448E+04  0.32730581987E+04 0.  0.
        3    1    3    3  502    0  0.50337922523E+03  0.14143018442E+04 -0.38749656752E+02  0.15017129875E+04  0.10100000352E+00 0.  1.
       -3    1    3    3    0  502 -0.50337922523E+03 -0.14143018442E+04  0.13677979459E+04  0.20308893573E+04  0.10100000352E+00 0. -1.
</event>
<event>
 5   0  0.5855568E-06  0.3375444E+04  0.7818609E-02  0.8143960E-01
       -2   -1    0    0    0  501  0.00000000000E+00  0.00000000000E+00  0.10959520554E+04  0.10959520554E+04  0.25500000920E-02 0.  1.
        2   -1    0    0  501    0  0.00000000000E+00  0.00000000000E+00 -0.25990234887E+04  0.25990234887E+04  0.25500000920E-02 0. -1.
    10030    2    1    2    0    0  0.00000000000E+00  0.00000000000E+00 -0.15030714332E+04  0.36949755441E+04  0.33754437542E+04 0.  0.
        3    1    3    3  502    0 -0.12630680367E+04 -0.10678354498E+03  0.46824652436E+03  0.13512950857E+04  0.10100000352E+00 0.  1.
       -3    1    3    3    0  502  0.12630680367E+04  0.10678354498E+03 -0.19713179576E+04  0.23436804584E+04  0.10100000352E+00 0. -1.
</event>
<event>
 5   0  0.1925906E-06  0.2191726E+04  0.7818609E-02  0.8521880E-01
        1   -1    0    0  501    0  0.00000000000E+00  0.00000000000E+00  0.14917807230E+04  0.14917807230E+04  0.50400001928E-02 0.  1.
       -1   -1    0    0    0  501  0.00000000000E+00  0.00000000000E+00 -0.80502142837E+03  0.80502142839E+03  0.50400001928E-02 0. -1.
    10030    2    1    2    0    0  0.00000000000E+00  0.00000000000E+00  0.68675929459E+03  0.22968021514E+04  0.21917257570E+04 0.  0.
        1    1    3    3  502    0 -0.78362298297E+03 -0.59689455767E+03 -0.15981531497E+03  0.99794239681E+03  0.50400001928E-02 0. -1.
       -1    1    3    3    0  502  0.78362298297E+03  0.59689455767E+03  0.84657460955E+03  0.12988597545E+04  0.50400001928E-02 0.  1.
</event>
<event>
 5   0  0.2097842E-06  0.3285790E+04  0.7818609E-02  0.8166521E-01
        1   -1    0    0  501    0  0.00000000000E+00  0.00000000000E+00  0.27042819947E+04  0.27042819947E+04  0.50400001928E-02 0.  1.
       -1   -1    0    0    0  501  0.00000000000E+00  0.00000000000E+00 -0.99808521715E+03  0.99808521716E+03  0.50400001928E-02 0. -1.
    10030    2    1    2    0    0  0.00000000000E+00  0.00000000000E+00  0.17061967775E+04  0.37023672118E+04  0.32857899397E+04 0.  0.
        4    1    3    3  502    0  0.15760647344E+03 -0.84227852945E+03 -0.72633790620E+03  0.11233170917E+04  0.12699999809E+01 0. -1.
       -4    1    3    3    0  502 -0.15760647344E+03  0.84227852945E+03  0.24325346837E+04  0.25790501201E+04  0.12699999809E+01 0.  1.
</event>
<event>
 5   0  0.1999849E-06  0.3234132E+04  0.7818609E-02  0.8179861E-01
       -1   -1    0    0    0  501  0.00000000000E+00  0.00000000000E+00  0.16287950665E+04  0.16287950665E+04  0.50400001928E-02 0.  1.
        1   -1    0    0  501    0  0.00000000000E+00  0.00000000000E+00 -0.16054214089E+04  0.16054214089E+04  0.50400001928E-02 0. -1.
    10030    2    1    2    0    0  0.00000000000E+00  0.00000000000E+00  0.23373657590E+02  0.32342164753E+04  0.32341320136E+04 0.  0.
        5    1    3    3  502    0 -0.34437712361E+03 -0.44833801716E+03 -0.15033701625E+04  0.16061589324E+04  0.46999998093E+01 0. -1.
       -5    1    3    3    0  502  0.34437712361E+03  0.44833801716E+03  0.15267438201E+04  0.16280575429E+04  0.46999998093E+01 0.  1.
</event>
<event>
 5   0  0.2097842E-06  0.3282012E+04  0.7818609E-02  0.8167488E-01
       -1   -1    0    0    0  501  0.00000000000E+00  0.00000000000E+00  0.13985102186E+04  0.13985102186E+04  0.50400001928E-02 0.  1.
        1   -1    0    0  501    0  0.00000000000E+00  0.00000000000E+00 -0.19255497079E+04  0.19255497079E+04  0.50400001928E-02 0. -1.
    10030    2    1    2    0    0  0.00000000000E+00  0.00000000000E+00 -0.52703948923E+03  0.33240599265E+04  0.32820121529E+04 0.  0.
        4    1    3    3  502    0  0.13154636654E+04 -0.89769799087E+03 -0.66430784759E+03  0.17255760971E+04  0.12699999809E+01 0. -1.
       -4    1    3    3    0  502 -0.13154636654E+04  0.89769799087E+03  0.13726835836E+03  0.15984838294E+04  0.12699999809E+01 0.  1.
</event>
<event>
 5   0  0.1925906E-06  0.2252278E+04  0.7818609E-02  0.8496979E-01
        1   -1    0    0  501    0  0.00000000000E+00  0.00000000000E+00  0.83546863500E+03  0.83546863502E+03  0.50400001928E-02 0.  1.
       -1   -1    0    0    0  501  0.00000000000E+00  0.00000000000E+00 -0.15179368739E+04  0.15179368740E+04  0.50400001928E-02 0. -1.
    10030    2    1    2    0    0  0.00000000000E+00  0.00000000000E+00 -0.68246823894E+03  0.23534055090E+04  0.22522776455E+04 0.  0.
        1    1    3    3  502    0 -0.14953891404E+03 -0.40595104862E+03 -0.14276442696E+04  0.14917527614E+04  0.50400001928E-02 0. -1.
       -1    1    3    3    0  502  0.14953891404E+03  0.40595104862E+03  0.74517603065E+03  0.86165274755E+03  0.50400001928E-02 0.  1.
</event>
<event>
 5   0  0.5300268E-06  0.3234240E+04  0.7818609E-02  0.8179833E-01
        2   -1    0    0  501    0  0.00000000000E+00  0.00000000000E+00  0.34353500263E+04  0.34353500263E+04  0.25500000920E-02 0.  1.
       -2   -1    0    0    0  501  0.00000000000E+00  0.00000000000E+00 -0.76122590275E+03  0.76122590276E+03  0.25500000920E-02 0. -1.
    10030    2    1    2    0    0  0.00000000000E+00  0.00000000000E+00  0.26741241236E+04  0.41965759291E+04  0.32342402045E+04 0.  0.
        4    1    3    3  502    0 -0.71121940103E+03 -0.10189299090E+04 -0.57725915169E+01  0.12426126233E+04  0.12699999809E+01 0. -1.
       -4    1    3    3    0  502  0.71121940103E+03  0.10189299090E+04  0.26798967151E+04  0.29539633058E+04  0.12699999809E+01 0.  1.
</event>
<event>
 5   0  0.2097842E-06  0.1637895E+04  0.7818609E-02  0.8797600E-01
       -1   -1    0    0    0  501  0.00000000000E+00  0.00000000000E+00  0.30250496229E+04  0.30250496229E+04  0.50400001928E-02 0.  1.
        1   -1    0    0  501    0  0.00000000000E+00  0.00000000000E+00 -0.22170706069E+03  0.22170706074E+03  0.50400001928E-02 0. -1.
    10030    2    1    2    0    0  0.00000000000E+00  0.00000000000E+00  0.28033425622E+04  0.32467566836E+04  0.16378948201E+04 0.  0.
        4    1    3    3  502    0  0.67929479791E+01  0.76717591052E+03  0.83379823459E+03  0.11330605150E+04  0.12699999809E+01 0. -1.
       -4    1    3    3    0  502 -0.67929479791E+01 -0.76717591052E+03  0.19695443276E+04  0.21136961686E+04  0.12699999809E+01 0.  1.
</event>
<event>
 5   0  0.1925906E-06  0.2458609E+04  0.7818609E-02  0.8417881E-01
       -1   -1    0    0    0  501  0.00000000000E+00  0.00000000000E+00  0.79061497495E+03  0.79061497497E+03  0.50400001928E-02 0.  1.
        1   -1    0    0  501    0  0.00000000000E+00  0.00000000000E+00 -0.19114102684E+04  0.19114102684E+04  0.50400001928E-02 0. -1.
    10030    2    1    2    0    0  0.00000000000E+00  0.00000000000E+00 -0.11207952934E+04  0.27020252434E+04  0.24586090226E+04 0.  0.
        1    1    3    3  502    0 -0.54110056553E+03 -0.35304263738E+03 -0.17097708813E+04  0.18277706071E+04  0.50400001928E-02 0. -1.
       -1    1    3    3    0  502  0.54110056553E+03  0.35304263738E+03  0.58897558785E+03  0.87425463621E+03  0.50400001928E-02 0.  1.
</event>
<event>
 5   0  0.2730981E-06  0.3285748E+04  0.7818609E-02  0.8166531E-01
        1   -1    0    0  501    0  0.00000000000E+00  0.00000000000E+00  0.26555859052E+04  0.26555859052E+04  0.50400001928E-02 0. -1.
       -1   -1    0    0    0  501  0.00000000000E+00  0.00000000000E+00 -0.10163615075E+04  0.10163615075E+04  0.50400001928E-02 0.  1.
    10030    2    1    2    0    0  0.00000000000E+00  0.00000000000E+00  0.16392243978E+04  0.36719474127E+04  0.32857481911E+04 0.  0.
        3    1    3    3  502    0 -0.91356994933E+03 -0.65272512423E+03  0.21599006028E+04  0.24343029319E+04  0.10100000352E+00 0. -1.
       -3    1    3    3    0  502  0.91356994933E+03  0.65272512423E+03 -0.52067620504E+03  0.12376444808E+04  0.10100000352E+00 0.  1.
</event>
<event>
 5   0  0.1999849E-06  0.3268899E+04  0.7818609E-02  0.8170854E-01
       -1   -1    0    0    0  501  0.00000000000E+00  0.00000000000E+00  0.17497901404E+04  0.17497901404E+04  0.50400001928E-02 0. -1.
        1   -1    0    0  501    0  0.00000000000E+00  0.00000000000E+00 -0.15267120193E+04  0.15267120193E+04  0.50400001928E-02 0.  1.
    10030    2    1    2    0    0  0.00000000000E+00  0.00000000000E+00  0.22307812113E+03  0.32765021597E+04  0.32688992879E+04 0.  0.
        5    1    3    3  502    0 -0.62954333499E+03 -0.97796149914E+03  0.12625434724E+04  0.17166163270E+04  0.46999998093E+01 0. -1.
       -5    1    3    3    0  502  0.62954333499E+03  0.97796149914E+03 -0.10394653513E+04  0.15598858327E+04  0.46999998093E+01 0.  1.
</event>
<event>
 5   0  0.5300268E-06  0.2218581E+04  0.7818609E-02  0.8510734E-01
       -2   -1    0    0    0  501  0.00000000000E+00  0.00000000000E+00  0.85861136456E+03  0.85861136456E+03  0.25500000920E-02 0.  1.
        2   -1    0    0  501    0  0.00000000000E+00  0.00000000000E+00 -0.14331572212E+04  0.14331572212E+04  0.25500000920E-02 0. -1.
    10030    2    1    2    0    0  0.00000000000E+00  0.00000000000E+00 -0.57454585666E+03  0.22917685858E+04  0.22185806971E+04 0.  0.
        4    1    3    3  502    0  0.57508227610E+03 -0.67960756924E+03 -0.97087212845E+03  0.13172624549E+04  0.12699999809E+01 0. -1.
       -4    1    3    3    0  502 -0.57508227610E+03  0.67960756924E+03  0.39632627179E+03  0.97450613085E+03  0.12699999809E+01 0.  1.
</event>
<event>
 5   0  0.2037109E-06  0.3068392E+04  0.7818609E-02  0.8224466E-01
        1   -1    0    0  501    0  0.00000000000E+00  0.00000000000E+00  0.18792761167E+04  0.18792761167E+04  0.50400001928E-02 0. -1.
       -1   -1    0    0    0  501  0.00000000000E+00  0.00000000000E+00 -0.12524810844E+04  0.12524810844E+04  0.50400001928E-02 0.  1.
    10030    2    1    2    0    0  0.00000000000E+00  0.00000000000E+00  0.62679503234E+03  0.31317572011E+04  0.30683922752E+04 0.  0.
        2    1    3    3  502    0 -0.81413115902E+03 -0.44125666300E+03 -0.93507202335E+03  0.13160078554E+04  0.25500000920E-02 0.  1.
       -2    1    3    3    0  502  0.81413115902E+03  0.44125666300E+03  0.15618670557E+04  0.18157493457E+04  0.25500000920E-02 0. -1.
</event>
<event>
 5   0  0.2097842E-06  0.2924177E+04  0.7818609E-02  0.8265720E-01
       -1   -1    0    0    0  501  0.00000000000E+00  0.00000000000E+00  0.14801539475E+04  0.14801539475E+04  0.50400001928E-02 0. -1.
        1   -1    0    0  501    0  0.00000000000E+00  0.00000000000E+00 -0.14442432869E+04  0.14442432869E+04  0.50400001928E-02 0.  1.
    10030    2    1    2    0    0  0.00000000000E+00  0.00000000000E+00  0.35910660582E+02  0.29243972344E+04  0.29241767404E+04 0.  0.
        4    1    3    3  502    0 -0.10572037248E+04 -0.11146649127E+03 -0.98591132109E+03  0.14498714565E+04  0.12699999809E+01 0.  1.
       -4    1    3    3    0  502  0.10572037248E+04  0.11146649127E+03  0.10218219817E+04  0.14745257779E+04  0.12699999809E+01 0. -1.
</event>
<event>
 5   0  0.5300268E-06  0.3339233E+04  0.7818609E-02  0.8152984E-01
       -2   -1    0    0    0  501  0.00000000000E+00  0.00000000000E+00  0.15325874152E+04  0.15325874152E+04  0.25500000920E-02 0.  1.
        2   -1    0    0  501    0  0.00000000000E+00  0.00000000000E+00 -0.18188973053E+04  0.18188973053E+04  0.25500000920E-02 0. -1.
    10030    2    1    2    0    0  0.00000000000E+00  0.00000000000E+00 -0.28630989007E+03  0.33514847205E+04  0.33392329176E+04 0.  0.
        4    1    3    3  502    0  0.15199724336E+04  0.12107146316E+03  0.53951932169E+03  0.16174230151E+04  0.12699999809E+01 0.  1.
       -4    1    3    3    0  502 -0.15199724336E+04 -0.12107146316E+03 -0.82582921176E+03  0.17340617054E+04  0.12699999809E+01 0. -1.
</event>
<event>
 5   0  0.5755250E-06  0.3014948E+04  0.7818609E-02  0.8239475E-01
        2   -1    0    0  501    0  0.00000000000E+00  0.00000000000E+00  0.14846142333E+04  0.14846142333E+04  0.25500000920E-02 0. -1.
       -2   -1    0    0    0  501  0.00000000000E+00  0.00000000000E+00 -0.15306852496E+04  0.15306852496E+04  0.25500000920E-02 0.  1.
    10030    2    1    2    0    0  0.00000000000E+00  0.00000000000E+00 -0.46071016374E+02  0.30152994829E+04  0.30149475009E+04 0.  0.
        5    1    3    3  502    0 -0.11479977878E+04  0.83298345363E+03  0.48760677057E+03  0.14998475948E+04  0.46999998093E+01 0. -1.
       -5    1    3    3    0  502  0.11479977878E+04 -0.83298345363E+03 -0.53367778694E+03  0.15154518881E+04  0.46999998093E+01 0.  1.
</event>
<event>
 5   0  0.2097842E-06  0.2701637E+04  0.7818609E-02  0.8334474E-01
        1   -1    0    0  501    0  0.00000000000E+00  0.00000000000E+00  0.14961051505E+04  0.14961051505E+04  0.50400001928E-02 0.  1.
       -1   -1    0    0    0  501  0.00000000000E+00  0.00000000000E+00 -0.12196405678E+04  0.12196405678E+04  0.50400001928E-02 0. -1.
    10030    2    1    2    0    0  0.00000000000E+00  0.00000000000E+00  0.27646458275E+03  0.27157457183E+04  0.27016369373E+04 0.  0.
        4    1    3    3  502    0 -0.20214980832E+03 -0.42102993279E+03 -0.11358956777E+04  0.12281658490E+04  0.12699999809E+01 0. -1.
       -4    1    3    3    0  502  0.20214980832E+03  0.42102993279E+03  0.14123602604E+04  0.14875798692E+04  0.12699999809E+01 0.  1.
</event>
<event>
 5   0  0.5300268E-06  0.3153674E+04  0.7818609E-02  0.8201160E-01
       -2   -1    0    0    0  501  0.00000000000E+00  0.00000000000E+00  0.32425037599E+04  0.32425037599E+04  0.25500000920E-02 0. -1.
        2   -1    0    0  501    0  0.00000000000E+00  0.00000000000E+00 -0.76681921919E+03  0.76681921920E+03  0.25500000920E-02 0.  1.
    10030    2    1    2    0    0  0.00000000000E+00  0.00000000000E+00  0.24756845407E+04  0.40093229791E+04  0.31536735414E+04 0.  0.
        4    1    3    3  502    0 -0.13441030612E+04  0.25295961895E+03  0.22354918478E+04  0.26206920885E+04  0.12699999809E+01 0.  1.
       -4    1    3    3    0  502  0.13441030612E+04 -0.25295961895E+03  0.24019269291E+03  0.13886308907E+04  0.12699999809E+01 0. -1.
</event>
<event>
 5   0  0.5855568E-06  0.3225200E+04  0.7818609E-02  0.8182193E-01
        2   -1    0    0  501    0  0.00000000000E+00  0.00000000000E+00  0.14867671446E+04  0.14867671446E+04  0.25500000920E-02 0. -1.
       -2   -1    0    0    0  501  0.00000000000E+00  0.00000000000E+00 -0.17490826767E+04  0.17490826767E+04  0.25500000920E-02 0.  1.
    10030    2    1    2    0    0  0.00000000000E+00  0.00000000000E+00 -0.26231553214E+03  0.32358498213E+04  0.32251999360E+04 0.  0.
        3    1    3    3  502    0  0.57299355650E+03  0.14332783623E+04 -0.59946471067E+03  0.16558884108E+04  0.10100000352E+00 0. -1.
       -3    1    3    3    0  502 -0.57299355650E+03 -0.14332783623E+04  0.33714917853E+03  0.15799614104E+04  0.10100000352E+00 0.  1.
</event>
<event>
 5   0  0.1999849E-06  0.1965880E+04  0.7818609E-02  0.8622741E-01
       -1   -1    0    0    0  501  0.00000000000E+00  0.00000000000E+00  0.63056056574E+03  0.63056056576E+03  0.50400001928E-02 0.  1.
        1   -1    0    0  501    0  0.00000000000E+00  0.00000000000E+00 -0.15322418149E+04  0.15322418149E+04  0.50400001928E-02 0. -1.
    10030    2    1    2    0    0  0.00000000000E+00  0.00000000000E+00 -0.90168124919E+03  0.21628023807E+04  0.19658802259E+04 0.  0.
        5    1    3    3  502    0  0.57554683337E+03  0.68245211818E+03 -0.90332238845E+03  0.12700427073E+04  0.46999998093E+01 0. -1.
       -5    1    3    3    0  502 -0.57554683337E+03 -0.68245211818E+03  0.16411392617E+01  0.89275967334E+03  0.46999998093E+01 0.  1.
</event>
<event>
 5   0  0.5637538E-06  0.1823633E+04  0.7818609E-02  0.8693832E-01
        2   -1    0    0  501    0  0.00000000000E+00  0.00000000000E+00  0.59679226912E+03  0.59679226913E+03  0.25500000920E-02 0.  1.
       -2   -1    0    0    0  501  0.00000000000E+00  0.00000000000E+00 -0.13931306831E+04  0.13931306831E+04  0.25500000920E-02 0. -1.
    10030    2    1    2    0    0  0.00000000000E+00  0.00000000000E+00 -0.79633841396E+03  0.19899229522E+04  0.18236333201E+04 0.  0.
        2    1    3    3  502    0 -0.35244329294E+03  0.83976777668E+03 -0.44676592814E+03  0.10144091818E+04  0.25500000920E-02 0. -1.
       -2    1    3    3    0  502  0.35244329294E+03 -0.83976777668E+03 -0.34957248582E+03  0.97551377045E+03  0.25500000920E-02 0.  1.
</event>
<event>
 5   0  0.1878000E-06  0.2151622E+04  0.7818609E-02  0.8538838E-01
        3   -1    0    0  501    0  0.00000000000E+00  0.00000000000E+00  0.10843743020E+04  0.10843743067E+04  0.10100000352E+00 0.  1.
       -3   -1    0    0    0  501  0.00000000000E+00  0.00000000000E+00 -0.10673148830E+04  0.10673148877E+04  0.10100000352E+00 0. -1.
    10030    2    1    2    0    0  0.00000000000E+00  0.00000000000E+00  0.17059419001E+02  0.21516891944E+04  0.21516215665E+04 0.  0.
        4    1    3    3  502    0 -0.68088818136E+03  0.25157803806E+03  0.80257418995E+03  0.10821400871E+04  0.12699999809E+01 0.  1.
       -4    1    3    3    0  502  0.68088818136E+03 -0.25157803806E+03 -0.78551477095E+03  0.10695491073E+04  0.12699999809E+01 0. -1.
</event>
<event>
 5   0  0.5637538E-06  0.3285046E+04  0.7818609E-02  0.8166711E-01
        2   -1    0    0  501    0  0.00000000000E+00  0.00000000000E+00  0.17789706088E+04  0.17789706088E+04  0.25500000920E-02 0.  1.
       -2   -1    0    0    0  501  0.00000000000E+00  0.00000000000E+00 -0.15165409493E+04  0.15165409493E+04  0.25500000920E-02 0. -1.
    10030    2    1    2    0    0  0.00000000000E+00  0.00000000000E+00  0.26242965950E+03  0.32955115582E+04  0.32850459820E+04 0.  0.
        2    1    3    3  502    0 -0.13451738112E+03  0.30928635462E+03 -0.14814290194E+04  0.15193369983E+04  0.25500000920E-02 0. -1.
       -2    1    3    3    0  502  0.13451738112E+03 -0.30928635462E+03  0.17438586789E+04  0.17761745598E+04  0.25500000920E-02 0.  1.
</event>
<event>
 5   0  0.2730981E-06  0.3263222E+04  0.7818609E-02  0.8172317E-01
       -1   -1    0    0    0  501  0.00000000000E+00  0.00000000000E+00  0.16393344542E+04  0.16393344542E+04  0.50400001928E-02 0.  1.
        1   -1    0    0  501    0  0.00000000000E+00  0.00000000000E+00 -0.16239239933E+04  0.16239239933E+04  0.50400001928E-02 0. -1.
    10030    2    1    2    0    0  0.00000000000E+00  0.00000000000E+00  0.15410460917E+02  0.32632584475E+04  0.32632220600E+04 0.  0.
        3    1    3    3  502    0 -0.14855285485E+04 -0.64744367280E+03  0.19790767996E+03  0.16325274386E+04  0.10100000352E+00 0. -1.
       -3    1    3    3    0  502  0.14855285485E+04  0.64744367280E+03 -0.18249721905E+03  0.16307310088E+04  0.10100000352E+00 0.  1.
</event>
<event>
 5   0  0.5855568E-06  0.3311804E+04  0.7818609E-02  0.8159898E-01
        2   -1    0    0  501    0  0.00000000000E+00  0.00000000000E+00  0.24133140549E+04  0.24133140549E+04  0.25500000920E-02 0.  1.
       -2   -1    0    0    0  501  0.00000000000E+00  0.00000000000E+00 -0.11362015903E+04  0.11362015903E+04  0.25500000920E-02 0. -1.
    10030    2    1    2    0    0  0.00000000000E+00  0.00000000000E+00  0.12771124646E+04  0.35495156452E+04  0.33118038994E+04 0.  0.
        3    1    3    3  502    0  0.69636357634E+03 -0.15096504698E+03 -0.96349015313E+03  0.11983430065E+04  0.10100000352E+00 0. -1.
       -3    1    3    3    0  502 -0.69636357634E+03  0.15096504698E+03  0.22406026178E+04  0.23511726387E+04  0.10100000352E+00 0.  1.
</event>
<event>
 5   0  0.2037109E-06  0.2431212E+04  0.7818609E-02  0.8427910E-01
       -1   -1    0    0    0  501  0.00000000000E+00  0.00000000000E+00  0.78854466063E+03  0.78854466065E+03  0.50400001928E-02 0. -1.
        1   -1    0    0  501    0  0.00000000000E+00  0.00000000000E+00 -0.18739553561E+04  0.18739553561E+04  0.50400001928E-02 0.  1.
    10030    2    1    2    0    0  0.00000000000E+00  0.00000000000E+00 -0.10854106955E+04  0.26625000168E+04  0.24312116242E+04 0.  0.
        2    1    3    3  502    0  0.73474099068E+02 -0.67307884101E+03  0.56292558711E+03  0.88052188280E+03  0.25500000920E-02 0. -1.
       -2    1    3    3    0  502 -0.73474099068E+02  0.67307884101E+03 -0.16483362826E+04  0.17819781340E+04  0.25500000920E-02 0.  1.
</event>
<event>
 5   0  0.1925906E-06  0.3755933E+04  0.7818609E-02  0.8055678E-01
        1   -1    0    0  501    0  0.00000000000E+00  0.00000000000E+00  0.17667385781E+04  0.17667385781E+04  0.50400001928E-02 0.  1.
       -1   -1    0    0    0  501  0.00000000000E+00  0.00000000000E+00 -0.19961973918E+04  0.19961973918E+04  0.50400001928E-02 0. -1.
    10030    2    1    2    0    0  0.00000000000E+00  0.00000000000E+00 -0.22945881371E+03  0.37629359699E+04  0.37559334081E+04 0.  0.
        1    1    3    3  502    0  0.96282363807E+03  0.12631252508E+03 -0.17251386993E+04  0.19796685944E+04  0.50400001928E-02 0. -1.
       -1    1    3    3    0  502 -0.96282363807E+03 -0.12631252508E+03  0.14956798856E+04  0.17832673754E+04  0.50400001928E-02 0.  1.
</event>
<event>
 5   0  0.5637538E-06  0.3165860E+04  0.7818609E-02  0.8197892E-01
        2   -1    0    0  501    0  0.00000000000E+00  0.00000000000E+00  0.17724625135E+04  0.17724625135E+04  0.25500000920E-02 0. -1.
       -2   -1    0    0    0  501  0.00000000000E+00  0.00000000000E+00 -0.14136641092E+04  0.14136641092E+04  0.25500000920E-02 0.  1.
    10030    2    1    2    0    0  0.00000000000E+00  0.00000000000E+00  0.35879840423E+03  0.31861266227E+04  0.31658595296E+04 0.  0.
        2    1    3    3  502    0  0.69425094321E+03 -0.13264604665E+04 -0.33788043772E+03  0.15348110410E+04  0.25500000920E-02 0.  1.
       -2    1    3    3    0  502 -0.69425094321E+03  0.13264604665E+04  0.69667884195E+03  0.16513155817E+04  0.25500000920E-02 0. -1.
</event>
<event>
 5   0  0.1999849E-06  0.3281049E+04  0.7818609E-02  0.8167734E-01
       -1   -1    0    0    0  501  0.00000000000E+00  0.00000000000E+00  0.17142622735E+04  0.17142622735E+04  0.50400001928E-02 0.  1.
        1   -1    0    0  501    0  0.00000000000E+00  0.00000000000E+00 -0.15699587563E+04  0.15699587563E+04  0.50400001928E-02 0. -1.
    10030    2    1    2    0    0  0.00000000000E+00  0.00000000000E+00  0.14430351712E+03  0.32842210298E+04  0.32810492632E+04 0.  0.
        5    1    3    3  502    0 -0.11732162601E+04  0.88666952161E+03 -0.65565479488E+03  0.16101318373E+04  0.46999998093E+01 0. -1.
       -5    1    3    3    0  502  0.11732162601E+04 -0.88666952161E+03  0.79995831200E+03  0.16740891925E+04  0.46999998093E+01 0.  1.
</event>
<event>
 5   0  0.5300268E-06  0.3259535E+04  0.7818609E-02  0.8173269E-01
       -2   -1    0    0    0  501  0.00000000000E+00  0.00000000000E+00  0.13209120424E+04  0.13209120424E+04  0.25500000920E-02 0.  1.
        2   -1    0    0  501    0  0.00000000000E+00  0.00000000000E+00 -0.20108389841E+04  0.20108389841E+04  0.25500000920E-02 0. -1.
    10030    2    1    2    0    0  0.00000000000E+00  0.00000000000E+00 -0.68992694175E+03  0.33317510265E+04  0.32595345860E+04 0.  0.
        4    1    3    3  502    0 -0.11676503535E+04  0.11309984870E+04 -0.22587077694E+03  0.16412142293E+04  0.12699999809E+01 0.  1.
       -4    1    3    3    0  502  0.11676503535E+04 -0.11309984870E+04 -0.46405616481E+03  0.16905367972E+04  0.12699999809E+01 0. -1.
</event>
<event>
 5   0  0.5855568E-06  0.3004821E+04  0.7818609E-02  0.8242356E-01
        2   -1    0    0  501    0  0.00000000000E+00  0.00000000000E+00  0.18248581345E+04  0.18248581345E+04  0.25500000920E-02 0.  1.
       -2   -1    0    0    0  501  0.00000000000E+00  0.00000000000E+00 -0.12369381268E+04  0.12369381268E+04  0.25500000920E-02 0. -1.
    10030    2    1    2    0    0  0.00000000000E+00  0.00000000000E+00  0.58792000772E+03  0.30617962613E+04  0.30048205288E+04 0.  0.
        3    1    3    3  502    0 -0.67739798373E+02  0.60809979490E+03  0.16921527981E+04  0.17993763206E+04  0.10100000352E+00 0.  1.
       -3    1    3    3    0  502  0.67739798373E+02 -0.60809979490E+03 -0.11042327904E+04  0.12624199406E+04  0.10100000352E+00 0. -1.
</event>
<event>
 5   0  0.5755250E-06  0.3223438E+04  0.7818609E-02  0.8182655E-01
       -2   -1    0    0    0  501  0.00000000000E+00  0.00000000000E+00  0.14399670148E+04  0.14399670148E+04  0.25500000920E-02 0. -1.
        2   -1    0    0  501    0  0.00000000000E+00  0.00000000000E+00 -0.18039562507E+04  0.18039562507E+04  0.25500000920E-02 0.  1.
    10030    2    1    2    0    0  0.00000000000E+00  0.00000000000E+00 -0.36398923590E+03  0.32439232656E+04  0.32234376044E+04 0.  0.
        5    1    3    3  502    0 -0.73033887089E+03 -0.13824018084E+04 -0.57587153686E+03  0.16661571784E+04  0.46999998093E+01 0.  1.
       -5    1    3    3    0  502  0.73033887089E+03  0.13824018084E+04  0.21188230096E+03  0.15777660872E+04  0.46999998093E+01 0. -1.
</event>
<event>
 5   0  0.2097842E-06  0.2044300E+04  0.7818609E-02  0.8586185E-01
        1   -1    0    0  501    0  0.00000000000E+00  0.00000000000E+00  0.14696833011E+04  0.14696833011E+04  0.50400001928E-02 0.  1.
       -1   -1    0    0    0  501  0.00000000000E+00  0.00000000000E+00 -0.71089474284E+03  0.71089474286E+03  0.50400001928E-02 0. -1.
    10030    2    1    2    0    0  0.00000000000E+00  0.00000000000E+00  0.75878855829E+03  0.21805780440E+04  0.20442995206E+04 0.  0.
        4    1    3    3  502    0  0.46828847496E+03 -0.13575276056E+03 -0.57886168188E+03  0.75683906310E+03  0.12699999809E+01 0. -1.
       -4    1    3    3    0  502 -0.46828847496E+03  0.13575276056E+03  0.13376502402E+04  0.14237389809E+04  0.12699999809E+01 0.  1.
</event>
<event>
 5   0  0.2730981E-06  0.1833607E+04  0.7818609E-02  0.8688629E-01
       -1   -1    0    0    0  501  0.00000000000E+00  0.00000000000E+00  0.96648594046E+03  0.96648594047E+03  0.50400001928E-02 0.  1.
        1   -1    0    0  501    0  0.00000000000E+00  0.00000000000E+00 -0.86967517841E+03  0.86967517842E+03  0.50400001928E-02 0. -1.
    10030    2    1    2    0    0  0.00000000000E+00  0.00000000000E+00  0.96810762046E+02  0.18361611189E+04  0.18336071910E+04 0.  0.
        3    1    3    3  502    0 -0.45794959781E+03  0.44522453125E+03  0.70703425520E+03  0.95280646806E+03  0.10100000352E+00 0.  1.
       -3    1    3    3    0  502  0.45794959781E+03 -0.44522453125E+03 -0.61022349315E+03  0.88335465083E+03  0.10100000352E+00 0. -1.
</event>
<event>
 5   0  0.1999849E-06  0.3452475E+04  0.7818609E-02  0.8125146E-01
       -1   -1    0    0    0  501  0.00000000000E+00  0.00000000000E+00  0.17929769980E+04  0.17929769980E+04  0.50400001928E-02 0.  1.
        1   -1    0    0  501    0  0.00000000000E+00  0.00000000000E+00 -0.16619819814E+04  0.16619819814E+04  0.50400001928E-02 0. -1.
    10030    2    1    2    0    0  0.00000000000E+00  0.00000000000E+00  0.13099501660E+03  0.34549589794E+04  0.34524747435E+04 0.  0.
        5    1    3    3  502    0 -0.38812901825E+03 -0.10283675374E+04  0.13975035182E+04  0.17779825927E+04  0.46999998093E+01 0.  1.
       -5    1    3    3    0  502  0.38812901825E+03  0.10283675374E+04 -0.12665085016E+04  0.16769763866E+04  0.46999998093E+01 0. -1.
</event>
<event>
 5   0  0.5300268E-06  0.3488997E+04  0.7818609E-02  0.8116403E-01
        2   -1    0    0  501    0  0.00000000000E+00  0.00000000000E+00  0.19522856508E+04  0.19522856508E+04  0.25500000920E-02 0.  1.
       -2   -1    0    0    0  501  0.00000000000E+00  0.00000000000E+00 -0.15588264465E+04  0.15588264465E+04  0.25500000920E-02 0. -1.
    10030    2    1    2    0    0  0.00000000000E+00  0.00000000000E+00  0.39345920435E+03  0.35111120973E+04  0.34889967059E+04 0.  0.
        4    1    3    3  502    0 -0.42004966998E+03  0.28238712726E+03 -0.14833100386E+04  0.15672889008E+04  0.12699999809E+01 0. -1.
       -4    1    3    3    0  502  0.42004966998E+03 -0.28238712726E+03  0.18767692430E+04  0.19438231965E+04  0.12699999809E+01 0.  1.
</event>
<event>
 5   0  0.5300268E-06  0.3224589E+04  0.7818609E-02  0.8182353E-01
        2   -1    0    0  501    0  0.00000000000E+00  0.00000000000E+00  0.11710460532E+04  0.11710460532E+04  0.25500000920E-02 0. -1.
       -2   -1    0    0    0  501  0.00000000000E+00  0.00000000000E+00 -0.22198042718E+04  0.22198042718E+04  0.25500000920E-02 0.  1.
    10030    2    1    2    0    0  0.00000000000E+00  0.00000000000E+00 -0.10487582187E+04  0.33908503250E+04  0.32245886754E+04 0.  0.
        4    1    3    3  502    0  0.13732402390E+03  0.54532141073E+03  0.10645766233E+04  0.12039760497E+04  0.12699999809E+01 0. -1.
       -4    1    3    3    0  502 -0.13732402390E+03 -0.54532141073E+03 -0.21133348420E+04  0.21868742752E+04  0.12699999809E+01 0.  1.
</event>
<event>
 5   0  0.5755250E-06  0.3188093E+04  0.7818609E-02  0.8191969E-01
        2   -1    0    0  501    0  0.00000000000E+00  0.00000000000E+00  0.19913967888E+04  0.19913967888E+04  0.25500000920E-02 0.  1.
       -2   -1    0    0    0  501  0.00000000000E+00  0.00000000000E+00 -0.12759811132E+04  0.12759811132E+04  0.25500000920E-02 0. -1.
    10030    2    1    2    0    0  0.00000000000E+00  0.00000000000E+00  0.71541567558E+03  0.32673779021E+04  0.31880932806E+04 0.  0.
        5    1    3    3  502    0 -0.15401029428E+03  0.10958766291E+04  0.15335402638E+04  0.18911458399E+04  0.46999998093E+01 0.  1.
       -5    1    3    3    0  502  0.15401029428E+03 -0.10958766291E+04 -0.81812458826E+03  0.13762320622E+04  0.46999998093E+01 0. -1.
</event>
<event>
 5   0  0.7967097E-06  0.1676503E+04  0.7818609E-02  0.8774880E-01
       -2   -1    0    0    0  501  0.00000000000E+00  0.00000000000E+00  0.40425668017E+03  0.40425668018E+03  0.25500000920E-02 0.  1.
        2   -1    0    0  501    0  0.00000000000E+00  0.00000000000E+00 -0.17381677779E+04  0.17381677779E+04  0.25500000920E-02 0. -1.
    10030    2    1    2    0    0  0.00000000000E+00  0.00000000000E+00 -0.13339110977E+04  0.21424244581E+04  0.16765034273E+04 0.  0.
        4    1    3    3  502    0 -0.46531399993E+03 -0.68748181190E+03 -0.51838779457E+03  0.97871133573E+03  0.12699999809E+01 0. -1.
       -4    1    3    3    0  502  0.46531399993E+03  0.68748181190E+03 -0.81552330313E+03  0.11637131223E+04  0.12699999809E+01 0.  1.
</event>
<event>
 5   0  0.5637538E-06  0.3356380E+04  0.7818609E-02  0.8148696E-01
       -2   -1    0    0    0  501  0.00000000000E+00  0.00000000000E+00  0.10499815790E+04  0.10499815790E+04  0.25500000920E-02 0. -1.
        2   -1    0    0  501    0  0.00000000000E+00  0.00000000000E+00 -0.26822580722E+04  0.26822580722E+04  0.25500000920E-02 0.  1.
    10030    2    1    2    0    0  0.00000000000E+00  0.00000000000E+00 -0.16322764932E+04  0.37322396511E+04  0.33563799343E+04 0.  0.
        2    1    3    3  502    0  0.15122497777E+04 -0.27155922329E+03 -0.15667706785E+04  0.21944051952E+04  0.25500000920E-02 0. -1.
       -2    1    3    3    0  502 -0.15122497777E+04  0.27155922329E+03 -0.65505814729E+02  0.15378344559E+04  0.25500000920E-02 0.  1.
</event>
<event>
 5   0  0.5755250E-06  0.3258031E+04  0.7818609E-02  0.8173657E-01
       -2   -1    0    0    0  501  0.00000000000E+00  0.00000000000E+00  0.11020790675E+04  0.11020790675E+04  0.25500000920E-02 0.  1.
        2   -1    0    0  501    0  0.00000000000E+00  0.00000000000E+00 -0.24078964431E+04  0.24078964431E+04  0.25500000920E-02 0. -1.
    10030    2    1    2    0    0  0.00000000000E+00  0.00000000000E+00 -0.13058173756E+04  0.35099755105E+04  0.32580314710E+04 0.  0.
        5    1    3    3  502    0 -0.11645594820E+04  0.98441053868E+03 -0.35524930275E+02  0.15253022673E+04  0.46999998093E+01 0. -1.
       -5    1    3    3    0  502  0.11645594820E+04 -0.98441053868E+03 -0.12702924453E+04  0.19846732433E+04  0.46999998093E+01 0.  1.
</event>
<event>
 5   0  0.5755250E-06  0.2643944E+04  0.7818609E-02  0.8353426E-01
       -2   -1    0    0    0  501  0.00000000000E+00  0.00000000000E+00  0.66883688154E+03  0.66883688154E+03  0.25500000920E-02 0. -1.
        2   -1    0    0  501    0  0.00000000000E+00  0.00000000000E+00 -0.26129100514E+04  0.26129100514E+04  0.25500000920E-02 0.  1.
    10030    2    1    2    0    0  0.00000000000E+00  0.00000000000E+00 -0.19440731698E+04  0.32817469329E+04  0.26439444854E+04 0.  0.
        5    1    3    3  502    0 -0.22918608742E+03  0.10736223953E+04 -0.18861739890E+04  0.21823990737E+04  0.46999998093E+01 0.  1.
       -5    1    3    3    0  502  0.22918608742E+03 -0.10736223953E+04 -0.57899180869E+02  0.10993478592E+04  0.46999998093E+01 0. -1.
</event>
<event>
 5   0  0.2037109E-06  0.2384273E+04  0.7818609E-02  0.8445415E-01
       -1   -1    0    0    0  501  0.00000000000E+00  0.00000000000E+00  0.17688777547E+04  0.17688777547E+04  0.50400001928E-02 0. -1.
        1   -1    0    0  501    0  0.00000000000E+00  0.00000000000E+00 -0.80344126334E+03  0.80344126335E+03  0.50400001928E-02 0.  1.
    10030    2    1    2    0    0  0.00000000000E+00  0.00000000000E+00  0.96543649134E+03  0.25723190180E+04  0.23842729524E+04 0.  0.
        2    1    3    3  502    0  0.13253963166E+03  0.11520779105E+04  0.78080481475E+03  0.13980366321E+04  0.25500000920E-02 0.  1.
       -2    1    3    3    0  502 -0.13253963166E+03 -0.11520779105E+04  0.18463167659E+03  0.11742823859E+04  0.25500000920E-02 0. -1.
</event>
<event>
 5   0  0.2037109E-06  0.3357877E+04  0.7818609E-02  0.8148323E-01
        1   -1    0    0  501    0  0.00000000000E+00  0.00000000000E+00  0.15798827905E+04  0.15798827905E+04  0.50400001928E-02 0.  1.
       -1   -1    0    0    0  501  0.00000000000E+00  0.00000000000E+00 -0.17842045852E+04  0.17842045852E+04  0.50400001928E-02 0. -1.
    10030    2    1    2    0    0  0.00000000000E+00  0.00000000000E+00 -0.20432179467E+03  0.33640873757E+04  0.33578767809E+04 0.  0.
        2    1    3    3  502    0 -0.60751212815E+03 -0.19840686104E+03 -0.16575780271E+04  0.17765137726E+04  0.25500000920E-02 0. -1.
       -2    1    3    3    0  502  0.60751212815E+03  0.19840686104E+03  0.14532562324E+04  0.15875736031E+04  0.25500000920E-02 0.  1.
</event>
<event>
 5   0  0.2037109E-06  0.2963593E+04  0.7818609E-02  0.8254204E-01
        1   -1    0    0  501    0  0.00000000000E+00  0.00000000000E+00  0.15194222807E+04  0.15194222807E+04  0.50400001928E-02 0.  1.
       -1   -1    0    0    0  501  0.00000000000E+00  0.00000000000E+00 -0.14451023537E+04  0.14451023537E+04  0.50400001928E-02 0. -1.
    10030    2    1    2    0    0  0.00000000000E+00  0.00000000000E+00  0.74319927036E+02  0.29645246344E+04  0.29635928966E+04 0.  0.
        2    1    3    3  502    0 -0.66421054803E+03  0.93932545321E+03 -0.89705697022E+03  0.14588417210E+04  0.25500000920E-02 0. -1.
       -2    1    3    3    0  502  0.66421054803E+03 -0.93932545321E+03  0.97137689726E+03  0.15056829134E+04  0.25500000920E-02 0.  1.
</event>
<event>
 5   0  0.1999849E-06  0.2302283E+04  0.7818609E-02  0.8477021E-01
        1   -1    0    0  501    0  0.00000000000E+00  0.00000000000E+00  0.13129883741E+04  0.13129883742E+04  0.50400001928E-02 0. -1.
       -1   -1    0    0    0  501  0.00000000000E+00  0.00000000000E+00 -0.10092449743E+04  0.10092449743E+04  0.50400001928E-02 0.  1.
    10030    2    1    2    0    0  0.00000000000E+00  0.00000000000E+00  0.30374339982E+03  0.23222333485E+04  0.23022831433E+04 0.  0.
        5    1    3    3  502    0 -0.82663311627E+03  0.19312530485E+03 -0.63235195277E+03  0.10585418152E+04  0.46999998093E+01 0.  1.
       -5    1    3    3    0  502  0.82663311627E+03 -0.19312530485E+03  0.93609535259E+03  0.12636915333E+04  0.46999998093E+01 0. -1.
</event>
<event>
 5   0  0.5855568E-06  0.3251590E+04  0.7818609E-02  0.8175324E-01
       -2   -1    0    0    0  501  0.00000000000E+00  0.00000000000E+00  0.11657974417E+04  0.11657974417E+04  0.25500000920E-02 0.  1.
        2   -1    0    0  501    0  0.00000000000E+00  0.00000000000E+00 -0.22672974275E+04  0.22672974275E+04  0.25500000920E-02 0. -1.
    10030    2    1    2    0    0  0.00000000000E+00  0.00000000000E+00 -0.11014999858E+04  0.34330948693E+04  0.32515900976E+04 0.  0.
        3    1    3    3  502    0 -0.95559600473E+03  0.93453417830E+03  0.42649237198E+03  0.14030016423E+04  0.10100000352E+00 0.  1.
       -3    1    3    3    0  502  0.95559600473E+03 -0.93453417830E+03 -0.15279923578E+04  0.20300932270E+04  0.10100000352E+00 0. -1.
</event>
<event>
 5   0  0.1925906E-06  0.3346264E+04  0.7818609E-02  0.8151222E-01
        1   -1    0    0  501    0  0.00000000000E+00  0.00000000000E+00  0.19755809215E+04  0.19755809215E+04  0.50400001928E-02 0. -1.
       -1   -1    0    0    0  501  0.00000000000E+00  0.00000000000E+00 -0.14169864314E+04  0.14169864314E+04  0.50400001928E-02 0.  1.
    10030    2    1    2    0    0  0.00000000000E+00  0.00000000000E+00  0.55859449018E+03  0.33925673529E+04  0.33462644007E+04 0.  0.
        1    1    3    3  502    0  0.16186538407E+04 -0.19289290218E+03 -0.10291189531E+03  0.16333520092E+04  0.50400001928E-02 0.  1.
       -1    1    3    3    0  502 -0.16186538407E+04  0.19289290218E+03  0.66150638549E+03  0.17592153437E+04  0.50400001928E-02 0. -1.
</event>
<event>
 5   0  0.2037109E-06  0.1996977E+04  0.7818609E-02  0.8608035E-01
        1   -1    0    0  501    0  0.00000000000E+00  0.00000000000E+00  0.90185011221E+03  0.90185011222E+03  0.50400001928E-02 0.  1.
       -1   -1    0    0    0  501  0.00000000000E+00  0.00000000000E+00 -0.11054826151E+04  0.11054826151E+04  0.50400001928E-02 0. -1.
    10030    2    1    2    0    0  0.00000000000E+00  0.00000000000E+00 -0.20363250293E+03  0.20073327274E+04  0.19969773364E+04 0.  0.
        2    1    3    3  502    0 -0.40094402641E+02 -0.92051727677E+03 -0.48854497792E+03  0.10428977962E+04  0.25500000920E-02 0.  1.
       -2    1    3    3    0  502  0.40094402641E+02  0.92051727677E+03  0.28491247500E+03  0.96443493112E+03  0.25500000920E-02 0. -1.
</event>
<event>
 5   0  0.1999849E-06  0.3399012E+04  0.7818609E-02  0.8138149E-01
        1   -1    0    0  501    0  0.00000000000E+00  0.00000000000E+00  0.16611730764E+04  0.16611730764E+04  0.50400001928E-02 0. -1.
       -1   -1    0    0    0  501  0.00000000000E+00  0.00000000000E+00 -0.17387238851E+04  0.17387238852E+04  0.50400001928E-02 0.  1.
    10030    2    1    2    0    0  0.00000000000E+00  0.00000000000E+00 -0.77550808785E+02  0.33998969615E+04  0.33990123891E+04 0.  0.
        5    1    3    3  502    0 -0.74976790915E+03  0.15158951974E+04  0.12922379961E+03  0.16961164605E+04  0.46999998093E+01 0.  1.
       -5    1    3    3    0  502  0.74976790915E+03 -0.15158951974E+04 -0.20677460839E+03  0.17037805011E+04  0.46999998093E+01 0. -1.
</event>
<event>
 5   0  0.5637538E-06  0.3065580E+04  0.7818609E-02  0.8225248E-01
       -2   -1    0    0    0  501  0.00000000000E+00  0.00000000000E+00  0.14270757757E+04  0.14270757757E+04  0.25500000920E-02 0. -1.
        2   -1    0    0  501    0  0.00000000000E+00  0.00000000000E+00 -0.16463352796E+04  0.16463352796E+04  0.25500000920E-02 0.  1.
    10030    2    1    2    0    0  0.00000000000E+00  0.00000000000E+00 -0.21925950387E+03  0.30734110553E+04  0.30655800079E+04 0.  0.
        2    1    3    3  502    0  0.15546728460E+03 -0.69562014919E+03  0.12508140806E+04  0.14396504203E+04  0.25500000920E-02 0. -1.
       -2    1    3    3    0  502 -0.15546728460E+03  0.69562014919E+03 -0.14700735845E+04  0.16337606350E+04  0.25500000920E-02 0.  1.
</event>
<event>
 5   0  0.5300268E-06  0.3229477E+04  0.7818609E-02  0.8181075E-01
        2   -1    0    0  501    0  0.00000000000E+00  0.00000000000E+00  0.17517652921E+04  0.17517652921E+04  0.25500000920E-02 0.  1.
       -2   -1    0    0    0  501  0.00000000000E+00  0.00000000000E+00 -0.14884305775E+04  0.14884305775E+04  0.25500000920E-02 0. -1.
    10030    2    1    2    0    0  0.00000000000E+00  0.00000000000E+00  0.26333471464E+03  0.32401958696E+04  0.32294773728E+04 0.  0.
        4    1    3    3  502    0 -0.50899540047E+03 -0.41946709536E+03 -0.13471139842E+04  0.14999155513E+04  0.12699999809E+01 0. -1.
       -4    1    3    3    0  502  0.50899540047E+03  0.41946709536E+03  0.16104486988E+04  0.17402803183E+04  0.12699999809E+01 0.  1.
</event>
<event>
 5   0  0.2730981E-06  0.3128364E+04  0.7818609E-02  0.8207996E-01
       -1   -1    0    0    0  501  0.00000000000E+00  0.00000000000E+00  0.96861758563E+03  0.96861758564E+03  0.50400001928E-02 0.  1.
        1   -1    0    0  501    0  0.00000000000E+00  0.00000000000E+00 -0.25259357605E+04  0.25259357605E+04  0.50400001928E-02 0. -1.
    10030    2    1    2    0    0  0.00000000000E+00  0.00000000000E+00 -0.15573181748E+04  0.34945533461E+04  0.31283642996E+04 0.  0.
        3    1    3    3  502    0 -0.13525394756E+04 -0.70954932202E+03 -0.40175869229E+03  0.15793141962E+04  0.10100000352E+00 0.  1.
       -3    1    3    3    0  502  0.13525394756E+04  0.70954932202E+03 -0.11555594825E+04  0.19152391499E+04  0.10100000352E+00 0. -1.
</event>
<event>
 5   0  0.5637538E-06  0.1822580E+04  0.7818609E-02  0.8694383E-01
       -2   -1    0    0    0  501  0.00000000000E+00  0.00000000000E+00  0.32038182982E+03  0.32038182983E+03  0.25500000920E-02 0. -1.
        2   -1    0    0  501    0  0.00000000000E+00  0.00000000000E+00 -0.25920617138E+04  0.25920617138E+04  0.25500000920E-02 0.  1.
    10030    2    1    2    0    0  0.00000000000E+00  0.00000000000E+00 -0.22716798840E+04  0.29124435436E+04  0.18225800118E+04 0.  0.
        2    1    3    3  502    0  0.21290141435E+03  0.85866168824E+03 -0.14852918034E+04  0.17287910945E+04  0.25500000920E-02 0.  1.
       -2    1    3    3    0  502 -0.21290141435E+03 -0.85866168824E+03 -0.78638808054E+03  0.11836524491E+04  0.25500000920E-02 0. -1.
</event>
<event>
 5   0  0.1999849E-06  0.2739703E+04  0.7818609E-02  0.8322236E-01
       -1   -1    0    0    0  501  0.00000000000E+00  0.00000000000E+00  0.12958428796E+04  0.12958428796E+04  0.50400001928E-02 0.  1.
        1   -1    0    0  501    0  0.00000000000E+00  0.00000000000E+00 -0.14480871869E+04  0.14480871869E+04  0.50400001928E-02 0. -1.
    10030    2    1    2    0    0  0.00000000000E+00  0.00000000000E+00 -0.15224430729E+03  0.27439300665E+04  0.27397032468E+04 0.  0.
        5    1    3    3  502    0 -0.13987994637E+03 -0.79090677273E+03 -0.11875059367E+04  0.14336290881E+04  0.46999998093E+01 0. -1.
       -5    1    3    3    0  502  0.13987994637E+03  0.79090677273E+03  0.10352616294E+04  0.13103009784E+04  0.46999998093E+01 0.  1.
</event>
<event>
 5   0  0.2097842E-06  0.1877324E+04  0.7818609E-02  0.8666226E-01
       -1   -1    0    0    0  501  0.00000000000E+00  0.00000000000E+00  0.97992766848E+03  0.97992766850E+03  0.50400001928E-02 0.  1.
        1   -1    0    0  501    0  0.00000000000E+00  0.00000000000E+00 -0.89913449056E+03  0.89913449057E+03  0.50400001928E-02 0. -1.
    10030    2    1    2    0    0  0.00000000000E+00  0.00000000000E+00  0.80793177928E+02  0.18790621591E+04  0.18773244419E+04 0.  0.
        4    1    3    3  502    0  0.95067892745E+02  0.19128313378E+03 -0.87448339484E+03  0.90019440248E+03  0.12699999809E+01 0. -1.
       -4    1    3    3    0  502 -0.95067892745E+02 -0.19128313378E+03  0.95527657277E+03  0.97886775659E+03  0.12699999809E+01 0.  1.
</event>
<event>
 5   0  0.2037109E-06  0.3296003E+04  0.7818609E-02  0.8163913E-01
       -1   -1    0    0    0  501  0.00000000000E+00  0.00000000000E+00  0.13165771053E+04  0.13165771053E+04  0.50400001928E-02 0. -1.
        1   -1    0    0  501    0  0.00000000000E+00  0.00000000000E+00 -0.20628557719E+04  0.20628557719E+04  0.50400001928E-02 0.  1.
    10030    2    1    2    0    0  0.00000000000E+00  0.00000000000E+00 -0.74627866659E+03  0.33794328772E+04  0.32960028403E+04 0.  0.
        2    1    3    3  502    0  0.66605638174E+03 -0.45944384025E+03  0.10988855409E+04  0.13646498371E+04  0.25500000920E-02 0. -1.
       -2    1    3    3    0  502 -0.66605638174E+03  0.45944384025E+03 -0.18451642075E+04  0.20147830401E+04  0.25500000920E-02 0.  1.
</event>
<event>
 5   0  0.1999849E-06  0.3365076E+04  0.7818609E-02  0.8146532E-01
       -1   -1    0    0    0  501  0.00000000000E+00  0.00000000000E+00  0.15760077678E+04  0.15760077678E+04  0.50400001928E-02 0. -1.
        1   -1    0    0  501    0  0.00000000000E+00  0.00000000000E+00 -0.17962686241E+04  0.17962686241E+04  0.50400001928E-02 0.  1.
    10030    2    1    2    0    0  0.00000000000E+00  0.00000000000E+00 -0.22026085626E+03  0.33722763919E+04  0.33650755145E+04 0.  0.
        5    1    3    3  502    0  0.36041165509E+03 -0.43304939590E+03  0.14786588960E+04  0.15823661274E+04  0.46999998093E+01 0. -1.
       -5    1    3    3    0  502 -0.36041165509E+03  0.43304939590E+03 -0.16989197522E+04  0.17899102645E+04  0.46999998093E+01 0.  1.
</event>
<event>
 5   0  0.1925906E-06  0.3484733E+04  0.7818609E-02  0.8117418E-01
       -1   -1    0    0    0  501  0.00000000000E+00  0.00000000000E+00  0.13580052202E+04  0.13580052202E+04  0.50400001928E-02 0. -1.
        1   -1    0    0  501    0  0.00000000000E+00  0.00000000000E+00 -0.22355145634E+04  0.22355145634E+04  0.50400001928E-02 0.  1.
    10030    2    1    2    0    0  0.00000000000E+00  0.00000000000E+00 -0.87750934313E+03  0.35935197836E+04  0.34847326709E+04 0.  0.
        1    1    3    3  502    0 -0.21290320855E+03 -0.20560566575E+03 -0.22094013745E+04  0.22291379275E+04  0.50400001928E-02 0.  1.
       -1    1    3    3    0  502  0.21290320855E+03  0.20560566575E+03  0.13318920314E+04  0.13643818561E+04  0.50400001928E-02 0. -1.
</event>
<event>
 5   0  0.5855568E-06  0.3363256E+04  0.7818609E-02  0.8146984E-01
        2   -1    0    0  501    0  0.00000000000E+00  0.00000000000E+00  0.22482405846E+04  0.22482405846E+04  0.25500000920E-02 0.  1.
       -2   -1    0    0    0  501  0.00000000000E+00  0.00000000000E+00 -0.12578160537E+04  0.12578160537E+04  0.25500000920E-02 0. -1.
    10030    2    1    2    0    0  0.00000000000E+00  0.00000000000E+00  0.99042453088E+03  0.35060566383E+04  0.33632562198E+04 0.  0.
        3    1    3    3  502    0  0.42513064709E+03  0.73325614140E+03  0.20092820859E+04  0.21807372943E+04  0.10100000352E+00 0.  1.
       -3    1    3    3    0  502 -0.42513064709E+03 -0.73325614140E+03 -0.10188575550E+04  0.13253193440E+04  0.10100000352E+00 0. -1.
</event>
<event>
 5   0  0.5855568E-06  0.2199595E+04  0.7818609E-02  0.8518597E-01
       -2   -1    0    0    0  501  0.00000000000E+00  0.00000000000E+00  0.10403753536E+04  0.10403753536E+04  0.25500000920E-02 0. -1.
        2   -1    0    0  501    0  0.00000000000E+00  0.00000000000E+00 -0.11626130997E+04  0.11626130997E+04  0.25500000920E-02 0.  1.
    10030    2    1    2    0    0  0.00000000000E+00  0.00000000000E+00 -0.12223774607E+03  0.22029884534E+04  0.21995945215E+04 0.  0.
        3    1    3    3  502    0  0.17053321386E+03 -0.10168814098E+04  0.32212626419E+03  0.10802290123E+04  0.10100000352E+00 0.  1.
       -3    1    3    3    0  502 -0.17053321386E+03  0.10168814098E+04 -0.44436401026E+03  0.11227594411E+04  0.10100000352E+00 0. -1.
</event>
<event>
 5   0  0.1999849E-06  0.2268148E+04  0.7818609E-02  0.8490587E-01
        1   -1    0    0  501    0  0.00000000000E+00  0.00000000000E+00  0.17512423975E+04  0.17512423975E+04  0.50400001928E-02 0. -1.
       -1   -1    0    0    0  501  0.00000000000E+00  0.00000000000E+00 -0.73440632476E+03  0.73440632478E+03  0.50400001928E-02 0.  1.
    10030    2    1    2    0    0  0.00000000000E+00  0.00000000000E+00  0.10168360728E+04  0.24856487223E+04  0.22681476962E+04 0.  0.
        5    1    3    3  502    0 -0.17852219860E+02 -0.11297744182E+04  0.40220979437E+03  0.11993763990E+04  0.46999998093E+01 0.  1.
       -5    1    3    3    0  502  0.17852219860E+02  0.11297744182E+04  0.61462627840E+03  0.12862723233E+04  0.46999998093E+01 0. -1.
</event>
<event>
 5   0  0.2730981E-06  0.1973972E+04  0.7818609E-02  0.8618887E-01
       -1   -1    0    0    0  501  0.00000000000E+00  0.00000000000E+00  0.92861116770E+03  0.92861116772E+03  0.50400001928E-02 0.  1.
        1   -1    0    0  501    0  0.00000000000E+00  0.00000000000E+00 -0.10490299222E+04  0.10490299222E+04  0.50400001928E-02 0. -1.
    10030    2    1    2    0    0  0.00000000000E+00  0.00000000000E+00 -0.12041875453E+03  0.19776410900E+04  0.19739715308E+04 0.  0.
        3    1    3    3  502    0  0.50317351625E+03  0.10036620929E+03  0.78449732434E+03  0.93738627338E+03  0.10100000352E+00 0.  1.
       -3    1    3    3    0  502 -0.50317351625E+03 -0.10036620929E+03 -0.90491607887E+03  0.10402548166E+04  0.10100000352E+00 0. -1.
</event>
<event>
 5   0  0.2730981E-06  0.3524623E+04  0.7818609E-02  0.8107979E-01
        1   -1    0    0  501    0  0.00000000000E+00  0.00000000000E+00  0.32431755678E+04  0.32431755678E+04  0.50400001928E-02 0. -1.
       -1   -1    0    0    0  501  0.00000000000E+00  0.00000000000E+00 -0.95762375320E+03  0.95762375321E+03  0.50400001928E-02 0.  1.
    10030    2    1    2    0    0  0.00000000000E+00  0.00000000000E+00  0.22855518146E+04  0.42007993210E+04  0.35246230774E+04 0.  0.
        3    1    3    3  502    0 -0.11433519861E+03 -0.11951884225E+04  0.26802975460E+04  0.29369274503E+04  0.10100000352E+00 0. -1.
       -3    1    3    3    0  502  0.11433519861E+03  0.11951884225E+04 -0.39474573143E+03  0.12638718707E+04  0.10100000352E+00 0.  1.
</event>
<event>
 5   0  0.5637538E-06  0.3218480E+04  0.7818609E-02  0.8183954E-01
        2   -1    0    0  501    0  0.00000000000E+00  0.00000000000E+00  0.15316652028E+04  0.15316652028E+04  0.25500000920E-02 0.  1.
       -2   -1    0    0    0  501  0.00000000000E+00  0.00000000000E+00 -0.16907437820E+04  0.16907437820E+04  0.25500000920E-02 0. -1.
    10030    2    1    2    0    0  0.00000000000E+00  0.00000000000E+00 -0.15907857920E+03  0.32224089848E+04  0.32184800250E+04 0.  0.
        2    1    3    3  502    0 -0.99170719252E+03 -0.78381192345E+03 -0.10766511745E+04  0.16604282696E+04  0.25500000920E-02 0. -1.
       -2    1    3    3    0  502  0.99170719252E+03  0.78381192345E+03  0.91757259528E+03  0.15619807152E+04  0.25500000920E-02 0.  1.
</event>
<event>
 5   0  0.5637538E-06  0.1987053E+04  0.7818609E-02  0.8612698E-01
       -2   -1    0    0    0  501  0.00000000000E+00  0.00000000000E+00  0.60229202622E+03  0.60229202622E+03  0.25500000920E-02 0.  1.
        2   -1    0    0  501    0  0.00000000000E+00  0.00000000000E+00 -0.16388967988E+04  0.16388967988E+04  0.25500000920E-02 0. -1.
    10030    2    1    2    0    0  0.00000000000E+00  0.00000000000E+00 -0.10366047726E+04  0.22411888250E+04  0.19870525647E+04 0.  0.
        2    1    3    3  502    0  0.29437867280E+03  0.27970796470E+03 -0.15410243847E+04  0.15936284080E+04  0.25500000920E-02 0. -1.
       -2    1    3    3    0  502 -0.29437867280E+03 -0.27970796470E+03  0.50441961216E+03  0.64756041699E+03  0.25500000920E-02 0.  1.
</event>
<event>
 5   0  0.2097842E-06  0.3201006E+04  0.7818609E-02  0.8188552E-01
       -1   -1    0    0    0  501  0.00000000000E+00  0.00000000000E+00  0.14439415698E+04  0.14439415698E+04  0.50400001928E-02 0.  1.
        1   -1    0    0  501    0  0.00000000000E+00  0.00000000000E+00 -0.17740394458E+04  0.17740394459E+04  0.50400001928E-02 0. -1.
    10030    2    1    2    0    0  0.00000000000E+00  0.00000000000E+00 -0.33009787606E+03  0.32179810156E+04  0.32010056559E+04 0.  0.
        4    1    3    3  502    0  0.42864930915E+03  0.15368184595E+04 -0.37662782311E+02  0.15959233395E+04  0.12699999809E+01 0.  1.
       -4    1    3    3    0  502 -0.42864930915E+03 -0.15368184595E+04 -0.29243509375E+03  0.16220576761E+04  0.12699999809E+01 0. -1.
</event>
<event>
 5   0  0.5622811E-06  0.3164161E+04  0.7818609E-02  0.8198347E-01
       -2   -1    0    0    0  501  0.00000000000E+00  0.00000000000E+00  0.10836585426E+04  0.10836585426E+04  0.25500000920E-02 0.  1.
        2   -1    0    0  501    0  0.00000000000E+00  0.00000000000E+00 -0.23097489651E+04  0.23097489651E+04  0.25500000920E-02 0. -1.
    10030    2    1    2    0    0  0.00000000000E+00  0.00000000000E+00 -0.12260904225E+04  0.33934075077E+04  0.31641613089E+04 0.  0.
        1    1    3    3  502    0 -0.39896688684E+03  0.99057652251E+03 -0.18649049157E+04  0.21490199553E+04  0.50400001928E-02 0. -1.
       -1    1    3    3    0  502  0.39896688684E+03 -0.99057652251E+03  0.63881449316E+03  0.12443875523E+04  0.50400001928E-02 0.  1.
</event>
<event>
 5   0  0.5755250E-06  0.2083200E+04  0.7818609E-02  0.8568680E-01
        2   -1    0    0  501    0  0.00000000000E+00  0.00000000000E+00  0.82720996585E+03  0.82720996586E+03  0.25500000920E-02 0.  1.
       -2   -1    0    0    0  501  0.00000000000E+00  0.00000000000E+00 -0.13115541874E+04  0.13115541874E+04  0.25500000920E-02 0. -1.
    10030    2    1    2    0    0  0.00000000000E+00  0.00000000000E+00 -0.48434422155E+03  0.21387641533E+04  0.20832001292E+04 0.  0.
        5    1    3    3  502    0 -0.62157290626E+03 -0.68545239531E+03 -0.73316497763E+03  0.11805722504E+04  0.46999998093E+01 0. -1.
       -5    1    3    3    0  502  0.62157290626E+03  0.68545239531E+03  0.24882075608E+03  0.95819190285E+03  0.46999998093E+01 0.  1.
</event>
<event>
 5   0  0.5755250E-06  0.3136540E+04  0.7818609E-02  0.8205781E-01
        2   -1    0    0  501    0  0.00000000000E+00  0.00000000000E+00  0.16103822554E+04  0.16103822554E+04  0.25500000920E-02 0. -1.
       -2   -1    0    0    0  501  0.00000000000E+00  0.00000000000E+00 -0.15272592959E+04  0.15272592959E+04  0.25500000920E-02 0.  1.
    10030    2    1    2    0    0  0.00000000000E+00  0.00000000000E+00  0.83122959552E+02  0.31376415513E+04  0.31365403040E+04 0.  0.
        5    1    3    3  502    0 -0.65491100737E+03 -0.31227573026E+03  0.14323821866E+04  0.16056666459E+04  0.46999998093E+01 0. -1.
       -5    1    3    3    0  502  0.65491100737E+03  0.31227573026E+03 -0.13492592270E+04  0.15319749055E+04  0.46999998093E+01 0.  1.
</event>
<event>
 5   0  0.5637538E-06  0.2952391E+04  0.7818609E-02  0.8257458E-01
       -2   -1    0    0    0  501  0.00000000000E+00  0.00000000000E+00  0.12662898388E+04  0.12662898388E+04  0.25500000920E-02 0. -1.
        2   -1    0    0  501    0  0.00000000000E+00  0.00000000000E+00 -0.17208958636E+04  0.17208958636E+04  0.25500000920E-02 0.  1.
    10030    2    1    2    0    0  0.00000000000E+00  0.00000000000E+00 -0.45460602479E+03  0.29871857025E+04  0.29523908588E+04 0.  0.
        2    1    3    3  502    0  0.94136507759E+03 -0.11370937933E+04 -0.22888401305E+03  0.14938334564E+04  0.25500000920E-02 0. -1.
       -2    1    3    3    0  502 -0.94136507759E+03  0.11370937933E+04 -0.22572201174E+03  0.14933522460E+04  0.25500000920E-02 0.  1.
</event>
<event>
 5   0  0.1999849E-06  0.3285027E+04  0.7818609E-02  0.8166716E-01
       -1   -1    0    0    0  501  0.00000000000E+00  0.00000000000E+00  0.14416111613E+04  0.14416111613E+04  0.50400001928E-02 0. -1.
        1   -1    0    0  501    0  0.00000000000E+00  0.00000000000E+00 -0.18714138891E+04  0.18714138891E+04  0.50400001928E-02 0.  1.
    10030    2    1    2    0    0  0.00000000000E+00  0.00000000000E+00 -0.42980272777E+03  0.33130250504E+04  0.32850273362E+04 0.  0.
        5    1    3    3  502    0  0.12243918931E+04 -0.10824597605E+04 -0.49262676264E+02  0.16350240189E+04  0.46999998093E+01 0.  1.
       -5    1    3    3    0  502 -0.12243918931E+04  0.10824597605E+04 -0.38054005151E+03  0.16780010315E+04  0.46999998093E+01 0. -1.
</event>
<event>
 5   0  0.5855568E-06  0.3307905E+04  0.7818609E-02  0.8160887E-01
        2   -1    0    0  501    0  0.00000000000E+00  0.00000000000E+00  0.14439117854E+04  0.14439117854E+04  0.25500000920E-02 0. -1.
       -2   -1    0    0    0  501  0.00000000000E+00  0.00000000000E+00 -0.18945471819E+04  0.18945471819E+04  0.25500000920E-02 0.  1.
    10030    2    1    2    0    0  0.00000000000E+00  0.00000000000E+00 -0.45063539644E+03  0.33384589673E+04  0.33079050797E+04 0.  0.
        3    1    3    3  502    0  0.72898758704E+03 -0.22178288681E+03 -0.17068510950E+04  0.18692113903E+04  0.10100000352E+00 0.  1.
       -3    1    3    3    0  502 -0.72898758704E+03  0.22178288681E+03  0.12562156986E+04  0.14692475770E+04  0.10100000352E+00 0. -1.
</event>
<event>
 5   0  0.2730981E-06  0.2648399E+04  0.7818609E-02  0.8351945E-01
       -1   -1    0    0    0  501  0.00000000000E+00  0.00000000000E+00  0.12471787507E+04  0.12471787507E+04  0.50400001928E-02 0. -1.
        1   -1    0    0  501    0  0.00000000000E+00  0.00000000000E+00 -0.14059764156E+04  0.14059764156E+04  0.50400001928E-02 0.  1.
    10030    2    1    2    0    0  0.00000000000E+00  0.00000000000E+00 -0.15879766484E+03  0.26531551663E+04  0.26483986932E+04 0.  0.
        3    1    3    3  502    0  0.82644458761E+03 -0.10612905178E+03  0.95163850774E+03  0.12648675392E+04  0.10100000352E+00 0. -1.
       -3    1    3    3    0  502 -0.82644458761E+03  0.10612905178E+03 -0.11104361726E+04  0.13882876271E+04  0.10100000352E+00 0.  1.
</event>
<event>
 5   0  0.5300268E-06  0.3246950E+04  0.7818609E-02  0.8176527E-01
       -2   -1    0    0    0  501  0.00000000000E+00  0.00000000000E+00  0.15686367613E+04  0.15686367613E+04  0.25500000920E-02 0.  1.
        2   -1    0    0  501    0  0.00000000000E+00  0.00000000000E+00 -0.16802298445E+04  0.16802298445E+04  0.25500000920E-02 0. -1.
    10030    2    1    2    0    0  0.00000000000E+00  0.00000000000E+00 -0.11159308323E+03  0.32488666058E+04  0.32469495231E+04 0.  0.
        4    1    3    3  502    0 -0.31590974186E+03 -0.34360839695E+03  0.15000501418E+04  0.15709925959E+04  0.12699999809E+01 0.  1.
       -4    1    3    3    0  502  0.31590974186E+03  0.34360839695E+03 -0.16116432250E+04  0.16778740099E+04  0.12699999809E+01 0. -1.
</event>
<event>
 5   0  0.2037109E-06  0.3245626E+04  0.7818609E-02  0.8176870E-01
        1   -1    0    0  501    0  0.00000000000E+00  0.00000000000E+00  0.18435249016E+04  0.18435249016E+04  0.50400001928E-02 0.  1.
       -1   -1    0    0    0  501  0.00000000000E+00  0.00000000000E+00 -0.14285249177E+04  0.14285249177E+04  0.50400001928E-02 0. -1.
    10030    2    1    2    0    0  0.00000000000E+00  0.00000000000E+00  0.41499998393E+03  0.32720498193E+04  0.32456255226E+04 0.  0.
        2    1    3    3  502    0  0.41741186830E+03 -0.23047585094E+03 -0.13563122331E+04  0.14376837828E+04  0.25500000920E-02 0. -1.
       -2    1    3    3    0  502 -0.41741186830E+03  0.23047585094E+03  0.17713122170E+04  0.18343660365E+04  0.25500000920E-02 0.  1.
</event>
<event>
 5   0  0.1925906E-06  0.2669191E+04  0.7818609E-02  0.8345071E-01
       -1   -1    0    0    0  501  0.00000000000E+00  0.00000000000E+00  0.91856548543E+03  0.91856548544E+03  0.50400001928E-02 0. -1.
        1   -1    0    0  501    0  0.00000000000E+00  0.00000000000E+00 -0.19390505176E+04  0.19390505177E+04  0.50400001928E-02 0.  1.
    10030    2    1    2    0    0  0.00000000000E+00  0.00000000000E+00 -0.10204850322E+04  0.28576160031E+04  0.26691907988E+04 0.  0.
        1    1    3    3  502    0 -0.89785857498E+03 -0.96095599097E+03 -0.26714856856E+03  0.13419965704E+04  0.50400001928E-02 0. -1.
       -1    1    3    3    0  502  0.89785857498E+03  0.96095599097E+03 -0.75333646366E+03  0.15156194327E+04  0.50400001928E-02 0.  1.
</event>
<event>
 5   0  0.5755250E-06  0.3306868E+04  0.7818609E-02  0.8161150E-01
        2   -1    0    0  501    0  0.00000000000E+00  0.00000000000E+00  0.22806011993E+04  0.22806011993E+04  0.25500000920E-02 0. -1.
       -2   -1    0    0    0  501  0.00000000000E+00  0.00000000000E+00 -0.11987382403E+04  0.11987382403E+04  0.25500000920E-02 0.  1.
    10030    2    1    2    0    0  0.00000000000E+00  0.00000000000E+00  0.10818629590E+04  0.34793394396E+04  0.33068679250E+04 0.  0.
        5    1    3    3  502    0  0.54011000510E+03 -0.11837098576E+04 -0.53254252893E+03  0.14058845898E+04  0.46999998093E+01 0.  1.
       -5    1    3    3    0  502 -0.54011000510E+03  0.11837098576E+04  0.16144054879E+04  0.20734548498E+04  0.46999998093E+01 0. -1.
</event>
<event>
 5   0  0.1999849E-06  0.3347456E+04  0.7818609E-02  0.8150924E-01
       -1   -1    0    0    0  501  0.00000000000E+00  0.00000000000E+00  0.11478021618E+04  0.11478021618E+04  0.50400001928E-02 0. -1.
        1   -1    0    0  501    0  0.00000000000E+00  0.00000000000E+00 -0.24406346825E+04  0.24406346825E+04  0.50400001928E-02 0.  1.
    10030    2    1    2    0    0  0.00000000000E+00  0.00000000000E+00 -0.12928325207E+04  0.35884368443E+04  0.33474562072E+04 0.  0.
        5    1    3    3  502    0  0.55087192399E+02  0.37597060003E+02 -0.24392025655E+04  0.24401187232E+04  0.46999998093E+01 0.  1.
       -5    1    3    3    0  502 -0.55087192399E+02 -0.37597060003E+02  0.11463700448E+04  0.11483181211E+04  0.46999998093E+01 0. -1.
</event>
<event>
 5   0  0.5855568E-06  0.3155661E+04  0.7818609E-02  0.8200626E-01
        2   -1    0    0  501    0  0.00000000000E+00  0.00000000000E+00  0.17074875990E+04  0.17074875990E+04  0.25500000920E-02 0. -1.
       -2   -1    0    0    0  501  0.00000000000E+00  0.00000000000E+00 -0.14580190735E+04  0.14580190735E+04  0.25500000920E-02 0.  1.
    10030    2    1    2    0    0  0.00000000000E+00  0.00000000000E+00  0.24946852545E+03  0.31655066725E+04  0.31556612538E+04 0.  0.
        3    1    3    3  502    0  0.52111221937E+03  0.54628536174E+03 -0.12650715875E+04  0.14732249568E+04  0.10100000352E+00 0.  1.
       -3    1    3    3    0  502 -0.52111221937E+03 -0.54628536174E+03  0.15145401129E+04  0.16922817157E+04  0.10100000352E+00 0. -1.
</event>
<event>
 5   0  0.5622811E-06  0.3328994E+04  0.7818609E-02  0.8155557E-01
        2   -1    0    0  501    0  0.00000000000E+00  0.00000000000E+00  0.19219381581E+04  0.19219381581E+04  0.25500000920E-02 0. -1.
       -2   -1    0    0    0  501  0.00000000000E+00  0.00000000000E+00 -0.14415399243E+04  0.14415399243E+04  0.25500000920E-02 0.  1.
    10030    2    1    2    0    0  0.00000000000E+00  0.00000000000E+00  0.48039823375E+03  0.33634780824E+04  0.33289941946E+04 0.  0.
        1    1    3    3  502    0 -0.69849025437E+03  0.84944746624E+03  0.15025818880E+04  0.18620424173E+04  0.50400001928E-02 0. -1.
       -1    1    3    3    0  502  0.69849025437E+03 -0.84944746624E+03 -0.10221836543E+04  0.15014356651E+04  0.50400001928E-02 0.  1.
</event>
<event>
 5   0  0.2037109E-06  0.3259916E+04  0.7818609E-02  0.8173170E-01
       -1   -1    0    0    0  501  0.00000000000E+00  0.00000000000E+00  0.25019669967E+04  0.25019669967E+04  0.50400001928E-02 0. -1.
        1   -1    0    0  501    0  0.00000000000E+00  0.00000000000E+00 -0.10618699494E+04  0.10618699494E+04  0.50400001928E-02 0.  1.
    10030    2    1    2    0    0  0.00000000000E+00  0.00000000000E+00  0.14400970473E+04  0.35638369461E+04  0.32599162984E+04 0.  0.
        2    1    3    3  502    0  0.14787632238E+04  0.45390240694E+03  0.12817552694E+04  0.20088963731E+04  0.25500000920E-02 0. -1.
       -2    1    3    3    0  502 -0.14787632238E+04 -0.45390240694E+03  0.15834177795E+03  0.15549405731E+04  0.25500000920E-02 0.  1.
</event>
<event>
 5   0  0.2037109E-06  0.2479099E+04  0.7818609E-02  0.8410470E-01
        1   -1    0    0  501    0  0.00000000000E+00  0.00000000000E+00  0.92484472652E+03  0.92484472653E+03  0.50400001928E-02 0.  1.
       -1   -1    0    0    0  501  0.00000000000E+00  0.00000000000E+00 -0.16613410787E+04  0.16613410787E+04  0.50400001928E-02 0. -1.
    10030    2    1    2    0    0  0.00000000000E+00  0.00000000000E+00 -0.73649635219E+03  0.25861858052E+04  0.24790986552E+04 0.  0.
        2    1    3    3  502    0 -0.51871701236E+03 -0.33366320957E+03  0.75341024271E+03  0.97366599517E+03  0.25500000920E-02 0.  1.
       -2    1    3    3    0  502  0.51871701236E+03  0.33366320957E+03 -0.14899065949E+04  0.16125198101E+04  0.25500000920E-02 0. -1.
</event>
<event>
 5   0  0.5855568E-06  0.3293793E+04  0.7818609E-02  0.8164477E-01
       -2   -1    0    0    0  501  0.00000000000E+00  0.00000000000E+00  0.12600345550E+04  0.12600345550E+04  0.25500000920E-02 0.  1.
        2   -1    0    0  501    0  0.00000000000E+00  0.00000000000E+00 -0.21525340411E+04  0.21525340411E+04  0.25500000920E-02 0. -1.
    10030    2    1    2    0    0  0.00000000000E+00  0.00000000000E+00 -0.89249948608E+03  0.34125685961E+04  0.32937925087E+04 0.  0.
        3    1    3    3  502    0 -0.15786229994E+04  0.21800770317E+03 -0.87679410269E+03  0.18188858792E+04  0.10100000352E+00 0. -1.
       -3    1    3    3    0  502  0.15786229994E+04 -0.21800770317E+03 -0.15705383383E+02  0.15936827169E+04  0.10100000352E+00 0.  1.
</event>
<event>
 5   0  0.5855568E-06  0.2104783E+04  0.7818609E-02  0.8559139E-01
       -2   -1    0    0    0  501  0.00000000000E+00  0.00000000000E+00  0.13093813395E+04  0.13093813395E+04  0.25500000920E-02 0. -1.
        2   -1    0    0  501    0  0.00000000000E+00  0.00000000000E+00 -0.84584078016E+03  0.84584078016E+03  0.25500000920E-02 0.  1.
    10030    2    1    2    0    0  0.00000000000E+00  0.00000000000E+00  0.46354055930E+03  0.21552221196E+04  0.21047832513E+04 0.  0.
        3    1    3    3  502    0 -0.51969510253E+03  0.55377638566E+03 -0.51423283063E+03  0.91716230799E+03  0.10100000352E+00 0.  1.
       -3    1    3    3    0  502  0.51969510253E+03 -0.55377638566E+03  0.97777338993E+03  0.12380598116E+04  0.10100000352E+00 0. -1.
</event>
<event>
 5   0  0.2097842E-06  0.1866376E+04  0.7818609E-02  0.8671777E-01
        1   -1    0    0  501    0  0.00000000000E+00  0.00000000000E+00  0.95193226309E+03  0.95193226310E+03  0.50400001928E-02 0. -1.
       -1   -1    0    0    0  501  0.00000000000E+00  0.00000000000E+00 -0.91481245664E+03  0.91481245665E+03  0.50400001928E-02 0.  1.
    10030    2    1    2    0    0  0.00000000000E+00  0.00000000000E+00  0.37119806452E+02  0.18667447198E+04  0.18663756237E+04 0.  0.
        4    1    3    3  502    0 -0.56361394385E+03 -0.74117877743E+03  0.80469005493E+02  0.93460340870E+03  0.12699999809E+01 0. -1.
       -4    1    3    3    0  502  0.56361394385E+03  0.74117877743E+03 -0.43349199041E+02  0.93214131105E+03  0.12699999809E+01 0.  1.
</event>
<event>
 5   0  0.2097842E-06  0.3270635E+04  0.7818609E-02  0.8170408E-01
       -1   -1    0    0    0  501  0.00000000000E+00  0.00000000000E+00  0.13817945232E+04  0.13817945232E+04  0.50400001928E-02 0.  1.
        1   -1    0    0  501    0  0.00000000000E+00  0.00000000000E+00 -0.19353558272E+04  0.19353558272E+04  0.50400001928E-02 0. -1.
    10030    2    1    2    0    0  0.00000000000E+00  0.00000000000E+00 -0.55356130397E+03  0.33171503505E+04  0.32706354628E+04 0.  0.
        4    1    3    3  502    0  0.14977694581E+04  0.40496450890E+03  0.24724230027E+03  0.15711269748E+04  0.12699999809E+01 0.  1.
       -4    1    3    3    0  502 -0.14977694581E+04 -0.40496450890E+03 -0.80080360423E+03  0.17460233757E+04  0.12699999809E+01 0. -1.
</event>
<event>
 5   0  0.1925906E-06  0.3214495E+04  0.7818609E-02  0.8185000E-01
       -1   -1    0    0    0  501  0.00000000000E+00  0.00000000000E+00  0.91888314030E+03  0.91888314031E+03  0.50400001928E-02 0. -1.
        1   -1    0    0  501    0  0.00000000000E+00  0.00000000000E+00 -0.28112870564E+04  0.28112870564E+04  0.50400001928E-02 0.  1.
    10030    2    1    2    0    0  0.00000000000E+00  0.00000000000E+00 -0.18924039161E+04  0.37301701967E+04  0.32144948459E+04 0.  0.
        1    1    3    3  502    0 -0.66429546372E+03 -0.39341419664E+03  0.68961473777E+03  0.10351964450E+04  0.50400001928E-02 0. -1.
       -1    1    3    3    0  502  0.66429546372E+03  0.39341419664E+03 -0.25820186538E+04  0.26949737516E+04  0.50400001928E-02 0.  1.
</event>
<event>
 5   0  0.1925906E-06  0.2876395E+04  0.7818609E-02  0.8279936E-01
       -1   -1    0    0    0  501  0.00000000000E+00  0.00000000000E+00  0.16692065801E+04  0.16692065802E+04  0.50400001928E-02 0. -1.
        1   -1    0    0  501    0  0.00000000000E+00  0.00000000000E+00 -0.12391586043E+04  0.12391586044E+04  0.50400001928E-02 0.  1.
    10030    2    1    2    0    0  0.00000000000E+00  0.00000000000E+00  0.43004797580E+03  0.29083651845E+04  0.28763947547E+04 0.  0.
        1    1    3    3  502    0  0.74813311215E+02 -0.25155895692E+03  0.16447891493E+04  0.16655960753E+04  0.50400001928E-02 0. -1.
       -1    1    3    3    0  502 -0.74813311215E+02  0.25155895692E+03 -0.12147411735E+04  0.12427691092E+04  0.50400001928E-02 0.  1.
</event>
<event>
 5   0  0.2037109E-06  0.3185478E+04  0.7818609E-02  0.8192663E-01
        1   -1    0    0  501    0  0.00000000000E+00  0.00000000000E+00  0.20952915154E+04  0.20952915154E+04  0.50400001928E-02 0. -1.
       -1   -1    0    0    0  501  0.00000000000E+00  0.00000000000E+00 -0.12107229578E+04  0.12107229578E+04  0.50400001928E-02 0.  1.
    10030    2    1    2    0    0  0.00000000000E+00  0.00000000000E+00  0.88456855760E+03  0.33060144732E+04  0.31854780119E+04 0.  0.
        2    1    3    3  502    0  0.10730021373E+04 -0.11766246943E+04  0.47572595348E+03  0.16619550056E+04  0.25500000920E-02 0.  1.
       -2    1    3    3    0  502 -0.10730021373E+04  0.11766246943E+04  0.40884260412E+03  0.16440594676E+04  0.25500000920E-02 0. -1.
</event>
<event>
 5   0  0.1999849E-06  0.3280566E+04  0.7818609E-02  0.8167858E-01
        1   -1    0    0  501    0  0.00000000000E+00  0.00000000000E+00  0.16954021359E+04  0.16954021359E+04  0.50400001928E-02 0.  1.
       -1   -1    0    0    0  501  0.00000000000E+00  0.00000000000E+00 -0.15869557921E+04  0.15869557921E+04  0.50400001928E-02 0. -1.
    10030    2    1    2    0    0  0.00000000000E+00  0.00000000000E+00  0.10844634385E+03  0.32823579280E+04  0.32805659509E+04 0.  0.
        5    1    3    3  502    0 -0.57018635126E+03  0.65659288506E+02 -0.14831976141E+04  0.15903838750E+04  0.46999998093E+01 0. -1.
       -5    1    3    3    0  502  0.57018635126E+03 -0.65659288506E+02  0.15916439579E+04  0.16919740530E+04  0.46999998093E+01 0.  1.
</event>
<event>
 5   0  0.2037109E-06  0.1813614E+04  0.7818609E-02  0.8699093E-01
        1   -1    0    0  501    0  0.00000000000E+00  0.00000000000E+00  0.89629276985E+03  0.89629276987E+03  0.50400001928E-02 0.  1.
       -1   -1    0    0    0  501  0.00000000000E+00  0.00000000000E+00 -0.91744417410E+03  0.91744417411E+03  0.50400001928E-02 0. -1.
    10030    2    1    2    0    0  0.00000000000E+00  0.00000000000E+00 -0.21151404243E+02  0.18137369440E+04  0.18136136083E+04 0.  0.
        2    1    3    3  502    0 -0.22471529787E+03  0.83516195140E+03  0.26203434287E+03  0.90368935316E+03  0.25500000920E-02 0.  1.
       -2    1    3    3    0  502  0.22471529787E+03 -0.83516195140E+03 -0.28318574711E+03  0.91004759081E+03  0.25500000920E-02 0. -1.
</event>
<event>
 5   0  0.5622811E-06  0.3185984E+04  0.7818609E-02  0.8192529E-01
       -2   -1    0    0    0  501  0.00000000000E+00  0.00000000000E+00  0.11051229253E+04  0.11051229253E+04  0.25500000920E-02 0.  1.
        2   -1    0    0  501    0  0.00000000000E+00  0.00000000000E+00 -0.22962362636E+04  0.22962362636E+04  0.25500000920E-02 0. -1.
    10030    2    1    2    0    0  0.00000000000E+00  0.00000000000E+00 -0.11911133384E+04  0.34013591889E+04  0.31859838900E+04 0.  0.
        1    1    3    3  502    0 -0.99823433875E+03 -0.10412887356E+04  0.12605727089E+03  0.14479794410E+04  0.50400001928E-02 0.  1.
       -1    1    3    3    0  502  0.99823433875E+03  0.10412887356E+04 -0.13171706093E+04  0.19533797480E+04  0.50400001928E-02 0. -1.
</event>
<event>
 5   0  0.5622811E-06  0.3339145E+04  0.7818609E-02  0.8153006E-01
        2   -1    0    0  501    0  0.00000000000E+00  0.00000000000E+00  0.20432443832E+04  0.20432443832E+04  0.25500000920E-02 0.  1.
       -2   -1    0    0    0  501  0.00000000000E+00  0.00000000000E+00 -0.13642386039E+04  0.13642386039E+04  0.25500000920E-02 0. -1.
    10030    2    1    2    0    0  0.00000000000E+00  0.00000000000E+00  0.67900577928E+03  0.34074829870E+04  0.33391453186E+04 0.  0.
        1    1    3    3  502    0  0.78110216834E+02  0.25389962582E+03  0.20215406217E+04  0.20389194960E+04  0.50400001928E-02 0.  1.
       -1    1    3    3    0  502 -0.78110216834E+02 -0.25389962582E+03 -0.13425348424E+04  0.13685634911E+04  0.50400001928E-02 0. -1.
</event>
<event>
 5   0  0.5637538E-06  0.3340942E+04  0.7818609E-02  0.8152555E-01
       -2   -1    0    0    0  501  0.00000000000E+00  0.00000000000E+00  0.14268745554E+04  0.14268745554E+04  0.25500000920E-02 0.  1.
        2   -1    0    0  501    0  0.00000000000E+00  0.00000000000E+00 -0.19556542380E+04  0.19556542380E+04  0.25500000920E-02 0. -1.
    10030    2    1    2    0    0  0.00000000000E+00  0.00000000000E+00 -0.52877968260E+03  0.33825287934E+04  0.33409419458E+04 0.  0.
        2    1    3    3  502    0 -0.64159842011E+02 -0.13860517644E+04  0.67735916017E+03  0.15440438500E+04  0.25500000920E-02 0.  1.
       -2    1    3    3    0  502  0.64159842011E+02  0.13860517644E+04 -0.12061388428E+04  0.18384849434E+04  0.25500000920E-02 0. -1.
</event>
<event>
 5   0  0.2097842E-06  0.2249875E+04  0.7818609E-02  0.8497951E-01
       -1   -1    0    0    0  501  0.00000000000E+00  0.00000000000E+00  0.68340310855E+03  0.68340310857E+03  0.50400001928E-02 0. -1.
        1   -1    0    0  501    0  0.00000000000E+00  0.00000000000E+00 -0.18517392160E+04  0.18517392160E+04  0.50400001928E-02 0.  1.
    10030    2    1    2    0    0  0.00000000000E+00  0.00000000000E+00 -0.11683361075E+04  0.25351423246E+04  0.22498749623E+04 0.  0.
        4    1    3    3  502    0  0.48370195062E+03 -0.58032370155E+03  0.35502522111E+03  0.83473810033E+03  0.12699999809E+01 0. -1.
       -4    1    3    3    0  502 -0.48370195062E+03  0.58032370155E+03 -0.15233613286E+04  0.17004042243E+04  0.12699999809E+01 0.  1.
</event>
<event>
 5   0  0.2097842E-06  0.3335443E+04  0.7818609E-02  0.8153935E-01
        1   -1    0    0  501    0  0.00000000000E+00  0.00000000000E+00  0.16921555178E+04  0.16921555178E+04  0.50400001928E-02 0.  1.
       -1   -1    0    0    0  501  0.00000000000E+00  0.00000000000E+00 -0.16436402940E+04  0.16436402940E+04  0.50400001928E-02 0. -1.
    10030    2    1    2    0    0  0.00000000000E+00  0.00000000000E+00  0.48515223811E+02  0.33357958118E+04  0.33354429947E+04 0.  0.
        4    1    3    3  502    0 -0.55954875502E+03 -0.50427058388E+03  0.15123362860E+04  0.16895402587E+04  0.12699999809E+01 0.  1.
       -4    1    3    3    0  502  0.55954875502E+03  0.50427058388E+03 -0.14638210622E+04  0.16462555530E+04  0.12699999809E+01 0. -1.
</event>
<event>
 5   0  0.1925906E-06  0.3243505E+04  0.7818609E-02  0.8177421E-01
        1   -1    0    0  501    0  0.00000000000E+00  0.00000000000E+00  0.25669595601E+04  0.25669595602E+04  0.50400001928E-02 0.  1.
       -1   -1    0    0    0  501  0.00000000000E+00  0.00000000000E+00 -0.10245899215E+04  0.10245899215E+04  0.50400001928E-02 0. -1.
    10030    2    1    2    0    0  0.00000000000E+00  0.00000000000E+00  0.15423696386E+04  0.35915494817E+04  0.32435048292E+04 0.  0.
        1    1    3    3  502    0  0.13303078638E+04  0.13772059381E+03  0.17868890188E+04  0.22319628894E+04  0.50400001928E-02 0.  1.
       -1    1    3    3    0  502 -0.13303078638E+04 -0.13772059381E+03 -0.24451938012E+03  0.13595865922E+04  0.50400001928E-02 0. -1.
</event>
<event>
 5   0  0.2037109E-06  0.3081784E+04  0.7818609E-02  0.8220755E-01
       -1   -1    0    0    0  501  0.00000000000E+00  0.00000000000E+00  0.19586530981E+04  0.19586530981E+04  0.50400001928E-02 0. -1.
        1   -1    0    0  501    0  0.00000000000E+00  0.00000000000E+00 -0.12122349085E+04  0.12122349086E+04  0.50400001928E-02 0.  1.
    10030    2    1    2    0    0  0.00000000000E+00  0.00000000000E+00  0.74641818952E+03  0.31708880066E+04  0.30817836778E+04 0.  0.
        2    1    3    3  502    0  0.14054891173E+04  0.53588967342E+03  0.29222213533E+02  0.15044704512E+04  0.25500000920E-02 0.  1.
       -2    1    3    3    0  502 -0.14054891173E+04 -0.53588967342E+03  0.71719597598E+03  0.16664175554E+04  0.25500000920E-02 0. -1.
</event>
<event>
 5   0  0.2037109E-06  0.3307620E+04  0.7818609E-02  0.8160959E-01
       -1   -1    0    0    0  501  0.00000000000E+00  0.00000000000E+00  0.15561315913E+04  0.15561315913E+04  0.50400001928E-02 0. -1.
        1   -1    0    0  501    0  0.00000000000E+00  0.00000000000E+00 -0.17576195391E+04  0.17576195391E+04  0.50400001928E-02 0.  1.
    10030    2    1    2    0    0  0.00000000000E+00  0.00000000000E+00 -0.20148794780E+03  0.33137511304E+04  0.33076198635E+04 0.  0.
        2    1    3    3  502    0  0.13452740264E+04  0.32647792305E+03  0.80577431933E+03  0.16017560033E+04  0.25500000920E-02 0. -1.
       -2    1    3    3    0  502 -0.13452740264E+04 -0.32647792305E+03 -0.10072622671E+04  0.17119951271E+04  0.25500000920E-02 0.  1.
</event>
<event>
 5   0  0.5855568E-06  0.2884124E+04  0.7818609E-02  0.8277617E-01
        2   -1    0    0  501    0  0.00000000000E+00  0.00000000000E+00  0.21840665841E+04  0.21840665841E+04  0.25500000920E-02 0.  1.
       -2   -1    0    0    0  501  0.00000000000E+00  0.00000000000E+00 -0.95214258685E+03  0.95214258686E+03  0.25500000920E-02 0. -1.
    10030    2    1    2    0    0  0.00000000000E+00  0.00000000000E+00  0.12319239973E+04  0.31362091710E+04  0.28841239968E+04 0.  0.
        3    1    3    3  502    0 -0.56406107584E+03 -0.43127291646E+03 -0.74888501192E+03  0.10319835256E+04  0.10100000352E+00 0. -1.
       -3    1    3    3    0  502  0.56406107584E+03  0.43127291646E+03  0.19808090092E+04  0.21042256454E+04  0.10100000352E+00 0.  1.
</event>
<event>
 5   0  0.5622811E-06  0.3106579E+04  0.7818609E-02  0.8213935E-01
       -2   -1    0    0    0  501  0.00000000000E+00  0.00000000000E+00  0.16654509739E+04  0.16654509739E+04  0.25500000920E-02 0.  1.
        2   -1    0    0  501    0  0.00000000000E+00  0.00000000000E+00 -0.14486815698E+04  0.14486815698E+04  0.25500000920E-02 0. -1.
    10030    2    1    2    0    0  0.00000000000E+00  0.00000000000E+00  0.21676940405E+03  0.31141325437E+04  0.31065789101E+04 0.  0.
        1    1    3    3  502    0 -0.97911311134E+03  0.55560999882E+03  0.11811939774E+04  0.16317426782E+04  0.50400001928E-02 0.  1.
       -1    1    3    3    0  502  0.97911311134E+03 -0.55560999882E+03 -0.96442457333E+03  0.14823898655E+04  0.50400001928E-02 0. -1.
</event>
<event>
 5   0  0.5855568E-06  0.3318169E+04  0.7818609E-02  0.8158288E-01
        2   -1    0    0  501    0  0.00000000000E+00  0.00000000000E+00  0.28793135258E+04  0.28793135258E+04  0.25500000920E-02 0.  1.
       -2   -1    0    0    0  501  0.00000000000E+00  0.00000000000E+00 -0.95597837282E+03  0.95597837283E+03  0.25500000920E-02 0. -1.
    10030    2    1    2    0    0  0.00000000000E+00  0.00000000000E+00  0.19233351530E+04  0.38352918986E+04  0.33181690489E+04 0.  0.
        3    1    3    3  502    0 -0.15399706789E+04 -0.57533728871E+03  0.70311242746E+03  0.17879848387E+04  0.10100000352E+00 0. -1.
       -3    1    3    3    0  502  0.15399706789E+04  0.57533728871E+03  0.12202227255E+04  0.20473070599E+04  0.10100000352E+00 0.  1.
</event>
<event>
 5   0  0.1925906E-06  0.3187851E+04  0.7818609E-02  0.8192033E-01
        1   -1    0    0  501    0  0.00000000000E+00  0.00000000000E+00  0.20375657015E+04  0.20375657015E+04  0.50400001928E-02 0. -1.
       -1   -1    0    0    0  501  0.00000000000E+00  0.00000000000E+00 -0.12468796115E+04  0.12468796115E+04  0.50400001928E-02 0.  1.
    10030    2    1    2    0    0  0.00000000000E+00  0.00000000000E+00  0.79068609000E+03  0.32844453130E+04  0.31878513957E+04 0.  0.
        1    1    3    3  502    0  0.54665472790E+03 -0.81281102022E+03  0.16908640478E+04  0.19541019355E+04  0.50400001928E-02 0. -1.
       -1    1    3    3    0  502 -0.54665472790E+03  0.81281102022E+03 -0.90017795783E+03  0.13303433774E+04  0.50400001928E-02 0.  1.
</event>
<event>
 5   0  0.5637538E-06  0.2278707E+04  0.7818609E-02  0.8486364E-01
       -2   -1    0    0    0  501  0.00000000000E+00  0.00000000000E+00  0.72146769069E+03  0.72146769070E+03  0.25500000920E-02 0. -1.
        2   -1    0    0  501    0  0.00000000000E+00  0.00000000000E+00 -0.17992857192E+04  0.17992857192E+04  0.25500000920E-02 0.  1.
    10030    2    1    2    0    0  0.00000000000E+00  0.00000000000E+00 -0.10778180285E+04  0.25207534099E+04  0.22787071007E+04 0.  0.
        2    1    3    3  502    0 -0.11249772398E+04 -0.11853247794E+03 -0.38843542396E+03  0.11960375483E+04  0.25500000920E-02 0.  1.
       -2    1    3    3    0  502  0.11249772398E+04  0.11853247794E+03 -0.68938260450E+03  0.13247158615E+04  0.25500000920E-02 0. -1.
</event>
<event>
 5   0  0.5637538E-06  0.1694259E+04  0.7818609E-02  0.8764645E-01
       -2   -1    0    0    0  501  0.00000000000E+00  0.00000000000E+00  0.90195830470E+03  0.90195830470E+03  0.25500000920E-02 0.  1.
        2   -1    0    0  501    0  0.00000000000E+00  0.00000000000E+00 -0.79563409911E+03  0.79563409911E+03  0.25500000920E-02 0. -1.
    10030    2    1    2    0    0  0.00000000000E+00  0.00000000000E+00  0.10632420559E+03  0.16975924038E+04  0.16942594644E+04 0.  0.
        2    1    3    3  502    0  0.58534102386E+03 -0.10895941817E+03  0.65695231855E+03  0.88661300345E+03  0.25500000920E-02 0.  1.
       -2    1    3    3    0  502 -0.58534102386E+03  0.10895941817E+03 -0.55062811296E+03  0.81097940036E+03  0.25500000920E-02 0. -1.
</event>
<event>
 5   0  0.1925906E-06  0.3249655E+04  0.7818609E-02  0.8175825E-01
       -1   -1    0    0    0  501  0.00000000000E+00  0.00000000000E+00  0.14221389591E+04  0.14221389592E+04  0.50400001928E-02 0. -1.
        1   -1    0    0  501    0  0.00000000000E+00  0.00000000000E+00 -0.18564037755E+04  0.18564037755E+04  0.50400001928E-02 0.  1.
    10030    2    1    2    0    0  0.00000000000E+00  0.00000000000E+00 -0.43426481635E+03  0.32785427347E+04  0.32496548328E+04 0.  0.
        1    1    3    3  502    0  0.54811750377E+03  0.15254914545E+04 -0.10430284095E+03  0.16243263398E+04  0.50400001928E-02 0. -1.
       -1    1    3    3    0  502 -0.54811750377E+03 -0.15254914545E+04 -0.32996197539E+03  0.16542163948E+04  0.50400001928E-02 0.  1.
</event>
<event>
 5   0  0.2097842E-06  0.3298121E+04  0.7818609E-02  0.8163374E-01
        1   -1    0    0  501    0  0.00000000000E+00  0.00000000000E+00  0.17004256822E+04  0.17004256822E+04  0.50400001928E-02 0. -1.
       -1   -1    0    0    0  501  0.00000000000E+00  0.00000000000E+00 -0.15992466091E+04  0.15992466091E+04  0.50400001928E-02 0.  1.
    10030    2    1    2    0    0  0.00000000000E+00  0.00000000000E+00  0.10117907309E+03  0.32996722914E+04  0.32981206809E+04 0.  0.
        4    1    3    3  502    0 -0.16116636161E+04 -0.50544116374E+02  0.39627209313E+03  0.16604359379E+04  0.12699999809E+01 0. -1.
       -4    1    3    3    0  502  0.16116636161E+04  0.50544116374E+02 -0.29509302004E+03  0.16392363535E+04  0.12699999809E+01 0.  1.
</event>
<event>
 5   0  0.1999849E-06  0.3379329E+04  0.7818609E-02  0.8142998E-01
       -1   -1    0    0    0  501  0.00000000000E+00  0.00000000000E+00  0.24861813854E+04  0.24861813854E+04  0.50400001928E-02 0.  1.
        1   -1    0    0  501    0  0.00000000000E+00  0.00000000000E+00 -0.11483339260E+04  0.11483339260E+04  0.50400001928E-02 0. -1.
    10030    2    1    2    0    0  0.00000000000E+00  0.00000000000E+00  0.13378474594E+04  0.36345153115E+04  0.33793291826E+04 0.  0.
        5    1    3    3  502    0 -0.12963646027E+04  0.68245229010E+03 -0.23645327021E+03  0.14839927730E+04  0.46999998093E+01 0. -1.
       -5    1    3    3    0  502  0.12963646027E+04 -0.68245229010E+03  0.15743007296E+04  0.21505225385E+04  0.46999998093E+01 0.  1.
</event>
<event>
 5   0  0.5300268E-06  0.3265187E+04  0.7818609E-02  0.8171810E-01
       -2   -1    0    0    0  501  0.00000000000E+00  0.00000000000E+00  0.10932001757E+04  0.10932001757E+04  0.25500000920E-02 0. -1.
        2   -1    0    0  501    0  0.00000000000E+00  0.00000000000E+00 -0.24381277684E+04  0.24381277684E+04  0.25500000920E-02 0.  1.
    10030    2    1    2    0    0  0.00000000000E+00  0.00000000000E+00 -0.13449275927E+04  0.35313279440E+04  0.32651871032E+04 0.  0.
        4    1    3    3  502    0  0.95757287548E+03 -0.28792899775E+03  0.72327372515E+03  0.12340889004E+04  0.12699999809E+01 0. -1.
       -4    1    3    3    0  502 -0.95757287548E+03  0.28792899775E+03 -0.20682013179E+04  0.22972390437E+04  0.12699999809E+01 0.  1.
</event>
<event>
 5   0  0.1999849E-06  0.3311565E+04  0.7818609E-02  0.8159959E-01
        1   -1    0    0  501    0  0.00000000000E+00  0.00000000000E+00  0.20245457496E+04  0.20245457496E+04  0.50400001928E-02 0. -1.
       -1   -1    0    0    0  501  0.00000000000E+00  0.00000000000E+00 -0.13541878687E+04  0.13541878687E+04  0.50400001928E-02 0.  1.
    10030    2    1    2    0    0  0.00000000000E+00  0.00000000000E+00  0.67035788090E+03  0.33787336184E+04  0.33115647624E+04 0.  0.
        5    1    3    3  502    0  0.93871987791E+03  0.13633905606E+04  0.37553334996E+03  0.16973733286E+04  0.46999998093E+01 0.  1.
       -5    1    3    3    0  502 -0.93871987791E+03 -0.13633905606E+04  0.29482453094E+03  0.16813602897E+04  0.46999998093E+01 0. -1.
</event>
<event>
 5   0  0.5622811E-06  0.3310263E+04  0.7818609E-02  0.8160289E-01
        2   -1    0    0  501    0  0.00000000000E+00  0.00000000000E+00  0.19665833709E+04  0.19665833709E+04  0.25500000920E-02 0. -1.
       -2   -1    0    0    0  501  0.00000000000E+00  0.00000000000E+00 -0.13930047331E+04  0.13930047331E+04  0.25500000920E-02 0.  1.
    10030    2    1    2    0    0  0.00000000000E+00  0.00000000000E+00  0.57357863785E+03  0.33595881040E+04  0.33102627955E+04 0.  0.
        1    1    3    3  502    0  0.93651270390E+03  0.13626188583E+04  0.36323597898E+03  0.16928457029E+04  0.50400001928E-02 0. -1.
       -1    1    3    3    0  502 -0.93651270390E+03 -0.13626188583E+04  0.21034265887E+03  0.16667424011E+04  0.50400001928E-02 0.  1.
</event>
<event>
 5   0  0.1999849E-06  0.2984345E+04  0.7818609E-02  0.8248215E-01
       -1   -1    0    0    0  501  0.00000000000E+00  0.00000000000E+00  0.13152569720E+04  0.13152569720E+04  0.50400001928E-02 0. -1.
        1   -1    0    0  501    0  0.00000000000E+00  0.00000000000E+00 -0.16928848801E+04  0.16928848801E+04  0.50400001928E-02 0.  1.
    10030    2    1    2    0    0  0.00000000000E+00  0.00000000000E+00 -0.37762790807E+03  0.30081418521E+04  0.29843449139E+04 0.  0.
        5    1    3    3  502    0  0.37550324083E+03 -0.70056349825E+03 -0.14617236585E+04  0.16638659931E+04  0.46999998093E+01 0.  1.
       -5    1    3    3    0  502 -0.37550324083E+03  0.70056349825E+03  0.10840957505E+04  0.13442758590E+04  0.46999998093E+01 0. -1.
</event>
<event>
 5   0  0.1925906E-06  0.3444337E+04  0.7818609E-02  0.8127109E-01
       -1   -1    0    0    0  501  0.00000000000E+00  0.00000000000E+00  0.12830054694E+04  0.12830054694E+04  0.50400001928E-02 0. -1.
        1   -1    0    0  501    0  0.00000000000E+00  0.00000000000E+00 -0.23116543469E+04  0.23116543469E+04  0.50400001928E-02 0.  1.
    10030    2    1    2    0    0  0.00000000000E+00  0.00000000000E+00 -0.10286488775E+04  0.35946598164E+04  0.34443374809E+04 0.  0.
        1    1    3    3  502    0  0.52375741686E+03  0.14357506134E+04  0.31414926197E+03  0.15602536379E+04  0.50400001928E-02 0. -1.
       -1    1    3    3    0  502 -0.52375741686E+03 -0.14357506134E+04 -0.13427981394E+04  0.20344061785E+04  0.50400001928E-02 0.  1.
</event>
<event>
 5   0  0.2730981E-06  0.3322845E+04  0.7818609E-02  0.8157107E-01
       -1   -1    0    0    0  501  0.00000000000E+00  0.00000000000E+00  0.97202888109E+03  0.97202888111E+03  0.50400001928E-02 0. -1.
        1   -1    0    0  501    0  0.00000000000E+00  0.00000000000E+00 -0.28397564593E+04  0.28397564593E+04  0.50400001928E-02 0.  1.
    10030    2    1    2    0    0  0.00000000000E+00  0.00000000000E+00 -0.18677275782E+04  0.38117853404E+04  0.33228453432E+04 0.  0.
        3    1    3    3  502    0 -0.91987731251E+03 -0.67833778898E+03 -0.23171174662E+04  0.25836698296E+04  0.10100000352E+00 0.  1.
       -3    1    3    3    0  502  0.91987731251E+03  0.67833778898E+03  0.44938988806E+03  0.12281155107E+04  0.10100000352E+00 0. -1.
</event>
<event>
 5   0  0.1999849E-06  0.1793382E+04  0.7818609E-02  0.8709827E-01
       -1   -1    0    0    0  501  0.00000000000E+00  0.00000000000E+00  0.80341792912E+03  0.80341792914E+03  0.50400001928E-02 0. -1.
        1   -1    0    0  501    0  0.00000000000E+00  0.00000000000E+00 -0.10007921369E+04  0.10007921369E+04  0.50400001928E-02 0.  1.
    10030    2    1    2    0    0  0.00000000000E+00  0.00000000000E+00 -0.19737420773E+03  0.18042100660E+04  0.17933815501E+04 0.  0.
        5    1    3    3  502    0 -0.21606361777E+03  0.47737801082E+02 -0.97288141255E+03  0.99773880223E+03  0.46999998093E+01 0.  1.
       -5    1    3    3    0  502  0.21606361777E+03 -0.47737801082E+02  0.77550720482E+03  0.80647126378E+03  0.46999998093E+01 0. -1.
</event>
<event>
 5   0  0.5300268E-06  0.3327731E+04  0.7818609E-02  0.8155875E-01
       -2   -1    0    0    0  501  0.00000000000E+00  0.00000000000E+00  0.11916793452E+04  0.11916793452E+04  0.25500000920E-02 0. -1.
        2   -1    0    0  501    0  0.00000000000E+00  0.00000000000E+00 -0.23231485394E+04  0.23231485394E+04  0.25500000920E-02 0.  1.
    10030    2    1    2    0    0  0.00000000000E+00  0.00000000000E+00 -0.11314691942E+04  0.35148278846E+04  0.33277308366E+04 0.  0.
        4    1    3    3  502    0 -0.55410640022E+03  0.32351757636E+03 -0.21872181097E+04  0.22793907513E+04  0.12699999809E+01 0.  1.
       -4    1    3    3    0  502  0.55410640022E+03 -0.32351757636E+03  0.10557489154E+04  0.12354371333E+04  0.12699999809E+01 0. -1.
</event>
<event>
 5   0  0.5855568E-06  0.3164607E+04  0.7818609E-02  0.8198227E-01
        2   -1    0    0  501    0  0.00000000000E+00  0.00000000000E+00  0.15511104458E+04  0.15511104458E+04  0.25500000920E-02 0.  1.
       -2   -1    0    0    0  501  0.00000000000E+00  0.00000000000E+00 -0.16141237011E+04  0.16141237011E+04  0.25500000920E-02 0. -1.
    10030    2    1    2    0    0  0.00000000000E+00  0.00000000000E+00 -0.63013255271E+02  0.31652341469E+04  0.31646068531E+04 0.  0.
        3    1    3    3  502    0 -0.15174171852E+04  0.33632576953E+03 -0.32823728397E+03  0.15885243662E+04  0.10100000352E+00 0. -1.
       -3    1    3    3    0  502  0.15174171852E+04 -0.33632576953E+03  0.26522402870E+03  0.15767097808E+04  0.10100000352E+00 0.  1.
</event>
<event>
 5   0  0.5637538E-06  0.3309202E+04  0.7818609E-02  0.8160558E-01
        2   -1    0    0  501    0  0.00000000000E+00  0.00000000000E+00  0.25314067826E+04  0.25314067826E+04  0.25500000920E-02 0. -1.
       -2   -1    0    0    0  501  0.00000000000E+00  0.00000000000E+00 -0.10814952735E+04  0.10814952735E+04  0.25500000920E-02 0.  1.
    10030    2    1    2    0    0  0.00000000000E+00  0.00000000000E+00  0.14499115091E+04  0.36129020561E+04  0.33092020009E+04 0.  0.
        2    1    3    3  502    0 -0.14844276415E+04  0.28276222349E+02  0.15223095597E+04  0.21264410087E+04  0.25500000920E-02 0. -1.
       -2    1    3    3    0  502  0.14844276415E+04 -0.28276222349E+02 -0.72398050563E+02  0.14864610474E+04  0.25500000920E-02 0.  1.
</event>
<event>
 5   0  0.5622811E-06  0.3250238E+04  0.7818609E-02  0.8175674E-01
        2   -1    0    0  501    0  0.00000000000E+00  0.00000000000E+00  0.22212608822E+04  0.22212608822E+04  0.25500000920E-02 0.  1.
       -2   -1    0    0    0  501  0.00000000000E+00  0.00000000000E+00 -0.11889697567E+04  0.11889697567E+04  0.25500000920E-02 0. -1.
    10030    2    1    2    0    0  0.00000000000E+00  0.00000000000E+00  0.10322911256E+04  0.34102306389E+04  0.32502381517E+04 0.  0.
        1    1    3    3  502    0  0.31254835100E+03 -0.14304050832E+04 -0.22373789342E+03  0.14811494923E+04  0.50400001928E-02 0. -1.
       -1    1    3    3    0  502 -0.31254835100E+03  0.14304050832E+04  0.12560290190E+04  0.19290811466E+04  0.50400001928E-02 0.  1.
</event>
<event>
 5   0  0.5755250E-06  0.3152292E+04  0.7818609E-02  0.8201531E-01
       -2   -1    0    0    0  501  0.00000000000E+00  0.00000000000E+00  0.17394090911E+04  0.17394090911E+04  0.25500000920E-02 0.  1.
        2   -1    0    0  501    0  0.00000000000E+00  0.00000000000E+00 -0.14282073408E+04  0.14282073408E+04  0.25500000920E-02 0. -1.
    10030    2    1    2    0    0  0.00000000000E+00  0.00000000000E+00  0.31120175030E+03  0.31676164320E+04  0.31522923930E+04 0.  0.
        5    1    3    3  502    0 -0.10225599938E+04  0.44686265591E+03  0.12740703711E+04  0.16936919952E+04  0.46999998093E+01 0.  1.
       -5    1    3    3    0  502  0.10225599938E+04 -0.44686265591E+03 -0.96286862082E+03  0.14739244367E+04  0.46999998093E+01 0. -1.
</event>
<event>
 5   0  0.5855568E-06  0.3315781E+04  0.7818609E-02  0.8158891E-01
       -2   -1    0    0    0  501  0.00000000000E+00  0.00000000000E+00  0.10569610351E+04  0.10569610351E+04  0.25500000920E-02 0. -1.
        2   -1    0    0  501    0  0.00000000000E+00  0.00000000000E+00 -0.26004751459E+04  0.26004751459E+04  0.25500000920E-02 0.  1.
    10030    2    1    2    0    0  0.00000000000E+00  0.00000000000E+00 -0.15435141107E+04  0.36574361810E+04  0.33157809952E+04 0.  0.
        3    1    3    3  502    0  0.45595004014E+03  0.94726913065E+03 -0.21857962790E+04  0.24254720424E+04  0.10100000352E+00 0.  1.
       -3    1    3    3    0  502 -0.45595004014E+03 -0.94726913065E+03  0.64228216826E+03  0.12319641386E+04  0.10100000352E+00 0. -1.
</event>
<event>
 5   0  0.1925906E-06  0.3308332E+04  0.7818609E-02  0.8160778E-01
        1   -1    0    0  501    0  0.00000000000E+00  0.00000000000E+00  0.20994196293E+04  0.20994196293E+04  0.50400001928E-02 0. -1.
       -1   -1    0    0    0  501  0.00000000000E+00  0.00000000000E+00 -0.13033438240E+04  0.13033438240E+04  0.50400001928E-02 0.  1.
    10030    2    1    2    0    0  0.00000000000E+00  0.00000000000E+00  0.79607580529E+03  0.34027634532E+04  0.33083322734E+04 0.  0.
        1    1    3    3  502    0  0.62079449613E+03 -0.14630392922E+04  0.86981972416E+03  0.18117549861E+04  0.50400001928E-02 0.  1.
       -1    1    3    3    0  502 -0.62079449613E+03  0.14630392922E+04 -0.73743918863E+02  0.15910084672E+04  0.50400001928E-02 0. -1.
</event>
<event>
 5   0  0.2730981E-06  0.3230366E+04  0.7818609E-02  0.8180843E-01
       -1   -1    0    0    0  501  0.00000000000E+00  0.00000000000E+00  0.11692009479E+04  0.11692009479E+04  0.50400001928E-02 0. -1.
        1   -1    0    0  501    0  0.00000000000E+00  0.00000000000E+00 -0.22312812519E+04  0.22312812519E+04  0.50400001928E-02 0.  1.
    10030    2    1    2    0    0  0.00000000000E+00  0.00000000000E+00 -0.10620803040E+04  0.34004821998E+04  0.32303660193E+04 0.  0.
        3    1    3    3  502    0 -0.44637810272E+03 -0.20692520495E+03 -0.21504787221E+04  0.22060440148E+04  0.10100000352E+00 0.  1.
       -3    1    3    3    0  502  0.44637810272E+03  0.20692520495E+03  0.10883984180E+04  0.11944381849E+04  0.10100000352E+00 0. -1.
</event>
<event>
 5   0  0.1999849E-06  0.3234780E+04  0.7818609E-02  0.8179692E-01
       -1   -1    0    0    0  501  0.00000000000E+00  0.00000000000E+00  0.18093737863E+04  0.18093737863E+04  0.50400001928E-02 0. -1.
        1   -1    0    0  501    0  0.00000000000E+00  0.00000000000E+00 -0.14457762533E+04  0.14457762533E+04  0.50400001928E-02 0.  1.
    10030    2    1    2    0    0  0.00000000000E+00  0.00000000000E+00  0.36359753302E+03  0.32551500396E+04  0.32347795311E+04 0.  0.
        5    1    3    3  502    0  0.47722030745E+03  0.82826220566E+03  0.14946871288E+04  0.17742235503E+04  0.46999998093E+01 0. -1.
       -5    1    3    3    0  502 -0.47722030745E+03 -0.82826220566E+03 -0.11310895958E+04  0.14809264894E+04  0.46999998093E+01 0.  1.
</event>
<event>
 5   0  0.2730981E-06  0.2480730E+04  0.7818609E-02  0.8409883E-01
        1   -1    0    0  501    0  0.00000000000E+00  0.00000000000E+00  0.96501471172E+03  0.96501471174E+03  0.50400001928E-02 0. -1.
       -1   -1    0    0    0  501  0.00000000000E+00  0.00000000000E+00 -0.15942818851E+04  0.15942818851E+04  0.50400001928E-02 0.  1.
    10030    2    1    2    0    0  0.00000000000E+00  0.00000000000E+00 -0.62926717341E+03  0.25592965969E+04  0.24807301133E+04 0.  0.
        3    1    3    3  502    0  0.19969583274E+03 -0.10951778239E+04  0.24969365998E+03  0.11408943096E+04  0.10100000352E+00 0. -1.
       -3    1    3    3    0  502 -0.19969583274E+03  0.10951778239E+04 -0.87896083339E+03  0.14184022873E+04  0.10100000352E+00 0.  1.
</event>
<event>
 5   0  0.5637538E-06  0.3031800E+04  0.7818609E-02  0.8234708E-01
       -2   -1    0    0    0  501  0.00000000000E+00  0.00000000000E+00  0.10549735713E+04  0.10549735713E+04  0.25500000920E-02 0.  1.
        2   -1    0    0  501    0  0.00000000000E+00  0.00000000000E+00 -0.21782091604E+04  0.21782091604E+04  0.25500000920E-02 0. -1.
    10030    2    1    2    0    0  0.00000000000E+00  0.00000000000E+00 -0.11232355891E+04  0.32331827317E+04  0.30318001893E+04 0.  0.
        2    1    3    3  502    0  0.53877821732E+03  0.75393174067E+03 -0.18409961821E+04  0.20610584610E+04  0.25500000920E-02 0. -1.
       -2    1    3    3    0  502 -0.53877821732E+03 -0.75393174067E+03  0.71776059304E+03  0.11721242707E+04  0.25500000920E-02 0.  1.
</event>
<event>
 5   0  0.5855568E-06  0.3368174E+04  0.7818609E-02  0.8145762E-01
       -2   -1    0    0    0  501  0.00000000000E+00  0.00000000000E+00  0.20716663181E+04  0.20716663181E+04  0.25500000920E-02 0. -1.
        2   -1    0    0  501    0  0.00000000000E+00  0.00000000000E+00 -0.13690179087E+04  0.13690179088E+04  0.25500000920E-02 0.  1.
    10030    2    1    2    0    0  0.00000000000E+00  0.00000000000E+00  0.70264840937E+03  0.34406842269E+04  0.33681735647E+04 0.  0.
        3    1    3    3  502    0 -0.64442385024E+03 -0.68926525215E+03  0.17762661665E+04  0.20113403966E+04  0.10100000352E+00 0. -1.
       -3    1    3    3    0  502  0.64442385024E+03  0.68926525215E+03 -0.10736177571E+04  0.14293438303E+04  0.10100000352E+00 0.  1.
</event>
<event>
 5   0  0.2730981E-06  0.1893409E+04  0.7818609E-02  0.8658144E-01
       -1   -1    0    0    0  501  0.00000000000E+00  0.00000000000E+00  0.72595964185E+03  0.72595964187E+03  0.50400001928E-02 0.  1.
        1   -1    0    0  501    0  0.00000000000E+00  0.00000000000E+00 -0.12345721511E+04  0.12345721511E+04  0.50400001928E-02 0. -1.
    10030    2    1    2    0    0  0.00000000000E+00  0.00000000000E+00 -0.50861250921E+03  0.19605317929E+04  0.18934091546E+04 0.  0.
        3    1    3    3  502    0 -0.69212215385E+03  0.55752175538E+03 -0.59203776415E+03  0.10678821601E+04  0.10100000352E+00 0. -1.
       -3    1    3    3    0  502  0.69212215385E+03 -0.55752175538E+03  0.83425254943E+02  0.89264963280E+03  0.10100000352E+00 0.  1.
</event>
<event>
 5   0  0.2037109E-06  0.3378654E+04  0.7818609E-02  0.8143165E-01
        1   -1    0    0  501    0  0.00000000000E+00  0.00000000000E+00  0.27683230545E+04  0.27683230545E+04  0.50400001928E-02 0. -1.
       -1   -1    0    0    0  501  0.00000000000E+00  0.00000000000E+00 -0.10308863447E+04  0.10308863447E+04  0.50400001928E-02 0.  1.
    10030    2    1    2    0    0  0.00000000000E+00  0.00000000000E+00  0.17374367099E+04  0.37992093992E+04  0.33786544272E+04 0.  0.
        2    1    3    3  502    0 -0.10425875359E+04  0.70483767041E+03  0.21359570254E+04  0.24791323736E+04  0.25500000920E-02 0. -1.
       -2    1    3    3    0  502  0.10425875359E+04 -0.70483767041E+03 -0.39852031549E+03  0.13200770256E+04  0.25500000920E-02 0.  1.
</event>
<event>
 5   0  0.5637538E-06  0.3204817E+04  0.7818609E-02  0.8187546E-01
        2   -1    0    0  501    0  0.00000000000E+00  0.00000000000E+00  0.84074962023E+03  0.84074962024E+03  0.25500000920E-02 0. -1.
       -2   -1    0    0    0  501  0.00000000000E+00  0.00000000000E+00 -0.30540752460E+04  0.30540752460E+04  0.25500000920E-02 0.  1.
    10030    2    1    2    0    0  0.00000000000E+00  0.00000000000E+00 -0.22133256257E+04  0.38948248662E+04  0.32048167518E+04 0.  0.
        2    1    3    3  502    0 -0.11371249874E+04  0.82608286456E+03 -0.17139503664E+03  0.14159245724E+04  0.25500000920E-02 0. -1.
       -2    1    3    3    0  502  0.11371249874E+04 -0.82608286456E+03 -0.20419305891E+04  0.24789002938E+04  0.25500000920E-02 0.  1.
</event>
<event>
 5   0  0.2097842E-06  0.3293259E+04  0.7818609E-02  0.8164613E-01
       -1   -1    0    0    0  501  0.00000000000E+00  0.00000000000E+00  0.10433551769E+04  0.10433551769E+04  0.50400001928E-02 0. -1.
        1   -1    0    0  501    0  0.00000000000E+00  0.00000000000E+00 -0.25987201222E+04  0.25987201222E+04  0.50400001928E-02 0.  1.
    10030    2    1    2    0    0  0.00000000000E+00  0.00000000000E+00 -0.15553649453E+04  0.36420752991E+04  0.32932586250E+04 0.  0.
        4    1    3    3  502    0  0.15896816753E+04 -0.53733395651E+02 -0.30664513041E+03  0.16198789941E+04  0.12699999809E+01 0.  1.
       -4    1    3    3    0  502 -0.15896816753E+04  0.53733395651E+02 -0.12487198149E+04  0.20221963050E+04  0.12699999809E+01 0. -1.
</event>
<event>
 5   0  0.5622811E-06  0.2452660E+04  0.7818609E-02  0.8420047E-01
       -2   -1    0    0    0  501  0.00000000000E+00  0.00000000000E+00  0.86616714702E+03  0.86616714702E+03  0.25500000920E-02 0.  1.
        2   -1    0    0  501    0  0.00000000000E+00  0.00000000000E+00 -0.17362535089E+04  0.17362535089E+04  0.25500000920E-02 0. -1.
    10030    2    1    2    0    0  0.00000000000E+00  0.00000000000E+00 -0.87008636190E+03  0.26024206559E+04  0.24526603909E+04 0.  0.
        1    1    3    3  502    0  0.12290948617E+03  0.10944857223E+04 -0.10073079610E+04  0.14925398040E+04  0.50400001928E-02 0.  1.
       -1    1    3    3    0  502 -0.12290948617E+03 -0.10944857223E+04  0.13722159909E+03  0.11098808519E+04  0.50400001928E-02 0. -1.
</event>
<event>
 5   0  0.2097842E-06  0.2487801E+04  0.7818609E-02  0.8407344E-01
        1   -1    0    0  501    0  0.00000000000E+00  0.00000000000E+00  0.15959297383E+04  0.15959297383E+04  0.50400001928E-02 0.  1.
       -1   -1    0    0    0  501  0.00000000000E+00  0.00000000000E+00 -0.96952201122E+03  0.96952201123E+03  0.50400001928E-02 0. -1.
    10030    2    1    2    0    0  0.00000000000E+00  0.00000000000E+00  0.62640772708E+03  0.25654517495E+04  0.24878014468E+04 0.  0.
        4    1    3    3  502    0  0.24044795650E+03  0.51722129279E+03  0.14531271325E+04  0.15610615496E+04  0.12699999809E+01 0.  1.
       -4    1    3    3    0  502 -0.24044795650E+03 -0.51722129279E+03 -0.82671940543E+03  0.10043901999E+04  0.12699999809E+01 0. -1.
</event>
<event>
 5   0  0.1925906E-06  0.3223493E+04  0.7818609E-02  0.8182640E-01
       -1   -1    0    0    0  501  0.00000000000E+00  0.00000000000E+00  0.17309616463E+04  0.17309616463E+04  0.50400001928E-02 0. -1.
        1   -1    0    0  501    0  0.00000000000E+00  0.00000000000E+00 -0.15007420723E+04  0.15007420723E+04  0.50400001928E-02 0.  1.
    10030    2    1    2    0    0  0.00000000000E+00  0.00000000000E+00  0.23021957400E+03  0.32317037187E+04  0.32234931166E+04 0.  0.
        1    1    3    3  502    0  0.15219395633E+04  0.42241710116E+03  0.43684889370E+03  0.16387718565E+04  0.50400001928E-02 0. -1.
       -1    1    3    3    0  502 -0.15219395633E+04 -0.42241710116E+03 -0.20662931970E+03  0.15929318622E+04  0.50400001928E-02 0.  1.
</event>
<event>
 5   0  0.2037109E-06  0.3310944E+04  0.7818609E-02  0.8160116E-01
        1   -1    0    0  501    0  0.00000000000E+00  0.00000000000E+00  0.13681461784E+04  0.13681461785E+04  0.50400001928E-02 0.  1.
       -1   -1    0    0    0  501  0.00000000000E+00  0.00000000000E+00 -0.20031393576E+04  0.20031393576E+04  0.50400001928E-02 0. -1.
    10030    2    1    2    0    0  0.00000000000E+00  0.00000000000E+00 -0.63499317918E+03  0.33712855361E+04  0.33109439482E+04 0.  0.
        2    1    3    3  502    0 -0.42745740137E+03 -0.86416199952E+03  0.10527979426E+04  0.14275430989E+04  0.25500000920E-02 0.  1.
       -2    1    3    3    0  502  0.42745740137E+03  0.86416199952E+03 -0.16877911217E+04  0.19437424372E+04  0.25500000920E-02 0. -1.
</event>
<event>
 5   0  0.5622811E-06  0.1796975E+04  0.7818609E-02  0.8707910E-01
       -2   -1    0    0    0  501  0.00000000000E+00  0.00000000000E+00  0.67903355749E+03  0.67903355750E+03  0.25500000920E-02 0. -1.
        2   -1    0    0  501    0  0.00000000000E+00  0.00000000000E+00 -0.11888662930E+04  0.11888662931E+04  0.25500000920E-02 0.  1.
    10030    2    1    2    0    0  0.00000000000E+00  0.00000000000E+00 -0.50983273556E+03  0.18678998505E+04  0.17969753569E+04 0.  0.
        1    1    3    3  502    0  0.26972307316E+03 -0.81688060131E+03 -0.52444895936E+03  0.10075173269E+04  0.50400001928E-02 0.  1.
       -1    1    3    3    0  502 -0.26972307316E+03  0.81688060131E+03  0.14616223804E+02  0.86038252365E+03  0.50400001928E-02 0. -1.
</event>
<event>
 5   0  0.5755250E-06  0.3283338E+04  0.7818609E-02  0.8167148E-01
       -2   -1    0    0    0  501  0.00000000000E+00  0.00000000000E+00  0.13303916081E+04  0.13303916081E+04  0.25500000920E-02 0. -1.
        2   -1    0    0  501    0  0.00000000000E+00  0.00000000000E+00 -0.20257769263E+04  0.20257769264E+04  0.25500000920E-02 0.  1.
    10030    2    1    2    0    0  0.00000000000E+00  0.00000000000E+00 -0.69538531824E+03  0.33561685345E+04  0.32833377059E+04 0.  0.
        5    1    3    3  502    0  0.14029528530E+04 -0.43132986197E+03  0.40396379981E+03  0.15223439161E+04  0.46999998093E+01 0.  1.
       -5    1    3    3    0  502 -0.14029528530E+04  0.43132986197E+03 -0.10993491180E+04  0.18338246183E+04  0.46999998093E+01 0. -1.
</event>
<event>
 5   0  0.1999849E-06  0.3307946E+04  0.7818609E-02  0.8160876E-01
       -1   -1    0    0    0  501  0.00000000000E+00  0.00000000000E+00  0.27627236913E+04  0.27627236913E+04  0.50400001928E-02 0.  1.
        1   -1    0    0  501    0  0.00000000000E+00  0.00000000000E+00 -0.99019195367E+03  0.99019195369E+03  0.50400001928E-02 0. -1.
    10030    2    1    2    0    0  0.00000000000E+00  0.00000000000E+00  0.17725317376E+04  0.37529156450E+04  0.33079460512E+04 0.  0.
        5    1    3    3  502    0  0.10897607171E+04 -0.33554072004E+03  0.22455264038E+04  0.25184473224E+04  0.46999998093E+01 0.  1.
       -5    1    3    3    0  502 -0.10897607171E+04  0.33554072004E+03 -0.47299466618E+03  0.12344683226E+04  0.46999998093E+01 0. -1.
</event>
<event>
 5   0  0.5300268E-06  0.3287322E+04  0.7818609E-02  0.8166129E-01
       -2   -1    0    0    0  501  0.00000000000E+00  0.00000000000E+00  0.12110345062E+04  0.12110345062E+04  0.25500000920E-02 0. -1.
        2   -1    0    0  501    0  0.00000000000E+00  0.00000000000E+00 -0.22308375245E+04  0.22308375245E+04  0.25500000920E-02 0.  1.
    10030    2    1    2    0    0  0.00000000000E+00  0.00000000000E+00 -0.10198030183E+04  0.34418720307E+04  0.32873218400E+04 0.  0.
        4    1    3    3  502    0 -0.75080342189E+03  0.96949642155E+03  0.63608415365E+03  0.13813883426E+04  0.12699999809E+01 0. -1.
       -4    1    3    3    0  502  0.75080342189E+03 -0.96949642155E+03 -0.16558871720E+04  0.20604836881E+04  0.12699999809E+01 0.  1.
</event>
<event>
 5   0  0.1925906E-06  0.3449609E+04  0.7818609E-02  0.8125837E-01
        1   -1    0    0  501    0  0.00000000000E+00  0.00000000000E+00  0.11782885914E+04  0.11782885914E+04  0.50400001928E-02 0.  1.
       -1   -1    0    0    0  501  0.00000000000E+00  0.00000000000E+00 -0.25248056707E+04  0.25248056707E+04  0.50400001928E-02 0. -1.
    10030    2    1    2    0    0  0.00000000000E+00  0.00000000000E+00 -0.13465170793E+04  0.37030942621E+04  0.34496085095E+04 0.  0.
        1    1    3    3  502    0 -0.13974704380E+04 -0.15367068107E+03 -0.17458880108E+04  0.22415760637E+04  0.50400001928E-02 0. -1.
       -1    1    3    3    0  502  0.13974704380E+04  0.15367068107E+03  0.39937093148E+03  0.14615181984E+04  0.50400001928E-02 0.  1.
</event>
<event>
 5   0  0.1999849E-06  0.2002088E+04  0.7818609E-02  0.8605645E-01
       -1   -1    0    0    0  501  0.00000000000E+00  0.00000000000E+00  0.74304143424E+03  0.74304143426E+03  0.50400001928E-02 0. -1.
        1   -1    0    0  501    0  0.00000000000E+00  0.00000000000E+00 -0.13486308841E+04  0.13486308841E+04  0.50400001928E-02 0.  1.
    10030    2    1    2    0    0  0.00000000000E+00  0.00000000000E+00 -0.60558944983E+03  0.20916723183E+04  0.20020875369E+04 0.  0.
        5    1    3    3  502    0 -0.90592282045E+03 -0.29494740425E+03  0.18158918357E+02  0.95291235914E+03  0.46999998093E+01 0. -1.
       -5    1    3    3    0  502  0.90592282045E+03  0.29494740425E+03 -0.62374836818E+03  0.11387599592E+04  0.46999998093E+01 0.  1.
</event>
<event>
 5   0  0.2037109E-06  0.2053122E+04  0.7818609E-02  0.8582179E-01
       -1   -1    0    0    0  501  0.00000000000E+00  0.00000000000E+00  0.47703638081E+03  0.47703638084E+03  0.50400001928E-02 0.  1.
        1   -1    0    0  501    0  0.00000000000E+00  0.00000000000E+00 -0.22091129575E+04  0.22091129575E+04  0.50400001928E-02 0. -1.
    10030    2    1    2    0    0  0.00000000000E+00  0.00000000000E+00 -0.17320765767E+04  0.26861493383E+04  0.20531217695E+04 0.  0.
        2    1    3    3  502    0 -0.19212140536E+03 -0.99463268830E+03 -0.64859480576E+03  0.12028632678E+04  0.25500000920E-02 0.  1.
       -2    1    3    3    0  502  0.19212140536E+03  0.99463268830E+03 -0.10834817709E+04  0.14832860705E+04  0.25500000920E-02 0. -1.
</event>
<event>
 5   0  0.2037109E-06  0.3357473E+04  0.7818609E-02  0.8148424E-01
       -1   -1    0    0    0  501  0.00000000000E+00  0.00000000000E+00  0.14047690015E+04  0.14047690015E+04  0.50400001928E-02 0.  1.
        1   -1    0    0  501    0  0.00000000000E+00  0.00000000000E+00 -0.20061344187E+04  0.20061344187E+04  0.50400001928E-02 0. -1.
    10030    2    1    2    0    0  0.00000000000E+00  0.00000000000E+00 -0.60136541719E+03  0.34109034202E+04  0.33574725281E+04 0.  0.
        2    1    3    3  502    0  0.10754124182E+04 -0.12801350933E+04 -0.14695468037E+03  0.16783484156E+04  0.25500000920E-02 0.  1.
       -2    1    3    3    0  502 -0.10754124182E+04  0.12801350933E+04 -0.45441073683E+03  0.17325550046E+04  0.25500000920E-02 0. -1.
</event>
<event>
 5   0  0.1999849E-06  0.3289861E+04  0.7818609E-02  0.8165480E-01
       -1   -1    0    0    0  501  0.00000000000E+00  0.00000000000E+00  0.16177051216E+04  0.16177051216E+04  0.50400001928E-02 0.  1.
        1   -1    0    0  501    0  0.00000000000E+00  0.00000000000E+00 -0.16726140669E+04  0.16726140669E+04  0.50400001928E-02 0. -1.
    10030    2    1    2    0    0  0.00000000000E+00  0.00000000000E+00 -0.54908945312E+02  0.32903191886E+04  0.32898609956E+04 0.  0.
        5    1    3    3  502    0  0.54771897203E+02  0.23552325517E+03  0.15998256329E+04  0.16180034951E+04  0.46999998093E+01 0.  1.
       -5    1    3    3    0  502 -0.54771897203E+02 -0.23552325517E+03 -0.16547345782E+04  0.16723156935E+04  0.46999998093E+01 0. -1.
</event>
<event>
 5   0  0.1999849E-06  0.3286324E+04  0.7818609E-02  0.8166384E-01
        1   -1    0    0  501    0  0.00000000000E+00  0.00000000000E+00  0.28859727349E+04  0.28859727349E+04  0.50400001928E-02 0.  1.
       -1   -1    0    0    0  501  0.00000000000E+00  0.00000000000E+00 -0.93555333371E+03  0.93555333373E+03  0.50400001928E-02 0. -1.
    10030    2    1    2    0    0  0.00000000000E+00  0.00000000000E+00  0.19504194012E+04  0.38215260686E+04  0.32863240334E+04 0.  0.
        5    1    3    3  502    0 -0.19251566300E+03  0.16114211098E+04  0.12744485078E+04  0.20634876696E+04  0.46999998093E+01 0. -1.
       -5    1    3    3    0  502  0.19251566300E+03 -0.16114211098E+04  0.67597089338E+03  0.17580383990E+04  0.46999998093E+01 0.  1.
</event>
<event>
 5   0  0.2037109E-06  0.2383533E+04  0.7818609E-02  0.8445695E-01
        1   -1    0    0  501    0  0.00000000000E+00  0.00000000000E+00  0.13376237267E+04  0.13376237267E+04  0.50400001928E-02 0. -1.
       -1   -1    0    0    0  501  0.00000000000E+00  0.00000000000E+00 -0.10618134398E+04  0.10618134398E+04  0.50400001928E-02 0.  1.
    10030    2    1    2    0    0  0.00000000000E+00  0.00000000000E+00  0.27581028691E+03  0.23994371665E+04  0.23835325468E+04 0.  0.
        2    1    3    3  502    0  0.58352472533E+03 -0.10663082622E+03 -0.90264370443E+03  0.10801096682E+04  0.25500000920E-02 0.  1.
       -2    1    3    3    0  502 -0.58352472533E+03  0.10663082622E+03  0.11784539913E+04  0.13193274983E+04  0.25500000920E-02 0. -1.
</event>
<event>
 5   0  0.2037109E-06  0.3325376E+04  0.7818609E-02  0.8156468E-01
       -1   -1    0    0    0  501  0.00000000000E+00  0.00000000000E+00  0.22753729200E+04  0.22753729200E+04  0.50400001928E-02 0. -1.
        1   -1    0    0  501    0  0.00000000000E+00  0.00000000000E+00 -0.12149792191E+04  0.12149792191E+04  0.50400001928E-02 0.  1.
    10030    2    1    2    0    0  0.00000000000E+00  0.00000000000E+00  0.10603937008E+04  0.34903521391E+04  0.33253756561E+04 0.  0.
        2    1    3    3  502    0  0.60366786216E+03 -0.66118596111E+03 -0.94036415395E+03  0.12984092209E+04  0.25500000920E-02 0.  1.
       -2    1    3    3    0  502 -0.60366786216E+03  0.66118596111E+03  0.20007578548E+04  0.21919429182E+04  0.25500000920E-02 0. -1.
</event>
<event>
 5   0  0.1878000E-06  0.3237622E+04  0.7818609E-02  0.8178951E-01
        4   -1    0    0  501    0  0.00000000000E+00  0.00000000000E+00  0.12302850725E+04  0.12302857280E+04  0.12699999809E+01 0. -1.
       -4   -1    0    0    0  501  0.00000000000E+00  0.00000000000E+00 -0.21300329437E+04  0.21300333223E+04  0.12699999809E+01 0.  1.
    10030    2    1    2    0    0  0.00000000000E+00  0.00000000000E+00 -0.89974787116E+03  0.33603190503E+04  0.32376222584E+04 0.  0.
        5    1    3    3  502    0 -0.75527627091E+03  0.10042550254E+04  0.60936967718E+03  0.13965399726E+04  0.46999998093E+01 0. -1.
       -5    1    3    3    0  502  0.75527627091E+03 -0.10042550254E+04 -0.15091175483E+04  0.19637790777E+04  0.46999998093E+01 0.  1.
</event>
<event>
 5   0  0.5622811E-06  0.3269882E+04  0.7818609E-02  0.8170601E-01
        2   -1    0    0  501    0  0.00000000000E+00  0.00000000000E+00  0.13019804975E+04  0.13019804975E+04  0.25500000920E-02 0.  1.
       -2   -1    0    0    0  501  0.00000000000E+00  0.00000000000E+00 -0.20530509734E+04  0.20530509734E+04  0.25500000920E-02 0. -1.
    10030    2    1    2    0    0  0.00000000000E+00  0.00000000000E+00 -0.75107047594E+03  0.33550314709E+04  0.32698821555E+04 0.  0.
        1    1    3    3  502    0 -0.15031223992E+04  0.27772799012E+03  0.21967662567E+03  0.15442692781E+04  0.50400001928E-02 0.  1.
       -1    1    3    3    0  502  0.15031223992E+04 -0.27772799012E+03 -0.97074710162E+03  0.18107621928E+04  0.50400001928E-02 0. -1.
</event>
<event>
 5   0  0.1999849E-06  0.3602091E+04  0.7818609E-02  0.8090013E-01
       -1   -1    0    0    0  501  0.00000000000E+00  0.00000000000E+00  0.25484753557E+04  0.25484753557E+04  0.50400001928E-02 0. -1.
        1   -1    0    0  501    0  0.00000000000E+00  0.00000000000E+00 -0.12728257329E+04  0.12728257329E+04  0.50400001928E-02 0.  1.
    10030    2    1    2    0    0  0.00000000000E+00  0.00000000000E+00  0.12756496228E+04  0.38213010886E+04  0.36020910663E+04 0.  0.
        5    1    3    3  502    0  0.82900147302E+03 -0.22758701501E+02  0.23338622109E+04  0.24768319100E+04  0.46999998093E+01 0. -1.
       -5    1    3    3    0  502 -0.82900147302E+03  0.22758701501E+02 -0.10582125881E+04  0.13444691787E+04  0.46999998093E+01 0.  1.
</event>
<event>
 5   0  0.2037109E-06  0.3349273E+04  0.7818609E-02  0.8150470E-01
       -1   -1    0    0    0  501  0.00000000000E+00  0.00000000000E+00  0.23237370997E+04  0.23237370997E+04  0.50400001928E-02 0. -1.
        1   -1    0    0  501    0  0.00000000000E+00  0.00000000000E+00 -0.12068522785E+04  0.12068522785E+04  0.50400001928E-02 0.  1.
    10030    2    1    2    0    0  0.00000000000E+00  0.00000000000E+00  0.11168848212E+04  0.35305893782E+04  0.33492730038E+04 0.  0.
        2    1    3    3  502    0 -0.13926005885E+04  0.19464591608E+03  0.15171755055E+04  0.20685852524E+04  0.25500000920E-02 0. -1.
       -2    1    3    3    0  502  0.13926005885E+04 -0.19464591608E+03 -0.40029068433E+03  0.14620041258E+04  0.25500000920E-02 0.  1.
</event>
<event>
 5   0  0.1925906E-06  0.3123218E+04  0.7818609E-02  0.8209395E-01
        1   -1    0    0  501    0  0.00000000000E+00  0.00000000000E+00  0.20371839040E+04  0.20371839040E+04  0.50400001928E-02 0.  1.
       -1   -1    0    0    0  501  0.00000000000E+00  0.00000000000E+00 -0.11970558906E+04  0.11970558906E+04  0.50400001928E-02 0. -1.
    10030    2    1    2    0    0  0.00000000000E+00  0.00000000000E+00  0.84012801333E+03  0.32342397946E+04  0.31232182073E+04 0.  0.
        1    1    3    3  502    0 -0.15466105672E+04  0.38900183322E+02  0.63999414291E+03  0.16742490776E+04  0.50400001928E-02 0.  1.
       -1    1    3    3    0  502  0.15466105672E+04 -0.38900183322E+02  0.20013387042E+03  0.15599907170E+04  0.50400001928E-02 0. -1.
</event>
<event>
 5   0  0.5755250E-06  0.3330163E+04  0.7818609E-02  0.8155263E-01
       -2   -1    0    0    0  501  0.00000000000E+00  0.00000000000E+00  0.12270007970E+04  0.12270007970E+04  0.25500000920E-02 0. -1.
        2   -1    0    0  501    0  0.00000000000E+00  0.00000000000E+00 -0.22595717403E+04  0.22595717403E+04  0.25500000920E-02 0.  1.
    10030    2    1    2    0    0  0.00000000000E+00  0.00000000000E+00 -0.10325709432E+04  0.34865725373E+04  0.33301629547E+04 0.  0.
        5    1    3    3  502    0 -0.94180086290E+03 -0.64909224901E+03 -0.17831441603E+04  0.21184746398E+04  0.46999998093E+01 0.  1.
       -5    1    3    3    0  502  0.94180086290E+03  0.64909224901E+03  0.75057321704E+03  0.13680978975E+04  0.46999998093E+01 0. -1.
</event>
<event>
 5   0  0.5755250E-06  0.3398619E+04  0.7818609E-02  0.8138245E-01
       -2   -1    0    0    0  501  0.00000000000E+00  0.00000000000E+00  0.10874106404E+04  0.10874106404E+04  0.25500000920E-02 0.  1.
        2   -1    0    0  501    0  0.00000000000E+00  0.00000000000E+00 -0.26555312106E+04  0.26555312106E+04  0.25500000920E-02 0. -1.
    10030    2    1    2    0    0  0.00000000000E+00  0.00000000000E+00 -0.15681205702E+04  0.37429418509E+04  0.33986190691E+04 0.  0.
        5    1    3    3  502    0  0.35387128320E+03 -0.79044629696E+03 -0.23942382114E+04  0.25460614557E+04  0.46999998093E+01 0. -1.
       -5    1    3    3    0  502 -0.35387128320E+03  0.79044629696E+03  0.82611764118E+03  0.11968803952E+04  0.46999998093E+01 0.  1.
</event>
<event>
 5   0  0.5300268E-06  0.3224661E+04  0.7818609E-02  0.8182334E-01
       -2   -1    0    0    0  501  0.00000000000E+00  0.00000000000E+00  0.13404794947E+04  0.13404794947E+04  0.25500000920E-02 0. -1.
        2   -1    0    0  501    0  0.00000000000E+00  0.00000000000E+00 -0.19393135731E+04  0.19393135731E+04  0.25500000920E-02 0.  1.
    10030    2    1    2    0    0  0.00000000000E+00  0.00000000000E+00 -0.59883407836E+03  0.32797930678E+04  0.32246612712E+04 0.  0.
        4    1    3    3  502    0 -0.42314622886E+03 -0.14144925033E+04 -0.95838808031E+03  0.17602133673E+04  0.12699999809E+01 0. -1.
       -4    1    3    3    0  502  0.42314622886E+03  0.14144925033E+04  0.35955400195E+03  0.15195797005E+04  0.12699999809E+01 0.  1.
</event>
<event>
 5   0  0.1999849E-06  0.1719613E+04  0.7818609E-02  0.8750257E-01
        1   -1    0    0  501    0  0.00000000000E+00  0.00000000000E+00  0.54469852160E+03  0.54469852162E+03  0.50400001928E-02 0.  1.
       -1   -1    0    0    0  501  0.00000000000E+00  0.00000000000E+00 -0.13572038581E+04  0.13572038581E+04  0.50400001928E-02 0. -1.
    10030    2    1    2    0    0  0.00000000000E+00  0.00000000000E+00 -0.81250533649E+03  0.19019023797E+04  0.17196126715E+04 0.  0.
        5    1    3    3  502    0  0.37523214210E+03  0.50920948855E+02  0.44749013564E+03  0.58622659014E+03  0.46999998093E+01 0.  1.
       -5    1    3    3    0  502 -0.37523214210E+03 -0.50920948855E+02 -0.12599954721E+04  0.13156757896E+04  0.46999998093E+01 0. -1.
</event>
<event>
 5   0  0.5637538E-06  0.3710163E+04  0.7818609E-02  0.8065713E-01
       -2   -1    0    0    0  501  0.00000000000E+00  0.00000000000E+00  0.13322528743E+04  0.13322528743E+04  0.25500000920E-02 0.  1.
        2   -1    0    0  501    0  0.00000000000E+00  0.00000000000E+00 -0.25830881118E+04  0.25830881118E+04  0.25500000920E-02 0. -1.
    10030    2    1    2    0    0  0.00000000000E+00  0.00000000000E+00 -0.12508352375E+04  0.39153409861E+04  0.37101625633E+04 0.  0.
        2    1    3    3  502    0  0.60871253998E+03 -0.23177736293E+03  0.12076128956E+04  0.13720716482E+04  0.25500000920E-02 0.  1.
       -2    1    3    3    0  502 -0.60871253998E+03  0.23177736293E+03 -0.24584481330E+04  0.25432693379E+04  0.25500000920E-02 0. -1.
</event>
<event>
 5   0  0.2037109E-06  0.3290326E+04  0.7818609E-02  0.8165361E-01
        1   -1    0    0  501    0  0.00000000000E+00  0.00000000000E+00  0.14044737997E+04  0.14044737997E+04  0.50400001928E-02 0. -1.
       -1   -1    0    0    0  501  0.00000000000E+00  0.00000000000E+00 -0.19270998357E+04  0.19270998357E+04  0.50400001928E-02 0.  1.
    10030    2    1    2    0    0  0.00000000000E+00  0.00000000000E+00 -0.52262603601E+03  0.33315736354E+04  0.32903259588E+04 0.  0.
        2    1    3    3  502    0 -0.72308810551E+03 -0.55517170383E+03 -0.16479659573E+04  0.18833119300E+04  0.25500000920E-02 0.  1.
       -2    1    3    3    0  502  0.72308810551E+03  0.55517170383E+03  0.11253399213E+04  0.14482617055E+04  0.25500000920E-02 0. -1.
</event>
<event>
 5   0  0.5637538E-06  0.3251493E+04  0.7818609E-02  0.8175349E-01
        2   -1    0    0  501    0  0.00000000000E+00  0.00000000000E+00  0.16657384687E+04  0.16657384687E+04  0.25500000920E-02 0. -1.
       -2   -1    0    0    0  501  0.00000000000E+00  0.00000000000E+00 -0.15867142724E+04  0.15867142724E+04  0.25500000920E-02 0.  1.
    10030    2    1    2    0    0  0.00000000000E+00  0.00000000000E+00  0.79024196254E+02  0.32524527411E+04  0.32514925818E+04 0.  0.
        2    1    3    3  502    0  0.11073237088E+04  0.65978446489E+02 -0.11493387797E+04  0.15973410976E+04  0.25500000920E-02 0.  1.
       -2    1    3    3    0  502 -0.11073237088E+04 -0.65978446489E+02  0.12283629760E+04  0.16551116434E+04  0.25500000920E-02 0. -1.
</event>
<event>
 5   0  0.1999849E-06  0.3277149E+04  0.7818609E-02  0.8168734E-01
       -1   -1    0    0    0  501  0.00000000000E+00  0.00000000000E+00  0.15443977812E+04  0.15443977812E+04  0.50400001928E-02 0.  1.
        1   -1    0    0  501    0  0.00000000000E+00  0.00000000000E+00 -0.17384943677E+04  0.17384943677E+04  0.50400001928E-02 0. -1.
    10030    2    1    2    0    0  0.00000000000E+00  0.00000000000E+00 -0.19409658646E+03  0.32828921490E+04  0.32771492759E+04 0.  0.
        5    1    3    3  502    0  0.81049829818E+03 -0.92563084548E+03  0.98707035045E+03  0.15773490166E+04  0.46999998093E+01 0.  1.
       -5    1    3    3    0  502 -0.81049829818E+03  0.92563084548E+03 -0.11811669369E+04  0.17055431324E+04  0.46999998093E+01 0. -1.
</event>
<event>
 5   0  0.5300268E-06  0.3439573E+04  0.7818609E-02  0.8128262E-01
        2   -1    0    0  501    0  0.00000000000E+00  0.00000000000E+00  0.19651554279E+04  0.19651554279E+04  0.25500000920E-02 0. -1.
       -2   -1    0    0    0  501  0.00000000000E+00  0.00000000000E+00 -0.15050543127E+04  0.15050543127E+04  0.25500000920E-02 0.  1.
    10030    2    1    2    0    0  0.00000000000E+00  0.00000000000E+00  0.46010111516E+03  0.34702097406E+04  0.34395730269E+04 0.  0.
        4    1    3    3  502    0 -0.23294306990E+03 -0.14209358397E+04 -0.71872073977E+03  0.16093111101E+04  0.12699999809E+01 0.  1.
       -4    1    3    3    0  502  0.23294306990E+03  0.14209358397E+04  0.11788218549E+04  0.18608986305E+04  0.12699999809E+01 0. -1.
</event>
<event>
 5   0  0.1925906E-06  0.3362091E+04  0.7818609E-02  0.8147274E-01
        1   -1    0    0  501    0  0.00000000000E+00  0.00000000000E+00  0.11895945414E+04  0.11895945414E+04  0.50400001928E-02 0.  1.
       -1   -1    0    0    0  501  0.00000000000E+00  0.00000000000E+00 -0.23755275041E+04  0.23755275041E+04  0.50400001928E-02 0. -1.
    10030    2    1    2    0    0  0.00000000000E+00  0.00000000000E+00 -0.11859329627E+04  0.35651220455E+04  0.33620913443E+04 0.  0.
        1    1    3    3  502    0 -0.12361069812E+04 -0.81506491661E+03  0.25110737804E+03  0.15017810102E+04  0.50400001928E-02 0. -1.
       -1    1    3    3    0  502  0.12361069812E+04  0.81506491661E+03 -0.14370403408E+04  0.20633410354E+04  0.50400001928E-02 0.  1.
</event>
<event>
 5   0  0.1999849E-06  0.1867619E+04  0.7818609E-02  0.8671144E-01
        1   -1    0    0  501    0  0.00000000000E+00  0.00000000000E+00  0.21624698238E+04  0.21624698238E+04  0.50400001928E-02 0. -1.
       -1   -1    0    0    0  501  0.00000000000E+00  0.00000000000E+00 -0.40324268275E+03  0.40324268278E+03  0.50400001928E-02 0.  1.
    10030    2    1    2    0    0  0.00000000000E+00  0.00000000000E+00  0.17592271410E+04  0.25657125066E+04  0.18676189474E+04 0.  0.
        5    1    3    3  502    0 -0.30399494317E+03 -0.49013136574E+03  0.18885169356E+04  0.19746290758E+04  0.46999998093E+01 0. -1.
       -5    1    3    3    0  502  0.30399494317E+03  0.49013136574E+03 -0.12928979452E+03  0.59108343076E+03  0.46999998093E+01 0.  1.
</event>
<event>
 5   0  0.1925906E-06  0.2481870E+04  0.7818609E-02  0.8409473E-01
       -1   -1    0    0    0  501  0.00000000000E+00  0.00000000000E+00  0.98408947814E+03  0.98408947815E+03  0.50400001928E-02 0. -1.
        1   -1    0    0  501    0  0.00000000000E+00  0.00000000000E+00 -0.15648167164E+04  0.15648167164E+04  0.50400001928E-02 0.  1.
    10030    2    1    2    0    0  0.00000000000E+00  0.00000000000E+00 -0.58072723828E+03  0.25489061946E+04  0.24818699933E+04 0.  0.
        1    1    3    3  502    0  0.44269043550E+03 -0.29427954493E+03  0.86123715800E+03  0.10120794013E+04  0.50400001928E-02 0. -1.
       -1    1    3    3    0  502 -0.44269043550E+03  0.29427954493E+03 -0.14419643963E+04  0.15368267932E+04  0.50400001928E-02 0.  1.
</event>
<event>
 5   0  0.5637538E-06  0.3273516E+04  0.7818609E-02  0.8169667E-01
        2   -1    0    0  501    0  0.00000000000E+00  0.00000000000E+00  0.20010177740E+04  0.20010177740E+04  0.25500000920E-02 0.  1.
       -2   -1    0    0    0  501  0.00000000000E+00  0.00000000000E+00 -0.13388071649E+04  0.13388071649E+04  0.25500000920E-02 0. -1.
    10030    2    1    2    0    0  0.00000000000E+00  0.00000000000E+00  0.66221060915E+03  0.33398249389E+04  0.32735161115E+04 0.  0.
        2    1    3    3  502    0 -0.10096729060E+04  0.46675421513E+03  0.15561258287E+04  0.19128059152E+04  0.25500000920E-02 0.  1.
       -2    1    3    3    0  502  0.10096729060E+04 -0.46675421513E+03 -0.89391521953E+03  0.14270190238E+04  0.25500000920E-02 0. -1.
</event>
<event>
 5   0  0.5622811E-06  0.1654702E+04  0.7818609E-02  0.8787630E-01
       -2   -1    0    0    0  501  0.00000000000E+00  0.00000000000E+00  0.92528069305E+03  0.92528069305E+03  0.25500000920E-02 0.  1.
        2   -1    0    0  501    0  0.00000000000E+00  0.00000000000E+00 -0.73978568049E+03  0.73978568050E+03  0.25500000920E-02 0. -1.
    10030    2    1    2    0    0  0.00000000000E+00  0.00000000000E+00  0.18549501256E+03  0.16650663735E+04  0.16547016736E+04 0.  0.
        1    1    3    3  502    0  0.69565058622E+02 -0.51795890808E+03 -0.55266594479E+03  0.76063156284E+03  0.50400001928E-02 0. -1.
       -1    1    3    3    0  502 -0.69565058622E+02  0.51795890808E+03  0.73816095735E+03  0.90443481071E+03  0.50400001928E-02 0.  1.
</event>
<event>
 5   0  0.1999849E-06  0.1951000E+04  0.7818609E-02  0.8629878E-01
       -1   -1    0    0    0  501  0.00000000000E+00  0.00000000000E+00  0.67851661576E+03  0.67851661578E+03  0.50400001928E-02 0.  1.
        1   -1    0    0  501    0  0.00000000000E+00  0.00000000000E+00 -0.14024722407E+04  0.14024722407E+04  0.50400001928E-02 0. -1.
    10030    2    1    2    0    0  0.00000000000E+00  0.00000000000E+00 -0.72395562489E+03  0.20809888564E+04  0.19510004802E+04 0.  0.
        5    1    3    3  502    0 -0.41519233173E+02  0.60663398809E+03  0.45163521251E+03  0.75744643203E+03  0.46999998093E+01 0.  1.
       -5    1    3    3    0  502  0.41519233173E+02 -0.60663398809E+03 -0.11755908374E+04  0.13235424244E+04  0.46999998093E+01 0. -1.
</event>
<event>
 5   0  0.5755250E-06  0.3249883E+04  0.7818609E-02  0.8175766E-01
       -2   -1    0    0    0  501  0.00000000000E+00  0.00000000000E+00  0.15997517349E+04  0.15997517349E+04  0.25500000920E-02 0.  1.
        2   -1    0    0  501    0  0.00000000000E+00  0.00000000000E+00 -0.16505281039E+04  0.16505281039E+04  0.25500000920E-02 0. -1.
    10030    2    1    2    0    0  0.00000000000E+00  0.00000000000E+00 -0.50776369039E+02  0.32502798388E+04  0.32498831965E+04 0.  0.
        5    1    3    3  502    0 -0.60142147265E+03  0.10536440163E+03  0.14806520574E+04  0.16016123283E+04  0.46999998093E+01 0.  1.
       -5    1    3    3    0  502  0.60142147265E+03 -0.10536440163E+03 -0.15314284265E+04  0.16486675106E+04  0.46999998093E+01 0. -1.
</event>
<event>
 5   0  0.5755250E-06  0.3354922E+04  0.7818609E-02  0.8149060E-01
       -2   -1    0    0    0  501  0.00000000000E+00  0.00000000000E+00  0.14830392733E+04  0.14830392733E+04  0.25500000920E-02 0.  1.
        2   -1    0    0  501    0  0.00000000000E+00  0.00000000000E+00 -0.18973702502E+04  0.18973702502E+04  0.25500000920E-02 0. -1.
    10030    2    1    2    0    0  0.00000000000E+00  0.00000000000E+00 -0.41433097693E+03  0.33804095234E+04  0.33549215174E+04 0.  0.
        5    1    3    3  502    0  0.45390390346E+03  0.27211401096E+03  0.13967120593E+04  0.14936202513E+04  0.46999998093E+01 0.  1.
       -5    1    3    3    0  502 -0.45390390346E+03 -0.27211401096E+03 -0.18110430362E+04  0.18867892722E+04  0.46999998093E+01 0. -1.
</event>
<event>
 5   0  0.5755250E-06  0.3085575E+04  0.7818609E-02  0.8219708E-01
       -2   -1    0    0    0  501  0.00000000000E+00  0.00000000000E+00  0.14358996373E+04  0.14358996373E+04  0.25500000920E-02 0.  1.
        2   -1    0    0  501    0  0.00000000000E+00  0.00000000000E+00 -0.16576323024E+04  0.16576323024E+04  0.25500000920E-02 0. -1.
    10030    2    1    2    0    0  0.00000000000E+00  0.00000000000E+00 -0.22173266517E+03  0.30935319397E+04  0.30855752279E+04 0.  0.
        5    1    3    3  502    0 -0.54544222029E+03  0.10911294119E+04 -0.10578128678E+04  0.16146395148E+04  0.46999998093E+01 0. -1.
       -5    1    3    3    0  502  0.54544222029E+03 -0.10911294119E+04  0.83608020267E+03  0.14788924249E+04  0.46999998093E+01 0.  1.
</event>
<event>
 5   0  0.1925906E-06  0.3261816E+04  0.7818609E-02  0.8172680E-01
       -1   -1    0    0    0  501  0.00000000000E+00  0.00000000000E+00  0.16056954541E+04  0.16056954541E+04  0.50400001928E-02 0. -1.
        1   -1    0    0  501    0  0.00000000000E+00  0.00000000000E+00 -0.16565163974E+04  0.16565163974E+04  0.50400001928E-02 0.  1.
    10030    2    1    2    0    0  0.00000000000E+00  0.00000000000E+00 -0.50820943288E+02  0.32622118516E+04  0.32618159660E+04 0.  0.
        1    1    3    3  502    0  0.77296056351E+03  0.22096974350E+03 -0.14445841713E+04  0.16532147738E+04  0.50400001928E-02 0.  1.
       -1    1    3    3    0  502 -0.77296056351E+03 -0.22096974350E+03  0.13937632281E+04  0.16089970777E+04  0.50400001928E-02 0. -1.
</event>
<event>
 5   0  0.5300268E-06  0.3255189E+04  0.7818609E-02  0.8174392E-01
        2   -1    0    0  501    0  0.00000000000E+00  0.00000000000E+00  0.19234555897E+04  0.19234555897E+04  0.25500000920E-02 0.  1.
       -2   -1    0    0    0  501  0.00000000000E+00  0.00000000000E+00 -0.13772417614E+04  0.13772417614E+04  0.25500000920E-02 0. -1.
    10030    2    1    2    0    0  0.00000000000E+00  0.00000000000E+00  0.54621382825E+03  0.33006973511E+04  0.32551886976E+04 0.  0.
        4    1    3    3  502    0 -0.12058153953E+04  0.59044618343E+03  0.12059932353E+04  0.18047267825E+04  0.12699999809E+01 0. -1.
       -4    1    3    3    0  502  0.12058153953E+04 -0.59044618343E+03 -0.65977940705E+03  0.14959705685E+04  0.12699999809E+01 0.  1.
</event>
<event>
 5   0  0.1925906E-06  0.1942098E+04  0.7818609E-02  0.8634181E-01
       -1   -1    0    0    0  501  0.00000000000E+00  0.00000000000E+00  0.75834559977E+03  0.75834559979E+03  0.50400001928E-02 0. -1.
        1   -1    0    0  501    0  0.00000000000E+00  0.00000000000E+00 -0.12434119480E+04  0.12434119480E+04  0.50400001928E-02 0.  1.
    10030    2    1    2    0    0  0.00000000000E+00  0.00000000000E+00 -0.48506634819E+03  0.20017575478E+04  0.19420978137E+04 0.  0.
        1    1    3    3  502    0 -0.31967651308E+03 -0.61899842988E+03  0.45469627057E+03  0.83192597490E+03  0.50400001928E-02 0. -1.
       -1    1    3    3    0  502  0.31967651308E+03  0.61899842988E+03 -0.93976261876E+03  0.11698315729E+04  0.50400001928E-02 0.  1.
</event>
<event>
 5   0  0.1925906E-06  0.1742820E+04  0.7818609E-02  0.8737312E-01
        1   -1    0    0  501    0  0.00000000000E+00  0.00000000000E+00  0.84443083702E+03  0.84443083703E+03  0.50400001928E-02 0. -1.
       -1   -1    0    0    0  501  0.00000000000E+00  0.00000000000E+00 -0.89925106862E+03  0.89925106864E+03  0.50400001928E-02 0.  1.
    10030    2    1    2    0    0  0.00000000000E+00  0.00000000000E+00 -0.54820231603E+02  0.17436819057E+04  0.17428199363E+04 0.  0.
        1    1    3    3  502    0 -0.64455683152E+03 -0.36272700331E+03 -0.48843183669E+03  0.88633517763E+03  0.50400001928E-02 0.  1.
       -1    1    3    3    0  502  0.64455683152E+03  0.36272700331E+03  0.43361160509E+03  0.85734672804E+03  0.50400001928E-02 0. -1.
</event>
<event>
 5   0  0.2037109E-06  0.3427289E+04  0.7818609E-02  0.8131241E-01
        1   -1    0    0  501    0  0.00000000000E+00  0.00000000000E+00  0.14579373183E+04  0.14579373184E+04  0.50400001928E-02 0. -1.
       -1   -1    0    0    0  501  0.00000000000E+00  0.00000000000E+00 -0.20142003508E+04  0.20142003508E+04  0.50400001928E-02 0.  1.
    10030    2    1    2    0    0  0.00000000000E+00  0.00000000000E+00 -0.55626303248E+03  0.34721376692E+04  0.34272892251E+04 0.  0.
        2    1    3    3  502    0 -0.36245387143E+03 -0.30436498623E+03 -0.19466707315E+04  0.20033815889E+04  0.25500000920E-02 0.  1.
       -2    1    3    3    0  502  0.36245387143E+03  0.30436498623E+03  0.13904076991E+04  0.14687560803E+04  0.25500000920E-02 0. -1.
</event>
<event>
 5   0  0.5300268E-06  0.3062288E+04  0.7818609E-02  0.8226165E-01
        2   -1    0    0  501    0  0.00000000000E+00  0.00000000000E+00  0.14967672721E+04  0.14967672721E+04  0.25500000920E-02 0. -1.
       -2   -1    0    0    0  501  0.00000000000E+00  0.00000000000E+00 -0.15663101085E+04  0.15663101085E+04  0.25500000920E-02 0.  1.
    10030    2    1    2    0    0  0.00000000000E+00  0.00000000000E+00 -0.69542836395E+02  0.30630773807E+04  0.30622878431E+04 0.  0.
        4    1    3    3  502    0 -0.78886065579E+02  0.10761029823E+04  0.10518693211E+04  0.15068680504E+04  0.12699999809E+01 0. -1.
       -4    1    3    3    0  502  0.78886065579E+02 -0.10761029823E+04 -0.11214121575E+04  0.15562093303E+04  0.12699999809E+01 0.  1.
</event>
<event>
 5   0  0.2097842E-06  0.1671976E+04  0.7818609E-02  0.8777511E-01
       -1   -1    0    0    0  501  0.00000000000E+00  0.00000000000E+00  0.51642521502E+03  0.51642521505E+03  0.50400001928E-02 0. -1.
        1   -1    0    0  501    0  0.00000000000E+00  0.00000000000E+00 -0.13532959597E+04  0.13532959597E+04  0.50400001928E-02 0.  1.
    10030    2    1    2    0    0  0.00000000000E+00  0.00000000000E+00 -0.83687074468E+03  0.18697211748E+04  0.16719762642E+04 0.  0.
        4    1    3    3  502    0 -0.32244256354E+03 -0.73053434372E+03 -0.69513642816E+03  0.10587095451E+04  0.12699999809E+01 0.  1.
       -4    1    3    3    0  502  0.32244256354E+03  0.73053434372E+03 -0.14173431652E+03  0.81101162971E+03  0.12699999809E+01 0. -1.
</event>
<event>
 5   0  0.1925906E-06  0.3052751E+04  0.7818609E-02  0.8228826E-01
       -1   -1    0    0    0  501  0.00000000000E+00  0.00000000000E+00  0.24615676374E+04  0.24615676374E+04  0.50400001928E-02 0. -1.
        1   -1    0    0  501    0  0.00000000000E+00  0.00000000000E+00 -0.94647903731E+03  0.94647903733E+03  0.50400001928E-02 0.  1.
    10030    2    1    2    0    0  0.00000000000E+00  0.00000000000E+00  0.15150886001E+04  0.34080466747E+04  0.30527510005E+04 0.  0.
        1    1    3    3  502    0 -0.24354624426E+03  0.12360442030E+04  0.17196471130E+04  0.21317378446E+04  0.50400001928E-02 0. -1.
       -1    1    3    3    0  502  0.24354624426E+03 -0.12360442030E+04 -0.20455851289E+03  0.12763088302E+04  0.50400001928E-02 0.  1.
</event>
<event>
 5   0  0.5622811E-06  0.3486181E+04  0.7818609E-02  0.8117073E-01
        2   -1    0    0  501    0  0.00000000000E+00  0.00000000000E+00  0.27218339864E+04  0.27218339864E+04  0.25500000920E-02 0. -1.
       -2   -1    0    0    0  501  0.00000000000E+00  0.00000000000E+00 -0.11162932547E+04  0.11162932547E+04  0.25500000920E-02 0.  1.
    10030    2    1    2    0    0  0.00000000000E+00  0.00000000000E+00  0.16055407316E+04  0.38381272411E+04  0.34861812457E+04 0.  0.
        1    1    3    3  502    0  0.20336324569E+03  0.16143931933E+04  0.14909708422E+04  0.22069472229E+04  0.50400001928E-02 0. -1.
       -1    1    3    3    0  502 -0.20336324569E+03 -0.16143931933E+04  0.11456988940E+03  0.16311800182E+04  0.50400001928E-02 0.  1.
</event>
<event>
 5   0  0.5755250E-06  0.2608611E+04  0.7818609E-02  0.8365282E-01
        2   -1    0    0  501    0  0.00000000000E+00  0.00000000000E+00  0.19445734450E+04  0.19445734450E+04  0.25500000920E-02 0.  1.
       -2   -1    0    0    0  501  0.00000000000E+00  0.00000000000E+00 -0.87485125858E+03  0.87485125859E+03  0.25500000920E-02 0. -1.
    10030    2    1    2    0    0  0.00000000000E+00  0.00000000000E+00  0.10697221864E+04  0.28194247035E+04  0.26086107611E+04 0.  0.
        5    1    3    3  502    0 -0.71120567445E+02 -0.19715944899E+03  0.19262438040E+04  0.19376189682E+04  0.46999998093E+01 0.  1.
       -5    1    3    3    0  502  0.71120567445E+02  0.19715944899E+03 -0.85652161763E+03  0.88180573535E+03  0.46999998093E+01 0. -1.
</event>
<event>
 5   0  0.2097842E-06  0.2519635E+04  0.7818609E-02  0.8396024E-01
        1   -1    0    0  501    0  0.00000000000E+00  0.00000000000E+00  0.14734991232E+04  0.14734991232E+04  0.50400001928E-02 0. -1.
       -1   -1    0    0    0  501  0.00000000000E+00  0.00000000000E+00 -0.10771235019E+04  0.10771235019E+04  0.50400001928E-02 0.  1.
    10030    2    1    2    0    0  0.00000000000E+00  0.00000000000E+00  0.39637562134E+03  0.25506226251E+04  0.25196353194E+04 0.  0.
        4    1    3    3  502    0  0.19037659881E+03  0.77232763073E+03 -0.79076378013E+03  0.11216247980E+04  0.12699999809E+01 0.  1.
       -4    1    3    3    0  502 -0.19037659881E+03 -0.77232763073E+03  0.11871394015E+04  0.14289978271E+04  0.12699999809E+01 0. -1.
</event>
<event>
 5   0  0.5300268E-06  0.3382981E+04  0.7818609E-02  0.8142096E-01
        2   -1    0    0  501    0  0.00000000000E+00  0.00000000000E+00  0.16704346868E+04  0.16704346868E+04  0.25500000920E-02 0. -1.
       -2   -1    0    0    0  501  0.00000000000E+00  0.00000000000E+00 -0.17128113552E+04  0.17128113552E+04  0.25500000920E-02 0.  1.
    10030    2    1    2    0    0  0.00000000000E+00  0.00000000000E+00 -0.42376668390E+02  0.33832460421E+04  0.33829806383E+04 0.  0.
        4    1    3    3  502    0 -0.54595158053E+03  0.83343838331E+03 -0.13882100611E+04  0.17087455790E+04  0.12699999809E+01 0.  1.
       -4    1    3    3    0  502  0.54595158053E+03 -0.83343838331E+03  0.13458333927E+04  0.16745004631E+04  0.12699999809E+01 0. -1.
</event>
<event>
 5   0  0.5637538E-06  0.3277296E+04  0.7818609E-02  0.8168697E-01
        2   -1    0    0  501    0  0.00000000000E+00  0.00000000000E+00  0.22199431895E+04  0.22199431895E+04  0.25500000920E-02 0. -1.
       -2   -1    0    0    0  501  0.00000000000E+00  0.00000000000E+00 -0.12095655008E+04  0.12095655008E+04  0.25500000920E-02 0.  1.
    10030    2    1    2    0    0  0.00000000000E+00  0.00000000000E+00  0.10103776887E+04  0.34295086903E+04  0.32772956509E+04 0.  0.
        2    1    3    3  502    0 -0.15538220099E+03  0.58356129570E+03  0.20992505677E+04  0.21843855796E+04  0.25500000920E-02 0. -1.
       -2    1    3    3    0  502  0.15538220099E+03 -0.58356129570E+03 -0.10888728790E+04  0.12451231107E+04  0.25500000920E-02 0.  1.
</event>
<event>
 5   0  0.1925906E-06  0.1756195E+04  0.7818609E-02  0.8729947E-01
       -1   -1    0    0    0  501  0.00000000000E+00  0.00000000000E+00  0.33666525111E+03  0.33666525115E+03  0.50400001928E-02 0. -1.
        1   -1    0    0  501    0  0.00000000000E+00  0.00000000000E+00 -0.22902735375E+04  0.22902735375E+04  0.50400001928E-02 0.  1.
    10030    2    1    2    0    0  0.00000000000E+00  0.00000000000E+00 -0.19536082864E+04  0.26269387887E+04  0.17561953373E+04 0.  0.
        1    1    3    3  502    0 -0.61251794784E+03 -0.41306979273E+03 -0.16867253283E+04  0.18414253238E+04  0.50400001928E-02 0.  1.
       -1    1    3    3    0  502  0.61251794784E+03  0.41306979273E+03 -0.26688295810E+03  0.78551346484E+03  0.50400001928E-02 0. -1.
</event>
<event>
 5   0  0.5637538E-06  0.3277210E+04  0.7818609E-02  0.8168719E-01
        2   -1    0    0  501    0  0.00000000000E+00  0.00000000000E+00  0.29094237174E+04  0.29094237174E+04  0.25500000920E-02 0.  1.
       -2   -1    0    0    0  501  0.00000000000E+00  0.00000000000E+00 -0.92287207002E+03  0.92287207002E+03  0.25500000920E-02 0. -1.
    10030    2    1    2    0    0  0.00000000000E+00  0.00000000000E+00  0.19865516474E+04  0.38322957874E+04  0.32772097209E+04 0.  0.
        2    1    3    3  502    0  0.24961864917E+03  0.91005621456E+03  0.25597679832E+04  0.27281722657E+04  0.25500000920E-02 0.  1.
       -2    1    3    3    0  502 -0.24961864917E+03 -0.91005621456E+03 -0.57321633577E+03  0.11041235217E+04  0.25500000920E-02 0. -1.
</event>
<event>
 5   0  0.2037109E-06  0.3396552E+04  0.7818609E-02  0.8138753E-01
        1   -1    0    0  501    0  0.00000000000E+00  0.00000000000E+00  0.30214921804E+04  0.30214921805E+04  0.50400001928E-02 0.  1.
       -1   -1    0    0    0  501  0.00000000000E+00  0.00000000000E+00 -0.95454229454E+03  0.95454229455E+03  0.50400001928E-02 0. -1.
    10030    2    1    2    0    0  0.00000000000E+00  0.00000000000E+00  0.20669498859E+04  0.39760344750E+04  0.33965524161E+04 0.  0.
        2    1    3    3  502    0  0.16411314166E+04 -0.12172161932E+03  0.15245919039E+04  0.22433254228E+04  0.25500000920E-02 0.  1.
       -2    1    3    3    0  502 -0.16411314166E+04  0.12172161932E+03  0.54235798203E+03  0.17327090522E+04  0.25500000920E-02 0. -1.
</event>
<event>
 5   0  0.2097842E-06  0.3476666E+04  0.7818609E-02  0.8119342E-01
       -1   -1    0    0    0  501  0.00000000000E+00  0.00000000000E+00  0.14482757937E+04  0.14482757937E+04  0.50400001928E-02 0.  1.
        1   -1    0    0  501    0  0.00000000000E+00  0.00000000000E+00 -0.20864825731E+04  0.20864825731E+04  0.50400001928E-02 0. -1.
    10030    2    1    2    0    0  0.00000000000E+00  0.00000000000E+00 -0.63820677941E+03  0.35347583669E+04  0.34766663370E+04 0.  0.
        4    1    3    3  502    0 -0.52343227919E+03 -0.49454882852E+02  0.13654990827E+04  0.14632212731E+04  0.12699999809E+01 0.  1.
       -4    1    3    3    0  502  0.52343227919E+03  0.49454882852E+02 -0.20037058621E+04  0.20715370938E+04  0.12699999809E+01 0. -1.
</event>
<event>
 5   0  0.5622811E-06  0.3339122E+04  0.7818609E-02  0.8153012E-01
        2   -1    0    0  501    0  0.00000000000E+00  0.00000000000E+00  0.19049905552E+04  0.19049905552E+04  0.25500000920E-02 0.  1.
       -2   -1    0    0    0  501  0.00000000000E+00  0.00000000000E+00 -0.14632267985E+04  0.14632267985E+04  0.25500000920E-02 0. -1.
    10030    2    1    2    0    0  0.00000000000E+00  0.00000000000E+00  0.44176375669E+03  0.33682173538E+04  0.33391215799E+04 0.  0.
        1    1    3    3  502    0  0.29202887683E+03 -0.87836682147E+02 -0.14348953302E+04  0.14669426561E+04  0.50400001928E-02 0. -1.
       -1    1    3    3    0  502 -0.29202887683E+03  0.87836682147E+02  0.18766590869E+04  0.19012746977E+04  0.50400001928E-02 0.  1.
</event>
<event>
 5   0  0.5637538E-06  0.2959689E+04  0.7818609E-02  0.8255336E-01
       -2   -1    0    0    0  501  0.00000000000E+00  0.00000000000E+00  0.13684324210E+04  0.13684324210E+04  0.25500000920E-02 0. -1.
        2   -1    0    0  501    0  0.00000000000E+00  0.00000000000E+00 -0.16003275644E+04  0.16003275644E+04  0.25500000920E-02 0.  1.
    10030    2    1    2    0    0  0.00000000000E+00  0.00000000000E+00 -0.23189514339E+03  0.29687599854E+04  0.29596892562E+04 0.  0.
        2    1    3    3  502    0  0.10124353420E+04  0.16772255302E+03  0.95352078129E+03  0.14008419100E+04  0.25500000920E-02 0. -1.
       -2    1    3    3    0  502 -0.10124353420E+04 -0.16772255302E+03 -0.11854159247E+04  0.15679180754E+04  0.25500000920E-02 0.  1.
</event>
<event>
 5   0  0.1925906E-06  0.1764953E+04  0.7818609E-02  0.8725163E-01
        1   -1    0    0  501    0  0.00000000000E+00  0.00000000000E+00  0.13899874399E+04  0.13899874400E+04  0.50400001928E-02 0.  1.
       -1   -1    0    0    0  501  0.00000000000E+00  0.00000000000E+00 -0.56026723827E+03  0.56026723829E+03  0.50400001928E-02 0. -1.
    10030    2    1    2    0    0  0.00000000000E+00  0.00000000000E+00  0.82972020168E+03  0.19502546783E+04  0.17649526047E+04 0.  0.
        1    1    3    3  502    0  0.63340223391E+03 -0.44862964478E+03 -0.49100741585E+02  0.77773892210E+03  0.50400001928E-02 0.  1.
       -1    1    3    3    0  502 -0.63340223391E+03  0.44862964478E+03  0.87882094326E+03  0.11725157562E+04  0.50400001928E-02 0. -1.
</event>
<event>
 5   0  0.2037109E-06  0.3172941E+04  0.7818609E-02  0.8196000E-01
       -1   -1    0    0    0  501  0.00000000000E+00  0.00000000000E+00  0.13743916706E+04  0.13743916706E+04  0.50400001928E-02 0. -1.
        1   -1    0    0  501    0  0.00000000000E+00  0.00000000000E+00 -0.18312747944E+04  0.18312747944E+04  0.50400001928E-02 0.  1.
    10030    2    1    2    0    0  0.00000000000E+00  0.00000000000E+00 -0.45688312383E+03  0.32056664650E+04  0.31729411113E+04 0.  0.
        2    1    3    3  502    0  0.75092054230E+03  0.80840697482E+03 -0.13801485768E+04  0.17669786620E+04  0.25500000920E-02 0.  1.
       -2    1    3    3    0  502 -0.75092054230E+03 -0.80840697482E+03  0.92326545299E+03  0.14386878030E+04  0.25500000920E-02 0. -1.
</event>
<event>
 5   0  0.5622811E-06  0.3127302E+04  0.7818609E-02  0.8208285E-01
        2   -1    0    0  501    0  0.00000000000E+00  0.00000000000E+00  0.21209879579E+04  0.21209879579E+04  0.25500000920E-02 0.  1.
       -2   -1    0    0    0  501  0.00000000000E+00  0.00000000000E+00 -0.11527670396E+04  0.11527670396E+04  0.25500000920E-02 0. -1.
    10030    2    1    2    0    0  0.00000000000E+00  0.00000000000E+00  0.96822091826E+03  0.32737549975E+04  0.31273023578E+04 0.  0.
        1    1    3    3  502    0 -0.79120344743E+03 -0.28077016332E+02 -0.92744769902E+03  0.12194057768E+04  0.50400001928E-02 0. -1.
       -1    1    3    3    0  502  0.79120344743E+03  0.28077016332E+02  0.18956686173E+04  0.20543492207E+04  0.50400001928E-02 0.  1.
</event>
<event>
 5   0  0.2037109E-06  0.3244280E+04  0.7818609E-02  0.8177220E-01
        1   -1    0    0  501    0  0.00000000000E+00  0.00000000000E+00  0.15395599080E+04  0.15395599081E+04  0.50400001928E-02 0. -1.
       -1   -1    0    0    0  501  0.00000000000E+00  0.00000000000E+00 -0.17091500481E+04  0.17091500481E+04  0.50400001928E-02 0.  1.
    10030    2    1    2    0    0  0.00000000000E+00  0.00000000000E+00 -0.16959014001E+03  0.32487099561E+04  0.32442804385E+04 0.  0.
        2    1    3    3  502    0  0.28375921386E+03 -0.44889193012E+03 -0.16196355185E+04  0.17044771835E+04  0.25500000920E-02 0.  1.
       -2    1    3    3    0  502 -0.28375921386E+03  0.44889193012E+03  0.14500453785E+04  0.15442327726E+04  0.25500000920E-02 0. -1.
</event>
<event>
 5   0  0.2730981E-06  0.2455729E+04  0.7818609E-02  0.8418929E-01
       -1   -1    0    0    0  501  0.00000000000E+00  0.00000000000E+00  0.17771079546E+04  0.17771079546E+04  0.50400001928E-02 0.  1.
        1   -1    0    0  501    0  0.00000000000E+00  0.00000000000E+00 -0.84837341071E+03  0.84837341073E+03  0.50400001928E-02 0. -1.
    10030    2    1    2    0    0  0.00000000000E+00  0.00000000000E+00  0.92873454388E+03  0.26254813653E+04  0.24557289237E+04 0.  0.
        3    1    3    3  502    0 -0.11993335985E+04  0.16849589426E+03  0.68047651163E+03  0.13891868989E+04  0.10100000352E+00 0. -1.
       -3    1    3    3    0  502  0.11993335985E+04 -0.16849589426E+03  0.24825803225E+03  0.12362944664E+04  0.10100000352E+00 0.  1.
</event>
<event>
 5   0  0.5300268E-06  0.3326342E+04  0.7818609E-02  0.8156225E-01
        2   -1    0    0  501    0  0.00000000000E+00  0.00000000000E+00  0.95988374711E+03  0.95988374712E+03  0.25500000920E-02 0. -1.
       -2   -1    0    0    0  501  0.00000000000E+00  0.00000000000E+00 -0.28817425208E+04  0.28817425208E+04  0.25500000920E-02 0.  1.
    10030    2    1    2    0    0  0.00000000000E+00  0.00000000000E+00 -0.19218587737E+04  0.38416262679E+04  0.33263420203E+04 0.  0.
        4    1    3    3  502    0  0.28166070419E+03  0.40937822196E+03  0.87214735570E+03  0.10037758235E+04  0.12699999809E+01 0. -1.
       -4    1    3    3    0  502 -0.28166070419E+03 -0.40937822196E+03 -0.27940061294E+04  0.28378504444E+04  0.12699999809E+01 0.  1.
</event>
<event>
 5   0  0.5300268E-06  0.3511189E+04  0.7818609E-02  0.8111143E-01
       -2   -1    0    0    0  501  0.00000000000E+00  0.00000000000E+00  0.12134279115E+04  0.12134279115E+04  0.25500000920E-02 0. -1.
        2   -1    0    0  501    0  0.00000000000E+00  0.00000000000E+00 -0.25400042758E+04  0.25400042758E+04  0.25500000920E-02 0.  1.
    10030    2    1    2    0    0  0.00000000000E+00  0.00000000000E+00 -0.13265763643E+04  0.37534321873E+04  0.35111890200E+04 0.  0.
        4    1    3    3  502    0 -0.14970546410E+04 -0.34665192349E+03 -0.15708428830E+04  0.21974733514E+04  0.12699999809E+01 0.  1.
       -4    1    3    3    0  502  0.14970546410E+04  0.34665192349E+03  0.24426651862E+03  0.15559588359E+04  0.12699999809E+01 0. -1.
</event>
<event>
 5   0  0.5300268E-06  0.3521410E+04  0.7818609E-02  0.8108735E-01
        2   -1    0    0  501    0  0.00000000000E+00  0.00000000000E+00  0.25850502267E+04  0.25850502267E+04  0.25500000920E-02 0. -1.
       -2   -1    0    0    0  501  0.00000000000E+00  0.00000000000E+00 -0.11992345363E+04  0.11992345363E+04  0.25500000920E-02 0.  1.
    10030    2    1    2    0    0  0.00000000000E+00  0.00000000000E+00  0.13858156905E+04  0.37842847630E+04  0.35214096665E+04 0.  0.
        4    1    3    3  502    0  0.12919247897E+04  0.94018909840E+03 -0.10193749295E+03  0.16010677901E+04  0.12699999809E+01 0.  1.
       -4    1    3    3    0  502 -0.12919247897E+04 -0.94018909840E+03  0.14877531834E+04  0.21832169729E+04  0.12699999809E+01 0. -1.
</event>
<event>
 5   0  0.5855568E-06  0.3262168E+04  0.7818609E-02  0.8172589E-01
        2   -1    0    0  501    0  0.00000000000E+00  0.00000000000E+00  0.19125582282E+04  0.19125582282E+04  0.25500000920E-02 0. -1.
       -2   -1    0    0    0  501  0.00000000000E+00  0.00000000000E+00 -0.13910343828E+04  0.13910343828E+04  0.25500000920E-02 0.  1.
    10030    2    1    2    0    0  0.00000000000E+00  0.00000000000E+00  0.52152384545E+03  0.33035926110E+04  0.32621675337E+04 0.  0.
        3    1    3    3  502    0 -0.52844741586E+03 -0.13937934231E+04 -0.40985371031E+03  0.15459291224E+04  0.10100000352E+00 0. -1.
       -3    1    3    3    0  502  0.52844741586E+03  0.13937934231E+04  0.93137755576E+03  0.17576634886E+04  0.10100000352E+00 0.  1.
</event>
<event>
 5   0  0.1925906E-06  0.3170603E+04  0.7818609E-02  0.8196624E-01
       -1   -1    0    0    0  501  0.00000000000E+00  0.00000000000E+00  0.21660587916E+04  0.21660587916E+04  0.50400001928E-02 0.  1.
        1   -1    0    0  501    0  0.00000000000E+00  0.00000000000E+00 -0.11602551995E+04  0.11602551995E+04  0.50400001928E-02 0. -1.
    10030    2    1    2    0    0  0.00000000000E+00  0.00000000000E+00  0.10058035921E+04  0.33263139911E+04  0.31706030817E+04 0.  0.
        1    1    3    3  502    0  0.64394273955E+02  0.15839137687E+04  0.51954024806E+03  0.16681880945E+04  0.50400001928E-02 0.  1.
       -1    1    3    3    0  502 -0.64394273955E+02 -0.15839137687E+04  0.48626334405E+03  0.16581258966E+04  0.50400001928E-02 0. -1.
</event>
<event>
 5   0  0.5637538E-06  0.1884283E+04  0.7818609E-02  0.8662720E-01
       -2   -1    0    0    0  501  0.00000000000E+00  0.00000000000E+00  0.89172781823E+03  0.89172781823E+03  0.25500000920E-02 0.  1.
        2   -1    0    0  501    0  0.00000000000E+00  0.00000000000E+00 -0.99540499733E+03  0.99540499734E+03  0.25500000920E-02 0. -1.
    10030    2    1    2    0    0  0.00000000000E+00  0.00000000000E+00 -0.10367717911E+03  0.18871328156E+04  0.18842827033E+04 0.  0.
        2    1    3    3  502    0 -0.38579742418E+02 -0.23900838576E+03 -0.96371945506E+03  0.99366422551E+03  0.25500000920E-02 0. -1.
       -2    1    3    3    0  502  0.38579742418E+02  0.23900838576E+03  0.86004227595E+03  0.89346859006E+03  0.25500000920E-02 0.  1.
</event>
<event>
 5   0  0.5622811E-06  0.3281761E+04  0.7818609E-02  0.8167552E-01
       -2   -1    0    0    0  501  0.00000000000E+00  0.00000000000E+00  0.15136388572E+04  0.15136388572E+04  0.25500000920E-02 0. -1.
        2   -1    0    0  501    0  0.00000000000E+00  0.00000000000E+00 -0.17788183665E+04  0.17788183665E+04  0.25500000920E-02 0.  1.
    10030    2    1    2    0    0  0.00000000000E+00  0.00000000000E+00 -0.26517950932E+03  0.32924572238E+04  0.32817608685E+04 0.  0.
        1    1    3    3  502    0  0.12866903077E+04  0.43766015625E+03  0.78984718522E+03  0.15719341387E+04  0.50400001928E-02 0. -1.
       -1    1    3    3    0  502 -0.12866903077E+04 -0.43766015625E+03 -0.10550266945E+04  0.17205230851E+04  0.50400001928E-02 0.  1.
</event>
<event>
 5   0  0.2037109E-06  0.3338019E+04  0.7818609E-02  0.8153288E-01
        1   -1    0    0  501    0  0.00000000000E+00  0.00000000000E+00  0.13592992960E+04  0.13592992960E+04  0.50400001928E-02 0. -1.
       -1   -1    0    0    0  501  0.00000000000E+00  0.00000000000E+00 -0.20492857855E+04  0.20492857855E+04  0.50400001928E-02 0.  1.
    10030    2    1    2    0    0  0.00000000000E+00  0.00000000000E+00 -0.68998648956E+03  0.34085850815E+04  0.33380190087E+04 0.  0.
        2    1    3    3  502    0  0.12896609511E+04 -0.44012950181E+03 -0.13290318912E+04  0.19034876188E+04  0.25500000920E-02 0.  1.
       -2    1    3    3    0  502 -0.12896609511E+04  0.44012950181E+03  0.63904540164E+03  0.15050974628E+04  0.25500000920E-02 0. -1.
</event>
<event>
 5   0  0.2037109E-06  0.3131307E+04  0.7818609E-02  0.8207198E-01
        1   -1    0    0  501    0  0.00000000000E+00  0.00000000000E+00  0.21664737492E+04  0.21664737492E+04  0.50400001928E-02 0. -1.
       -1   -1    0    0    0  501  0.00000000000E+00  0.00000000000E+00 -0.11314562025E+04  0.11314562025E+04  0.50400001928E-02 0.  1.
    10030    2    1    2    0    0  0.00000000000E+00  0.00000000000E+00  0.10350175466E+04  0.32979299517E+04  0.31313065395E+04 0.  0.
        2    1    3    3  502    0  0.13887896607E+03 -0.13470277516E+04 -0.31011695288E+03  0.13892241199E+04  0.25500000920E-02 0.  1.
       -2    1    3    3    0  502 -0.13887896607E+03  0.13470277516E+04  0.13451344995E+04  0.19087058318E+04  0.25500000920E-02 0. -1.
</event>
<event>
 5   0  0.5300268E-06  0.2045757E+04  0.7818609E-02  0.8585522E-01
        2   -1    0    0  501    0  0.00000000000E+00  0.00000000000E+00  0.14212201875E+04  0.14212201875E+04  0.25500000920E-02 0.  1.
       -2   -1    0    0    0  501  0.00000000000E+00  0.00000000000E+00 -0.73618466907E+03  0.73618466907E+03  0.25500000920E-02 0. -1.
    10030    2    1    2    0    0  0.00000000000E+00  0.00000000000E+00  0.68503551845E+03  0.21574048566E+04  0.20457570857E+04 0.  0.
        4    1    3    3  502    0 -0.45106430114E+03  0.35746125762E+03 -0.54923233810E+03  0.79554718816E+03  0.12699999809E+01 0. -1.
       -4    1    3    3    0  502  0.45106430114E+03 -0.35746125762E+03  0.12342678566E+04  0.13618576684E+04  0.12699999809E+01 0.  1.
</event>
<event>
 5   0  0.5300268E-06  0.3152570E+04  0.7818609E-02  0.8201457E-01
       -2   -1    0    0    0  501  0.00000000000E+00  0.00000000000E+00  0.12479086590E+04  0.12479086590E+04  0.25500000920E-02 0.  1.
        2   -1    0    0  501    0  0.00000000000E+00  0.00000000000E+00 -0.19910705379E+04  0.19910705379E+04  0.25500000920E-02 0. -1.
    10030    2    1    2    0    0  0.00000000000E+00  0.00000000000E+00 -0.74316187891E+03  0.32389791969E+04  0.31525698501E+04 0.  0.
        4    1    3    3  502    0 -0.99382576554E+03 -0.34394870613E+02 -0.16281321408E+04  0.19077967764E+04  0.12699999809E+01 0. -1.
       -4    1    3    3    0  502  0.99382576554E+03  0.34394870613E+02  0.88497026188E+03  0.13311824205E+04  0.12699999809E+01 0.  1.
</event>
<event>
 5   0  0.5300268E-06  0.3340875E+04  0.7818609E-02  0.8152572E-01
        2   -1    0    0  501    0  0.00000000000E+00  0.00000000000E+00  0.19545039884E+04  0.19545039884E+04  0.25500000920E-02 0.  1.
       -2   -1    0    0    0  501  0.00000000000E+00  0.00000000000E+00 -0.14276567277E+04  0.14276567277E+04  0.25500000920E-02 0. -1.
    10030    2    1    2    0    0  0.00000000000E+00  0.00000000000E+00  0.52684726071E+03  0.33821607162E+04  0.33408745971E+04 0.  0.
        4    1    3    3  502    0 -0.64166351381E+03  0.92844368740E+03 -0.98330625919E+03  0.14968742626E+04  0.12699999809E+01 0. -1.
       -4    1    3    3    0  502  0.64166351381E+03 -0.92844368740E+03  0.15101535199E+04  0.18852864536E+04  0.12699999809E+01 0.  1.
</event>
<event>
 5   0  0.2730981E-06  0.3275574E+04  0.7818609E-02  0.8169139E-01
        1   -1    0    0  501    0  0.00000000000E+00  0.00000000000E+00  0.18659469878E+04  0.18659469878E+04  0.50400001928E-02 0.  1.
       -1   -1    0    0    0  501  0.00000000000E+00  0.00000000000E+00 -0.14375252664E+04  0.14375252664E+04  0.50400001928E-02 0. -1.
    10030    2    1    2    0    0  0.00000000000E+00  0.00000000000E+00  0.42842172133E+03  0.33034722542E+04  0.32755738067E+04 0.  0.
        3    1    3    3  502    0  0.91282149097E+03 -0.84142605193E+03 -0.86311252838E+03  0.15120198815E+04  0.10100000352E+00 0. -1.
       -3    1    3    3    0  502 -0.91282149097E+03  0.84142605193E+03  0.12915342497E+04  0.17914523727E+04  0.10100000352E+00 0.  1.
</event>
<event>
 5   0  0.1999849E-06  0.3321933E+04  0.7818609E-02  0.8157337E-01
       -1   -1    0    0    0  501  0.00000000000E+00  0.00000000000E+00  0.16616740817E+04  0.16616740817E+04  0.50400001928E-02 0.  1.
        1   -1    0    0  501    0  0.00000000000E+00  0.00000000000E+00 -0.16602589313E+04  0.16602589313E+04  0.50400001928E-02 0. -1.
    10030    2    1    2    0    0  0.00000000000E+00  0.00000000000E+00  0.14151504586E+01  0.33219330130E+04  0.33219327115E+04 0.  0.
        5    1    3    3  502    0  0.57962802530E+03 -0.15531818487E+04 -0.10149146611E+03  0.16609229695E+04  0.46999998093E+01 0.  1.
       -5    1    3    3    0  502 -0.57962802530E+03  0.15531818487E+04  0.10290661657E+03  0.16610100435E+04  0.46999998093E+01 0. -1.
</event>
<event>
 5   0  0.5637538E-06  0.3253060E+04  0.7818609E-02  0.8174943E-01
       -2   -1    0    0    0  501  0.00000000000E+00  0.00000000000E+00  0.12246358801E+04  0.12246358801E+04  0.25500000920E-02 0. -1.
        2   -1    0    0  501    0  0.00000000000E+00  0.00000000000E+00 -0.21603158791E+04  0.21603158791E+04  0.25500000920E-02 0.  1.
    10030    2    1    2    0    0  0.00000000000E+00  0.00000000000E+00 -0.93567999900E+03  0.33849517592E+04  0.32530603056E+04 0.  0.
        2    1    3    3  502    0 -0.21069749461E+03  0.80341658525E+03 -0.19230131509E+04  0.20947198434E+04  0.25500000920E-02 0.  1.
       -2    1    3    3    0  502  0.21069749461E+03 -0.80341658525E+03  0.98733315193E+03  0.12902319158E+04  0.25500000920E-02 0. -1.
</event>
<event>
 5   0  0.2037109E-06  0.1721081E+04  0.7818609E-02  0.8749432E-01
       -1   -1    0    0    0  501  0.00000000000E+00  0.00000000000E+00  0.68205340006E+03  0.68205340008E+03  0.50400001928E-02 0. -1.
        1   -1    0    0  501    0  0.00000000000E+00  0.00000000000E+00 -0.10857361373E+04  0.10857361373E+04  0.50400001928E-02 0.  1.
    10030    2    1    2    0    0  0.00000000000E+00  0.00000000000E+00 -0.40368273720E+03  0.17677895373E+04  0.17210810835E+04 0.  0.
        2    1    3    3  502    0  0.35152963293E+03 -0.60321564571E+03 -0.71857277167E+03  0.10018927219E+04  0.25500000920E-02 0.  1.
       -2    1    3    3    0  502 -0.35152963293E+03  0.60321564571E+03  0.31489003447E+03  0.76589681542E+03  0.25500000920E-02 0. -1.
</event>
<event>
 5   0  0.2037109E-06  0.3278431E+04  0.7818609E-02  0.8168405E-01
       -1   -1    0    0    0  501  0.00000000000E+00  0.00000000000E+00  0.18704306458E+04  0.18704306458E+04  0.50400001928E-02 0. -1.
        1   -1    0    0  501    0  0.00000000000E+00  0.00000000000E+00 -0.14365821061E+04  0.14365821061E+04  0.50400001928E-02 0.  1.
    10030    2    1    2    0    0  0.00000000000E+00  0.00000000000E+00  0.43384853973E+03  0.33070127520E+04  0.32784308421E+04 0.  0.
        2    1    3    3  502    0  0.53753996340E+03 -0.14375401934E+04 -0.36390488028E+03  0.15773071299E+04  0.25500000920E-02 0.  1.
       -2    1    3    3    0  502 -0.53753996340E+03  0.14375401934E+04  0.79775342001E+03  0.17297056221E+04  0.25500000920E-02 0. -1.
</event>
<event>
 5   0  0.1925906E-06  0.3208781E+04  0.7818609E-02  0.8186502E-01
        1   -1    0    0  501    0  0.00000000000E+00  0.00000000000E+00  0.21617883804E+04  0.21617883804E+04  0.50400001928E-02 0.  1.
       -1   -1    0    0    0  501  0.00000000000E+00  0.00000000000E+00 -0.11907129472E+04  0.11907129472E+04  0.50400001928E-02 0. -1.
    10030    2    1    2    0    0  0.00000000000E+00  0.00000000000E+00  0.97107543324E+03  0.33525013276E+04  0.32087813348E+04 0.  0.
        1    1    3    3  502    0 -0.10232729013E+04 -0.70293115555E+02 -0.80342985594E+03  0.13028922005E+04  0.50400001928E-02 0. -1.
       -1    1    3    3    0  502  0.10232729013E+04  0.70293115555E+02  0.17745052892E+04  0.20496091271E+04  0.50400001928E-02 0.  1.
</event>
<event>
 5   0  0.5637538E-06  0.1882721E+04  0.7818609E-02  0.8663506E-01
       -2   -1    0    0    0  501  0.00000000000E+00  0.00000000000E+00  0.51218427566E+03  0.51218427566E+03  0.25500000920E-02 0. -1.
        2   -1    0    0  501    0  0.00000000000E+00  0.00000000000E+00 -0.17301570720E+04  0.17301570720E+04  0.25500000920E-02 0.  1.
    10030    2    1    2    0    0  0.00000000000E+00  0.00000000000E+00 -0.12179727964E+04  0.22423413477E+04  0.18827206343E+04 0.  0.
        2    1    3    3  502    0  0.23156237238E+03 -0.80806062367E+03 -0.10427842884E+03  0.84702839064E+03  0.25500000920E-02 0. -1.
       -2    1    3    3    0  502 -0.23156237238E+03  0.80806062367E+03 -0.11136943676E+04  0.13953129571E+04  0.25500000920E-02 0.  1.
</event>
<event>
 5   0  0.5300268E-06  0.3118217E+04  0.7818609E-02  0.8210756E-01
       -2   -1    0    0    0  501  0.00000000000E+00  0.00000000000E+00  0.12575756441E+04  0.12575756441E+04  0.25500000920E-02 0. -1.
        2   -1    0    0  501    0  0.00000000000E+00  0.00000000000E+00 -0.19329405035E+04  0.19329405035E+04  0.25500000920E-02 0.  1.
    10030    2    1    2    0    0  0.00000000000E+00  0.00000000000E+00 -0.67536485940E+03  0.31905161476E+04  0.31182167331E+04 0.  0.
        4    1    3    3  502    0  0.41914772506E+03  0.81310675346E+02 -0.18719571435E+04  0.19200316146E+04  0.12699999809E+01 0.  1.
       -4    1    3    3    0  502 -0.41914772506E+03 -0.81310675346E+02  0.11965922841E+04  0.12704845330E+04  0.12699999809E+01 0. -1.
</event>
<event>
 5   0  0.1925906E-06  0.3176026E+04  0.7818609E-02  0.8195178E-01
       -1   -1    0    0    0  501  0.00000000000E+00  0.00000000000E+00  0.13762887284E+04  0.13762887284E+04  0.50400001928E-02 0. -1.
        1   -1    0    0  501    0  0.00000000000E+00  0.00000000000E+00 -0.18323078693E+04  0.18323078694E+04  0.50400001928E-02 0.  1.
    10030    2    1    2    0    0  0.00000000000E+00  0.00000000000E+00 -0.45601914091E+03  0.32085965978E+04  0.31760256092E+04 0.  0.
        1    1    3    3  502    0 -0.14851514513E+04  0.52952687961E+03 -0.37097738047E+02  0.15771651124E+04  0.50400001928E-02 0. -1.
       -1    1    3    3    0  502  0.14851514513E+04 -0.52952687961E+03 -0.41892140286E+03  0.16314314854E+04  0.50400001928E-02 0.  1.
</event>
<event>
 5   0  0.5622811E-06  0.3413343E+04  0.7818609E-02  0.8134639E-01
        2   -1    0    0  501    0  0.00000000000E+00  0.00000000000E+00  0.15501115625E+04  0.15501115625E+04  0.25500000920E-02 0. -1.
       -2   -1    0    0    0  501  0.00000000000E+00  0.00000000000E+00 -0.18790437030E+04  0.18790437030E+04  0.25500000920E-02 0.  1.
    10030    2    1    2    0    0  0.00000000000E+00  0.00000000000E+00 -0.32893214057E+03  0.34291552655E+04  0.34133428603E+04 0.  0.
        1    1    3    3  502    0 -0.15882027338E+02 -0.76466166501E+03  0.13683041410E+04  0.15675509316E+04  0.50400001928E-02 0. -1.
       -1    1    3    3    0  502  0.15882027338E+02  0.76466166501E+03 -0.16972362816E+04  0.18616043340E+04  0.50400001928E-02 0.  1.
</event>
<event>
 5   0  0.2037109E-06  0.3314769E+04  0.7818609E-02  0.8159148E-01
        1   -1    0    0  501    0  0.00000000000E+00  0.00000000000E+00  0.17668045943E+04  0.17668045943E+04  0.50400001928E-02 0. -1.
       -1   -1    0    0    0  501  0.00000000000E+00  0.00000000000E+00 -0.15547405232E+04  0.15547405232E+04  0.50400001928E-02 0.  1.
    10030    2    1    2    0    0  0.00000000000E+00  0.00000000000E+00  0.21206407105E+03  0.33215451175E+04  0.33147685888E+04 0.  0.
        2    1    3    3  502    0  0.52002355031E+03  0.92760517353E+03 -0.11678051265E+04  0.15794444163E+04  0.25500000920E-02 0.  1.
       -2    1    3    3    0  502 -0.52002355031E+03 -0.92760517353E+03  0.13798691975E+04  0.17421007012E+04  0.25500000920E-02 0. -1.
</event>
<event>
 5   0  0.1925906E-06  0.3306430E+04  0.7818609E-02  0.8161261E-01
        1   -1    0    0  501    0  0.00000000000E+00  0.00000000000E+00  0.16248394307E+04  0.16248394307E+04  0.50400001928E-02 0.  1.
       -1   -1    0    0    0  501  0.00000000000E+00  0.00000000000E+00 -0.16820864568E+04  0.16820864568E+04  0.50400001928E-02 0. -1.
    10030    2    1    2    0    0  0.00000000000E+00  0.00000000000E+00 -0.57247026111E+02  0.33069258875E+04  0.33064303415E+04 0.  0.
        1    1    3    3  502    0 -0.24470372916E+03 -0.68248666585E+03 -0.15145959768E+04  0.16791869869E+04  0.50400001928E-02 0. -1.
       -1    1    3    3    0  502  0.24470372916E+03  0.68248666585E+03  0.14573489507E+04  0.16277389005E+04  0.50400001928E-02 0.  1.
</event>
<event>
 5   0  0.1925906E-06  0.2208780E+04  0.7818609E-02  0.8514782E-01
       -1   -1    0    0    0  501  0.00000000000E+00  0.00000000000E+00  0.65324124558E+03  0.65324124560E+03  0.50400001928E-02 0. -1.
        1   -1    0    0  501    0  0.00000000000E+00  0.00000000000E+00 -0.18671168597E+04  0.18671168597E+04  0.50400001928E-02 0.  1.
    10030    2    1    2    0    0  0.00000000000E+00  0.00000000000E+00 -0.12138756142E+04  0.25203581053E+04  0.22087804265E+04 0.  0.
        1    1    3    3  502    0  0.46785092284E+03 -0.71898036526E+03  0.18678669666E+03  0.87789892454E+03  0.50400001928E-02 0. -1.
       -1    1    3    3    0  502 -0.46785092284E+03  0.71898036526E+03 -0.14006623108E+04  0.16424591808E+04  0.50400001928E-02 0.  1.
</event>
<event>
 5   0  0.1925906E-06  0.3309227E+04  0.7818609E-02  0.8160552E-01
        1   -1    0    0  501    0  0.00000000000E+00  0.00000000000E+00  0.22835346800E+04  0.22835346800E+04  0.50400001928E-02 0.  1.
       -1   -1    0    0    0  501  0.00000000000E+00  0.00000000000E+00 -0.11989071224E+04  0.11989071224E+04  0.50400001928E-02 0. -1.
    10030    2    1    2    0    0  0.00000000000E+00  0.00000000000E+00  0.10846275576E+04  0.34824418024E+04  0.33092270954E+04 0.  0.
        1    1    3    3  502    0 -0.43673812955E+03 -0.91603223352E+03  0.19175817804E+04  0.21695564365E+04  0.50400001928E-02 0.  1.
       -1    1    3    3    0  502  0.43673812955E+03  0.91603223352E+03 -0.83295422283E+03  0.13128853659E+04  0.50400001928E-02 0. -1.
</event>
<event>
 5   0  0.1925906E-06  0.3054726E+04  0.7818609E-02  0.8228274E-01
       -1   -1    0    0    0  501  0.00000000000E+00  0.00000000000E+00  0.12267547137E+04  0.12267547138E+04  0.50400001928E-02 0.  1.
        1   -1    0    0  501    0  0.00000000000E+00  0.00000000000E+00 -0.19016339162E+04  0.19016339162E+04  0.50400001928E-02 0. -1.
    10030    2    1    2    0    0  0.00000000000E+00  0.00000000000E+00 -0.67487920247E+03  0.31283886300E+04  0.30547264169E+04 0.  0.
        1    1    3    3  502    0 -0.37947704904E+03  0.45868055716E+03 -0.17779309811E+04  0.18749478014E+04  0.50400001928E-02 0. -1.
       -1    1    3    3    0  502  0.37947704904E+03 -0.45868055716E+03  0.11030517787E+04  0.12534408286E+04  0.50400001928E-02 0.  1.
</event>
<event>
 5   0  0.2037109E-06  0.3219429E+04  0.7818609E-02  0.8183705E-01
        1   -1    0    0  501    0  0.00000000000E+00  0.00000000000E+00  0.18219129067E+04  0.18219129067E+04  0.50400001928E-02 0.  1.
       -1   -1    0    0    0  501  0.00000000000E+00  0.00000000000E+00 -0.14222313003E+04  0.14222313003E+04  0.50400001928E-02 0. -1.
    10030    2    1    2    0    0  0.00000000000E+00  0.00000000000E+00  0.39968160646E+03  0.32441442070E+04  0.32194294913E+04 0.  0.
        2    1    3    3  502    0  0.86177858183E+03 -0.12878398927E+04 -0.23938102709E+03  0.15679595624E+04  0.25500000920E-02 0.  1.
       -2    1    3    3    0  502 -0.86177858183E+03  0.12878398927E+04  0.63906263355E+03  0.16761846446E+04  0.25500000920E-02 0. -1.
</event>
<event>
 5   0  0.2097842E-06  0.3303727E+04  0.7818609E-02  0.8161948E-01
        1   -1    0    0  501    0  0.00000000000E+00  0.00000000000E+00  0.16781145055E+04  0.16781145056E+04  0.50400001928E-02 0. -1.
       -1   -1    0    0    0  501  0.00000000000E+00  0.00000000000E+00 -0.16260229920E+04  0.16260229920E+04  0.50400001928E-02 0.  1.
    10030    2    1    2    0    0  0.00000000000E+00  0.00000000000E+00  0.52091513508E+02  0.33041374976E+04  0.33037268466E+04 0.  0.
        4    1    3    3  502    0  0.22323754114E+03 -0.14928162442E+04  0.69718491717E+03  0.16626496204E+04  0.12699999809E+01 0. -1.
       -4    1    3    3    0  502 -0.22323754114E+03  0.14928162442E+04 -0.64509340366E+03  0.16414878772E+04  0.12699999809E+01 0.  1.
</event>
<event>
 5   0  0.5637538E-06  0.3248849E+04  0.7818609E-02  0.8176034E-01
       -2   -1    0    0    0  501  0.00000000000E+00  0.00000000000E+00  0.17439423108E+04  0.17439423108E+04  0.25500000920E-02 0. -1.
        2   -1    0    0  501    0  0.00000000000E+00  0.00000000000E+00 -0.15130976465E+04  0.15130976465E+04  0.25500000920E-02 0.  1.
    10030    2    1    2    0    0  0.00000000000E+00  0.00000000000E+00  0.23084466434E+03  0.32570399573E+04  0.32488490307E+04 0.  0.
        2    1    3    3  502    0  0.15278850567E+04 -0.54598960700E+03  0.19447294564E+03  0.16341227384E+04  0.25500000920E-02 0.  1.
       -2    1    3    3    0  502 -0.15278850567E+04  0.54598960700E+03  0.36371718702E+02  0.16229172189E+04  0.25500000920E-02 0. -1.
</event>
<event>
 5   0  0.2037109E-06  0.3211486E+04  0.7818609E-02  0.8185790E-01
        1   -1    0    0  501    0  0.00000000000E+00  0.00000000000E+00  0.17985207903E+04  0.17985207904E+04  0.50400001928E-02 0. -1.
       -1   -1    0    0    0  501  0.00000000000E+00  0.00000000000E+00 -0.14336280975E+04  0.14336280975E+04  0.50400001928E-02 0.  1.
    10030    2    1    2    0    0  0.00000000000E+00  0.00000000000E+00  0.36489269282E+03  0.32321488879E+04  0.32114855996E+04 0.  0.
        2    1    3    3  502    0 -0.34766797027E+03  0.25856562199E+03 -0.13736847117E+04  0.14403953921E+04  0.25500000920E-02 0.  1.
       -2    1    3    3    0  502  0.34766797027E+03 -0.25856562199E+03  0.17385774045E+04  0.17917534958E+04  0.25500000920E-02 0. -1.
</event>
<event>
 5   0  0.1999849E-06  0.3321743E+04  0.7818609E-02  0.8157385E-01
        1   -1    0    0  501    0  0.00000000000E+00  0.00000000000E+00  0.16598240269E+04  0.16598240269E+04  0.50400001928E-02 0. -1.
       -1   -1    0    0    0  501  0.00000000000E+00  0.00000000000E+00 -0.16619194400E+04  0.16619194400E+04  0.50400001928E-02 0.  1.
    10030    2    1    2    0    0  0.00000000000E+00  0.00000000000E+00 -0.20954131257E+01  0.33217434670E+04  0.33217428061E+04 0.  0.
        5    1    3    3  502    0  0.60109255316E+02  0.10559886640E+04 -0.12815738480E+04  0.16616795115E+04  0.46999998093E+01 0.  1.
       -5    1    3    3    0  502 -0.60109255316E+02 -0.10559886640E+04  0.12794784349E+04  0.16600639555E+04  0.46999998093E+01 0. -1.
</event>
<event>
 5   0  0.5622811E-06  0.2302339E+04  0.7818609E-02  0.8477000E-01
       -2   -1    0    0    0  501  0.00000000000E+00  0.00000000000E+00  0.67290197400E+03  0.67290197400E+03  0.25500000920E-02 0. -1.
        2   -1    0    0  501    0  0.00000000000E+00  0.00000000000E+00 -0.19693669569E+04  0.19693669569E+04  0.25500000920E-02 0.  1.
    10030    2    1    2    0    0  0.00000000000E+00  0.00000000000E+00 -0.12964649829E+04  0.26422689309E+04  0.23023387352E+04 0.  0.
        1    1    3    3  502    0 -0.10274254484E+04 -0.51666894661E+03 -0.70721143215E+03  0.13500732803E+04  0.50400001928E-02 0. -1.
       -1    1    3    3    0  502  0.10274254484E+04  0.51666894661E+03 -0.58925355079E+03  0.12921956506E+04  0.50400001928E-02 0.  1.
</event>
<event>
 5   0  0.5622811E-06  0.2280749E+04  0.7818609E-02  0.8485550E-01
        2   -1    0    0  501    0  0.00000000000E+00  0.00000000000E+00  0.12379467680E+04  0.12379467680E+04  0.25500000920E-02 0.  1.
       -2   -1    0    0    0  501  0.00000000000E+00  0.00000000000E+00 -0.10504927337E+04  0.10504927337E+04  0.25500000920E-02 0. -1.
    10030    2    1    2    0    0  0.00000000000E+00  0.00000000000E+00  0.18745403428E+03  0.22884395018E+04  0.22807490739E+04 0.  0.
        1    1    3    3  502    0  0.66835322613E+03  0.69388004406E+03  0.70593890573E+03  0.11943681547E+04  0.50400001928E-02 0.  1.
       -1    1    3    3    0  502 -0.66835322613E+03 -0.69388004406E+03 -0.51848487145E+03  0.10940713470E+04  0.50400001928E-02 0. -1.
</event>
<event>
 5   0  0.5637538E-06  0.3242945E+04  0.7818609E-02  0.8177567E-01
       -2   -1    0    0    0  501  0.00000000000E+00  0.00000000000E+00  0.23546487275E+04  0.23546487275E+04  0.25500000920E-02 0. -1.
        2   -1    0    0  501    0  0.00000000000E+00  0.00000000000E+00 -0.11165880813E+04  0.11165880813E+04  0.25500000920E-02 0.  1.
    10030    2    1    2    0    0  0.00000000000E+00  0.00000000000E+00  0.12380606461E+04  0.34712368088E+04  0.32429447759E+04 0.  0.
        2    1    3    3  502    0  0.14717463932E+04 -0.63933264953E+03  0.36939828944E+03  0.16465839726E+04  0.25500000920E-02 0.  1.
       -2    1    3    3    0  502 -0.14717463932E+04  0.63933264953E+03  0.86866235671E+03  0.18246528362E+04  0.25500000920E-02 0. -1.
</event>
<event>
 5   0  0.5755250E-06  0.3256407E+04  0.7818609E-02  0.8174077E-01
       -2   -1    0    0    0  501  0.00000000000E+00  0.00000000000E+00  0.24526533339E+04  0.24526533339E+04  0.25500000920E-02 0. -1.
        2   -1    0    0  501    0  0.00000000000E+00  0.00000000000E+00 -0.10808889596E+04  0.10808889596E+04  0.25500000920E-02 0.  1.
    10030    2    1    2    0    0  0.00000000000E+00  0.00000000000E+00  0.13717643744E+04  0.35335422935E+04  0.32564065534E+04 0.  0.
        5    1    3    3  502    0  0.30992705720E+03  0.59296932245E+03 -0.92481556132E+03  0.11414785634E+04  0.46999998093E+01 0.  1.
       -5    1    3    3    0  502 -0.30992705720E+03 -0.59296932245E+03  0.22965799357E+04  0.23920637302E+04  0.46999998093E+01 0. -1.
</event>
<event>
 5   0  0.2097842E-06  0.3355802E+04  0.7818609E-02  0.8148840E-01
       -1   -1    0    0    0  501  0.00000000000E+00  0.00000000000E+00  0.13512195953E+04  0.13512195953E+04  0.50400001928E-02 0.  1.
        1   -1    0    0  501    0  0.00000000000E+00  0.00000000000E+00 -0.20835640362E+04  0.20835640362E+04  0.50400001928E-02 0. -1.
    10030    2    1    2    0    0  0.00000000000E+00  0.00000000000E+00 -0.73234444092E+03  0.34347836315E+04  0.33558024696E+04 0.  0.
        4    1    3    3  502    0 -0.29953499593E+03 -0.16093220156E+04  0.10889742675E+02  0.16369968732E+04  0.12699999809E+01 0. -1.
       -4    1    3    3    0  502  0.29953499593E+03  0.16093220156E+04 -0.74323418360E+03  0.17977867583E+04  0.12699999809E+01 0.  1.
</event>
<event>
 5   0  0.5622811E-06  0.1852656E+04  0.7818609E-02  0.8678788E-01
        2   -1    0    0  501    0  0.00000000000E+00  0.00000000000E+00  0.76833497731E+03  0.76833497731E+03  0.25500000920E-02 0. -1.
       -2   -1    0    0    0  501  0.00000000000E+00  0.00000000000E+00 -0.11168094800E+04  0.11168094800E+04  0.25500000920E-02 0.  1.
    10030    2    1    2    0    0  0.00000000000E+00  0.00000000000E+00 -0.34847450274E+03  0.18851444574E+04  0.18526562407E+04 0.  0.
        1    1    3    3  502    0  0.17129230643E+03  0.23110325111E+03 -0.10702087853E+04  0.11081952044E+04  0.50400001928E-02 0.  1.
       -1    1    3    3    0  502 -0.17129230643E+03 -0.23110325111E+03  0.72173428259E+03  0.77694925292E+03  0.50400001928E-02 0. -1.
</event>
<event>
 5   0  0.1925906E-06  0.2762950E+04  0.7818609E-02  0.8314864E-01
       -1   -1    0    0    0  501  0.00000000000E+00  0.00000000000E+00  0.15965966553E+04  0.15965966553E+04  0.50400001928E-02 0. -1.
        1   -1    0    0  501    0  0.00000000000E+00  0.00000000000E+00 -0.11953386418E+04  0.11953386418E+04  0.50400001928E-02 0.  1.
    10030    2    1    2    0    0  0.00000000000E+00  0.00000000000E+00  0.40125801347E+03  0.27919352971E+04  0.27629503633E+04 0.  0.
        1    1    3    3  502    0  0.13496018588E+04 -0.29409543969E+03  0.17679400793E+03  0.13925420734E+04  0.50400001928E-02 0.  1.
       -1    1    3    3    0  502 -0.13496018588E+04  0.29409543969E+03  0.22446400554E+03  0.13993932237E+04  0.50400001928E-02 0. -1.
</event>
<event>
 5   0  0.2037109E-06  0.3429605E+04  0.7818609E-02  0.8130678E-01
        1   -1    0    0  501    0  0.00000000000E+00  0.00000000000E+00  0.33511187623E+04  0.33511187623E+04  0.50400001928E-02 0.  1.
       -1   -1    0    0    0  501  0.00000000000E+00  0.00000000000E+00 -0.87748255360E+03  0.87748255362E+03  0.50400001928E-02 0. -1.
    10030    2    1    2    0    0  0.00000000000E+00  0.00000000000E+00  0.24736362087E+04  0.42286013160E+04  0.34296053703E+04 0.  0.
        2    1    3    3  502    0 -0.10810367144E+04  0.12159573283E+03 -0.39756397368E+03  0.11582240773E+04  0.25500000920E-02 0. -1.
       -2    1    3    3    0  502  0.10810367144E+04 -0.12159573283E+03  0.28712001824E+04  0.30703772386E+04  0.25500000920E-02 0.  1.
</event>
<event>
 5   0  0.1925906E-06  0.3296520E+04  0.7818609E-02  0.8163781E-01
        1   -1    0    0  501    0  0.00000000000E+00  0.00000000000E+00  0.16642723557E+04  0.16642723557E+04  0.50400001928E-02 0. -1.
       -1   -1    0    0    0  501  0.00000000000E+00  0.00000000000E+00 -0.16324016420E+04  0.16324016420E+04  0.50400001928E-02 0.  1.
    10030    2    1    2    0    0  0.00000000000E+00  0.00000000000E+00  0.31870713744E+02  0.32966739977E+04  0.32965199385E+04 0.  0.
        1    1    3    3  502    0  0.10076228973E+04  0.65392564728E+03  0.11446325423E+04  0.16592487193E+04  0.50400001928E-02 0. -1.
       -1    1    3    3    0  502 -0.10076228973E+04 -0.65392564728E+03 -0.11127618286E+04  0.16374252785E+04  0.50400001928E-02 0.  1.
</event>
<event>
 5   0  0.2012610E-06  0.1762919E+04  0.7818609E-02  0.8726271E-01
        1   -1    0    0  501    0  0.00000000000E+00  0.00000000000E+00  0.90898298877E+03  0.90898298879E+03  0.50400001928E-02 0. -1.
       -1   -1    0    0    0  501  0.00000000000E+00  0.00000000000E+00 -0.85476974453E+03  0.85476974455E+03  0.50400001928E-02 0.  1.
    10030    2    1    2    0    0  0.00000000000E+00  0.00000000000E+00  0.54213244244E+02  0.17637527333E+04  0.17629193483E+04 0.  0.
        5    1    3    3  502    0 -0.48263974651E+03 -0.19604177306E+03 -0.68426787841E+03  0.86001053547E+03  0.46999998093E+01 0.  1.
       -5    1    3    3    0  502  0.48263974651E+03  0.19604177306E+03  0.73848112265E+03  0.90374219787E+03  0.46999998093E+01 0. -1.
</event>
<event>
 5   0  0.2037109E-06  0.2354855E+04  0.7818609E-02  0.8456601E-01
       -1   -1    0    0    0  501  0.00000000000E+00  0.00000000000E+00  0.61838155838E+03  0.61838155840E+03  0.50400001928E-02 0. -1.
        1   -1    0    0  501    0  0.00000000000E+00  0.00000000000E+00 -0.22418768360E+04  0.22418768360E+04  0.50400001928E-02 0.  1.
    10030    2    1    2    0    0  0.00000000000E+00  0.00000000000E+00 -0.16234952776E+04  0.28602583944E+04  0.23548548079E+04 0.  0.
        2    1    3    3  502    0 -0.60715302194E+03  0.68317500701E+03 -0.17133313555E+04  0.19418720905E+04  0.25500000920E-02 0.  1.
       -2    1    3    3    0  502  0.60715302194E+03 -0.68317500701E+03  0.89836077863E+02  0.91838630388E+03  0.25500000920E-02 0. -1.
</event>
<event>
 5   0  0.5622811E-06  0.1684632E+04  0.7818609E-02  0.8770178E-01
        2   -1    0    0  501    0  0.00000000000E+00  0.00000000000E+00  0.85054040640E+03  0.85054040641E+03  0.25500000920E-02 0.  1.
       -2   -1    0    0    0  501  0.00000000000E+00  0.00000000000E+00 -0.83417101693E+03  0.83417101694E+03  0.25500000920E-02 0. -1.
    10030    2    1    2    0    0  0.00000000000E+00  0.00000000000E+00  0.16369389471E+02  0.16847114233E+04  0.16846318954E+04 0.  0.
        1    1    3    3  502    0  0.35003550051E+03 -0.51662006364E+03 -0.55759373788E+03  0.83685836216E+03  0.50400001928E-02 0. -1.
       -1    1    3    3    0  502 -0.35003550051E+03  0.51662006364E+03  0.57396312735E+03  0.84785306118E+03  0.50400001928E-02 0.  1.
</event>
<event>
 5   0  0.5855568E-06  0.3273570E+04  0.7818609E-02  0.8169653E-01
       -2   -1    0    0    0  501  0.00000000000E+00  0.00000000000E+00  0.11772299131E+04  0.11772299131E+04  0.25500000920E-02 0. -1.
        2   -1    0    0  501    0  0.00000000000E+00  0.00000000000E+00 -0.22757368525E+04  0.22757368525E+04  0.25500000920E-02 0.  1.
    10030    2    1    2    0    0  0.00000000000E+00  0.00000000000E+00 -0.10985069394E+04  0.34529667656E+04  0.32735702205E+04 0.  0.
        3    1    3    3  502    0 -0.12130204246E+04 -0.10943293812E+04 -0.44329897792E+03  0.16927756316E+04  0.10100000352E+00 0.  1.
       -3    1    3    3    0  502  0.12130204246E+04  0.10943293812E+04 -0.65520796151E+03  0.17601911340E+04  0.10100000352E+00 0. -1.
</event>
<event>
 5   0  0.1925906E-06  0.3172086E+04  0.7818609E-02  0.8196228E-01
       -1   -1    0    0    0  501  0.00000000000E+00  0.00000000000E+00  0.14051382016E+04  0.14051382016E+04  0.50400001928E-02 0.  1.
        1   -1    0    0  501    0  0.00000000000E+00  0.00000000000E+00 -0.17902381322E+04  0.17902381322E+04  0.50400001928E-02 0. -1.
    10030    2    1    2    0    0  0.00000000000E+00  0.00000000000E+00 -0.38509993054E+03  0.31953763338E+04  0.31720857425E+04 0.  0.
        1    1    3    3  502    0 -0.89223574016E+03 -0.12139038762E+03  0.11226826601E+04  0.14391791402E+04  0.50400001928E-02 0.  1.
       -1    1    3    3    0  502  0.89223574016E+03  0.12139038762E+03 -0.15077825906E+04  0.17561971936E+04  0.50400001928E-02 0. -1.
</event>
<event>
 5   0  0.2037109E-06  0.2228993E+04  0.7818609E-02  0.8506456E-01
       -1   -1    0    0    0  501  0.00000000000E+00  0.00000000000E+00  0.80090205313E+03  0.80090205315E+03  0.50400001928E-02 0. -1.
        1   -1    0    0  501    0  0.00000000000E+00  0.00000000000E+00 -0.15508797688E+04  0.15508797688E+04  0.50400001928E-02 0.  1.
    10030    2    1    2    0    0  0.00000000000E+00  0.00000000000E+00 -0.74997771563E+03  0.23517818219E+04  0.22289933073E+04 0.  0.
        2    1    3    3  502    0 -0.31431552767E+02 -0.82685115249E+03  0.41275353995E+03  0.92468170504E+03  0.25500000920E-02 0. -1.
       -2    1    3    3    0  502  0.31431552767E+02  0.82685115249E+03 -0.11627312556E+04  0.14271001169E+04  0.25500000920E-02 0.  1.
</event>
<event>
 5   0  0.1925906E-06  0.3279768E+04  0.7818609E-02  0.8168063E-01
       -1   -1    0    0    0  501  0.00000000000E+00  0.00000000000E+00  0.14587235637E+04  0.14587235637E+04  0.50400001928E-02 0. -1.
        1   -1    0    0  501    0  0.00000000000E+00  0.00000000000E+00 -0.18435423834E+04  0.18435423834E+04  0.50400001928E-02 0.  1.
    10030    2    1    2    0    0  0.00000000000E+00  0.00000000000E+00 -0.38481881971E+03  0.33022659470E+04  0.32797675011E+04 0.  0.
        1    1    3    3  502    0  0.72704699516E+03 -0.13936593193E+04  0.27805930765E+03  0.15963084320E+04  0.50400001928E-02 0. -1.
       -1    1    3    3    0  502 -0.72704699516E+03  0.13936593193E+04 -0.66287812736E+03  0.17059575151E+04  0.50400001928E-02 0.  1.
</event>
<event>
 5   0  0.2037109E-06  0.1667985E+04  0.7818609E-02  0.8779837E-01
        1   -1    0    0  501    0  0.00000000000E+00  0.00000000000E+00  0.15564285534E+04  0.15564285534E+04  0.50400001928E-02 0. -1.
       -1   -1    0    0    0  501  0.00000000000E+00  0.00000000000E+00 -0.44688436429E+03  0.44688436432E+03  0.50400001928E-02 0.  1.
    10030    2    1    2    0    0  0.00000000000E+00  0.00000000000E+00  0.11095441891E+04  0.20033129178E+04  0.16679851135E+04 0.  0.
        2    1    3    3  502    0  0.70259226064E+03  0.32994927820E+03  0.92112042070E+03  0.12045601854E+04  0.25500000920E-02 0.  1.
       -2    1    3    3    0  502 -0.70259226064E+03 -0.32994927820E+03  0.18842376844E+03  0.79875273234E+03  0.25500000920E-02 0. -1.
</event>
<event>
 5   0  0.2775892E-06  0.1621000E+04  0.7818609E-02  0.8807750E-01
       -1   -1    0    0    0  501  0.00000000000E+00  0.00000000000E+00  0.68958986444E+03  0.68958986446E+03  0.50400001928E-02 0. -1.
        1   -1    0    0  501    0  0.00000000000E+00  0.00000000000E+00 -0.95261008367E+03  0.95261008369E+03  0.50400001928E-02 0.  1.
    10030    2    1    2    0    0  0.00000000000E+00  0.00000000000E+00 -0.26302021923E+03  0.16421999481E+04  0.16210000105E+04 0.  0.
        3    1    3    3  502    0  0.38540401579E+03 -0.51941117082E+03 -0.62635093251E+03  0.90035533020E+03  0.10100000352E+00 0.  1.
       -3    1    3    3    0  502 -0.38540401579E+03  0.51941117082E+03  0.36333071328E+03  0.74184461795E+03  0.10100000352E+00 0. -1.
</event>
<event>
 5   0  0.5622811E-06  0.3294234E+04  0.7818609E-02  0.8164364E-01
        2   -1    0    0  501    0  0.00000000000E+00  0.00000000000E+00  0.14823269855E+04  0.14823269855E+04  0.25500000920E-02 0.  1.
       -2   -1    0    0    0  501  0.00000000000E+00  0.00000000000E+00 -0.18302265888E+04  0.18302265888E+04  0.25500000920E-02 0. -1.
    10030    2    1    2    0    0  0.00000000000E+00  0.00000000000E+00 -0.34789960331E+03  0.33125535743E+04  0.32942339092E+04 0.  0.
        1    1    3    3  502    0  0.41971044544E+03  0.37285795948E+03 -0.17310489054E+04  0.18198104926E+04  0.50400001928E-02 0. -1.
       -1    1    3    3    0  502 -0.41971044544E+03 -0.37285795948E+03  0.13831493021E+04  0.14927430817E+04  0.50400001928E-02 0.  1.
</event>
<event>
 5   0  0.1999849E-06  0.2894067E+04  0.7818609E-02  0.8274645E-01
        1   -1    0    0  501    0  0.00000000000E+00  0.00000000000E+00  0.13967093827E+04  0.13967093827E+04  0.50400001928E-02 0.  1.
       -1   -1    0    0    0  501  0.00000000000E+00  0.00000000000E+00 -0.14991710968E+04  0.14991710968E+04  0.50400001928E-02 0. -1.
    10030    2    1    2    0    0  0.00000000000E+00  0.00000000000E+00 -0.10246171407E+03  0.28958804795E+04  0.28940672675E+04 0.  0.
        5    1    3    3  502    0  0.67454647196E+03 -0.12595037499E+04 -0.28055037526E+03  0.14560539969E+04  0.46999998093E+01 0. -1.
       -5    1    3    3    0  502 -0.67454647196E+03  0.12595037499E+04  0.17808866119E+03  0.14398264826E+04  0.46999998093E+01 0.  1.
</event>
<event>
 5   0  0.5637538E-06  0.3289301E+04  0.7818609E-02  0.8165623E-01
        2   -1    0    0  501    0  0.00000000000E+00  0.00000000000E+00  0.28349710910E+04  0.28349710910E+04  0.25500000920E-02 0. -1.
       -2   -1    0    0    0  501  0.00000000000E+00  0.00000000000E+00 -0.95411036976E+03  0.95411036976E+03  0.25500000920E-02 0.  1.
    10030    2    1    2    0    0  0.00000000000E+00  0.00000000000E+00  0.18808607212E+04  0.37890814608E+04  0.32893010296E+04 0.  0.
        2    1    3    3  502    0  0.12367755439E+04  0.24380268776E+03 -0.27639358069E+03  0.12905219518E+04  0.25500000920E-02 0.  1.
       -2    1    3    3    0  502 -0.12367755439E+04 -0.24380268776E+03  0.21572543019E+04  0.24985595090E+04  0.25500000920E-02 0. -1.
</event>
<event>
 5   0  0.2037109E-06  0.3293114E+04  0.7818609E-02  0.8164650E-01
        1   -1    0    0  501    0  0.00000000000E+00  0.00000000000E+00  0.20598891547E+04  0.20598891547E+04  0.50400001928E-02 0.  1.
       -1   -1    0    0    0  501  0.00000000000E+00  0.00000000000E+00 -0.13161628862E+04  0.13161628863E+04  0.50400001928E-02 0. -1.
    10030    2    1    2    0    0  0.00000000000E+00  0.00000000000E+00  0.74372626848E+03  0.33760520410E+04  0.32931138184E+04 0.  0.
        2    1    3    3  502    0  0.92602949516E+03  0.13348961980E+04  0.64632034025E+03  0.17484874800E+04  0.25500000920E-02 0.  1.
       -2    1    3    3    0  502 -0.92602949516E+03 -0.13348961980E+04  0.97405928234E+02  0.16275645610E+04  0.25500000920E-02 0. -1.
</event>
<event>
 5   0  0.5855568E-06  0.3311481E+04  0.7818609E-02  0.8159980E-01
        2   -1    0    0  501    0  0.00000000000E+00  0.00000000000E+00  0.23426256171E+04  0.23426256171E+04  0.25500000920E-02 0.  1.
       -2   -1    0    0    0  501  0.00000000000E+00  0.00000000000E+00 -0.11702583717E+04  0.11702583717E+04  0.25500000920E-02 0. -1.
    10030    2    1    2    0    0  0.00000000000E+00  0.00000000000E+00  0.11723672453E+04  0.35128839888E+04  0.33114813846E+04 0.  0.
        3    1    3    3  502    0 -0.11809748432E+03 -0.70060210241E+03  0.21726982755E+04  0.22859151621E+04  0.10100000352E+00 0.  1.
       -3    1    3    3    0  502  0.11809748432E+03  0.70060210241E+03 -0.10003310301E+04  0.12269688267E+04  0.10100000352E+00 0. -1.
</event>
<event>
 5   0  0.1925906E-06  0.2783951E+04  0.7818609E-02  0.8308268E-01
       -1   -1    0    0    0  501  0.00000000000E+00  0.00000000000E+00  0.10966768769E+04  0.10966768770E+04  0.50400001928E-02 0. -1.
        1   -1    0    0  501    0  0.00000000000E+00  0.00000000000E+00 -0.17667880557E+04  0.17667880557E+04  0.50400001928E-02 0.  1.
    10030    2    1    2    0    0  0.00000000000E+00  0.00000000000E+00 -0.67011117877E+03  0.28634649327E+04  0.27839508668E+04 0.  0.
        1    1    3    3  502    0 -0.44475144387E+03 -0.94817576263E+03 -0.12781711244E+04  0.16524413899E+04  0.50400001928E-02 0.  1.
       -1    1    3    3    0  502  0.44475144387E+03  0.94817576263E+03  0.60805994566E+03  0.12110235428E+04  0.50400001928E-02 0. -1.
</event>
<event>
 5   0  0.5855568E-06  0.3390343E+04  0.7818609E-02  0.8140280E-01
        2   -1    0    0  501    0  0.00000000000E+00  0.00000000000E+00  0.15999941003E+04  0.15999941003E+04  0.25500000920E-02 0.  1.
       -2   -1    0    0    0  501  0.00000000000E+00  0.00000000000E+00 -0.17960111219E+04  0.17960111219E+04  0.25500000920E-02 0. -1.
    10030    2    1    2    0    0  0.00000000000E+00  0.00000000000E+00 -0.19601702161E+03  0.33960052221E+04  0.33903434628E+04 0.  0.
        3    1    3    3  502    0 -0.16044156460E+03  0.68851029779E+03  0.14452848117E+04  0.16089239022E+04  0.10100000352E+00 0.  1.
       -3    1    3    3    0  502  0.16044156460E+03 -0.68851029779E+03 -0.16413018333E+04  0.17870813200E+04  0.10100000352E+00 0. -1.
</event>
<event>
 5   0  0.1999849E-06  0.3286017E+04  0.7818609E-02  0.8166463E-01
       -1   -1    0    0    0  501  0.00000000000E+00  0.00000000000E+00  0.14167022817E+04  0.14167022817E+04  0.50400001928E-02 0.  1.
        1   -1    0    0  501    0  0.00000000000E+00  0.00000000000E+00 -0.19054648564E+04  0.19054648564E+04  0.50400001928E-02 0. -1.
    10030    2    1    2    0    0  0.00000000000E+00  0.00000000000E+00 -0.48876257470E+03  0.33221671381E+04  0.32860166827E+04 0.  0.
        5    1    3    3  502    0 -0.34981052072E+03 -0.14461212897E+04 -0.94905726897E+03  0.17647566333E+04  0.46999998093E+01 0.  1.
       -5    1    3    3    0  502  0.34981052072E+03  0.14461212897E+04  0.46029469427E+03  0.15574105048E+04  0.46999998093E+01 0. -1.
</event>
<event>
 5   0  0.1999849E-06  0.2934480E+04  0.7818609E-02  0.8262692E-01
        1   -1    0    0  501    0  0.00000000000E+00  0.00000000000E+00  0.13614321733E+04  0.13614321733E+04  0.50400001928E-02 0.  1.
       -1   -1    0    0    0  501  0.00000000000E+00  0.00000000000E+00 -0.15812714318E+04  0.15812714318E+04  0.50400001928E-02 0. -1.
    10030    2    1    2    0    0  0.00000000000E+00  0.00000000000E+00 -0.21983925850E+03  0.29427036052E+04  0.29344803984E+04 0.  0.
        5    1    3    3  502    0 -0.63641561114E+03  0.20772589940E+03 -0.14191803749E+04  0.15691621668E+04  0.46999998093E+01 0. -1.
       -5    1    3    3    0  502  0.63641561114E+03 -0.20772589940E+03  0.11993411164E+04  0.13735414383E+04  0.46999998093E+01 0.  1.
</event>
<event>
 5   0  0.2730981E-06  0.3305249E+04  0.7818609E-02  0.8161561E-01
       -1   -1    0    0    0  501  0.00000000000E+00  0.00000000000E+00  0.18033933508E+04  0.18033933508E+04  0.50400001928E-02 0. -1.
        1   -1    0    0  501    0  0.00000000000E+00  0.00000000000E+00 -0.15144603769E+04  0.15144603769E+04  0.50400001928E-02 0.  1.
    10030    2    1    2    0    0  0.00000000000E+00  0.00000000000E+00  0.28893297391E+03  0.33178537278E+04  0.33052490217E+04 0.  0.
        3    1    3    3  502    0  0.14453952666E+04  0.78644143922E+03 -0.94484424263E+01  0.16455232898E+04  0.10100000352E+00 0.  1.
       -3    1    3    3    0  502 -0.14453952666E+04 -0.78644143922E+03  0.29838141634E+03  0.16723304380E+04  0.10100000352E+00 0. -1.
</event>
<event>
 5   0  0.5755250E-06  0.3546333E+04  0.7818609E-02  0.8102897E-01
       -2   -1    0    0    0  501  0.00000000000E+00  0.00000000000E+00  0.25362332160E+04  0.25362332160E+04  0.25500000920E-02 0. -1.
        2   -1    0    0  501    0  0.00000000000E+00  0.00000000000E+00 -0.12396804686E+04  0.12396804686E+04  0.25500000920E-02 0.  1.
    10030    2    1    2    0    0  0.00000000000E+00  0.00000000000E+00  0.12965527474E+04  0.37759136847E+04  0.35463326307E+04 0.  0.
        5    1    3    3  502    0  0.44970298532E+03 -0.16580393734E+04  0.18079793495E+03  0.17274366333E+04  0.46999998093E+01 0.  1.
       -5    1    3    3    0  502 -0.44970298532E+03  0.16580393734E+04  0.11157548125E+04  0.20484770514E+04  0.46999998093E+01 0. -1.
</event>
<event>
 5   0  0.5622811E-06  0.2306047E+04  0.7818609E-02  0.8475541E-01
       -2   -1    0    0    0  501  0.00000000000E+00  0.00000000000E+00  0.80908318462E+03  0.80908318463E+03  0.25500000920E-02 0. -1.
        2   -1    0    0  501    0  0.00000000000E+00  0.00000000000E+00 -0.16431722417E+04  0.16431722417E+04  0.25500000920E-02 0.  1.
    10030    2    1    2    0    0  0.00000000000E+00  0.00000000000E+00 -0.83408905705E+03  0.24522554263E+04  0.23060468601E+04 0.  0.
        1    1    3    3  502    0 -0.18763886444E+03  0.48035119840E+03 -0.15136991637E+04  0.15991343831E+04  0.50400001928E-02 0.  1.
       -1    1    3    3    0  502  0.18763886444E+03 -0.48035119840E+03  0.67961010661E+03  0.85312104316E+03  0.50400001928E-02 0. -1.
</event>
<event>
 5   0  0.5622811E-06  0.3230516E+04  0.7818609E-02  0.8180804E-01
       -2   -1    0    0    0  501  0.00000000000E+00  0.00000000000E+00  0.12534453131E+04  0.12534453131E+04  0.25500000920E-02 0.  1.
        2   -1    0    0  501    0  0.00000000000E+00  0.00000000000E+00 -0.20815093462E+04  0.20815093462E+04  0.25500000920E-02 0. -1.
    10030    2    1    2    0    0  0.00000000000E+00  0.00000000000E+00 -0.82806403318E+03  0.33349546593E+04  0.32305158314E+04 0.  0.
        1    1    3    3  502    0  0.12646685054E+04 -0.85561965008E+03  0.12986590930E+03  0.15324283242E+04  0.50400001928E-02 0.  1.
       -1    1    3    3    0  502 -0.12646685054E+04  0.85561965008E+03 -0.95792994248E+03  0.18025263352E+04  0.50400001928E-02 0. -1.
</event>
<event>
 5   0  0.2037109E-06  0.3154830E+04  0.7818609E-02  0.8200849E-01
       -1   -1    0    0    0  501  0.00000000000E+00  0.00000000000E+00  0.11186356627E+04  0.11186356627E+04  0.50400001928E-02 0.  1.
        1   -1    0    0  501    0  0.00000000000E+00  0.00000000000E+00 -0.22243502575E+04  0.22243502575E+04  0.50400001928E-02 0. -1.
    10030    2    1    2    0    0  0.00000000000E+00  0.00000000000E+00 -0.11057145948E+04  0.33429859201E+04  0.31548296463E+04 0.  0.
        2    1    3    3  502    0 -0.96712524124E+03  0.11152946233E+04  0.36196386410E+02  0.14766595773E+04  0.25500000920E-02 0.  1.
       -2    1    3    3    0  502  0.96712524124E+03 -0.11152946233E+04 -0.11419109812E+04  0.18663263428E+04  0.25500000920E-02 0. -1.
</event>
<event>
 5   0  0.1878000E-06  0.3319081E+04  0.7818609E-02  0.8158057E-01
       -4   -1    0    0    0  501  0.00000000000E+00  0.00000000000E+00  0.15573419712E+04  0.15573424890E+04  0.12699999809E+01 0.  1.
        4   -1    0    0  501    0  0.00000000000E+00  0.00000000000E+00 -0.17684442459E+04  0.17684447020E+04  0.12699999809E+01 0. -1.
    10030    2    1    2    0    0  0.00000000000E+00  0.00000000000E+00 -0.21110227473E+03  0.33257871910E+04  0.33190806362E+04 0.  0.
        1    1    3    3  502    0 -0.10652786954E+04  0.54863534325E+03  0.10449215297E+04  0.15898680581E+04  0.50400001928E-02 0.  1.
       -1    1    3    3    0  502  0.10652786954E+04 -0.54863534325E+03 -0.12560238045E+04  0.17359191329E+04  0.50400001928E-02 0. -1.
</event>
<event>
 5   0  0.5637538E-06  0.3402183E+04  0.7818609E-02  0.8137371E-01
        2   -1    0    0  501    0  0.00000000000E+00  0.00000000000E+00  0.23141722019E+04  0.23141722019E+04  0.25500000920E-02 0.  1.
       -2   -1    0    0    0  501  0.00000000000E+00  0.00000000000E+00 -0.12504308994E+04  0.12504308994E+04  0.25500000920E-02 0. -1.
    10030    2    1    2    0    0  0.00000000000E+00  0.00000000000E+00  0.10637413025E+04  0.35646031013E+04  0.34021830802E+04 0.  0.
        2    1    3    3  502    0 -0.51022663838E+02 -0.15792633379E+04 -0.12831894495E+03  0.15852891706E+04  0.25500000920E-02 0. -1.
       -2    1    3    3    0  502  0.51022663838E+02  0.15792633379E+04  0.11920602474E+04  0.19793139307E+04  0.25500000920E-02 0.  1.
</event>
<event>
 5   0  0.1999849E-06  0.2477327E+04  0.7818609E-02  0.8411108E-01
        1   -1    0    0  501    0  0.00000000000E+00  0.00000000000E+00  0.13502138173E+04  0.13502138173E+04  0.50400001928E-02 0.  1.
       -1   -1    0    0    0  501  0.00000000000E+00  0.00000000000E+00 -0.11363291339E+04  0.11363291339E+04  0.50400001928E-02 0. -1.
    10030    2    1    2    0    0  0.00000000000E+00  0.00000000000E+00  0.21388468338E+03  0.24865429513E+04  0.24773270254E+04 0.  0.
        5    1    3    3  502    0  0.17793794860E+03 -0.10591091775E+04 -0.51251728385E+03  0.11899874872E+04  0.46999998093E+01 0. -1.
       -5    1    3    3    0  502 -0.17793794860E+03  0.10591091775E+04  0.72640196724E+03  0.12965554641E+04  0.46999998093E+01 0.  1.
</event>
<event>
 5   0  0.2097842E-06  0.3108511E+04  0.7818609E-02  0.8213406E-01
       -1   -1    0    0    0  501  0.00000000000E+00  0.00000000000E+00  0.11223492714E+04  0.11223492715E+04  0.50400001928E-02 0.  1.
        1   -1    0    0  501    0  0.00000000000E+00  0.00000000000E+00 -0.21523690758E+04  0.21523690759E+04  0.50400001928E-02 0. -1.
    10030    2    1    2    0    0  0.00000000000E+00  0.00000000000E+00 -0.10300198044E+04  0.32747183473E+04  0.31085108101E+04 0.  0.
        4    1    3    3  502    0 -0.15320966378E+04 -0.16412178491E+03 -0.30052571595E+03  0.15698959795E+04  0.12699999809E+01 0. -1.
       -4    1    3    3    0  502  0.15320966378E+04  0.16412178491E+03 -0.72949408846E+03  0.17048223678E+04  0.12699999809E+01 0.  1.
</event>
<event>
 5   0  0.2730981E-06  0.3298264E+04  0.7818609E-02  0.8163337E-01
        1   -1    0    0  501    0  0.00000000000E+00  0.00000000000E+00  0.14186804110E+04  0.14186804110E+04  0.50400001928E-02 0.  1.
       -1   -1    0    0    0  501  0.00000000000E+00  0.00000000000E+00 -0.19170180678E+04  0.19170180678E+04  0.50400001928E-02 0. -1.
    10030    2    1    2    0    0  0.00000000000E+00  0.00000000000E+00 -0.49833765675E+03  0.33356984788E+04  0.32982637738E+04 0.  0.
        3    1    3    3  502    0  0.58206101371E+03  0.10196053683E+04 -0.14204349887E+04  0.18428308924E+04  0.10100000352E+00 0. -1.
       -3    1    3    3    0  502 -0.58206101371E+03 -0.10196053683E+04  0.92209733190E+03  0.14928675864E+04  0.10100000352E+00 0.  1.
</event>
<event>
 5   0  0.1999849E-06  0.3315942E+04  0.7818609E-02  0.8158851E-01
       -1   -1    0    0    0  501  0.00000000000E+00  0.00000000000E+00  0.23049152729E+04  0.23049152729E+04  0.50400001928E-02 0.  1.
        1   -1    0    0  501    0  0.00000000000E+00  0.00000000000E+00 -0.11926110659E+04  0.11926110659E+04  0.50400001928E-02 0. -1.
    10030    2    1    2    0    0  0.00000000000E+00  0.00000000000E+00  0.11123042070E+04  0.34975263388E+04  0.33159417729E+04 0.  0.
        5    1    3    3  502    0  0.15765414607E+03  0.93013846583E+03  0.19942030819E+04  0.22061007269E+04  0.46999998093E+01 0.  1.
       -5    1    3    3    0  502 -0.15765414607E+03 -0.93013846583E+03 -0.88189887490E+03  0.12914256119E+04  0.46999998093E+01 0. -1.
</event>
<event>
 5   0  0.5637538E-06  0.3458931E+04  0.7818609E-02  0.8123592E-01
       -2   -1    0    0    0  501  0.00000000000E+00  0.00000000000E+00  0.14414837305E+04  0.14414837305E+04  0.25500000920E-02 0.  1.
        2   -1    0    0  501    0  0.00000000000E+00  0.00000000000E+00 -0.20749809519E+04  0.20749809519E+04  0.25500000920E-02 0. -1.
    10030    2    1    2    0    0  0.00000000000E+00  0.00000000000E+00 -0.63349722138E+03  0.35164646823E+04  0.34589312125E+04 0.  0.
        2    1    3    3  502    0  0.40651634203E+03  0.14639238540E+04 -0.11567625735E+04  0.19095623159E+04  0.25500000920E-02 0. -1.
       -2    1    3    3    0  502 -0.40651634203E+03 -0.14639238540E+04  0.52326535216E+03  0.16069023665E+04  0.25500000920E-02 0.  1.
</event>
<event>
 5   0  0.5637538E-06  0.3024896E+04  0.7818609E-02  0.8236657E-01
       -2   -1    0    0    0  501  0.00000000000E+00  0.00000000000E+00  0.73616757033E+03  0.73616757033E+03  0.25500000920E-02 0. -1.
        2   -1    0    0  501    0  0.00000000000E+00  0.00000000000E+00 -0.31073069549E+04  0.31073069549E+04  0.25500000920E-02 0.  1.
    10030    2    1    2    0    0  0.00000000000E+00  0.00000000000E+00 -0.23711393845E+04  0.38434745252E+04  0.30248957742E+04 0.  0.
        2    1    3    3  502    0 -0.12224715742E+04 -0.49092473570E+03 -0.21296407271E+04  0.25041592347E+04  0.25500000920E-02 0.  1.
       -2    1    3    3    0  502  0.12224715742E+04  0.49092473570E+03 -0.24149865743E+03  0.13393152905E+04  0.25500000920E-02 0. -1.
</event>
<event>
 5   0  0.2097842E-06  0.3308742E+04  0.7818609E-02  0.8160674E-01
        1   -1    0    0  501    0  0.00000000000E+00  0.00000000000E+00  0.17997047734E+04  0.17997047734E+04  0.50400001928E-02 0. -1.
       -1   -1    0    0    0  501  0.00000000000E+00  0.00000000000E+00 -0.15207739279E+04  0.15207739279E+04  0.50400001928E-02 0.  1.
    10030    2    1    2    0    0  0.00000000000E+00  0.00000000000E+00  0.27893084552E+03  0.33204787012E+04  0.33087424180E+04 0.  0.
        4    1    3    3  502    0  0.50530199854E+03  0.37390971121E+03 -0.13962579798E+04  0.15312336663E+04  0.12699999809E+01 0.  1.
       -4    1    3    3    0  502 -0.50530199854E+03 -0.37390971121E+03  0.16751888253E+04  0.17892450350E+04  0.12699999809E+01 0. -1.
</event>
<event>
 5   0  0.1925906E-06  0.3309370E+04  0.7818609E-02  0.8160515E-01
       -1   -1    0    0    0  501  0.00000000000E+00  0.00000000000E+00  0.10588806722E+04  0.10588806723E+04  0.50400001928E-02 0.  1.
        1   -1    0    0  501    0  0.00000000000E+00  0.00000000000E+00 -0.25857321031E+04  0.25857321031E+04  0.50400001928E-02 0. -1.
    10030    2    1    2    0    0  0.00000000000E+00  0.00000000000E+00 -0.15268514309E+04  0.36446127754E+04  0.33093695760E+04 0.  0.
        1    1    3    3  502    0 -0.79272206126E+03 -0.39620974206E+03 -0.23023306794E+04  0.24670056715E+04  0.50400001928E-02 0. -1.
       -1    1    3    3    0  502  0.79272206126E+03  0.39620974206E+03  0.77547924852E+03  0.11776071038E+04  0.50400001928E-02 0.  1.
</event>
<event>
 5   0  0.1925906E-06  0.1734867E+04  0.7818609E-02  0.8741724E-01
        1   -1    0    0  501    0  0.00000000000E+00  0.00000000000E+00  0.11872276983E+04  0.11872276983E+04  0.50400001928E-02 0.  1.
       -1   -1    0    0    0  501  0.00000000000E+00  0.00000000000E+00 -0.63377987586E+03  0.63377987588E+03  0.50400001928E-02 0. -1.
    10030    2    1    2    0    0  0.00000000000E+00  0.00000000000E+00  0.55344782247E+03  0.18210075742E+04  0.17348671687E+04 0.  0.
        1    1    3    3  502    0 -0.77875382461E+03  0.31826647641E+03  0.49862042407E+03  0.97794345270E+03  0.50400001928E-02 0.  1.
       -1    1    3    3    0  502  0.77875382461E+03 -0.31826647641E+03  0.54827398397E+02  0.84306412152E+03  0.50400001928E-02 0. -1.
</event>
<event>
 5   0  0.1999849E-06  0.3278954E+04  0.7818609E-02  0.8168271E-01
        1   -1    0    0  501    0  0.00000000000E+00  0.00000000000E+00  0.17448877215E+04  0.17448877215E+04  0.50400001928E-02 0. -1.
       -1   -1    0    0    0  501  0.00000000000E+00  0.00000000000E+00 -0.15404345979E+04  0.15404345979E+04  0.50400001928E-02 0.  1.
    10030    2    1    2    0    0  0.00000000000E+00  0.00000000000E+00  0.20445312357E+03  0.32853223194E+04  0.32789543551E+04 0.  0.
        5    1    3    3  502    0  0.12520567629E+04  0.10478138864E+04 -0.47406191313E+02  0.16333491712E+04  0.46999998093E+01 0.  1.
       -5    1    3    3    0  502 -0.12520567629E+04 -0.10478138864E+04  0.25185931489E+03  0.16519731482E+04  0.46999998093E+01 0. -1.
</event>
<event>
 5   0  0.5300268E-06  0.3258272E+04  0.7818609E-02  0.8173595E-01
        2   -1    0    0  501    0  0.00000000000E+00  0.00000000000E+00  0.17288998695E+04  0.17288998695E+04  0.25500000920E-02 0. -1.
       -2   -1    0    0    0  501  0.00000000000E+00  0.00000000000E+00 -0.15351291859E+04  0.15351291859E+04  0.25500000920E-02 0.  1.
    10030    2    1    2    0    0  0.00000000000E+00  0.00000000000E+00  0.19377068356E+03  0.32640290554E+04  0.32582723331E+04 0.  0.
        4    1    3    3  502    0  0.57334536990E+03 -0.60618336241E+03  0.14986072861E+04  0.17152284375E+04  0.12699999809E+01 0. -1.
       -4    1    3    3    0  502 -0.57334536990E+03  0.60618336241E+03 -0.13048366025E+04  0.15488006180E+04  0.12699999809E+01 0.  1.
</event>
<event>
 5   0  0.5855568E-06  0.3243292E+04  0.7818609E-02  0.8177477E-01
        2   -1    0    0  501    0  0.00000000000E+00  0.00000000000E+00  0.23085068774E+04  0.23085068774E+04  0.25500000920E-02 0.  1.
       -2   -1    0    0    0  501  0.00000000000E+00  0.00000000000E+00 -0.11391499093E+04  0.11391499093E+04  0.25500000920E-02 0. -1.
    10030    2    1    2    0    0  0.00000000000E+00  0.00000000000E+00  0.11693569681E+04  0.34476567867E+04  0.32432917846E+04 0.  0.
        3    1    3    3  502    0  0.61696996729E+03 -0.14437281065E+04  0.15323115475E+03  0.15774924986E+04  0.10100000352E+00 0. -1.
       -3    1    3    3    0  502 -0.61696996729E+03  0.14437281065E+04  0.10161258133E+04  0.18701642882E+04  0.10100000352E+00 0.  1.
</event>
<event>
 5   0  0.5622811E-06  0.3341646E+04  0.7818609E-02  0.8152379E-01
        2   -1    0    0  501    0  0.00000000000E+00  0.00000000000E+00  0.18932120116E+04  0.18932120116E+04  0.25500000920E-02 0. -1.
       -2   -1    0    0    0  501  0.00000000000E+00  0.00000000000E+00 -0.14745576268E+04  0.14745576268E+04  0.25500000920E-02 0.  1.
    10030    2    1    2    0    0  0.00000000000E+00  0.00000000000E+00  0.41865438481E+03  0.33677696383E+04  0.33416464270E+04 0.  0.
        1    1    3    3  502    0 -0.12869312665E+03  0.13879000911E+04  0.11378447051E+04  0.17993107449E+04  0.50400001928E-02 0. -1.
       -1    1    3    3    0  502  0.12869312665E+03 -0.13879000911E+04 -0.71919032025E+03  0.15684588935E+04  0.50400001928E-02 0.  1.
</event>
<event>
 5   0  0.5855568E-06  0.3347647E+04  0.7818609E-02  0.8150876E-01
        2   -1    0    0  501    0  0.00000000000E+00  0.00000000000E+00  0.27347222403E+04  0.27347222403E+04  0.25500000920E-02 0.  1.
       -2   -1    0    0    0  501  0.00000000000E+00  0.00000000000E+00 -0.10244864043E+04  0.10244864043E+04  0.25500000920E-02 0. -1.
    10030    2    1    2    0    0  0.00000000000E+00  0.00000000000E+00  0.17102358360E+04  0.37592086446E+04  0.33476473857E+04 0.  0.
        3    1    3    3  502    0  0.33677908032E+03  0.15327581841E+04  0.15088563336E+04  0.21770198082E+04  0.10100000352E+00 0.  1.
       -3    1    3    3    0  502 -0.33677908032E+03 -0.15327581841E+04  0.20137950239E+03  0.15821888364E+04  0.10100000352E+00 0. -1.
</event>
<event>
 5   0  0.5755250E-06  0.3400458E+04  0.7818609E-02  0.8137794E-01
       -2   -1    0    0    0  501  0.00000000000E+00  0.00000000000E+00  0.89312726041E+03  0.89312726042E+03  0.25500000920E-02 0. -1.
        2   -1    0    0  501    0  0.00000000000E+00  0.00000000000E+00 -0.32366921367E+04  0.32366921367E+04  0.25500000920E-02 0.  1.
    10030    2    1    2    0    0  0.00000000000E+00  0.00000000000E+00 -0.23435648763E+04  0.41298193971E+04  0.34004576050E+04 0.  0.
        5    1    3    3  502    0  0.78417863367E+03  0.13694627841E+04 -0.40329620919E+03  0.16288137920E+04  0.46999998093E+01 0.  1.
       -5    1    3    3    0  502 -0.78417863367E+03 -0.13694627841E+04 -0.19402686671E+04  0.25010056052E+04  0.46999998093E+01 0. -1.
</event>
<event>
 5   0  0.1878000E-06  0.2567299E+04  0.7818609E-02  0.8379395E-01
       -4   -1    0    0    0  501  0.00000000000E+00  0.00000000000E+00  0.12534573913E+04  0.12534580347E+04  0.12699999809E+01 0. -1.
        4   -1    0    0  501    0  0.00000000000E+00  0.00000000000E+00 -0.13145672207E+04  0.13145678341E+04  0.12699999809E+01 0.  1.
    10030    2    1    2    0    0  0.00000000000E+00  0.00000000000E+00 -0.61109829348E+02  0.25680258688E+04  0.25672986682E+04 0.  0.
        2    1    3    3  502    0 -0.45603462033E+03  0.10828693405E+04  0.48648803546E+03  0.12717091618E+04  0.25500000920E-02 0. -1.
       -2    1    3    3    0  502  0.45603462033E+03 -0.10828693405E+04 -0.54759786481E+03  0.12963167071E+04  0.25500000920E-02 0.  1.
</event>
<event>
 5   0  0.1925906E-06  0.3465729E+04  0.7818609E-02  0.8121960E-01
       -1   -1    0    0    0  501  0.00000000000E+00  0.00000000000E+00  0.13319814349E+04  0.13319814349E+04  0.50400001928E-02 0.  1.
        1   -1    0    0  501    0  0.00000000000E+00  0.00000000000E+00 -0.22544006128E+04  0.22544006128E+04  0.50400001928E-02 0. -1.
    10030    2    1    2    0    0  0.00000000000E+00  0.00000000000E+00 -0.92241917791E+03  0.35863820477E+04  0.34657292237E+04 0.  0.
        1    1    3    3  502    0 -0.31509725986E+03 -0.14266032433E+04 -0.14254958817E+04  0.20412059195E+04  0.50400001928E-02 0. -1.
       -1    1    3    3    0  502  0.31509725986E+03  0.14266032433E+04  0.50307670384E+03  0.15451761281E+04  0.50400001928E-02 0.  1.
</event>
<event>
 5   0  0.5300268E-06  0.3290850E+04  0.7818609E-02  0.8165227E-01
       -2   -1    0    0    0  501  0.00000000000E+00  0.00000000000E+00  0.14596217856E+04  0.14596217856E+04  0.25500000920E-02 0.  1.
        2   -1    0    0  501    0  0.00000000000E+00  0.00000000000E+00 -0.18548805353E+04  0.18548805353E+04  0.25500000920E-02 0. -1.
    10030    2    1    2    0    0  0.00000000000E+00  0.00000000000E+00 -0.39525874978E+03  0.33145023209E+04  0.32908503697E+04 0.  0.
        4    1    3    3  502    0  0.51016349960E+03  0.92561106843E+03 -0.14678037442E+04  0.18087211202E+04  0.12699999809E+01 0. -1.
       -4    1    3    3    0  502 -0.51016349960E+03 -0.92561106843E+03  0.10725449944E+04  0.15057812007E+04  0.12699999809E+01 0.  1.
</event>
<event>
 5   0  0.2730981E-06  0.3347614E+04  0.7818609E-02  0.8150885E-01
        1   -1    0    0  501    0  0.00000000000E+00  0.00000000000E+00  0.18221401124E+04  0.18221401124E+04  0.50400001928E-02 0. -1.
       -1   -1    0    0    0  501  0.00000000000E+00  0.00000000000E+00 -0.15375487331E+04  0.15375487331E+04  0.50400001928E-02 0.  1.
    10030    2    1    2    0    0  0.00000000000E+00  0.00000000000E+00  0.28459137934E+03  0.33596888455E+04  0.33476136105E+04 0.  0.
        3    1    3    3  502    0  0.15886579063E+04  0.40689340349E+03 -0.19392471672E+03  0.16513639790E+04  0.10100000352E+00 0.  1.
       -3    1    3    3    0  502 -0.15886579063E+04 -0.40689340349E+03  0.47851609607E+03  0.17083248665E+04  0.10100000352E+00 0. -1.
</event>
<event>
 5   0  0.2037109E-06  0.3138402E+04  0.7818609E-02  0.8205277E-01
        1   -1    0    0  501    0  0.00000000000E+00  0.00000000000E+00  0.20642024050E+04  0.20642024050E+04  0.50400001928E-02 0.  1.
       -1   -1    0    0    0  501  0.00000000000E+00  0.00000000000E+00 -0.11929019811E+04  0.11929019811E+04  0.50400001928E-02 0. -1.
    10030    2    1    2    0    0  0.00000000000E+00  0.00000000000E+00  0.87130042389E+03  0.32571043860E+04  0.31384015920E+04 0.  0.
        2    1    3    3  502    0 -0.40212517584E+03  0.86603804412E+03  0.17280060125E+04  0.19742672894E+04  0.25500000920E-02 0.  1.
       -2    1    3    3    0  502  0.40212517584E+03 -0.86603804412E+03 -0.85670558860E+03  0.12828370966E+04  0.25500000920E-02 0. -1.
</event>
<event>
 5   0  0.2097842E-06  0.3382563E+04  0.7818609E-02  0.8142199E-01
        1   -1    0    0  501    0  0.00000000000E+00  0.00000000000E+00  0.27329941712E+04  0.27329941712E+04  0.50400001928E-02 0. -1.
       -1   -1    0    0    0  501  0.00000000000E+00  0.00000000000E+00 -0.10466299863E+04  0.10466299863E+04  0.50400001928E-02 0.  1.
    10030    2    1    2    0    0  0.00000000000E+00  0.00000000000E+00  0.16863641849E+04  0.37796241575E+04  0.33825633191E+04 0.  0.
        4    1    3    3  502    0  0.98641532475E+03 -0.71935454159E+03 -0.46465722064E+03  0.13062902032E+04  0.12699999809E+01 0.  1.
       -4    1    3    3    0  502 -0.98641532475E+03  0.71935454159E+03  0.21510214055E+04  0.24733339542E+04  0.12699999809E+01 0. -1.
</event>
<event>
 5   0  0.5300268E-06  0.2794358E+04  0.7818609E-02  0.8305022E-01
        2   -1    0    0  501    0  0.00000000000E+00  0.00000000000E+00  0.13176214624E+04  0.13176214624E+04  0.25500000920E-02 0.  1.
       -2   -1    0    0    0  501  0.00000000000E+00  0.00000000000E+00 -0.14815396700E+04  0.14815396700E+04  0.25500000920E-02 0. -1.
    10030    2    1    2    0    0  0.00000000000E+00  0.00000000000E+00 -0.16391820757E+03  0.27991611324E+04  0.27943575051E+04 0.  0.
        4    1    3    3  502    0  0.13751202864E+04  0.24235500357E+03 -0.13118729011E+03  0.14024633570E+04  0.12699999809E+01 0. -1.
       -4    1    3    3    0  502 -0.13751202864E+04 -0.24235500357E+03 -0.32730917465E+02  0.13966977754E+04  0.12699999809E+01 0.  1.
</event>
<event>
 5   0  0.1999849E-06  0.2719745E+04  0.7818609E-02  0.8328627E-01
        1   -1    0    0  501    0  0.00000000000E+00  0.00000000000E+00  0.22212909179E+04  0.22212909180E+04  0.50400001928E-02 0.  1.
       -1   -1    0    0    0  501  0.00000000000E+00  0.00000000000E+00 -0.83251265757E+03  0.83251265759E+03  0.50400001928E-02 0. -1.
    10030    2    1    2    0    0  0.00000000000E+00  0.00000000000E+00  0.13887782604E+04  0.30538035755E+04  0.27197446979E+04 0.  0.
        5    1    3    3  502    0 -0.99680354598E+02 -0.29637262551E+03 -0.79159030962E+03  0.85112291388E+03  0.46999998093E+01 0. -1.
       -5    1    3    3    0  502  0.99680354598E+02  0.29637262551E+03  0.21803685700E+04  0.22026806617E+04  0.46999998093E+01 0.  1.
</event>
<event>
 5   0  0.1999849E-06  0.3274970E+04  0.7818609E-02  0.8169294E-01
       -1   -1    0    0    0  501  0.00000000000E+00  0.00000000000E+00  0.15312652169E+04  0.15312652169E+04  0.50400001928E-02 0.  1.
        1   -1    0    0  501    0  0.00000000000E+00  0.00000000000E+00 -0.17510734008E+04  0.17510734008E+04  0.50400001928E-02 0. -1.
    10030    2    1    2    0    0  0.00000000000E+00  0.00000000000E+00 -0.21980818387E+03  0.32823386177E+04  0.32749704065E+04 0.  0.
        5    1    3    3  502    0  0.62794381059E+03  0.32205723319E+03 -0.15908283602E+04  0.17403422802E+04  0.46999998093E+01 0. -1.
       -5    1    3    3    0  502 -0.62794381059E+03 -0.32205723319E+03  0.13710201763E+04  0.15419963374E+04  0.46999998093E+01 0.  1.
</event>
<event>
 5   0  0.1999849E-06  0.2285082E+04  0.7818609E-02  0.8483826E-01
        1   -1    0    0  501    0  0.00000000000E+00  0.00000000000E+00  0.18558221622E+04  0.18558221622E+04  0.50400001928E-02 0. -1.
       -1   -1    0    0    0  501  0.00000000000E+00  0.00000000000E+00 -0.70340781716E+03  0.70340781718E+03  0.50400001928E-02 0.  1.
    10030    2    1    2    0    0  0.00000000000E+00  0.00000000000E+00  0.11524143451E+04  0.25592299794E+04  0.22850818946E+04 0.  0.
        5    1    3    3  502    0  0.38928919791E+03 -0.10740866886E+04  0.59078541565E+03  0.12861795332E+04  0.46999998093E+01 0. -1.
       -5    1    3    3    0  502 -0.38928919791E+03  0.10740866886E+04  0.56162892942E+03  0.12730504462E+04  0.46999998093E+01 0.  1.
</event>
<event>
 5   0  0.5755250E-06  0.3403063E+04  0.7818609E-02  0.8137155E-01
        2   -1    0    0  501    0  0.00000000000E+00  0.00000000000E+00  0.20702862393E+04  0.20702862393E+04  0.25500000920E-02 0.  1.
       -2   -1    0    0    0  501  0.00000000000E+00  0.00000000000E+00 -0.13984583082E+04  0.13984583082E+04  0.25500000920E-02 0. -1.
    10030    2    1    2    0    0  0.00000000000E+00  0.00000000000E+00  0.67182793114E+03  0.34687445475E+04  0.34030627333E+04 0.  0.
        5    1    3    3  502    0 -0.16966775762E+04  0.11582366000E+03  0.39227110390E+03  0.17452875485E+04  0.46999998093E+01 0.  1.
       -5    1    3    3    0  502  0.16966775762E+04 -0.11582366000E+03  0.27955682724E+03  0.17234569991E+04  0.46999998093E+01 0. -1.
</event>
<event>
 5   0  0.5622811E-06  0.3200396E+04  0.7818609E-02  0.8188713E-01
       -2   -1    0    0    0  501  0.00000000000E+00  0.00000000000E+00  0.11138989029E+04  0.11138989029E+04  0.25500000920E-02 0. -1.
        2   -1    0    0  501    0  0.00000000000E+00  0.00000000000E+00 -0.22988019585E+04  0.22988019585E+04  0.25500000920E-02 0.  1.
    10030    2    1    2    0    0  0.00000000000E+00  0.00000000000E+00 -0.11849030556E+04  0.34127008614E+04  0.32003955878E+04 0.  0.
        1    1    3    3  502    0 -0.15221114953E+03 -0.15636081888E+04 -0.91693038057E+03  0.18190107545E+04  0.50400001928E-02 0.  1.
       -1    1    3    3    0  502  0.15221114953E+03  0.15636081888E+04 -0.26797267501E+03  0.15936901069E+04  0.50400001928E-02 0. -1.
</event>
<event>
 5   0  0.2037109E-06  0.3167903E+04  0.7818609E-02  0.8197346E-01
        1   -1    0    0  501    0  0.00000000000E+00  0.00000000000E+00  0.13887475072E+04  0.13887475072E+04  0.50400001928E-02 0.  1.
       -1   -1    0    0    0  501  0.00000000000E+00  0.00000000000E+00 -0.18065931826E+04  0.18065931826E+04  0.50400001928E-02 0. -1.
    10030    2    1    2    0    0  0.00000000000E+00  0.00000000000E+00 -0.41784567543E+03  0.31953406899E+04  0.31679026367E+04 0.  0.
        2    1    3    3  502    0 -0.15755756416E+04 -0.11001798585E+03 -0.88054998016E+02  0.15818647990E+04  0.25500000920E-02 0. -1.
       -2    1    3    3    0  502  0.15755756416E+04  0.11001798585E+03 -0.32979067742E+03  0.16134758909E+04  0.25500000920E-02 0.  1.
</event>
<event>
 5   0  0.5755250E-06  0.3236835E+04  0.7818609E-02  0.8179156E-01
       -2   -1    0    0    0  501  0.00000000000E+00  0.00000000000E+00  0.14569469832E+04  0.14569469832E+04  0.25500000920E-02 0.  1.
        2   -1    0    0  501    0  0.00000000000E+00  0.00000000000E+00 -0.17977836573E+04  0.17977836573E+04  0.25500000920E-02 0. -1.
    10030    2    1    2    0    0  0.00000000000E+00  0.00000000000E+00 -0.34083667407E+03  0.32547306405E+04  0.32368351679E+04 0.  0.
        5    1    3    3  502    0  0.80957719894E+03  0.10999209969E+04  0.70272105408E+03  0.15359298195E+04  0.46999998093E+01 0.  1.
       -5    1    3    3    0  502 -0.80957719894E+03 -0.10999209969E+04 -0.10435577281E+04  0.17188008211E+04  0.46999998093E+01 0. -1.
</event>
<event>
 5   0  0.5622811E-06  0.3393724E+04  0.7818609E-02  0.8139448E-01
       -2   -1    0    0    0  501  0.00000000000E+00  0.00000000000E+00  0.14152103718E+04  0.14152103718E+04  0.25500000920E-02 0.  1.
        2   -1    0    0  501    0  0.00000000000E+00  0.00000000000E+00 -0.20345671932E+04  0.20345671932E+04  0.25500000920E-02 0. -1.
    10030    2    1    2    0    0  0.00000000000E+00  0.00000000000E+00 -0.61935682141E+03  0.34497775651E+04  0.33937239688E+04 0.  0.
        1    1    3    3  502    0 -0.92120567226E+03  0.14243000194E+04 -0.26320504343E+03  0.17165451730E+04  0.50400001928E-02 0.  1.
       -1    1    3    3    0  502  0.92120567226E+03 -0.14243000194E+04 -0.35615177798E+03  0.17332323921E+04  0.50400001928E-02 0. -1.
</event>
<event>
 5   0  0.5622811E-06  0.1643719E+04  0.7818609E-02  0.8794131E-01
       -2   -1    0    0    0  501  0.00000000000E+00  0.00000000000E+00  0.14244349290E+04  0.14244349290E+04  0.25500000920E-02 0.  1.
        2   -1    0    0  501    0  0.00000000000E+00  0.00000000000E+00 -0.47419042801E+03  0.47419042802E+03  0.25500000920E-02 0. -1.
    10030    2    1    2    0    0  0.00000000000E+00  0.00000000000E+00  0.95024450095E+03  0.18986253570E+04  0.16437194513E+04 0.  0.
        1    1    3    3  502    0  0.21942957453E+03 -0.63534298431E+03 -0.71125408995E+02  0.67592075699E+03  0.50400001928E-02 0. -1.
       -1    1    3    3    0  502 -0.21942957453E+03  0.63534298431E+03  0.10213699099E+04  0.12227046000E+04  0.50400001928E-02 0.  1.
</event>
<event>
 5   0  0.5855568E-06  0.3117856E+04  0.7818609E-02  0.8210854E-01
       -2   -1    0    0    0  501  0.00000000000E+00  0.00000000000E+00  0.95173898725E+03  0.95173898725E+03  0.25500000920E-02 0. -1.
        2   -1    0    0  501    0  0.00000000000E+00  0.00000000000E+00 -0.25534907910E+04  0.25534907910E+04  0.25500000920E-02 0.  1.
    10030    2    1    2    0    0  0.00000000000E+00  0.00000000000E+00 -0.16017518037E+04  0.35052297782E+04  0.31178561476E+04 0.  0.
        3    1    3    3  502    0 -0.66815596411E+03  0.62025544448E+03 -0.22225473834E+04  0.24022627022E+04  0.10100000352E+00 0.  1.
       -3    1    3    3    0  502  0.66815596411E+03 -0.62025544448E+03  0.62079557969E+03  0.11029670760E+04  0.10100000352E+00 0. -1.
</event>
<event>
 5   0  0.2097842E-06  0.3089459E+04  0.7818609E-02  0.8218637E-01
       -1   -1    0    0    0  501  0.00000000000E+00  0.00000000000E+00  0.20485589674E+04  0.20485589674E+04  0.50400001928E-02 0.  1.
        1   -1    0    0  501    0  0.00000000000E+00  0.00000000000E+00 -0.11648136173E+04  0.11648136173E+04  0.50400001928E-02 0. -1.
    10030    2    1    2    0    0  0.00000000000E+00  0.00000000000E+00  0.88374535011E+03  0.32133725846E+04  0.30894590989E+04 0.  0.
        4    1    3    3  502    0 -0.40903508828E+03  0.13835372052E+04  0.10160114840E+04  0.17645865947E+04  0.12699999809E+01 0. -1.
       -4    1    3    3    0  502  0.40903508828E+03 -0.13835372052E+04 -0.13226613390E+03  0.14487859900E+04  0.12699999809E+01 0.  1.
</event>
<event>
 5   0  0.2097842E-06  0.3138767E+04  0.7818609E-02  0.8205178E-01
       -1   -1    0    0    0  501  0.00000000000E+00  0.00000000000E+00  0.13072224389E+04  0.13072224389E+04  0.50400001928E-02 0.  1.
        1   -1    0    0  501    0  0.00000000000E+00  0.00000000000E+00 -0.18841209059E+04  0.18841209059E+04  0.50400001928E-02 0. -1.
    10030    2    1    2    0    0  0.00000000000E+00  0.00000000000E+00 -0.57689846706E+03  0.31913433448E+04  0.31387673541E+04 0.  0.
        4    1    3    3  502    0 -0.15490098036E+04  0.11339733429E+03 -0.59571518871E+02  0.15542974959E+04  0.12699999809E+01 0. -1.
       -4    1    3    3    0  502  0.15490098036E+04 -0.11339733429E+03 -0.51732694819E+03  0.16370458489E+04  0.12699999809E+01 0.  1.
</event>
<event>
 5   0  0.2000300E-06  0.1719485E+04  0.7818609E-02  0.8750329E-01
       -1   -1    0    0    0  501  0.00000000000E+00  0.00000000000E+00  0.10906542925E+04  0.10906542925E+04  0.50400001928E-02 0. -1.
        1   -1    0    0  501    0  0.00000000000E+00  0.00000000000E+00 -0.67771906953E+03  0.67771906955E+03  0.50400001928E-02 0.  1.
    10030    2    1    2    0    0  0.00000000000E+00  0.00000000000E+00  0.41293522293E+03  0.17683733620E+04  0.17194850535E+04 0.  0.
        1    1    3    3  502    0 -0.63509606186E+03 -0.12930520407E+03 -0.37447389564E+03  0.74853025465E+03  0.50400001928E-02 0.  1.
       -1    1    3    3    0  502  0.63509606186E+03  0.12930520407E+03  0.78740911857E+03  0.10198431074E+04  0.50400001928E-02 0. -1.
</event>
<event>
 5   0  0.5755250E-06  0.2399238E+04  0.7818609E-02  0.8439789E-01
        2   -1    0    0  501    0  0.00000000000E+00  0.00000000000E+00  0.92805488882E+03  0.92805488882E+03  0.25500000920E-02 0.  1.
       -2   -1    0    0    0  501  0.00000000000E+00  0.00000000000E+00 -0.15506470961E+04  0.15506470961E+04  0.25500000920E-02 0. -1.
    10030    2    1    2    0    0  0.00000000000E+00  0.00000000000E+00 -0.62259220724E+03  0.24787019849E+04  0.23992378943E+04 0.  0.
        5    1    3    3  502    0 -0.82830485200E+03  0.84712606225E+03 -0.50554484452E+03  0.12881417519E+04  0.46999998093E+01 0. -1.
       -5    1    3    3    0  502  0.82830485200E+03 -0.84712606225E+03 -0.11704736272E+03  0.11905602330E+04  0.46999998093E+01 0.  1.
</event>
<event>
 5   0  0.1925906E-06  0.3381519E+04  0.7818609E-02  0.8142457E-01
       -1   -1    0    0    0  501  0.00000000000E+00  0.00000000000E+00  0.20431735100E+04  0.20431735100E+04  0.50400001928E-02 0.  1.
        1   -1    0    0  501    0  0.00000000000E+00  0.00000000000E+00 -0.13991308142E+04  0.13991308142E+04  0.50400001928E-02 0. -1.
    10030    2    1    2    0    0  0.00000000000E+00  0.00000000000E+00  0.64404269586E+03  0.34423043242E+04  0.33815186036E+04 0.  0.
        1    1    3    3  502    0 -0.75594608501E+03  0.10094368327E+04  0.14684311349E+04  0.19356412892E+04  0.50400001928E-02 0.  1.
       -1    1    3    3    0  502  0.75594608501E+03 -0.10094368327E+04 -0.82438843902E+03  0.15066630350E+04  0.50400001928E-02 0. -1.
</event>
<event>
 5   0  0.5755250E-06  0.3254049E+04  0.7818609E-02  0.8174687E-01
        2   -1    0    0  501    0  0.00000000000E+00  0.00000000000E+00  0.16544117658E+04  0.16544117658E+04  0.25500000920E-02 0. -1.
       -2   -1    0    0    0  501  0.00000000000E+00  0.00000000000E+00 -0.16000910005E+04  0.16000910005E+04  0.25500000920E-02 0.  1.
    10030    2    1    2    0    0  0.00000000000E+00  0.00000000000E+00  0.54320765286E+02  0.32545027663E+04  0.32540494019E+04 0.  0.
        5    1    3    3  502    0  0.69145851611E+03 -0.11655790886E+04 -0.87324155771E+03  0.16122228132E+04  0.46999998093E+01 0.  1.
       -5    1    3    3    0  502 -0.69145851611E+03  0.11655790886E+04  0.92756232300E+03  0.16422799531E+04  0.46999998093E+01 0. -1.
</event>
<event>
 5   0  0.5622811E-06  0.1644797E+04  0.7818609E-02  0.8793490E-01
       -2   -1    0    0    0  501  0.00000000000E+00  0.00000000000E+00  0.33119660184E+03  0.33119660185E+03  0.25500000920E-02 0. -1.
        2   -1    0    0  501    0  0.00000000000E+00  0.00000000000E+00 -0.20421088210E+04  0.20421088210E+04  0.25500000920E-02 0.  1.
    10030    2    1    2    0    0  0.00000000000E+00  0.00000000000E+00 -0.17109122192E+04  0.23733054228E+04  0.16447972545E+04 0.  0.
        1    1    3    3  502    0 -0.28068583371E+03 -0.62346961583E+03 -0.19605643512E+03  0.71129250304E+03  0.50400001928E-02 0. -1.
       -1    1    3    3    0  502  0.28068583371E+03  0.62346961583E+03 -0.15148557840E+04  0.16620129198E+04  0.50400001928E-02 0.  1.
</event>
<event>
 5   0  0.5612512E-06  0.1827863E+04  0.7818609E-02  0.8691621E-01
        2   -1    0    0  501    0  0.00000000000E+00  0.00000000000E+00  0.16353246008E+04  0.16353246008E+04  0.25500000920E-02 0.  1.
       -2   -1    0    0    0  501  0.00000000000E+00  0.00000000000E+00 -0.51076757712E+03  0.51076757713E+03  0.25500000920E-02 0. -1.
    10030    2    1    2    0    0  0.00000000000E+00  0.00000000000E+00  0.11245570237E+04  0.21460921779E+04  0.18278629972E+04 0.  0.
        4    1    3    3  502    0  0.47452318468E+03  0.72174521610E+03  0.21165557858E+03  0.88931890039E+03  0.12699999809E+01 0. -1.
       -4    1    3    3    0  502 -0.47452318468E+03 -0.72174521610E+03  0.91290144507E+03  0.12567732775E+04  0.12699999809E+01 0.  1.
</event>
<event>
 5   0  0.5755250E-06  0.1825844E+04  0.7818609E-02  0.8692675E-01
       -2   -1    0    0    0  501  0.00000000000E+00  0.00000000000E+00  0.49044198334E+03  0.49044198335E+03  0.25500000920E-02 0.  1.
        2   -1    0    0  501    0  0.00000000000E+00  0.00000000000E+00 -0.16993375386E+04  0.16993375386E+04  0.25500000920E-02 0. -1.
    10030    2    1    2    0    0  0.00000000000E+00  0.00000000000E+00 -0.12088955552E+04  0.21897795219E+04  0.18258438847E+04 0.  0.
        5    1    3    3  502    0  0.74524130175E+03 -0.50526320838E+03 -0.78525914094E+03  0.11947089671E+04  0.46999998093E+01 0. -1.
       -5    1    3    3    0  502 -0.74524130175E+03  0.50526320838E+03 -0.42363641428E+03  0.99507055483E+03  0.46999998093E+01 0.  1.
</event>
<event>
 5   0  0.2097842E-06  0.3104216E+04  0.7818609E-02  0.8214582E-01
       -1   -1    0    0    0  501  0.00000000000E+00  0.00000000000E+00  0.13672423979E+04  0.13672423979E+04  0.50400001928E-02 0. -1.
        1   -1    0    0  501    0  0.00000000000E+00  0.00000000000E+00 -0.17619693574E+04  0.17619693574E+04  0.50400001928E-02 0.  1.
    10030    2    1    2    0    0  0.00000000000E+00  0.00000000000E+00 -0.39472695950E+03  0.31292117554E+04  0.31042159779E+04 0.  0.
        4    1    3    3  502    0  0.11123327434E+04  0.39157297728E+03  0.81993255151E+03  0.14362814942E+04  0.12699999809E+01 0. -1.
       -4    1    3    3    0  502 -0.11123327434E+04 -0.39157297728E+03 -0.12146595110E+04  0.16929302612E+04  0.12699999809E+01 0.  1.
</event>
<event>
 5   0  0.5622811E-06  0.3297855E+04  0.7818609E-02  0.8163441E-01
        2   -1    0    0  501    0  0.00000000000E+00  0.00000000000E+00  0.15900905202E+04  0.15900905202E+04  0.25500000920E-02 0.  1.
       -2   -1    0    0    0  501  0.00000000000E+00  0.00000000000E+00 -0.17099420184E+04  0.17099420184E+04  0.25500000920E-02 0. -1.
    10030    2    1    2    0    0  0.00000000000E+00  0.00000000000E+00 -0.11985149813E+03  0.33000325386E+04  0.32978554205E+04 0.  0.
        1    1    3    3  502    0 -0.14413654916E+04  0.17225263929E+03  0.72273964912E+03  0.16215912100E+04  0.50400001928E-02 0.  1.
       -1    1    3    3    0  502  0.14413654916E+04 -0.17225263929E+03 -0.84259114725E+03  0.16784413286E+04  0.50400001928E-02 0. -1.
</event>
<event>
 5   0  0.2097842E-06  0.3293056E+04  0.7818609E-02  0.8164665E-01
        1   -1    0    0  501    0  0.00000000000E+00  0.00000000000E+00  0.21563960094E+04  0.21563960094E+04  0.50400001928E-02 0. -1.
       -1   -1    0    0    0  501  0.00000000000E+00  0.00000000000E+00 -0.12572153368E+04  0.12572153368E+04  0.50400001928E-02 0.  1.
    10030    2    1    2    0    0  0.00000000000E+00  0.00000000000E+00  0.89918067261E+03  0.34136113463E+04  0.32930558060E+04 0.  0.
        4    1    3    3  502    0 -0.32875372481E+02 -0.54448985050E+02 -0.12559408908E+04  0.12575510392E+04  0.12699999809E+01 0.  1.
       -4    1    3    3    0  502  0.32875372481E+02  0.54448985050E+02  0.21551215634E+04  0.21560603071E+04  0.12699999809E+01 0. -1.
</event>
<event>
 5   0  0.2037109E-06  0.3225914E+04  0.7818609E-02  0.8182007E-01
       -1   -1    0    0    0  501  0.00000000000E+00  0.00000000000E+00  0.13908896213E+04  0.13908896213E+04  0.50400001928E-02 0. -1.
        1   -1    0    0  501    0  0.00000000000E+00  0.00000000000E+00 -0.18704798378E+04  0.18704798378E+04  0.50400001928E-02 0.  1.
    10030    2    1    2    0    0  0.00000000000E+00  0.00000000000E+00 -0.47959021654E+03  0.32613694591E+04  0.32259144398E+04 0.  0.
        2    1    3    3  502    0  0.26949981350E+03 -0.12214068779E+04  0.78981146948E+03  0.14792792394E+04  0.25500000920E-02 0. -1.
       -2    1    3    3    0  502 -0.26949981350E+03  0.12214068779E+04 -0.12694016860E+04  0.17820902197E+04  0.25500000920E-02 0.  1.
</event>
<event>
 5   0  0.2037109E-06  0.3285906E+04  0.7818609E-02  0.8166491E-01
       -1   -1    0    0    0  501  0.00000000000E+00  0.00000000000E+00  0.13789776227E+04  0.13789776227E+04  0.50400001928E-02 0. -1.
        1   -1    0    0  501    0  0.00000000000E+00  0.00000000000E+00 -0.19574601790E+04  0.19574601790E+04  0.50400001928E-02 0.  1.
    10030    2    1    2    0    0  0.00000000000E+00  0.00000000000E+00 -0.57848255636E+03  0.33364378017E+04  0.32859055277E+04 0.  0.
        2    1    3    3  502    0 -0.41947411264E+03 -0.70308195334E+02  0.13221077689E+04  0.13888379049E+04  0.25500000920E-02 0. -1.
       -2    1    3    3    0  502  0.41947411264E+03  0.70308195334E+02 -0.19005903253E+04  0.19475998968E+04  0.25500000920E-02 0.  1.
</event>
<event>
 5   0  0.1925906E-06  0.1858553E+04  0.7818609E-02  0.8675767E-01
        1   -1    0    0  501    0  0.00000000000E+00  0.00000000000E+00  0.83771009346E+03  0.83771009348E+03  0.50400001928E-02 0.  1.
       -1   -1    0    0    0  501  0.00000000000E+00  0.00000000000E+00 -0.10308513367E+04  0.10308513367E+04  0.50400001928E-02 0. -1.
    10030    2    1    2    0    0  0.00000000000E+00  0.00000000000E+00 -0.19314124321E+03  0.18685614302E+04  0.18585527376E+04 0.  0.
        1    1    3    3  502    0  0.11889810793E+03  0.87894654730E+03 -0.37531949783E+03  0.96309320346E+03  0.50400001928E-02 0. -1.
       -1    1    3    3    0  502 -0.11889810793E+03 -0.87894654730E+03  0.18217825462E+03  0.90546822670E+03  0.50400001928E-02 0.  1.
</event>
<event>
 5   0  0.2097842E-06  0.3324122E+04  0.7818609E-02  0.8156785E-01
        1   -1    0    0  501    0  0.00000000000E+00  0.00000000000E+00  0.14955713195E+04  0.14955713195E+04  0.50400001928E-02 0.  1.
       -1   -1    0    0    0  501  0.00000000000E+00  0.00000000000E+00 -0.18470846501E+04  0.18470846501E+04  0.50400001928E-02 0. -1.
    10030    2    1    2    0    0  0.00000000000E+00  0.00000000000E+00 -0.35151333061E+03  0.33426559696E+04  0.33241220359E+04 0.  0.
        4    1    3    3  502    0 -0.17792646963E+03 -0.13959084837E+04  0.71361050150E+03  0.15778022323E+04  0.12699999809E+01 0.  1.
       -4    1    3    3    0  502  0.17792646963E+03  0.13959084837E+04 -0.10651238321E+04  0.17648537373E+04  0.12699999809E+01 0. -1.
</event>
<event>
 5   0  0.5300268E-06  0.2734450E+04  0.7818609E-02  0.8323913E-01
        2   -1    0    0  501    0  0.00000000000E+00  0.00000000000E+00  0.16285175990E+04  0.16285175990E+04  0.25500000920E-02 0.  1.
       -2   -1    0    0    0  501  0.00000000000E+00  0.00000000000E+00 -0.11478563031E+04  0.11478563031E+04  0.25500000920E-02 0. -1.
    10030    2    1    2    0    0  0.00000000000E+00  0.00000000000E+00  0.48066129596E+03  0.27763739021E+04  0.27344499927E+04 0.  0.
        4    1    3    3  502    0  0.24602856261E+03  0.25712531460E+03  0.15806682044E+04  0.16202336456E+04  0.12699999809E+01 0.  1.
       -4    1    3    3    0  502 -0.24602856261E+03 -0.25712531460E+03 -0.11000069085E+04  0.11561402565E+04  0.12699999809E+01 0. -1.
</event>
<event>
 5   0  0.5637538E-06  0.3287739E+04  0.7818609E-02  0.8166022E-01
       -2   -1    0    0    0  501  0.00000000000E+00  0.00000000000E+00  0.10588010914E+04  0.10588010914E+04  0.25500000920E-02 0.  1.
        2   -1    0    0  501    0  0.00000000000E+00  0.00000000000E+00 -0.25522322203E+04  0.25522322203E+04  0.25500000920E-02 0. -1.
    10030    2    1    2    0    0  0.00000000000E+00  0.00000000000E+00 -0.14934311289E+04  0.36110333118E+04  0.32877385908E+04 0.  0.
        2    1    3    3  502    0 -0.16414269288E+04  0.29338903961E+02 -0.65375783007E+03  0.17670717117E+04  0.25500000920E-02 0. -1.
       -2    1    3    3    0  502  0.16414269288E+04 -0.29338903961E+02 -0.83967329888E+03  0.18439616001E+04  0.25500000920E-02 0.  1.
</event>
<event>
 5   0  0.1999849E-06  0.3298368E+04  0.7818609E-02  0.8163311E-01
       -1   -1    0    0    0  501  0.00000000000E+00  0.00000000000E+00  0.17987165682E+04  0.17987165682E+04  0.50400001928E-02 0.  1.
        1   -1    0    0  501    0  0.00000000000E+00  0.00000000000E+00 -0.15120822966E+04  0.15120822966E+04  0.50400001928E-02 0. -1.
    10030    2    1    2    0    0  0.00000000000E+00  0.00000000000E+00  0.28663427165E+03  0.33107988648E+04  0.32983677656E+04 0.  0.
        5    1    3    3  502    0  0.23003049669E+03  0.14680714514E+04 -0.57466714377E+03  0.15932395400E+04  0.46999998093E+01 0. -1.
       -5    1    3    3    0  502 -0.23003049669E+03 -0.14680714514E+04  0.86130141543E+03  0.17175593248E+04  0.46999998093E+01 0.  1.
</event>
<event>
 5   0  0.5637538E-06  0.2956772E+04  0.7818609E-02  0.8256184E-01
       -2   -1    0    0    0  501  0.00000000000E+00  0.00000000000E+00  0.25290823219E+04  0.25290823219E+04  0.25500000920E-02 0. -1.
        2   -1    0    0  501    0  0.00000000000E+00  0.00000000000E+00 -0.86419673292E+03  0.86419673292E+03  0.25500000920E-02 0.  1.
    10030    2    1    2    0    0  0.00000000000E+00  0.00000000000E+00  0.16648855889E+04  0.33932790548E+04  0.29567716718E+04 0.  0.
        2    1    3    3  502    0  0.44913955513E+03 -0.13272198900E+04  0.13736395941E+04  0.19621734661E+04  0.25500000920E-02 0. -1.
       -2    1    3    3    0  502 -0.44913955513E+03  0.13272198900E+04  0.29124599481E+03  0.14311055887E+04  0.25500000920E-02 0.  1.
</event>
<event>
 5   0  0.1999849E-06  0.3260994E+04  0.7818609E-02  0.8172892E-01
       -1   -1    0    0    0  501  0.00000000000E+00  0.00000000000E+00  0.30355930693E+04  0.30355930693E+04  0.50400001928E-02 0. -1.
        1   -1    0    0  501    0  0.00000000000E+00  0.00000000000E+00 -0.87578299479E+03  0.87578299480E+03  0.50400001928E-02 0.  1.
    10030    2    1    2    0    0  0.00000000000E+00  0.00000000000E+00  0.21598100745E+04  0.39113760641E+04  0.32609941976E+04 0.  0.
        5    1    3    3  502    0  0.16169354347E+04 -0.20652915828E+03  0.11242066475E+04  0.19801507946E+04  0.46999998093E+01 0.  1.
       -5    1    3    3    0  502 -0.16169354347E+04  0.20652915828E+03  0.10356034271E+04  0.19312252695E+04  0.46999998093E+01 0. -1.
</event>
<event>
 5   0  0.5622811E-06  0.2235943E+04  0.7818609E-02  0.8503615E-01
        2   -1    0    0  501    0  0.00000000000E+00  0.00000000000E+00  0.12609924275E+04  0.12609924275E+04  0.25500000920E-02 0.  1.
       -2   -1    0    0    0  501  0.00000000000E+00  0.00000000000E+00 -0.99117205242E+03  0.99117205242E+03  0.25500000920E-02 0. -1.
    10030    2    1    2    0    0  0.00000000000E+00  0.00000000000E+00  0.26982037506E+03  0.22521644799E+04  0.22359431589E+04 0.  0.
        1    1    3    3  502    0 -0.80244244978E+03  0.19509736757E+03 -0.62413739810E+03  0.10351446081E+04  0.50400001928E-02 0. -1.
       -1    1    3    3    0  502  0.80244244978E+03 -0.19509736757E+03  0.89395777316E+03  0.12170198718E+04  0.50400001928E-02 0.  1.
</event>
<event>
 5   0  0.5300268E-06  0.3308564E+04  0.7818609E-02  0.8160720E-01
        2   -1    0    0  501    0  0.00000000000E+00  0.00000000000E+00  0.23868634457E+04  0.23868634457E+04  0.25500000920E-02 0. -1.
       -2   -1    0    0    0  501  0.00000000000E+00  0.00000000000E+00 -0.11465464194E+04  0.11465464195E+04  0.25500000920E-02 0.  1.
    10030    2    1    2    0    0  0.00000000000E+00  0.00000000000E+00  0.12403170263E+04  0.35334098652E+04  0.33085644847E+04 0.  0.
        4    1    3    3  502    0  0.21236151170E+03  0.73885413770E+03  0.21845065304E+04  0.23158310048E+04  0.12699999809E+01 0. -1.
       -4    1    3    3    0  502 -0.21236151170E+03 -0.73885413770E+03 -0.94418950418E+03  0.12175788603E+04  0.12699999809E+01 0.  1.
</event>
<event>
 5   0  0.1999849E-06  0.2870367E+04  0.7818609E-02  0.8281749E-01
       -1   -1    0    0    0  501  0.00000000000E+00  0.00000000000E+00  0.10514174559E+04  0.10514174559E+04  0.50400001928E-02 0.  1.
        1   -1    0    0  501    0  0.00000000000E+00  0.00000000000E+00 -0.19590230794E+04  0.19590230795E+04  0.50400001928E-02 0. -1.
    10030    2    1    2    0    0  0.00000000000E+00  0.00000000000E+00 -0.90760562357E+03  0.30104405353E+04  0.28703665705E+04 0.  0.
        5    1    3    3  502    0 -0.12171664528E+04  0.50573561119E+03  0.14176998134E+03  0.13256634188E+04  0.46999998093E+01 0.  1.
       -5    1    3    3    0  502  0.12171664528E+04 -0.50573561119E+03 -0.10493756049E+04  0.16847771166E+04  0.46999998093E+01 0. -1.
</event>
<event>
 5   0  0.5300268E-06  0.3113208E+04  0.7818609E-02  0.8212122E-01
       -2   -1    0    0    0  501  0.00000000000E+00  0.00000000000E+00  0.95721973225E+03  0.95721973226E+03  0.25500000920E-02 0.  1.
        2   -1    0    0  501    0  0.00000000000E+00  0.00000000000E+00 -0.25313066199E+04  0.25313066199E+04  0.25500000920E-02 0. -1.
    10030    2    1    2    0    0  0.00000000000E+00  0.00000000000E+00 -0.15740868877E+04  0.34885263522E+04  0.31132084061E+04 0.  0.
        4    1    3    3  502    0 -0.69350815523E+03  0.11548420146E+04 -0.16610786232E+04  0.21386438333E+04  0.12699999809E+01 0. -1.
       -4    1    3    3    0  502  0.69350815523E+03 -0.11548420146E+04  0.86991735563E+02  0.13498825189E+04  0.12699999809E+01 0.  1.
</event>
<event>
 5   0  0.5755250E-06  0.3402727E+04  0.7818609E-02  0.8137237E-01
        2   -1    0    0  501    0  0.00000000000E+00  0.00000000000E+00  0.19305205212E+04  0.19305205212E+04  0.25500000920E-02 0.  1.
       -2   -1    0    0    0  501  0.00000000000E+00  0.00000000000E+00 -0.14994082416E+04  0.14994082416E+04  0.25500000920E-02 0. -1.
    10030    2    1    2    0    0  0.00000000000E+00  0.00000000000E+00  0.43111227960E+03  0.34299287629E+04  0.34027273650E+04 0.  0.
        5    1    3    3  502    0  0.12089689677E+04 -0.88509146479E+02  0.14189069815E+04  0.18662151392E+04  0.46999998093E+01 0.  1.
       -5    1    3    3    0  502 -0.12089689677E+04  0.88509146479E+02 -0.98779470187E+03  0.15637136237E+04  0.46999998093E+01 0. -1.
</event>
<event>
 5   0  0.5622811E-06  0.1689300E+04  0.7818609E-02  0.8767490E-01
       -2   -1    0    0    0  501  0.00000000000E+00  0.00000000000E+00  0.10256011379E+04  0.10256011379E+04  0.25500000920E-02 0. -1.
        2   -1    0    0  501    0  0.00000000000E+00  0.00000000000E+00 -0.69562507623E+03  0.69562507624E+03  0.25500000920E-02 0.  1.
    10030    2    1    2    0    0  0.00000000000E+00  0.00000000000E+00  0.32997606168E+03  0.17212262142E+04  0.16893002927E+04 0.  0.
        1    1    3    3  502    0 -0.84804268478E+02  0.59403005361E+03 -0.44069607778E+03  0.74449748256E+03  0.50400001928E-02 0.  1.
       -1    1    3    3    0  502  0.84804268478E+02 -0.59403005361E+03  0.77067213947E+03  0.97672873159E+03  0.50400001928E-02 0. -1.
</event>
<event>
 5   0  0.2097842E-06  0.3207443E+04  0.7818609E-02  0.8186854E-01
       -1   -1    0    0    0  501  0.00000000000E+00  0.00000000000E+00  0.20600695264E+04  0.20600695264E+04  0.50400001928E-02 0. -1.
        1   -1    0    0  501    0  0.00000000000E+00  0.00000000000E+00 -0.12484636342E+04  0.12484636342E+04  0.50400001928E-02 0.  1.
    10030    2    1    2    0    0  0.00000000000E+00  0.00000000000E+00  0.81160589219E+03  0.33085331606E+04  0.32074425249E+04 0.  0.
        4    1    3    3  502    0 -0.95131029016E+03 -0.85575865091E+02  0.17346624844E+04  0.19802449456E+04  0.12699999809E+01 0. -1.
       -4    1    3    3    0  502  0.95131029016E+03  0.85575865091E+02 -0.92305659220E+03  0.13282882150E+04  0.12699999809E+01 0.  1.
</event>
<event>
 5   0  0.5622811E-06  0.3252293E+04  0.7818609E-02  0.8175142E-01
        2   -1    0    0  501    0  0.00000000000E+00  0.00000000000E+00  0.85174015497E+03  0.85174015497E+03  0.25500000920E-02 0.  1.
       -2   -1    0    0    0  501  0.00000000000E+00  0.00000000000E+00 -0.31046472891E+04  0.31046472891E+04  0.25500000920E-02 0. -1.
    10030    2    1    2    0    0  0.00000000000E+00  0.00000000000E+00 -0.22529071341E+04  0.39563874441E+04  0.32522931991E+04 0.  0.
        1    1    3    3  502    0  0.13867808814E+04  0.46748203960E+03 -0.26398580335E+03  0.14870740313E+04  0.50400001928E-02 0.  1.
       -1    1    3    3    0  502 -0.13867808814E+04 -0.46748203960E+03 -0.19889213308E+04  0.24693134127E+04  0.50400001928E-02 0. -1.
</event>
<event>
 5   0  0.2037109E-06  0.3247310E+04  0.7818609E-02  0.8176433E-01
        1   -1    0    0  501    0  0.00000000000E+00  0.00000000000E+00  0.21296279488E+04  0.21296279488E+04  0.50400001928E-02 0. -1.
       -1   -1    0    0    0  501  0.00000000000E+00  0.00000000000E+00 -0.12378951587E+04  0.12378951587E+04  0.50400001928E-02 0.  1.
    10030    2    1    2    0    0  0.00000000000E+00  0.00000000000E+00  0.89173279017E+03  0.33675231075E+04  0.32473103502E+04 0.  0.
        2    1    3    3  502    0 -0.12292270780E+04  0.89448090686E+03 -0.14547175242E+03  0.15271729872E+04  0.25500000920E-02 0.  1.
       -2    1    3    3    0  502  0.12292270780E+04 -0.89448090686E+03  0.10372045426E+04  0.18403501203E+04  0.25500000920E-02 0. -1.
</event>
<event>
 5   0  0.5855568E-06  0.1833869E+04  0.7818609E-02  0.8688493E-01
        2   -1    0    0  501    0  0.00000000000E+00  0.00000000000E+00  0.72509476657E+03  0.72509476658E+03  0.25500000920E-02 0.  1.
       -2   -1    0    0    0  501  0.00000000000E+00  0.00000000000E+00 -0.11595298582E+04  0.11595298582E+04  0.25500000920E-02 0. -1.
    10030    2    1    2    0    0  0.00000000000E+00  0.00000000000E+00 -0.43443509158E+03  0.18846246247E+04  0.18338691685E+04 0.  0.
        3    1    3    3  502    0  0.43093914058E+03 -0.20144114434E+03  0.58836690566E+03  0.75661265083E+03  0.10100000352E+00 0.  1.
       -3    1    3    3    0  502 -0.43093914058E+03  0.20144114434E+03 -0.10228019972E+04  0.11280119739E+04  0.10100000352E+00 0. -1.
</event>
<event>
 5   0  0.2097842E-06  0.3156351E+04  0.7818609E-02  0.8200441E-01
       -1   -1    0    0    0  501  0.00000000000E+00  0.00000000000E+00  0.98796981647E+03  0.98796981648E+03  0.50400001928E-02 0. -1.
        1   -1    0    0  501    0  0.00000000000E+00  0.00000000000E+00 -0.25209652841E+04  0.25209652841E+04  0.50400001928E-02 0.  1.
    10030    2    1    2    0    0  0.00000000000E+00  0.00000000000E+00 -0.15329954676E+04  0.35089351006E+04  0.31563508101E+04 0.  0.
        4    1    3    3  502    0  0.86848500376E+03  0.12704389434E+04 -0.37763137639E+03  0.15845782972E+04  0.12699999809E+01 0. -1.
       -4    1    3    3    0  502 -0.86848500376E+03 -0.12704389434E+04 -0.11553640912E+04  0.19243568034E+04  0.12699999809E+01 0.  1.
</event>
<event>
 5   0  0.2097842E-06  0.3158923E+04  0.7818609E-02  0.8199750E-01
       -1   -1    0    0    0  501  0.00000000000E+00  0.00000000000E+00  0.10908515106E+04  0.10908515106E+04  0.50400001928E-02 0.  1.
        1   -1    0    0  501    0  0.00000000000E+00  0.00000000000E+00 -0.22869281512E+04  0.22869281512E+04  0.50400001928E-02 0. -1.
    10030    2    1    2    0    0  0.00000000000E+00  0.00000000000E+00 -0.11960766406E+04  0.33777796619E+04  0.31589232523E+04 0.  0.
        4    1    3    3  502    0  0.81301945560E+03 -0.90508531543E+03 -0.16750538898E+04  0.20702625945E+04  0.12699999809E+01 0. -1.
       -4    1    3    3    0  502 -0.81301945560E+03  0.90508531543E+03  0.47897724921E+03  0.13075170674E+04  0.12699999809E+01 0.  1.
</event>
<event>
 5   0  0.5622811E-06  0.3338214E+04  0.7818609E-02  0.8153239E-01
       -2   -1    0    0    0  501  0.00000000000E+00  0.00000000000E+00  0.16915521436E+04  0.16915521436E+04  0.25500000920E-02 0.  1.
        2   -1    0    0  501    0  0.00000000000E+00  0.00000000000E+00 -0.16469595981E+04  0.16469595981E+04  0.25500000920E-02 0. -1.
    10030    2    1    2    0    0  0.00000000000E+00  0.00000000000E+00  0.44592545483E+02  0.33385117417E+04  0.33382139168E+04 0.  0.
        1    1    3    3  502    0  0.22044105837E+03  0.10706531894E+04 -0.12391748651E+04  0.16524063842E+04  0.50400001928E-02 0. -1.
       -1    1    3    3    0  502 -0.22044105837E+03 -0.10706531894E+04  0.12837674106E+04  0.16861053575E+04  0.50400001928E-02 0.  1.
</event>
<event>
 5   0  0.5300268E-06  0.3347228E+04  0.7818609E-02  0.8150981E-01
       -2   -1    0    0    0  501  0.00000000000E+00  0.00000000000E+00  0.11842841345E+04  0.11842841345E+04  0.25500000920E-02 0. -1.
        2   -1    0    0  501    0  0.00000000000E+00  0.00000000000E+00 -0.23651279915E+04  0.23651279915E+04  0.25500000920E-02 0.  1.
    10030    2    1    2    0    0  0.00000000000E+00  0.00000000000E+00 -0.11808438571E+04  0.35494121260E+04  0.33472278419E+04 0.  0.
        4    1    3    3  502    0  0.14120333649E+04 -0.65661712338E+03 -0.12406470314E+04  0.19910276090E+04  0.12699999809E+01 0.  1.
       -4    1    3    3    0  502 -0.14120333649E+04  0.65661712338E+03  0.59803174370E+02  0.15583845170E+04  0.12699999809E+01 0. -1.
</event>
<event>
 5   0  0.1999849E-06  0.3387105E+04  0.7818609E-02  0.8141079E-01
        1   -1    0    0  501    0  0.00000000000E+00  0.00000000000E+00  0.18882453242E+04  0.18882453242E+04  0.50400001928E-02 0.  1.
       -1   -1    0    0    0  501  0.00000000000E+00  0.00000000000E+00 -0.15189337381E+04  0.15189337381E+04  0.50400001928E-02 0. -1.
    10030    2    1    2    0    0  0.00000000000E+00  0.00000000000E+00  0.36931158608E+03  0.34071790623E+04  0.33871046802E+04 0.  0.
        5    1    3    3  502    0  0.50223592336E+03 -0.16121510363E+04  0.31513791176E+03  0.17177327732E+04  0.46999998093E+01 0. -1.
       -5    1    3    3    0  502 -0.50223592336E+03  0.16121510363E+04  0.54173674325E+02  0.16894462891E+04  0.46999998093E+01 0.  1.
</event>
<event>
 5   0  0.5622811E-06  0.3315352E+04  0.7818609E-02  0.8159000E-01
       -2   -1    0    0    0  501  0.00000000000E+00  0.00000000000E+00  0.20539159273E+04  0.20539159273E+04  0.25500000920E-02 0. -1.
        2   -1    0    0  501    0  0.00000000000E+00  0.00000000000E+00 -0.13378781519E+04  0.13378781519E+04  0.25500000920E-02 0.  1.
    10030    2    1    2    0    0  0.00000000000E+00  0.00000000000E+00  0.71603777536E+03  0.33917940792E+04  0.33153517129E+04 0.  0.
        1    1    3    3  502    0  0.45182507458E+03  0.40489277905E+02  0.19891787412E+04  0.20402493339E+04  0.50400001928E-02 0. -1.
       -1    1    3    3    0  502 -0.45182507458E+03 -0.40489277905E+02 -0.12731409659E+04  0.13515447453E+04  0.50400001928E-02 0.  1.
</event>
<event>
 5   0  0.5855568E-06  0.3328992E+04  0.7818609E-02  0.8155557E-01
       -2   -1    0    0    0  501  0.00000000000E+00  0.00000000000E+00  0.13312790247E+04  0.13312790247E+04  0.25500000920E-02 0.  1.
        2   -1    0    0  501    0  0.00000000000E+00  0.00000000000E+00 -0.20811170117E+04  0.20811170117E+04  0.25500000920E-02 0. -1.
    10030    2    1    2    0    0  0.00000000000E+00  0.00000000000E+00 -0.74983798694E+03  0.34123960364E+04  0.33289922954E+04 0.  0.
        3    1    3    3  502    0  0.82699094961E+03 -0.82366568582E+03 -0.15913292595E+04  0.19734913263E+04  0.10100000352E+00 0. -1.
       -3    1    3    3    0  502 -0.82699094961E+03  0.82366568582E+03  0.84149127257E+03  0.14389047101E+04  0.10100000352E+00 0.  1.
</event>
<event>
 5   0  0.1925906E-06  0.3232249E+04  0.7818609E-02  0.8180352E-01
       -1   -1    0    0    0  501  0.00000000000E+00  0.00000000000E+00  0.11541174653E+04  0.11541174653E+04  0.50400001928E-02 0.  1.
        1   -1    0    0  501    0  0.00000000000E+00  0.00000000000E+00 -0.22630788290E+04  0.22630788290E+04  0.50400001928E-02 0. -1.
    10030    2    1    2    0    0  0.00000000000E+00  0.00000000000E+00 -0.11089613637E+04  0.34171962944E+04  0.32322492490E+04 0.  0.
        1    1    3    3  502    0  0.96201425374E+03  0.79524916463E+02  0.81585790993E+03  0.12638907255E+04  0.50400001928E-02 0.  1.
       -1    1    3    3    0  502 -0.96201425374E+03 -0.79524916463E+02 -0.19248192736E+04  0.21533055689E+04  0.50400001928E-02 0. -1.
</event>
<event>
 5   0  0.2097842E-06  0.2253278E+04  0.7818609E-02  0.8496574E-01
       -1   -1    0    0    0  501  0.00000000000E+00  0.00000000000E+00  0.88201500730E+03  0.88201500731E+03  0.50400001928E-02 0. -1.
        1   -1    0    0  501    0  0.00000000000E+00  0.00000000000E+00 -0.14391081915E+04  0.14391081916E+04  0.50400001928E-02 0.  1.
    10030    2    1    2    0    0  0.00000000000E+00  0.00000000000E+00 -0.55709318425E+03  0.23211231989E+04  0.22532776323E+04 0.  0.
        4    1    3    3  502    0 -0.26149847144E+03 -0.74958481794E+03 -0.11020254537E+04  0.13582049048E+04  0.12699999809E+01 0.  1.
       -4    1    3    3    0  502  0.26149847144E+03  0.74958481794E+03  0.54493226947E+03  0.96291829408E+03  0.12699999809E+01 0. -1.
</event>
<event>
 5   0  0.2730981E-06  0.3012863E+04  0.7818609E-02  0.8240067E-01
       -1   -1    0    0    0  501  0.00000000000E+00  0.00000000000E+00  0.15652442032E+04  0.15652442032E+04  0.50400001928E-02 0.  1.
        1   -1    0    0  501    0  0.00000000000E+00  0.00000000000E+00 -0.14498286160E+04  0.14498286160E+04  0.50400001928E-02 0. -1.
    10030    2    1    2    0    0  0.00000000000E+00  0.00000000000E+00  0.11541558723E+03  0.30150728193E+04  0.30128629819E+04 0.  0.
        3    1    3    3  502    0  0.12678423397E+04 -0.52028300528E+03 -0.56822456985E+03  0.14835760095E+04  0.10100000352E+00 0. -1.
       -3    1    3    3    0  502 -0.12678423397E+04  0.52028300528E+03  0.68364015708E+03  0.15314968098E+04  0.10100000352E+00 0.  1.
</event>
<event>
 5   0  0.1999849E-06  0.1820429E+04  0.7818609E-02  0.8695511E-01
       -1   -1    0    0    0  501  0.00000000000E+00  0.00000000000E+00  0.47287803048E+03  0.47287803050E+03  0.50400001928E-02 0. -1.
        1   -1    0    0  501    0  0.00000000000E+00  0.00000000000E+00 -0.17520163803E+04  0.17520163803E+04  0.50400001928E-02 0.  1.
    10030    2    1    2    0    0  0.00000000000E+00  0.00000000000E+00 -0.12791383498E+04  0.22248944108E+04  0.18204285817E+04 0.  0.
        5    1    3    3  502    0 -0.64623172749E+03 -0.40756962829E+03 -0.34941795514E+02  0.76483427394E+03  0.46999998093E+01 0. -1.
       -5    1    3    3    0  502  0.64623172749E+03  0.40756962829E+03 -0.12441965543E+04  0.14600601369E+04  0.46999998093E+01 0.  1.
</event>
<event>
 5   0  0.1999849E-06  0.3170405E+04  0.7818609E-02  0.8196677E-01
        1   -1    0    0  501    0  0.00000000000E+00  0.00000000000E+00  0.13322316030E+04  0.13322316030E+04  0.50400001928E-02 0.  1.
       -1   -1    0    0    0  501  0.00000000000E+00  0.00000000000E+00 -0.18862089414E+04  0.18862089414E+04  0.50400001928E-02 0. -1.
    10030    2    1    2    0    0  0.00000000000E+00  0.00000000000E+00 -0.55397733844E+03  0.32184405444E+04  0.31704051233E+04 0.  0.
        5    1    3    3  502    0 -0.22661810081E+03 -0.74990581728E+03 -0.16759578340E+04  0.18500192566E+04  0.46999998093E+01 0. -1.
       -5    1    3    3    0  502  0.22661810081E+03  0.74990581728E+03  0.11219804956E+04  0.13684212878E+04  0.46999998093E+01 0.  1.
</event>
<event>
 5   0  0.5300268E-06  0.2494239E+04  0.7818609E-02  0.8405041E-01
        2   -1    0    0  501    0  0.00000000000E+00  0.00000000000E+00  0.87048397700E+03  0.87048397700E+03  0.25500000920E-02 0. -1.
       -2   -1    0    0    0  501  0.00000000000E+00  0.00000000000E+00 -0.17867151395E+04  0.17867151395E+04  0.25500000920E-02 0.  1.
    10030    2    1    2    0    0  0.00000000000E+00  0.00000000000E+00 -0.91623116251E+03  0.26571991165E+04  0.24942388822E+04 0.  0.
        4    1    3    3  502    0  0.27017268260E+03 -0.87288276206E+03 -0.13623253540E+04  0.16403809246E+04  0.12699999809E+01 0.  1.
       -4    1    3    3    0  502 -0.27017268260E+03  0.87288276206E+03  0.44609419153E+03  0.10168181919E+04  0.12699999809E+01 0. -1.
</event>
<event>
 5   0  0.5622811E-06  0.3378540E+04  0.7818609E-02  0.8143193E-01
        2   -1    0    0  501    0  0.00000000000E+00  0.00000000000E+00  0.27639342136E+04  0.27639342136E+04  0.25500000920E-02 0. -1.
       -2   -1    0    0    0  501  0.00000000000E+00  0.00000000000E+00 -0.10324535799E+04  0.10324535799E+04  0.25500000920E-02 0.  1.
    10030    2    1    2    0    0  0.00000000000E+00  0.00000000000E+00  0.17314806336E+04  0.37963877935E+04  0.33785403792E+04 0.  0.
        1    1    3    3  502    0  0.15880542847E+03  0.16432960000E+04  0.12677479842E+04  0.20815441045E+04  0.50400001928E-02 0.  1.
       -1    1    3    3    0  502 -0.15880542847E+03 -0.16432960000E+04  0.46373264948E+03  0.17148436890E+04  0.50400001928E-02 0. -1.
</event>
<event>
 5   0  0.2037109E-06  0.3544517E+04  0.7818609E-02  0.8103320E-01
        1   -1    0    0  501    0  0.00000000000E+00  0.00000000000E+00  0.19543244303E+04  0.19543244303E+04  0.50400001928E-02 0.  1.
       -1   -1    0    0    0  501  0.00000000000E+00  0.00000000000E+00 -0.16071539113E+04  0.16071539113E+04  0.50400001928E-02 0. -1.
    10030    2    1    2    0    0  0.00000000000E+00  0.00000000000E+00  0.34717051906E+03  0.35614783416E+04  0.35445169782E+04 0.  0.
        2    1    3    3  502    0 -0.10845537008E+04  0.26118528278E+03 -0.12101122503E+04  0.16458572660E+04  0.25500000920E-02 0. -1.
       -2    1    3    3    0  502  0.10845537008E+04 -0.26118528278E+03  0.15572827693E+04  0.19156210756E+04  0.25500000920E-02 0.  1.
</event>
<event>
 5   0  0.5755250E-06  0.3280018E+04  0.7818609E-02  0.8167998E-01
       -2   -1    0    0    0  501  0.00000000000E+00  0.00000000000E+00  0.11595895909E+04  0.11595895909E+04  0.25500000920E-02 0. -1.
        2   -1    0    0  501    0  0.00000000000E+00  0.00000000000E+00 -0.23194673330E+04  0.23194673330E+04  0.25500000920E-02 0.  1.
    10030    2    1    2    0    0  0.00000000000E+00  0.00000000000E+00 -0.11598777421E+04  0.34790569240E+04  0.32800183999E+04 0.  0.
        5    1    3    3  502    0 -0.11196779233E+04  0.10852184461E+04 -0.40938699302E+02  0.15598319765E+04  0.46999998093E+01 0. -1.
       -5    1    3    3    0  502  0.11196779233E+04 -0.10852184461E+04 -0.11189390428E+04  0.19192249475E+04  0.46999998093E+01 0.  1.
</event>
<event>
 5   0  0.2037109E-06  0.3237129E+04  0.7818609E-02  0.8179080E-01
       -1   -1    0    0    0  501  0.00000000000E+00  0.00000000000E+00  0.18231918719E+04  0.18231918719E+04  0.50400001928E-02 0. -1.
        1   -1    0    0  501    0  0.00000000000E+00  0.00000000000E+00 -0.14369036605E+04  0.14369036606E+04  0.50400001928E-02 0.  1.
    10030    2    1    2    0    0  0.00000000000E+00  0.00000000000E+00  0.38628821137E+03  0.32600955325E+04  0.32371290210E+04 0.  0.
        2    1    3    3  502    0 -0.32422488186E+03 -0.29952858997E+03 -0.13751167482E+04  0.14442247822E+04  0.25500000920E-02 0.  1.
       -2    1    3    3    0  502  0.32422488186E+03  0.29952858997E+03  0.17614049596E+04  0.18158707503E+04  0.25500000920E-02 0. -1.
</event>
<event>
 5   0  0.5637538E-06  0.3110969E+04  0.7818609E-02  0.8212734E-01
        2   -1    0    0  501    0  0.00000000000E+00  0.00000000000E+00  0.16092694455E+04  0.16092694455E+04  0.25500000920E-02 0. -1.
       -2   -1    0    0    0  501  0.00000000000E+00  0.00000000000E+00 -0.15034976128E+04  0.15034976129E+04  0.25500000920E-02 0.  1.
    10030    2    1    2    0    0  0.00000000000E+00  0.00000000000E+00  0.10577183262E+03  0.31127670583E+04  0.31109694757E+04 0.  0.
        2    1    3    3  502    0  0.76355730606E+03 -0.89076603355E+03 -0.96900185751E+03  0.15216597800E+04  0.25500000920E-02 0.  1.
       -2    1    3    3    0  502 -0.76355730606E+03  0.89076603355E+03  0.10747736901E+04  0.15911072783E+04  0.25500000920E-02 0. -1.
</event>
<event>
 5   0  0.5855568E-06  0.2927035E+04  0.7818609E-02  0.8264879E-01
       -2   -1    0    0    0  501  0.00000000000E+00  0.00000000000E+00  0.23467968621E+04  0.23467968621E+04  0.25500000920E-02 0. -1.
        2   -1    0    0  501    0  0.00000000000E+00  0.00000000000E+00 -0.91268399538E+03  0.91268399538E+03  0.25500000920E-02 0.  1.
    10030    2    1    2    0    0  0.00000000000E+00  0.00000000000E+00  0.14341128668E+04  0.32594808575E+04  0.29270353168E+04 0.  0.
        3    1    3    3  502    0  0.12846391503E+03  0.14578342731E+04  0.70591058168E+03  0.16248364548E+04  0.10100000352E+00 0. -1.
       -3    1    3    3    0  502 -0.12846391503E+03 -0.14578342731E+04  0.72820228508E+03  0.16346444027E+04  0.10100000352E+00 0.  1.
</event>
<event>
 5   0  0.5622811E-06  0.3232199E+04  0.7818609E-02  0.8180365E-01
        2   -1    0    0  501    0  0.00000000000E+00  0.00000000000E+00  0.15675082940E+04  0.15675082940E+04  0.25500000920E-02 0.  1.
       -2   -1    0    0    0  501  0.00000000000E+00  0.00000000000E+00 -0.16661966214E+04  0.16661966214E+04  0.25500000920E-02 0. -1.
    10030    2    1    2    0    0  0.00000000000E+00  0.00000000000E+00 -0.98688327379E+02  0.32337049153E+04  0.32321986470E+04 0.  0.
        1    1    3    3  502    0  0.89443505860E+03 -0.29449684807E+03 -0.13633619454E+04  0.16569545141E+04  0.50400001928E-02 0. -1.
       -1    1    3    3    0  502 -0.89443505860E+03  0.29449684807E+03  0.12646736180E+04  0.15767504012E+04  0.50400001928E-02 0.  1.
</event>
<event>
 5   0  0.5300268E-06  0.1924923E+04  0.7818609E-02  0.8642549E-01
        2   -1    0    0  501    0  0.00000000000E+00  0.00000000000E+00  0.16616236660E+04  0.16616236660E+04  0.25500000920E-02 0. -1.
       -2   -1    0    0    0  501  0.00000000000E+00  0.00000000000E+00 -0.55748610663E+03  0.55748610664E+03  0.25500000920E-02 0.  1.
    10030    2    1    2    0    0  0.00000000000E+00  0.00000000000E+00  0.11041375593E+04  0.22191097726E+04  0.19249229681E+04 0.  0.
        4    1    3    3  502    0  0.93145657660E+03  0.11993584692E+03  0.30933148644E+03  0.98877881392E+03  0.12699999809E+01 0.  1.
       -4    1    3    3    0  502 -0.93145657660E+03 -0.11993584692E+03  0.79480607290E+03  0.12303309587E+04  0.12699999809E+01 0. -1.
</event>
<event>
 5   0  0.1999849E-06  0.2032779E+04  0.7818609E-02  0.8591447E-01
        1   -1    0    0  501    0  0.00000000000E+00  0.00000000000E+00  0.93596173379E+03  0.93596173380E+03  0.50400001928E-02 0. -1.
       -1   -1    0    0    0  501  0.00000000000E+00  0.00000000000E+00 -0.11037285398E+04  0.11037285398E+04  0.50400001928E-02 0.  1.
    10030    2    1    2    0    0  0.00000000000E+00  0.00000000000E+00 -0.16776680604E+03  0.20396902736E+04  0.20327790611E+04 0.  0.
        5    1    3    3  502    0  0.21161796264E+03  0.52086151738E+03  0.76572242540E+03  0.94996410730E+03  0.46999998093E+01 0. -1.
       -5    1    3    3    0  502 -0.21161796264E+03 -0.52086151738E+03 -0.93348923145E+03  0.10897261663E+04  0.46999998093E+01 0.  1.
</event>
<event>
 5   0  0.2097842E-06  0.2281174E+04  0.7818609E-02  0.8485381E-01
        1   -1    0    0  501    0  0.00000000000E+00  0.00000000000E+00  0.84590722217E+03  0.84590722219E+03  0.50400001928E-02 0.  1.
       -1   -1    0    0    0  501  0.00000000000E+00  0.00000000000E+00 -0.15379210005E+04  0.15379210005E+04  0.50400001928E-02 0. -1.
    10030    2    1    2    0    0  0.00000000000E+00  0.00000000000E+00 -0.69201377830E+03  0.23838282227E+04  0.22811738044E+04 0.  0.
        4    1    3    3  502    0  0.63092581745E+03 -0.11066272687E+03 -0.13322036998E+04  0.14782022652E+04  0.12699999809E+01 0. -1.
       -4    1    3    3    0  502 -0.63092581745E+03  0.11066272687E+03  0.64018992153E+03  0.90562595743E+03  0.12699999809E+01 0.  1.
</event>
<event>
 5   0  0.1878000E-06  0.2190599E+04  0.7818609E-02  0.8522351E-01
       -3   -1    0    0    0  501  0.00000000000E+00  0.00000000000E+00  0.94094767942E+03  0.94094768484E+03  0.10100000352E+00 0. -1.
        3   -1    0    0  501    0  0.00000000000E+00  0.00000000000E+00 -0.12749710195E+04  0.12749710235E+04  0.10100000352E+00 0.  1.
    10030    2    1    2    0    0  0.00000000000E+00  0.00000000000E+00 -0.33402334003E+03  0.22159187083E+04  0.21905990345E+04 0.  0.
        2    1    3    3  502    0  0.72633991821E+03 -0.22963886809E+03 -0.96311344201E+03  0.12279622098E+04  0.25500000920E-02 0.  1.
       -2    1    3    3    0  502 -0.72633991821E+03  0.22963886809E+03  0.62909010197E+03  0.98795649850E+03  0.25500000920E-02 0. -1.
</event>
<event>
 5   0  0.5855568E-06  0.3356640E+04  0.7818609E-02  0.8148631E-01
       -2   -1    0    0    0  501  0.00000000000E+00  0.00000000000E+00  0.19377322038E+04  0.19377322038E+04  0.25500000920E-02 0.  1.
        2   -1    0    0  501    0  0.00000000000E+00  0.00000000000E+00 -0.14536366104E+04  0.14536366104E+04  0.25500000920E-02 0. -1.
    10030    2    1    2    0    0  0.00000000000E+00  0.00000000000E+00  0.48409559336E+03  0.33913688142E+04  0.33566402682E+04 0.  0.
        3    1    3    3  502    0 -0.50952878177E+03  0.30450674411E+03  0.18281351485E+04  0.19220879449E+04  0.10100000352E+00 0.  1.
       -3    1    3    3    0  502  0.50952878177E+03 -0.30450674411E+03 -0.13440395552E+04  0.14692808692E+04  0.10100000352E+00 0. -1.
</event>
<event>
 5   0  0.5637538E-06  0.3164401E+04  0.7818609E-02  0.8198283E-01
       -2   -1    0    0    0  501  0.00000000000E+00  0.00000000000E+00  0.14275533245E+04  0.14275533245E+04  0.25500000920E-02 0.  1.
        2   -1    0    0  501    0  0.00000000000E+00  0.00000000000E+00 -0.17536003615E+04  0.17536003615E+04  0.25500000920E-02 0. -1.
    10030    2    1    2    0    0  0.00000000000E+00  0.00000000000E+00 -0.32604703698E+03  0.31811536860E+04  0.31644007495E+04 0.  0.
        2    1    3    3  502    0  0.15801948860E+03  0.78852459555E+02 -0.17436612762E+04  0.17525816715E+04  0.25500000920E-02 0. -1.
       -2    1    3    3    0  502 -0.15801948860E+03 -0.78852459555E+02  0.14176142392E+04  0.14285720144E+04  0.25500000920E-02 0.  1.
</event>
<event>
 5   0  0.5755250E-06  0.3114004E+04  0.7818609E-02  0.8211905E-01
        2   -1    0    0  501    0  0.00000000000E+00  0.00000000000E+00  0.23338269669E+04  0.23338269669E+04  0.25500000920E-02 0. -1.
       -2   -1    0    0    0  501  0.00000000000E+00  0.00000000000E+00 -0.10387467376E+04  0.10387467376E+04  0.25500000920E-02 0.  1.
    10030    2    1    2    0    0  0.00000000000E+00  0.00000000000E+00  0.12950802293E+04  0.33725737045E+04  0.31140039486E+04 0.  0.
        5    1    3    3  502    0  0.81752619724E+03 -0.12686475422E+04  0.10619581226E+04  0.18454248328E+04  0.46999998093E+01 0. -1.
       -5    1    3    3    0  502 -0.81752619724E+03  0.12686475422E+04  0.23312210666E+03  0.15271488716E+04  0.46999998093E+01 0.  1.
</event>
<event>
 5   0  0.2097842E-06  0.3273041E+04  0.7818609E-02  0.8169789E-01
        1   -1    0    0  501    0  0.00000000000E+00  0.00000000000E+00  0.12656570084E+04  0.12656570084E+04  0.50400001928E-02 0.  1.
       -1   -1    0    0    0  501  0.00000000000E+00  0.00000000000E+00 -0.21160547359E+04  0.21160547359E+04  0.50400001928E-02 0. -1.
    10030    2    1    2    0    0  0.00000000000E+00  0.00000000000E+00 -0.85039772757E+03  0.33817117443E+04  0.32730410976E+04 0.  0.
        4    1    3    3  502    0 -0.62057111467E+03  0.37180771520E+03  0.10914794914E+04  0.13094573603E+04  0.12699999809E+01 0.  1.
       -4    1    3    3    0  502  0.62057111467E+03 -0.37180771520E+03 -0.19418772190E+04  0.20722543840E+04  0.12699999809E+01 0. -1.
</event>
<event>
 5   0  0.1925906E-06  0.3145316E+04  0.7818609E-02  0.8203410E-01
       -1   -1    0    0    0  501  0.00000000000E+00  0.00000000000E+00  0.17670812038E+04  0.17670812038E+04  0.50400001928E-02 0.  1.
        1   -1    0    0  501    0  0.00000000000E+00  0.00000000000E+00 -0.13996258186E+04  0.13996258186E+04  0.50400001928E-02 0. -1.
    10030    2    1    2    0    0  0.00000000000E+00  0.00000000000E+00  0.36745538522E+03  0.31667070224E+04  0.31453155495E+04 0.  0.
        1    1    3    3  502    0 -0.80515319218E+03 -0.65772724770E+03 -0.10042871809E+04  0.14454997534E+04  0.50400001928E-02 0. -1.
       -1    1    3    3    0  502  0.80515319218E+03  0.65772724770E+03  0.13717425661E+04  0.17212072690E+04  0.50400001928E-02 0.  1.
</event>
<event>
 5   0  0.5637538E-06  0.3470973E+04  0.7818609E-02  0.8120704E-01
       -2   -1    0    0    0  501  0.00000000000E+00  0.00000000000E+00  0.17462999392E+04  0.17462999392E+04  0.25500000920E-02 0. -1.
        2   -1    0    0  501    0  0.00000000000E+00  0.00000000000E+00 -0.17247404099E+04  0.17247404099E+04  0.25500000920E-02 0.  1.
    10030    2    1    2    0    0  0.00000000000E+00  0.00000000000E+00  0.21559529242E+02  0.34710403491E+04  0.34709733926E+04 0.  0.
        2    1    3    3  502    0 -0.93597115699E+02 -0.15931995195E+04  0.69260590020E+03  0.17397551730E+04  0.25500000920E-02 0. -1.
       -2    1    3    3    0  502  0.93597115699E+02  0.15931995195E+04 -0.67104637096E+03  0.17312851761E+04  0.25500000920E-02 0.  1.
</event>
<event>
 5   0  0.2097842E-06  0.2073111E+04  0.7818609E-02  0.8573182E-01
        1   -1    0    0  501    0  0.00000000000E+00  0.00000000000E+00  0.16062981989E+04  0.16062981989E+04  0.50400001928E-02 0.  1.
       -1   -1    0    0    0  501  0.00000000000E+00  0.00000000000E+00 -0.66889650433E+03  0.66889650435E+03  0.50400001928E-02 0. -1.
    10030    2    1    2    0    0  0.00000000000E+00  0.00000000000E+00  0.93740169459E+03  0.22751947033E+04  0.20731109475E+04 0.  0.
        4    1    3    3  502    0 -0.71449558006E+03  0.53240224376E+03  0.10499393416E+04  0.13770730979E+04  0.12699999809E+01 0.  1.
       -4    1    3    3    0  502  0.71449558006E+03 -0.53240224376E+03 -0.11253764702E+03  0.89812160534E+03  0.12699999809E+01 0. -1.
</event>
<event>
 5   0  0.5300268E-06  0.1822173E+04  0.7818609E-02  0.8694596E-01
        2   -1    0    0  501    0  0.00000000000E+00  0.00000000000E+00  0.11636839698E+04  0.11636839698E+04  0.25500000920E-02 0. -1.
       -2   -1    0    0    0  501  0.00000000000E+00  0.00000000000E+00 -0.71331946733E+03  0.71331946734E+03  0.25500000920E-02 0.  1.
    10030    2    1    2    0    0  0.00000000000E+00  0.00000000000E+00  0.45036450246E+03  0.18770034371E+04  0.18221728013E+04 0.  0.
        4    1    3    3  502    0 -0.65940909308E+03 -0.44831986038E+03  0.67920085312E+03  0.10474380464E+04  0.12699999809E+01 0. -1.
       -4    1    3    3    0  502  0.65940909308E+03  0.44831986038E+03 -0.22883635066E+03  0.82956539075E+03  0.12699999809E+01 0.  1.
</event>
<event>
 5   0  0.1999849E-06  0.3284674E+04  0.7818609E-02  0.8166806E-01
        1   -1    0    0  501    0  0.00000000000E+00  0.00000000000E+00  0.15254686914E+04  0.15254686914E+04  0.50400001928E-02 0. -1.
       -1   -1    0    0    0  501  0.00000000000E+00  0.00000000000E+00 -0.17681590008E+04  0.17681590008E+04  0.50400001928E-02 0.  1.
    10030    2    1    2    0    0  0.00000000000E+00  0.00000000000E+00 -0.24269030939E+03  0.32936276921E+04  0.32846742286E+04 0.  0.
        5    1    3    3  502    0 -0.12495600206E+04  0.76153991951E+03 -0.86896842408E+03  0.17019023198E+04  0.46999998093E+01 0.  1.
       -5    1    3    3    0  502  0.12495600206E+04 -0.76153991951E+03  0.62627811468E+03  0.15917253723E+04  0.46999998093E+01 0. -1.
</event>
<event>
 5   0  0.5855568E-06  0.1631440E+04  0.7818609E-02  0.8801463E-01
        2   -1    0    0  501    0  0.00000000000E+00  0.00000000000E+00  0.11733328825E+04  0.11733328825E+04  0.25500000920E-02 0. -1.
       -2   -1    0    0    0  501  0.00000000000E+00  0.00000000000E+00 -0.56710166505E+03  0.56710166506E+03  0.25500000920E-02 0.  1.
    10030    2    1    2    0    0  0.00000000000E+00  0.00000000000E+00  0.60623121745E+03  0.17404345476E+04  0.16314398933E+04 0.  0.
        3    1    3    3  502    0  0.23684262363E+03 -0.28905057891E+03 -0.47041598636E+03  0.60077939042E+03  0.10100000352E+00 0.  1.
       -3    1    3    3    0  502 -0.23684262363E+03  0.28905057891E+03  0.10766472038E+04  0.11396551571E+04  0.10100000352E+00 0. -1.
</event>
<event>
 5   0  0.5622811E-06  0.2889114E+04  0.7818609E-02  0.8276124E-01
       -2   -1    0    0    0  501  0.00000000000E+00  0.00000000000E+00  0.18042687961E+04  0.18042687961E+04  0.25500000920E-02 0.  1.
        2   -1    0    0  501    0  0.00000000000E+00  0.00000000000E+00 -0.11565597359E+04  0.11565597359E+04  0.25500000920E-02 0. -1.
    10030    2    1    2    0    0  0.00000000000E+00  0.00000000000E+00  0.64770906019E+03  0.29608285319E+04  0.28891138034E+04 0.  0.
        1    1    3    3  502    0 -0.57029172350E+03  0.13133438018E+04  0.12768721835E+03  0.14375008234E+04  0.50400001928E-02 0.  1.
       -1    1    3    3    0  502  0.57029172350E+03 -0.13133438018E+04  0.52002184184E+03  0.15233277085E+04  0.50400001928E-02 0. -1.
</event>
<event>
 5   0  0.1925906E-06  0.1983202E+04  0.7818609E-02  0.8614515E-01
        1   -1    0    0  501    0  0.00000000000E+00  0.00000000000E+00  0.13039706118E+04  0.13039706118E+04  0.50400001928E-02 0.  1.
       -1   -1    0    0    0  501  0.00000000000E+00  0.00000000000E+00 -0.75406036517E+03  0.75406036519E+03  0.50400001928E-02 0. -1.
    10030    2    1    2    0    0  0.00000000000E+00  0.00000000000E+00  0.54991024662E+03  0.20580309770E+04  0.19832020126E+04 0.  0.
        1    1    3    3  502    0 -0.85626081221E+03  0.49627353184E+03  0.21096353051E+03  0.10119167990E+04  0.50400001928E-02 0. -1.
       -1    1    3    3    0  502  0.85626081221E+03 -0.49627353184E+03  0.33894671611E+03  0.10461141780E+04  0.50400001928E-02 0.  1.
</event>
<event>
 5   0  0.2097842E-06  0.3415720E+04  0.7818609E-02  0.8134059E-01
       -1   -1    0    0    0  501  0.00000000000E+00  0.00000000000E+00  0.15112590118E+04  0.15112590118E+04  0.50400001928E-02 0.  1.
        1   -1    0    0  501    0  0.00000000000E+00  0.00000000000E+00 -0.19300364203E+04  0.19300364203E+04  0.50400001928E-02 0. -1.
    10030    2    1    2    0    0  0.00000000000E+00  0.00000000000E+00 -0.41877740847E+03  0.34412954321E+04  0.34157195044E+04 0.  0.
        4    1    3    3  502    0 -0.81698947402E+03  0.32054147621E+03  0.12666975912E+04  0.15410201294E+04  0.12699999809E+01 0.  1.
       -4    1    3    3    0  502  0.81698947402E+03 -0.32054147621E+03 -0.16854749997E+04  0.19002753027E+04  0.12699999809E+01 0. -1.
</event>
<event>
 5   0  0.2097842E-06  0.3302378E+04  0.7818609E-02  0.8162290E-01
       -1   -1    0    0    0  501  0.00000000000E+00  0.00000000000E+00  0.12647034150E+04  0.12647034150E+04  0.50400001928E-02 0.  1.
        1   -1    0    0  501    0  0.00000000000E+00  0.00000000000E+00 -0.21557825558E+04  0.21557825558E+04  0.50400001928E-02 0. -1.
    10030    2    1    2    0    0  0.00000000000E+00  0.00000000000E+00 -0.89107914077E+03  0.34204859709E+04  0.33023782705E+04 0.  0.
        4    1    3    3  502    0 -0.17491531656E+03 -0.16203411098E+04 -0.17087002049E+03  0.16386881512E+04  0.12699999809E+01 0.  1.
       -4    1    3    3    0  502  0.17491531656E+03  0.16203411098E+04 -0.72020912028E+03  0.17817978196E+04  0.12699999809E+01 0. -1.
</event>
<event>
 5   0  0.2097842E-06  0.3133842E+04  0.7818609E-02  0.8206511E-01
       -1   -1    0    0    0  501  0.00000000000E+00  0.00000000000E+00  0.17501634083E+04  0.17501634083E+04  0.50400001928E-02 0.  1.
        1   -1    0    0  501    0  0.00000000000E+00  0.00000000000E+00 -0.14028644887E+04  0.14028644887E+04  0.50400001928E-02 0. -1.
    10030    2    1    2    0    0  0.00000000000E+00  0.00000000000E+00  0.34729891955E+03  0.31530278970E+04  0.31338424306E+04 0.  0.
        4    1    3    3  502    0 -0.33660911938E+03 -0.90835194514E+03 -0.10654875552E+04  0.14400257979E+04  0.12699999809E+01 0. -1.
       -4    1    3    3    0  502  0.33660911938E+03  0.90835194514E+03  0.14127864747E+04  0.17130020991E+04  0.12699999809E+01 0.  1.
</event>
<event>
 5   0  0.1925906E-06  0.3377985E+04  0.7818609E-02  0.8143331E-01
        1   -1    0    0  501    0  0.00000000000E+00  0.00000000000E+00  0.14780889375E+04  0.14780889375E+04  0.50400001928E-02 0.  1.
       -1   -1    0    0    0  501  0.00000000000E+00  0.00000000000E+00 -0.19299890213E+04  0.19299890213E+04  0.50400001928E-02 0. -1.
    10030    2    1    2    0    0  0.00000000000E+00  0.00000000000E+00 -0.45190008382E+03  0.34080779589E+04  0.33779848561E+04 0.  0.
        1    1    3    3  502    0  0.60880592023E+03  0.74867115252E+03  0.11725960841E+04  0.15185962991E+04  0.50400001928E-02 0.  1.
       -1    1    3    3    0  502 -0.60880592023E+03 -0.74867115252E+03 -0.16244961679E+04  0.18894816598E+04  0.50400001928E-02 0. -1.
</event>
<event>
 5   0  0.5755250E-06  0.3278090E+04  0.7818609E-02  0.8168493E-01
       -2   -1    0    0    0  501  0.00000000000E+00  0.00000000000E+00  0.16973024509E+04  0.16973024509E+04  0.25500000920E-02 0. -1.
        2   -1    0    0  501    0  0.00000000000E+00  0.00000000000E+00 -0.15827866717E+04  0.15827866717E+04  0.25500000920E-02 0.  1.
    10030    2    1    2    0    0  0.00000000000E+00  0.00000000000E+00  0.11451577919E+03  0.32800891225E+04  0.32780895028E+04 0.  0.
        5    1    3    3  502    0  0.15312628996E+04  0.46142716593E+03  0.41631449996E+03  0.16525800888E+04  0.46999998093E+01 0. -1.
       -5    1    3    3    0  502 -0.15312628996E+04 -0.46142716593E+03 -0.30179872077E+03  0.16275090337E+04  0.46999998093E+01 0.  1.
</event>
<event>
 5   0  0.5637538E-06  0.3251729E+04  0.7818609E-02  0.8175288E-01
       -2   -1    0    0    0  501  0.00000000000E+00  0.00000000000E+00  0.13268381810E+04  0.13268381810E+04  0.25500000920E-02 0.  1.
        2   -1    0    0  501    0  0.00000000000E+00  0.00000000000E+00 -0.19922817777E+04  0.19922817777E+04  0.25500000920E-02 0. -1.
    10030    2    1    2    0    0  0.00000000000E+00  0.00000000000E+00 -0.66544359666E+03  0.33191199587E+04  0.32517290970E+04 0.  0.
        2    1    3    3  502    0  0.15060441445E+03 -0.16170718027E+04 -0.41067619670E+03  0.16751888978E+04  0.25500000920E-02 0. -1.
       -2    1    3    3    0  502 -0.15060441445E+03  0.16170718027E+04 -0.25476739996E+03  0.16439310609E+04  0.25500000920E-02 0.  1.
</event>
<event>
 5   0  0.2037109E-06  0.3024658E+04  0.7818609E-02  0.8236724E-01
        1   -1    0    0  501    0  0.00000000000E+00  0.00000000000E+00  0.23214363563E+04  0.23214363563E+04  0.50400001928E-02 0. -1.
       -1   -1    0    0    0  501  0.00000000000E+00  0.00000000000E+00 -0.98522591992E+03  0.98522591993E+03  0.50400001928E-02 0.  1.
    10030    2    1    2    0    0  0.00000000000E+00  0.00000000000E+00  0.13362104364E+04  0.33066622762E+04  0.30246581755E+04 0.  0.
        2    1    3    3  502    0  0.77959382327E+03  0.76925867887E+03 -0.47201566238E+03  0.11926123552E+04  0.25500000920E-02 0.  1.
       -2    1    3    3    0  502 -0.77959382327E+03 -0.76925867887E+03  0.18082260988E+04  0.21140499210E+04  0.25500000920E-02 0. -1.
</event>
<event>
 5   0  0.1925906E-06  0.3385562E+04  0.7818609E-02  0.8141459E-01
        1   -1    0    0  501    0  0.00000000000E+00  0.00000000000E+00  0.20402812348E+04  0.20402812348E+04  0.50400001928E-02 0.  1.
       -1   -1    0    0    0  501  0.00000000000E+00  0.00000000000E+00 -0.14044669054E+04  0.14044669054E+04  0.50400001928E-02 0. -1.
    10030    2    1    2    0    0  0.00000000000E+00  0.00000000000E+00  0.63581432939E+03  0.34447481402E+04  0.33855619752E+04 0.  0.
        1    1    3    3  502    0  0.59636863902E+03  0.67371296896E+03  0.17768367366E+04  0.19916559710E+04  0.50400001928E-02 0.  1.
       -1    1    3    3    0  502 -0.59636863902E+03 -0.67371296896E+03 -0.11410224073E+04  0.14530921691E+04  0.50400001928E-02 0. -1.
</event>
<event>
 5   0  0.2730981E-06  0.3363138E+04  0.7818609E-02  0.8147013E-01
       -1   -1    0    0    0  501  0.00000000000E+00  0.00000000000E+00  0.13039729496E+04  0.13039729496E+04  0.50400001928E-02 0.  1.
        1   -1    0    0  501    0  0.00000000000E+00  0.00000000000E+00 -0.21685074564E+04  0.21685074564E+04  0.50400001928E-02 0. -1.
    10030    2    1    2    0    0  0.00000000000E+00  0.00000000000E+00 -0.86453450683E+03  0.34724804061E+04  0.33631384534E+04 0.  0.
        3    1    3    3  502    0 -0.11854246581E+03 -0.19569876271E+03  0.12878258719E+04  0.13079930460E+04  0.10100000352E+00 0.  1.
       -3    1    3    3    0  502  0.11854246581E+03  0.19569876271E+03 -0.21523603787E+04  0.21644873601E+04  0.10100000352E+00 0. -1.
</event>
<event>
 5   0  0.1925906E-06  0.3297137E+04  0.7818609E-02  0.8163624E-01
       -1   -1    0    0    0  501  0.00000000000E+00  0.00000000000E+00  0.18208633064E+04  0.18208633064E+04  0.50400001928E-02 0. -1.
        1   -1    0    0  501    0  0.00000000000E+00  0.00000000000E+00 -0.14925763613E+04  0.14925763613E+04  0.50400001928E-02 0.  1.
    10030    2    1    2    0    0  0.00000000000E+00  0.00000000000E+00  0.32828694510E+03  0.33134396678E+04  0.32971366538E+04 0.  0.
        1    1    3    3  502    0  0.15893730437E+04  0.20922351509E+03 -0.22233106624E+03  0.16184289463E+04  0.50400001928E-02 0.  1.
       -1    1    3    3    0  502 -0.15893730437E+04 -0.20922351509E+03  0.55061801134E+03  0.16950107214E+04  0.50400001928E-02 0. -1.
</event>
<event>
 5   0  0.2097842E-06  0.1841381E+04  0.7818609E-02  0.8684598E-01
       -1   -1    0    0    0  501  0.00000000000E+00  0.00000000000E+00  0.27480783372E+03  0.27480783377E+03  0.50400001928E-02 0.  1.
        1   -1    0    0  501    0  0.00000000000E+00  0.00000000000E+00 -0.30845949425E+04  0.30845949425E+04  0.50400001928E-02 0. -1.
    10030    2    1    2    0    0  0.00000000000E+00  0.00000000000E+00 -0.28097871088E+04  0.33594027763E+04  0.18413808451E+04 0.  0.
        4    1    3    3  502    0 -0.41708925785E+03  0.48977593060E+03 -0.26065377932E+04  0.26847504151E+04  0.12699999809E+01 0. -1.
       -4    1    3    3    0  502  0.41708925785E+03 -0.48977593060E+03 -0.20324931556E+03  0.67465236114E+03  0.12699999809E+01 0.  1.
</event>
<event>
 5   0  0.2097842E-06  0.3219820E+04  0.7818609E-02  0.8183602E-01
       -1   -1    0    0    0  501  0.00000000000E+00  0.00000000000E+00  0.14947353007E+04  0.14947353007E+04  0.50400001928E-02 0.  1.
        1   -1    0    0  501    0  0.00000000000E+00  0.00000000000E+00 -0.17339590720E+04  0.17339590720E+04  0.50400001928E-02 0. -1.
    10030    2    1    2    0    0  0.00000000000E+00  0.00000000000E+00 -0.23922377131E+03  0.32286943727E+04  0.32198197682E+04 0.  0.
        4    1    3    3  502    0  0.10284079702E+04 -0.46667864512E+03 -0.12701173949E+04  0.16995916335E+04  0.12699999809E+01 0. -1.
       -4    1    3    3    0  502 -0.10284079702E+04  0.46667864512E+03  0.10308936236E+04  0.15291027392E+04  0.12699999809E+01 0.  1.
</event>
<event>
 5   0  0.2730981E-06  0.3313559E+04  0.7818609E-02  0.8159454E-01
        1   -1    0    0  501    0  0.00000000000E+00  0.00000000000E+00  0.20519887836E+04  0.20519887836E+04  0.50400001928E-02 0.  1.
       -1   -1    0    0    0  501  0.00000000000E+00  0.00000000000E+00 -0.13376864473E+04  0.13376864473E+04  0.50400001928E-02 0. -1.
    10030    2    1    2    0    0  0.00000000000E+00  0.00000000000E+00  0.71430233634E+03  0.33896752309E+04  0.33135585619E+04 0.  0.
        3    1    3    3  502    0 -0.11224554595E+04 -0.10862695488E+03  0.15987920107E+04  0.19564871525E+04  0.10100000352E+00 0.  1.
       -3    1    3    3    0  502  0.11224554595E+04  0.10862695488E+03 -0.88448967437E+03  0.14331880785E+04  0.10100000352E+00 0. -1.
</event>
<event>
 5   0  0.5637538E-06  0.3377955E+04  0.7818609E-02  0.8143338E-01
        2   -1    0    0  501    0  0.00000000000E+00  0.00000000000E+00  0.28764972960E+04  0.28764972960E+04  0.25500000920E-02 0.  1.
       -2   -1    0    0    0  501  0.00000000000E+00  0.00000000000E+00 -0.99170760684E+03  0.99170760685E+03  0.25500000920E-02 0. -1.
    10030    2    1    2    0    0  0.00000000000E+00  0.00000000000E+00  0.18847896892E+04  0.38682049029E+04  0.33779545583E+04 0.  0.
        2    1    3    3  502    0 -0.52221867012E+03  0.16029619442E+04  0.82536189879E+03  0.18770779413E+04  0.25500000920E-02 0. -1.
       -2    1    3    3    0  502  0.52221867012E+03 -0.16029619442E+04  0.10594277904E+04  0.19911269615E+04  0.25500000920E-02 0.  1.
</event>
<event>
 5   0  0.1999849E-06  0.3341352E+04  0.7818609E-02  0.8152452E-01
        1   -1    0    0  501    0  0.00000000000E+00  0.00000000000E+00  0.18891647969E+04  0.18891647969E+04  0.50400001928E-02 0. -1.
       -1   -1    0    0    0  501  0.00000000000E+00  0.00000000000E+00 -0.14774559901E+04  0.14774559901E+04  0.50400001928E-02 0.  1.
    10030    2    1    2    0    0  0.00000000000E+00  0.00000000000E+00  0.41170880678E+03  0.33666207870E+04  0.33413517297E+04 0.  0.
        5    1    3    3  502    0  0.12727736144E+04  0.95841726144E+03 -0.30055922649E+03  0.16213803561E+04  0.46999998093E+01 0.  1.
       -5    1    3    3    0  502 -0.12727736144E+04 -0.95841726144E+03  0.71226803327E+03  0.17452404309E+04  0.46999998093E+01 0. -1.
</event>
<event>
 5   0  0.5622811E-06  0.3309772E+04  0.7818609E-02  0.8160413E-01
       -2   -1    0    0    0  501  0.00000000000E+00  0.00000000000E+00  0.15126745370E+04  0.15126745370E+04  0.25500000920E-02 0. -1.
        2   -1    0    0  501    0  0.00000000000E+00  0.00000000000E+00 -0.18104667910E+04  0.18104667910E+04  0.25500000920E-02 0.  1.
    10030    2    1    2    0    0  0.00000000000E+00  0.00000000000E+00 -0.29779225400E+03  0.33231413280E+04  0.33097716023E+04 0.  0.
        1    1    3    3  502    0  0.98389830778E+03 -0.11235484373E+04  0.56688617065E+03  0.15974282148E+04  0.50400001928E-02 0.  1.
       -1    1    3    3    0  502 -0.98389830778E+03  0.11235484373E+04 -0.86467842465E+03  0.17257131132E+04  0.50400001928E-02 0. -1.
</event>
<event>
 5   0  0.2730981E-06  0.3136710E+04  0.7818609E-02  0.8205735E-01
        1   -1    0    0  501    0  0.00000000000E+00  0.00000000000E+00  0.12020521889E+04  0.12020521889E+04  0.50400001928E-02 0. -1.
       -1   -1    0    0    0  501  0.00000000000E+00  0.00000000000E+00 -0.20462819057E+04  0.20462819057E+04  0.50400001928E-02 0.  1.
    10030    2    1    2    0    0  0.00000000000E+00  0.00000000000E+00 -0.84422971680E+03  0.32483340947E+04  0.31367101517E+04 0.  0.
        3    1    3    3  502    0 -0.40458226893E+03 -0.72016975783E+03  0.95852263663E+03  0.12653445964E+04  0.10100000352E+00 0. -1.
       -3    1    3    3    0  502  0.40458226893E+03  0.72016975783E+03 -0.18027523534E+04  0.19829894983E+04  0.10100000352E+00 0.  1.
</event>
<event>
 5   0  0.5622811E-06  0.3274715E+04  0.7818609E-02  0.8169359E-01
       -2   -1    0    0    0  501  0.00000000000E+00  0.00000000000E+00  0.13060899501E+04  0.13060899501E+04  0.25500000920E-02 0.  1.
        2   -1    0    0  501    0  0.00000000000E+00  0.00000000000E+00 -0.20526451952E+04  0.20526451952E+04  0.25500000920E-02 0. -1.
    10030    2    1    2    0    0  0.00000000000E+00  0.00000000000E+00 -0.74655524511E+03  0.33587351453E+04  0.32747148032E+04 0.  0.
        1    1    3    3  502    0  0.36809069325E+03 -0.61329233966E+03 -0.18839287763E+04  0.20151441354E+04  0.50400001928E-02 0. -1.
       -1    1    3    3    0  502 -0.36809069325E+03  0.61329233966E+03  0.11373735312E+04  0.13435910099E+04  0.50400001928E-02 0.  1.
</event>
<event>
 5   0  0.1925906E-06  0.2852336E+04  0.7818609E-02  0.8287202E-01
       -1   -1    0    0    0  501  0.00000000000E+00  0.00000000000E+00  0.12535757170E+04  0.12535757170E+04  0.50400001928E-02 0. -1.
        1   -1    0    0  501    0  0.00000000000E+00  0.00000000000E+00 -0.16225228109E+04  0.16225228109E+04  0.50400001928E-02 0.  1.
    10030    2    1    2    0    0  0.00000000000E+00  0.00000000000E+00 -0.36894709384E+03  0.28760985279E+04  0.28523360223E+04 0.  0.
        1    1    3    3  502    0  0.55310777996E+03  0.24945960548E+02 -0.15097305837E+04  0.16080537779E+04  0.50400001928E-02 0.  1.
       -1    1    3    3    0  502 -0.55310777996E+03 -0.24945960548E+02  0.11407834899E+04  0.12680447500E+04  0.50400001928E-02 0. -1.
</event>
<event>
 5   0  0.5755250E-06  0.3442936E+04  0.7818609E-02  0.8127448E-01
       -2   -1    0    0    0  501  0.00000000000E+00  0.00000000000E+00  0.16930858266E+04  0.16930858266E+04  0.25500000920E-02 0. -1.
        2   -1    0    0  501    0  0.00000000000E+00  0.00000000000E+00 -0.17503256086E+04  0.17503256086E+04  0.25500000920E-02 0.  1.
    10030    2    1    2    0    0  0.00000000000E+00  0.00000000000E+00 -0.57239782008E+02  0.34434114352E+04  0.34429356543E+04 0.  0.
        5    1    3    3  502    0  0.14580129134E+04  0.24757086131E+03  0.85260141062E+03  0.17070571878E+04  0.46999998093E+01 0. -1.
       -5    1    3    3    0  502 -0.14580129134E+04 -0.24757086131E+03 -0.90984119263E+03  0.17363542475E+04  0.46999998093E+01 0.  1.
</event>
<event>
 5   0  0.2037109E-06  0.3131812E+04  0.7818609E-02  0.8207061E-01
        1   -1    0    0  501    0  0.00000000000E+00  0.00000000000E+00  0.23199747646E+04  0.23199747646E+04  0.50400001928E-02 0.  1.
       -1   -1    0    0    0  501  0.00000000000E+00  0.00000000000E+00 -0.10569343580E+04  0.10569343580E+04  0.50400001928E-02 0. -1.
    10030    2    1    2    0    0  0.00000000000E+00  0.00000000000E+00  0.12630404066E+04  0.33769091225E+04  0.31318116408E+04 0.  0.
        2    1    3    3  502    0  0.44448684092E+02  0.15624558658E+04  0.53027262238E+03  0.16505856755E+04  0.25500000920E-02 0. -1.
       -2    1    3    3    0  502 -0.44448684092E+02 -0.15624558658E+04  0.73276778421E+03  0.17263234470E+04  0.25500000920E-02 0.  1.
</event>
<event>
 5   0  0.5855568E-06  0.1844847E+04  0.7818609E-02  0.8682808E-01
       -2   -1    0    0    0  501  0.00000000000E+00  0.00000000000E+00  0.81899381940E+03  0.81899381940E+03  0.25500000920E-02 0.  1.
        2   -1    0    0  501    0  0.00000000000E+00  0.00000000000E+00 -0.10389147586E+04  0.10389147586E+04  0.25500000920E-02 0. -1.
    10030    2    1    2    0    0  0.00000000000E+00  0.00000000000E+00 -0.21992093919E+03  0.18579085780E+04  0.18448466236E+04 0.  0.
        3    1    3    3  502    0 -0.62917904487E+03  0.28906813151E+02 -0.78864803533E+03  0.10092906460E+04  0.10100000352E+00 0. -1.
       -3    1    3    3    0  502  0.62917904487E+03 -0.28906813151E+02  0.56872709614E+03  0.84861793195E+03  0.10100000352E+00 0.  1.
</event>
<event>
 5   0  0.5637538E-06  0.3001766E+04  0.7818609E-02  0.8243227E-01
       -2   -1    0    0    0  501  0.00000000000E+00  0.00000000000E+00  0.14212313559E+04  0.14212313559E+04  0.25500000920E-02 0. -1.
        2   -1    0    0  501    0  0.00000000000E+00  0.00000000000E+00 -0.15849981862E+04  0.15849981862E+04  0.25500000920E-02 0.  1.
    10030    2    1    2    0    0  0.00000000000E+00  0.00000000000E+00 -0.16376683030E+03  0.30062295421E+04  0.30017655613E+04 0.  0.
        2    1    3    3  502    0  0.50412274434E+03  0.81339124207E+03  0.10760817368E+04  0.14400336657E+04  0.25500000920E-02 0. -1.
       -2    1    3    3    0  502 -0.50412274434E+03 -0.81339124207E+03 -0.12398485671E+04  0.15661958764E+04  0.25500000920E-02 0.  1.
</event>
<event>
 5   0  0.2037109E-06  0.3161723E+04  0.7818609E-02  0.8199000E-01
        1   -1    0    0  501    0  0.00000000000E+00  0.00000000000E+00  0.13482037411E+04  0.13482037411E+04  0.50400001928E-02 0. -1.
       -1   -1    0    0    0  501  0.00000000000E+00  0.00000000000E+00 -0.18536691162E+04  0.18536691162E+04  0.50400001928E-02 0.  1.
    10030    2    1    2    0    0  0.00000000000E+00  0.00000000000E+00 -0.50546537514E+03  0.32018728573E+04  0.31617233511E+04 0.  0.
        2    1    3    3  502    0  0.19051061672E+03  0.82662636979E+03  0.10981929114E+04  0.13876718348E+04  0.25500000920E-02 0. -1.
       -2    1    3    3    0  502 -0.19051061672E+03 -0.82662636979E+03 -0.16036582865E+04  0.18142010226E+04  0.25500000920E-02 0.  1.
</event>
<event>
 5   0  0.5755250E-06  0.2592734E+04  0.7818609E-02  0.8370673E-01
       -2   -1    0    0    0  501  0.00000000000E+00  0.00000000000E+00  0.10774359785E+04  0.10774359785E+04  0.25500000920E-02 0.  1.
        2   -1    0    0  501    0  0.00000000000E+00  0.00000000000E+00 -0.15597841507E+04  0.15597841507E+04  0.25500000920E-02 0. -1.
    10030    2    1    2    0    0  0.00000000000E+00  0.00000000000E+00 -0.48234817221E+03  0.26372201292E+04  0.25927341265E+04 0.  0.
        5    1    3    3  502    0  0.79891300659E+03  0.13697289294E+03  0.78787708015E+03  0.11303963681E+04  0.46999998093E+01 0.  1.
       -5    1    3    3    0  502 -0.79891300659E+03 -0.13697289294E+03 -0.12702252524E+04  0.15068237612E+04  0.46999998093E+01 0. -1.
</event>
<event>
 5   0  0.5755250E-06  0.3377842E+04  0.7818609E-02  0.8143366E-01
       -2   -1    0    0    0  501  0.00000000000E+00  0.00000000000E+00  0.10266956934E+04  0.10266956934E+04  0.25500000920E-02 0. -1.
        2   -1    0    0  501    0  0.00000000000E+00  0.00000000000E+00 -0.27782852861E+04  0.27782852861E+04  0.25500000920E-02 0.  1.
    10030    2    1    2    0    0  0.00000000000E+00  0.00000000000E+00 -0.17515895928E+04  0.38049809795E+04  0.33778416412E+04 0.  0.
        5    1    3    3  502    0  0.15095415738E+04 -0.73716176261E+03 -0.67968764720E+03  0.18122142851E+04  0.46999998093E+01 0. -1.
       -5    1    3    3    0  502 -0.15095415738E+04  0.73716176261E+03 -0.10719019456E+04  0.19927666944E+04  0.46999998093E+01 0.  1.
</event>
<event>
 5   0  0.5855568E-06  0.3300766E+04  0.7818609E-02  0.8162700E-01
       -2   -1    0    0    0  501  0.00000000000E+00  0.00000000000E+00  0.17302008903E+04  0.17302008903E+04  0.25500000920E-02 0.  1.
        2   -1    0    0  501    0  0.00000000000E+00  0.00000000000E+00 -0.15742476079E+04  0.15742476079E+04  0.25500000920E-02 0. -1.
    10030    2    1    2    0    0  0.00000000000E+00  0.00000000000E+00  0.15595328247E+03  0.33044484982E+04  0.33007663430E+04 0.  0.
        3    1    3    3  502    0  0.27961484973E+03 -0.17288992399E+03 -0.15411367916E+04  0.15758102712E+04  0.10100000352E+00 0. -1.
       -3    1    3    3    0  502 -0.27961484973E+03  0.17288992399E+03  0.16970900741E+04  0.17286382270E+04  0.10100000352E+00 0.  1.
</event>
<event>
 5   0  0.5622811E-06  0.3319058E+04  0.7818609E-02  0.8158063E-01
       -2   -1    0    0    0  501  0.00000000000E+00  0.00000000000E+00  0.21319477431E+04  0.21319477432E+04  0.25500000920E-02 0.  1.
        2   -1    0    0  501    0  0.00000000000E+00  0.00000000000E+00 -0.12917938141E+04  0.12917938141E+04  0.25500000920E-02 0. -1.
    10030    2    1    2    0    0  0.00000000000E+00  0.00000000000E+00  0.84015392907E+03  0.34237415572E+04  0.33190582439E+04 0.  0.
        1    1    3    3  502    0 -0.16250369871E+04 -0.77271365044E+02  0.82145898094E+02  0.16289456780E+04  0.50400001928E-02 0. -1.
       -1    1    3    3    0  502  0.16250369871E+04  0.77271365044E+02  0.75800803098E+03  0.17947958793E+04  0.50400001928E-02 0.  1.
</event>
<event>
 5   0  0.1999849E-06  0.1806591E+04  0.7818609E-02  0.8702802E-01
        1   -1    0    0  501    0  0.00000000000E+00  0.00000000000E+00  0.49884112318E+03  0.49884112320E+03  0.50400001928E-02 0. -1.
       -1   -1    0    0    0  501  0.00000000000E+00  0.00000000000E+00 -0.16356762965E+04  0.16356762965E+04  0.50400001928E-02 0.  1.
    10030    2    1    2    0    0  0.00000000000E+00  0.00000000000E+00 -0.11368351733E+04  0.21345174197E+04  0.18065908236E+04 0.  0.
        5    1    3    3  502    0 -0.57781525841E+02 -0.40598996744E+03 -0.15193396835E+04  0.15737158963E+04  0.46999998093E+01 0.  1.
       -5    1    3    3    0  502  0.57781525841E+02  0.40598996744E+03  0.38250451017E+03  0.56080152343E+03  0.46999998093E+01 0. -1.
</event>
<event>
 5   0  0.1925906E-06  0.2869084E+04  0.7818609E-02  0.8282136E-01
        1   -1    0    0  501    0  0.00000000000E+00  0.00000000000E+00  0.11627114181E+04  0.11627114181E+04  0.50400001928E-02 0. -1.
       -1   -1    0    0    0  501  0.00000000000E+00  0.00000000000E+00 -0.17699244672E+04  0.17699244672E+04  0.50400001928E-02 0.  1.
    10030    2    1    2    0    0  0.00000000000E+00  0.00000000000E+00 -0.60721304911E+03  0.29326358853E+04  0.28690844444E+04 0.  0.
        1    1    3    3  502    0  0.23905396190E+03  0.10083397895E+04  0.71034168917E+03  0.12563762347E+04  0.50400001928E-02 0. -1.
       -1    1    3    3    0  502 -0.23905396190E+03 -0.10083397895E+04 -0.13175547383E+04  0.16762596506E+04  0.50400001928E-02 0.  1.
</event>
<event>
 5   0  0.5637538E-06  0.3222152E+04  0.7818609E-02  0.8182991E-01
        2   -1    0    0  501    0  0.00000000000E+00  0.00000000000E+00  0.19968482013E+04  0.19968482013E+04  0.25500000920E-02 0.  1.
       -2   -1    0    0    0  501  0.00000000000E+00  0.00000000000E+00 -0.12998313590E+04  0.12998313590E+04  0.25500000920E-02 0. -1.
    10030    2    1    2    0    0  0.00000000000E+00  0.00000000000E+00  0.69701684227E+03  0.32966795603E+04  0.32221520208E+04 0.  0.
        2    1    3    3  502    0 -0.39539143664E+03 -0.37547036713E+03 -0.12025554305E+04  0.13203984051E+04  0.25500000920E-02 0. -1.
       -2    1    3    3    0  502  0.39539143664E+03  0.37547036713E+03  0.18995722728E+04  0.19762811552E+04  0.25500000920E-02 0.  1.
</event>
<event>
 5   0  0.2037109E-06  0.3276898E+04  0.7818609E-02  0.8168799E-01
        1   -1    0    0  501    0  0.00000000000E+00  0.00000000000E+00  0.15573895498E+04  0.15573895498E+04  0.50400001928E-02 0. -1.
       -1   -1    0    0    0  501  0.00000000000E+00  0.00000000000E+00 -0.17237269809E+04  0.17237269809E+04  0.50400001928E-02 0.  1.
    10030    2    1    2    0    0  0.00000000000E+00  0.00000000000E+00 -0.16633743104E+03  0.32811165307E+04  0.32768975490E+04 0.  0.
        2    1    3    3  502    0 -0.82686697571E+03  0.15354832150E+03 -0.14911186137E+04  0.17119348126E+04  0.25500000920E-02 0.  1.
       -2    1    3    3    0  502  0.82686697571E+03 -0.15354832150E+03  0.13247811826E+04  0.15691817181E+04  0.25500000920E-02 0. -1.
</event>
<event>
 5   0  0.5622811E-06  0.3506307E+04  0.7818609E-02  0.8112297E-01
        2   -1    0    0  501    0  0.00000000000E+00  0.00000000000E+00  0.17039743143E+04  0.17039743143E+04  0.25500000920E-02 0. -1.
       -2   -1    0    0    0  501  0.00000000000E+00  0.00000000000E+00 -0.18037521199E+04  0.18037521199E+04  0.25500000920E-02 0.  1.
    10030    2    1    2    0    0  0.00000000000E+00  0.00000000000E+00 -0.99777805576E+02  0.35077264341E+04  0.35063070496E+04 0.  0.
        1    1    3    3  502    0 -0.16629703569E+04 -0.43388544410E+03  0.29640190444E+03  0.17440129230E+04  0.50400001928E-02 0. -1.
       -1    1    3    3    0  502  0.16629703569E+04  0.43388544410E+03 -0.39617971002E+03  0.17637135111E+04  0.50400001928E-02 0.  1.
</event>
<event>
 5   0  0.5755250E-06  0.2775229E+04  0.7818609E-02  0.8311000E-01
        2   -1    0    0  501    0  0.00000000000E+00  0.00000000000E+00  0.12065381374E+04  0.12065381374E+04  0.25500000920E-02 0. -1.
       -2   -1    0    0    0  501  0.00000000000E+00  0.00000000000E+00 -0.15958668602E+04  0.15958668602E+04  0.25500000920E-02 0.  1.
    10030    2    1    2    0    0  0.00000000000E+00  0.00000000000E+00 -0.38932872281E+03  0.28024049976E+04  0.27752291646E+04 0.  0.
        5    1    3    3  502    0  0.48916048126E+03 -0.10907919230E+04  0.51675357639E+03  0.13023675919E+04  0.46999998093E+01 0. -1.
       -5    1    3    3    0  502 -0.48916048126E+03  0.10907919230E+04 -0.90608229920E+03  0.15000374057E+04  0.46999998093E+01 0.  1.
</event>
<event>
 5   0  0.1999849E-06  0.3274541E+04  0.7818609E-02  0.8169404E-01
       -1   -1    0    0    0  501  0.00000000000E+00  0.00000000000E+00  0.20481241292E+04  0.20481241293E+04  0.50400001928E-02 0. -1.
        1   -1    0    0  501    0  0.00000000000E+00  0.00000000000E+00 -0.13088337566E+04  0.13088337566E+04  0.50400001928E-02 0.  1.
    10030    2    1    2    0    0  0.00000000000E+00  0.00000000000E+00  0.73929037263E+03  0.33569578859E+04  0.32745405773E+04 0.  0.
        5    1    3    3  502    0 -0.34157655351E+03  0.60593817320E+03  0.18891091700E+04  0.20131048551E+04  0.46999998093E+01 0. -1.
       -5    1    3    3    0  502  0.34157655351E+03 -0.60593817320E+03 -0.11498187973E+04  0.13438530308E+04  0.46999998093E+01 0.  1.
</event>
<event>
 5   0  0.1999849E-06  0.3271397E+04  0.7818609E-02  0.8170212E-01
        1   -1    0    0  501    0  0.00000000000E+00  0.00000000000E+00  0.15970390649E+04  0.15970390649E+04  0.50400001928E-02 0. -1.
       -1   -1    0    0    0  501  0.00000000000E+00  0.00000000000E+00 -0.16752937338E+04  0.16752937338E+04  0.50400001928E-02 0.  1.
    10030    2    1    2    0    0  0.00000000000E+00  0.00000000000E+00 -0.78254668822E+02  0.32723327987E+04  0.32713969726E+04 0.  0.
        5    1    3    3  502    0 -0.58857429659E+03  0.15112736697E+04  0.17334727234E+03  0.16310852750E+04  0.46999998093E+01 0.  1.
       -5    1    3    3    0  502  0.58857429659E+03 -0.15112736697E+04 -0.25160194116E+03  0.16412475237E+04  0.46999998093E+01 0. -1.
</event>
<event>
 5   0  0.5622811E-06  0.3301332E+04  0.7818609E-02  0.8162556E-01
       -2   -1    0    0    0  501  0.00000000000E+00  0.00000000000E+00  0.11482200759E+04  0.11482200759E+04  0.25500000920E-02 0. -1.
        2   -1    0    0  501    0  0.00000000000E+00  0.00000000000E+00 -0.23729763360E+04  0.23729763360E+04  0.25500000920E-02 0.  1.
    10030    2    1    2    0    0  0.00000000000E+00  0.00000000000E+00 -0.12247562601E+04  0.35211964119E+04  0.33013324998E+04 0.  0.
        1    1    3    3  502    0  0.17539243614E+03 -0.14904393930E+04  0.12080807916E+03  0.15055785210E+04  0.50400001928E-02 0. -1.
       -1    1    3    3    0  502 -0.17539243614E+03  0.14904393930E+04 -0.13455643393E+04  0.20156178909E+04  0.50400001928E-02 0.  1.
</event>
<event>
 5   0  0.5300268E-06  0.3018963E+04  0.7818609E-02  0.8238337E-01
        2   -1    0    0  501    0  0.00000000000E+00  0.00000000000E+00  0.23823386095E+04  0.23823386095E+04  0.25500000920E-02 0. -1.
       -2   -1    0    0    0  501  0.00000000000E+00  0.00000000000E+00 -0.95642748459E+03  0.95642748460E+03  0.25500000920E-02 0.  1.
    10030    2    1    2    0    0  0.00000000000E+00  0.00000000000E+00  0.14259111250E+04  0.33387660941E+04  0.30189628178E+04 0.  0.
        4    1    3    3  502    0  0.11456275629E+03  0.31241786594E+03 -0.91535834821E+03  0.97396717944E+03  0.12699999809E+01 0.  1.
       -4    1    3    3    0  502 -0.11456275629E+03 -0.31241786594E+03  0.23412694732E+04  0.23647989147E+04  0.12699999809E+01 0. -1.
</event>
<event>
 5   0  0.2037109E-06  0.2573738E+04  0.7818609E-02  0.8377177E-01
        1   -1    0    0  501    0  0.00000000000E+00  0.00000000000E+00  0.10598325793E+04  0.10598325793E+04  0.50400001928E-02 0. -1.
       -1   -1    0    0    0  501  0.00000000000E+00  0.00000000000E+00 -0.15625413732E+04  0.15625413732E+04  0.50400001928E-02 0.  1.
    10030    2    1    2    0    0  0.00000000000E+00  0.00000000000E+00 -0.50270879394E+03  0.26223739525E+04  0.25737383346E+04 0.  0.
        2    1    3    3  502    0  0.23817848563E+03 -0.95985236689E+03  0.58760475768E+03  0.11503586000E+04  0.25500000920E-02 0. -1.
       -2    1    3    3    0  502 -0.23817848563E+03  0.95985236689E+03 -0.10903135516E+04  0.14720153525E+04  0.25500000920E-02 0.  1.
</event>
<event>
 5   0  0.2097842E-06  0.3404558E+04  0.7818609E-02  0.8136789E-01
       -1   -1    0    0    0  501  0.00000000000E+00  0.00000000000E+00  0.19730772189E+04  0.19730772189E+04  0.50400001928E-02 0.  1.
        1   -1    0    0  501    0  0.00000000000E+00  0.00000000000E+00 -0.14686467746E+04  0.14686467747E+04  0.50400001928E-02 0. -1.
    10030    2    1    2    0    0  0.00000000000E+00  0.00000000000E+00  0.50443044429E+03  0.34417239936E+04  0.34045578237E+04 0.  0.
        4    1    3    3  502    0  0.20996189301E+03 -0.16836610412E+04  0.11304103545E+03  0.17004641680E+04  0.12699999809E+01 0. -1.
       -4    1    3    3    0  502 -0.20996189301E+03  0.16836610412E+04  0.39138940884E+03  0.17412598256E+04  0.12699999809E+01 0.  1.
</event>
<event>
 5   0  0.5855568E-06  0.3113003E+04  0.7818609E-02  0.8212178E-01
       -2   -1    0    0    0  501  0.00000000000E+00  0.00000000000E+00  0.97216097947E+03  0.97216097947E+03  0.25500000920E-02 0. -1.
        2   -1    0    0  501    0  0.00000000000E+00  0.00000000000E+00 -0.24920744205E+04  0.24920744205E+04  0.25500000920E-02 0.  1.
    10030    2    1    2    0    0  0.00000000000E+00  0.00000000000E+00 -0.15199134410E+04  0.34642353999E+04  0.31130033791E+04 0.  0.
        3    1    3    3  502    0 -0.10956633300E+04  0.59119804586E+02 -0.19884718898E+04  0.22711216944E+04  0.10100000352E+00 0.  1.
       -3    1    3    3    0  502  0.10956633300E+04 -0.59119804586E+02  0.46855844883E+03  0.11931137055E+04  0.10100000352E+00 0. -1.
</event>
<event>
 5   0  0.1925906E-06  0.3274612E+04  0.7818609E-02  0.8169386E-01
        1   -1    0    0  501    0  0.00000000000E+00  0.00000000000E+00  0.20827957400E+04  0.20827957400E+04  0.50400001928E-02 0.  1.
       -1   -1    0    0    0  501  0.00000000000E+00  0.00000000000E+00 -0.12871020563E+04  0.12871020563E+04  0.50400001928E-02 0. -1.
    10030    2    1    2    0    0  0.00000000000E+00  0.00000000000E+00  0.79569368370E+03  0.33698977963E+04  0.32746118426E+04 0.  0.
        1    1    3    3  502    0 -0.89274710979E+03 -0.97618378448E+03  0.13907206850E+04  0.19193843302E+04  0.50400001928E-02 0.  1.
       -1    1    3    3    0  502  0.89274710979E+03  0.97618378448E+03 -0.59502700134E+03  0.14505134661E+04  0.50400001928E-02 0. -1.
</event>
<event>
 5   0  0.5855568E-06  0.3252536E+04  0.7818609E-02  0.8175079E-01
       -2   -1    0    0    0  501  0.00000000000E+00  0.00000000000E+00  0.13504997826E+04  0.13504997826E+04  0.25500000920E-02 0. -1.
        2   -1    0    0  501    0  0.00000000000E+00  0.00000000000E+00 -0.19583475206E+04  0.19583475206E+04  0.25500000920E-02 0.  1.
    10030    2    1    2    0    0  0.00000000000E+00  0.00000000000E+00 -0.60784773801E+03  0.33088473031E+04  0.32525361801E+04 0.  0.
        3    1    3    3  502    0  0.19628344354E+03  0.10688354398E+04 -0.15347513020E+04  0.18805312965E+04  0.10100000352E+00 0.  1.
       -3    1    3    3    0  502 -0.19628344354E+03 -0.10688354398E+04  0.92690356403E+03  0.14283160067E+04  0.10100000352E+00 0. -1.
</event>
<event>
 5   0  0.2037109E-06  0.3314479E+04  0.7818609E-02  0.8159221E-01
        1   -1    0    0  501    0  0.00000000000E+00  0.00000000000E+00  0.30092953387E+04  0.30092953387E+04  0.50400001928E-02 0.  1.
       -1   -1    0    0    0  501  0.00000000000E+00  0.00000000000E+00 -0.91265306118E+03  0.91265306119E+03  0.50400001928E-02 0. -1.
    10030    2    1    2    0    0  0.00000000000E+00  0.00000000000E+00  0.20966422775E+04  0.39219483999E+04  0.33144789050E+04 0.  0.
        2    1    3    3  502    0 -0.34822990379E+03  0.13292650991E+04  0.21445195764E+04  0.25469931259E+04  0.25500000920E-02 0.  1.
       -2    1    3    3    0  502  0.34822990379E+03 -0.13292650991E+04 -0.47877298916E+02  0.13749552740E+04  0.25500000920E-02 0. -1.
</event>
<event>
 5   0  0.5622811E-06  0.3298555E+04  0.7818609E-02  0.8163263E-01
        2   -1    0    0  501    0  0.00000000000E+00  0.00000000000E+00  0.17712154285E+04  0.17712154285E+04  0.25500000920E-02 0.  1.
       -2   -1    0    0    0  501  0.00000000000E+00  0.00000000000E+00 -0.15357346746E+04  0.15357346746E+04  0.25500000920E-02 0. -1.
    10030    2    1    2    0    0  0.00000000000E+00  0.00000000000E+00  0.23548075388E+03  0.33069501032E+04  0.32985554110E+04 0.  0.
        1    1    3    3  502    0 -0.63685687030E+03 -0.50451984224E+03  0.15566596007E+04  0.17559373728E+04  0.50400001928E-02 0.  1.
       -1    1    3    3    0  502  0.63685687030E+03  0.50451984224E+03 -0.13211788469E+04  0.15510127304E+04  0.50400001928E-02 0. -1.
</event>
<event>
 5   0  0.5637538E-06  0.2671633E+04  0.7818609E-02  0.8344268E-01
       -2   -1    0    0    0  501  0.00000000000E+00  0.00000000000E+00  0.54802948052E+03  0.54802948053E+03  0.25500000920E-02 0.  1.
        2   -1    0    0  501    0  0.00000000000E+00  0.00000000000E+00 -0.32560405418E+04  0.32560405418E+04  0.25500000920E-02 0. -1.
    10030    2    1    2    0    0  0.00000000000E+00  0.00000000000E+00 -0.27080110613E+04  0.38040700223E+04  0.26716333631E+04 0.  0.
        2    1    3    3  502    0 -0.34631204747E+03  0.82407019765E+03  0.59423681181E+02  0.89585428434E+03  0.25500000920E-02 0.  1.
       -2    1    3    3    0  502  0.34631204747E+03 -0.82407019765E+03 -0.27674347424E+04  0.29082157380E+04  0.25500000920E-02 0. -1.
</event>
<event>
 5   0  0.1878000E-06  0.2207777E+04  0.7818609E-02  0.8515198E-01
        3   -1    0    0  501    0  0.00000000000E+00  0.00000000000E+00  0.56794514879E+03  0.56794515777E+03  0.10100000352E+00 0.  1.
       -3   -1    0    0    0  501  0.00000000000E+00  0.00000000000E+00 -0.21455774302E+04  0.21455774326E+04  0.10100000352E+00 0. -1.
    10030    2    1    2    0    0  0.00000000000E+00  0.00000000000E+00 -0.15776322814E+04  0.27135225904E+04  0.22077774419E+04 0.  0.
        3    1    3    3  502    0  0.10288573437E+04 -0.38076304529E+03 -0.93955882659E+03  0.14444025510E+04  0.10100000352E+00 0. -1.
       -3    1    3    3    0  502 -0.10288573437E+04  0.38076304529E+03 -0.63807345485E+03  0.12691200394E+04  0.10100000352E+00 0.  1.
</event>
<event>
 5   0  0.2097842E-06  0.3342116E+04  0.7818609E-02  0.8152261E-01
       -1   -1    0    0    0  501  0.00000000000E+00  0.00000000000E+00  0.12111680286E+04  0.12111680286E+04  0.50400001928E-02 0. -1.
        1   -1    0    0  501    0  0.00000000000E+00  0.00000000000E+00 -0.23055723268E+04  0.23055723268E+04  0.50400001928E-02 0.  1.
    10030    2    1    2    0    0  0.00000000000E+00  0.00000000000E+00 -0.10944042982E+04  0.35167403554E+04  0.33421163893E+04 0.  0.
        4    1    3    3  502    0 -0.13706172222E+04 -0.91567420925E+03 -0.25829679754E+03  0.16684632677E+04  0.12699999809E+01 0. -1.
       -4    1    3    3    0  502  0.13706172222E+04  0.91567420925E+03 -0.83610750064E+03  0.18482770877E+04  0.12699999809E+01 0.  1.
</event>
<event>
 5   0  0.5300268E-06  0.2339649E+04  0.7818609E-02  0.8462450E-01
       -2   -1    0    0    0  501  0.00000000000E+00  0.00000000000E+00  0.12036516206E+04  0.12036516206E+04  0.25500000920E-02 0.  1.
        2   -1    0    0  501    0  0.00000000000E+00  0.00000000000E+00 -0.11369477222E+04  0.11369477222E+04  0.25500000920E-02 0. -1.
    10030    2    1    2    0    0  0.00000000000E+00  0.00000000000E+00  0.66703898455E+02  0.23405993428E+04  0.23396486646E+04 0.  0.
        4    1    3    3  502    0  0.20768891578E+03  0.10442429498E+04 -0.45151944978E+03  0.11564814959E+04  0.12699999809E+01 0. -1.
       -4    1    3    3    0  502 -0.20768891578E+03 -0.10442429498E+04  0.51822334824E+03  0.11841178469E+04  0.12699999809E+01 0.  1.
</event>
<event>
 5   0  0.5755250E-06  0.3334965E+04  0.7818609E-02  0.8154055E-01
       -2   -1    0    0    0  501  0.00000000000E+00  0.00000000000E+00  0.97127682708E+03  0.97127682708E+03  0.25500000920E-02 0.  1.
        2   -1    0    0  501    0  0.00000000000E+00  0.00000000000E+00 -0.28627249663E+04  0.28627249663E+04  0.25500000920E-02 0. -1.
    10030    2    1    2    0    0  0.00000000000E+00  0.00000000000E+00 -0.18914481392E+04  0.38340017934E+04  0.33349653204E+04 0.  0.
        5    1    3    3  502    0  0.10185716762E+04  0.27301827510E+03  0.53924521177E+03  0.11844132414E+04  0.46999998093E+01 0.  1.
       -5    1    3    3    0  502 -0.10185716762E+04 -0.27301827510E+03 -0.24306933510E+04  0.26495885519E+04  0.46999998093E+01 0. -1.
</event>
<event>
 5   0  0.1925906E-06  0.3224225E+04  0.7818609E-02  0.8182448E-01
       -1   -1    0    0    0  501  0.00000000000E+00  0.00000000000E+00  0.22494798738E+04  0.22494798738E+04  0.50400001928E-02 0.  1.
        1   -1    0    0  501    0  0.00000000000E+00  0.00000000000E+00 -0.11553369031E+04  0.11553369031E+04  0.50400001928E-02 0. -1.
    10030    2    1    2    0    0  0.00000000000E+00  0.00000000000E+00  0.10941429707E+04  0.34048167768E+04  0.32242252470E+04 0.  0.
        1    1    3    3  502    0 -0.10606734344E+04 -0.20442055553E+02  0.18289229651E+04  0.21143332813E+04  0.50400001928E-02 0.  1.
       -1    1    3    3    0  502  0.10606734344E+04  0.20442055553E+02 -0.73477999437E+03  0.12904834956E+04  0.50400001928E-02 0. -1.
</event>
<event>
 5   0  0.5300268E-06  0.2647547E+04  0.7818609E-02  0.8352227E-01
       -2   -1    0    0    0  501  0.00000000000E+00  0.00000000000E+00  0.91074782646E+03  0.91074782647E+03  0.25500000920E-02 0.  1.
        2   -1    0    0  501    0  0.00000000000E+00  0.00000000000E+00 -0.19241075244E+04  0.19241075244E+04  0.25500000920E-02 0. -1.
    10030    2    1    2    0    0  0.00000000000E+00  0.00000000000E+00 -0.10133596979E+04  0.28348553509E+04  0.26475473524E+04 0.  0.
        4    1    3    3  502    0 -0.54352928251E+03 -0.72488905675E+03  0.52673701635E+03  0.10480179974E+04  0.12699999809E+01 0.  1.
       -4    1    3    3    0  502  0.54352928251E+03  0.72488905675E+03 -0.15400967143E+04  0.17868373535E+04  0.12699999809E+01 0. -1.
</event>
<event>
 5   0  0.2730981E-06  0.3182649E+04  0.7818609E-02  0.8193415E-01
        1   -1    0    0  501    0  0.00000000000E+00  0.00000000000E+00  0.26955792320E+04  0.26955792320E+04  0.50400001928E-02 0. -1.
       -1   -1    0    0    0  501  0.00000000000E+00  0.00000000000E+00 -0.93943185524E+03  0.93943185525E+03  0.50400001928E-02 0.  1.
    10030    2    1    2    0    0  0.00000000000E+00  0.00000000000E+00  0.17561473768E+04  0.36350110873E+04  0.31826485819E+04 0.  0.
        3    1    3    3  502    0 -0.12701748434E+04 -0.88745249679E+03  0.12920825604E+04  0.20175216033E+04  0.10100000352E+00 0. -1.
       -3    1    3    3    0  502  0.12701748434E+04  0.88745249679E+03  0.46406481643E+03  0.16174894840E+04  0.10100000352E+00 0.  1.
</event>
<event>
 5   0  0.2037109E-06  0.2365364E+04  0.7818609E-02  0.8452586E-01
        1   -1    0    0  501    0  0.00000000000E+00  0.00000000000E+00  0.85144870785E+03  0.85144870786E+03  0.50400001928E-02 0.  1.
       -1   -1    0    0    0  501  0.00000000000E+00  0.00000000000E+00 -0.16427726874E+04  0.16427726874E+04  0.50400001928E-02 0. -1.
    10030    2    1    2    0    0  0.00000000000E+00  0.00000000000E+00 -0.79132397952E+03  0.24942213952E+04  0.23653639737E+04 0.  0.
        2    1    3    3  502    0 -0.62713934233E+03  0.29695463670E+03  0.61424432735E+03  0.92670486383E+03  0.25500000920E-02 0.  1.
       -2    1    3    3    0  502  0.62713934233E+03 -0.29695463670E+03 -0.14055683069E+04  0.15675165314E+04  0.25500000920E-02 0. -1.
</event>
<event>
 5   0  0.2037109E-06  0.1835534E+04  0.7818609E-02  0.8687628E-01
        1   -1    0    0  501    0  0.00000000000E+00  0.00000000000E+00  0.94330507919E+03  0.94330507921E+03  0.50400001928E-02 0.  1.
       -1   -1    0    0    0  501  0.00000000000E+00  0.00000000000E+00 -0.89292021812E+03  0.89292021814E+03  0.50400001928E-02 0. -1.
    10030    2    1    2    0    0  0.00000000000E+00  0.00000000000E+00  0.50384861070E+02  0.18362252973E+04  0.18355339028E+04 0.  0.
        2    1    3    3  502    0  0.23914347264E+03  0.75989149694E+03 -0.43068909691E+03  0.90560354782E+03  0.25500000920E-02 0. -1.
       -2    1    3    3    0  502 -0.23914347264E+03 -0.75989149694E+03  0.48107395798E+03  0.93062174952E+03  0.25500000920E-02 0.  1.
</event>
<event>
 5   0  0.2038375E-06  0.1724166E+04  0.7818609E-02  0.8747700E-01
       -1   -1    0    0    0  501  0.00000000000E+00  0.00000000000E+00  0.11068998762E+04  0.11068998763E+04  0.50400001928E-02 0. -1.
        1   -1    0    0  501    0  0.00000000000E+00  0.00000000000E+00 -0.67141295912E+03  0.67141295914E+03  0.50400001928E-02 0.  1.
    10030    2    1    2    0    0  0.00000000000E+00  0.00000000000E+00  0.43548691712E+03  0.17783128354E+04  0.17241657941E+04 0.  0.
        1    1    3    3  502    0  0.81882183224E+03 -0.22558792282E+03  0.65361238978E+02  0.85183988840E+03  0.50400001928E-02 0.  1.
       -1    1    3    3    0  502 -0.81882183224E+03  0.22558792282E+03  0.37012567815E+03  0.92647294700E+03  0.50400001928E-02 0. -1.
</event>
<event>
 5   0  0.1999849E-06  0.2150900E+04  0.7818609E-02  0.8539147E-01
       -1   -1    0    0    0  501  0.00000000000E+00  0.00000000000E+00  0.12742457731E+04  0.12742457731E+04  0.50400001928E-02 0. -1.
        1   -1    0    0  501    0  0.00000000000E+00  0.00000000000E+00 -0.90766827534E+03  0.90766827536E+03  0.50400001928E-02 0.  1.
    10030    2    1    2    0    0  0.00000000000E+00  0.00000000000E+00  0.36657749774E+03  0.21819140484E+04  0.21508997775E+04 0.  0.
        5    1    3    3  502    0 -0.10648092009E+04  0.13242075608E+03  0.11002209853E+03  0.10786476918E+04  0.46999998093E+01 0.  1.
       -5    1    3    3    0  502  0.10648092009E+04 -0.13242075608E+03  0.25655539921E+03  0.11032663567E+04  0.46999998093E+01 0. -1.
</event>
<event>
 5   0  0.2037109E-06  0.2201701E+04  0.7818609E-02  0.8517720E-01
       -1   -1    0    0    0  501  0.00000000000E+00  0.00000000000E+00  0.71084652007E+03  0.71084652009E+03  0.50400001928E-02 0.  1.
        1   -1    0    0  501    0  0.00000000000E+00  0.00000000000E+00 -0.17048296891E+04  0.17048296891E+04  0.50400001928E-02 0. -1.
    10030    2    1    2    0    0  0.00000000000E+00  0.00000000000E+00 -0.99398316903E+03  0.24156762092E+04  0.22017013892E+04 0.  0.
        2    1    3    3  502    0  0.10671013519E+04 -0.14803131618E+03 -0.74538658901E+03  0.13100456988E+04  0.25500000920E-02 0. -1.
       -2    1    3    3    0  502 -0.10671013519E+04  0.14803131618E+03 -0.24859658002E+03  0.11056305104E+04  0.25500000920E-02 0.  1.
</event>
<event>
 5   0  0.5300268E-06  0.3231213E+04  0.7818609E-02  0.8180622E-01
       -2   -1    0    0    0  501  0.00000000000E+00  0.00000000000E+00  0.15408653299E+04  0.15408653299E+04  0.25500000920E-02 0.  1.
        2   -1    0    0  501    0  0.00000000000E+00  0.00000000000E+00 -0.16939735201E+04  0.16939735201E+04  0.25500000920E-02 0. -1.
    10030    2    1    2    0    0  0.00000000000E+00  0.00000000000E+00 -0.15310819019E+03  0.32348388500E+04  0.32312134358E+04 0.  0.
        4    1    3    3  502    0 -0.11468643796E+03  0.33871057314E+03  0.15007470905E+04  0.15427641667E+04  0.12699999809E+01 0.  1.
       -4    1    3    3    0  502  0.11468643796E+03 -0.33871057314E+03 -0.16538552807E+04  0.16920746833E+04  0.12699999809E+01 0. -1.
</event>
<event>
 5   0  0.5300268E-06  0.3268402E+04  0.7818609E-02  0.8170982E-01
        2   -1    0    0  501    0  0.00000000000E+00  0.00000000000E+00  0.23630098967E+04  0.23630098967E+04  0.25500000920E-02 0.  1.
       -2   -1    0    0    0  501  0.00000000000E+00  0.00000000000E+00 -0.11301739055E+04  0.11301739055E+04  0.25500000920E-02 0. -1.
    10030    2    1    2    0    0  0.00000000000E+00  0.00000000000E+00  0.12328359911E+04  0.34931838022E+04  0.32684015198E+04 0.  0.
        4    1    3    3  502    0  0.11384755805E+04 -0.11425560170E+04  0.33557302349E+03  0.16474743599E+04  0.12699999809E+01 0. -1.
       -4    1    3    3    0  502 -0.11384755805E+04  0.11425560170E+04  0.89726296764E+03  0.18457094423E+04  0.12699999809E+01 0.  1.
</event>
<event>
 5   0  0.5968965E-06  0.1847126E+04  0.7818609E-02  0.8681632E-01
        2   -1    0    0  501    0  0.00000000000E+00  0.00000000000E+00  0.15815066060E+04  0.15815066060E+04  0.25500000920E-02 0. -1.
       -2   -1    0    0    0  501  0.00000000000E+00  0.00000000000E+00 -0.53933953620E+03  0.53933953621E+03  0.25500000920E-02 0.  1.
    10030    2    1    2    0    0  0.00000000000E+00  0.00000000000E+00  0.10421670698E+04  0.21208461422E+04  0.18471264595E+04 0.  0.
        4    1    3    3  502    0  0.86277162713E+02  0.21797145997E+03  0.15467762661E+04  0.15644403909E+04  0.12699999809E+01 0. -1.
       -4    1    3    3    0  502 -0.86277162713E+02 -0.21797145997E+03 -0.50460919636E+03  0.55640575133E+03  0.12699999809E+01 0.  1.
</event>
<event>
 5   0  0.2097842E-06  0.1911255E+04  0.7818609E-02  0.8649274E-01
       -1   -1    0    0    0  501  0.00000000000E+00  0.00000000000E+00  0.39091672908E+03  0.39091672912E+03  0.50400001928E-02 0.  1.
        1   -1    0    0  501    0  0.00000000000E+00  0.00000000000E+00 -0.23361079804E+04  0.23361079804E+04  0.50400001928E-02 0. -1.
    10030    2    1    2    0    0  0.00000000000E+00  0.00000000000E+00 -0.19451912513E+04  0.27270247095E+04  0.19112547612E+04 0.  0.
        4    1    3    3  502    0  0.41322046480E+03 -0.30996144839E+03 -0.21197435626E+04  0.21817748821E+04  0.12699999809E+01 0. -1.
       -4    1    3    3    0  502 -0.41322046480E+03  0.30996144839E+03  0.17455231131E+03  0.54524982742E+03  0.12699999809E+01 0.  1.
</event>
<event>
 5   0  0.2097842E-06  0.3252108E+04  0.7818609E-02  0.8175190E-01
       -1   -1    0    0    0  501  0.00000000000E+00  0.00000000000E+00  0.19723508070E+04  0.19723508070E+04  0.50400001928E-02 0.  1.
        1   -1    0    0  501    0  0.00000000000E+00  0.00000000000E+00 -0.13405582485E+04  0.13405582485E+04  0.50400001928E-02 0. -1.
    10030    2    1    2    0    0  0.00000000000E+00  0.00000000000E+00  0.63179255850E+03  0.33129090555E+04  0.32521077124E+04 0.  0.
        4    1    3    3  502    0  0.53524561998E+03 -0.15339410628E+04  0.24690662202E+03  0.16432977669E+04  0.12699999809E+01 0. -1.
       -4    1    3    3    0  502 -0.53524561998E+03  0.15339410628E+04  0.38488593648E+03  0.16696112886E+04  0.12699999809E+01 0.  1.
</event>
<event>
 5   0  0.5755250E-06  0.3332377E+04  0.7818609E-02  0.8154705E-01
       -2   -1    0    0    0  501  0.00000000000E+00  0.00000000000E+00  0.27426072534E+04  0.27426072534E+04  0.25500000920E-02 0. -1.
        2   -1    0    0  501    0  0.00000000000E+00  0.00000000000E+00 -0.10122429802E+04  0.10122429803E+04  0.25500000920E-02 0.  1.
    10030    2    1    2    0    0  0.00000000000E+00  0.00000000000E+00  0.17303642732E+04  0.37548502337E+04  0.33323774935E+04 0.  0.
        5    1    3    3  502    0  0.71600311241E+03  0.69661871802E+03  0.23677418924E+04  0.25698563878E+04  0.46999998093E+01 0. -1.
       -5    1    3    3    0  502 -0.71600311241E+03 -0.69661871802E+03 -0.63737761918E+03  0.11849938458E+04  0.46999998093E+01 0.  1.
</event>
<event>
 5   0  0.1999849E-06  0.2666564E+04  0.7818609E-02  0.8345936E-01
        1   -1    0    0  501    0  0.00000000000E+00  0.00000000000E+00  0.31842057063E+04  0.31842057063E+04  0.50400001928E-02 0. -1.
       -1   -1    0    0    0  501  0.00000000000E+00  0.00000000000E+00 -0.55826828229E+03  0.55826828232E+03  0.50400001928E-02 0.  1.
    10030    2    1    2    0    0  0.00000000000E+00  0.00000000000E+00  0.26259374240E+04  0.37424739886E+04  0.26665641190E+04 0.  0.
        5    1    3    3  502    0  0.87085596318E+03  0.91459908550E+03  0.71301127948E+03  0.14502719643E+04  0.46999998093E+01 0. -1.
       -5    1    3    3    0  502 -0.87085596318E+03 -0.91459908550E+03  0.19129261445E+04  0.22922020243E+04  0.46999998093E+01 0.  1.
</event>
<event>
 5   0  0.1878000E-06  0.3281338E+04  0.7818609E-02  0.8167660E-01
        3   -1    0    0  501    0  0.00000000000E+00  0.00000000000E+00  0.25554288216E+04  0.25554288236E+04  0.10100000352E+00 0.  1.
       -3   -1    0    0    0  501  0.00000000000E+00  0.00000000000E+00 -0.10533632019E+04  0.10533632068E+04  0.10100000352E+00 0. -1.
    10030    2    1    2    0    0  0.00000000000E+00  0.00000000000E+00  0.15020656197E+04  0.36087920304E+04  0.32813379577E+04 0.  0.
        2    1    3    3  502    0 -0.58343806708E+03  0.95266658192E+03 -0.57046846170E+03  0.12543555557E+04  0.25500000920E-02 0. -1.
       -2    1    3    3    0  502  0.58343806708E+03 -0.95266658192E+03  0.20725340814E+04  0.23544364747E+04  0.25500000920E-02 0.  1.
</event>
<event>
 5   0  0.5637538E-06  0.3189653E+04  0.7818609E-02  0.8191555E-01
        2   -1    0    0  501    0  0.00000000000E+00  0.00000000000E+00  0.11777941990E+04  0.11777941990E+04  0.25500000920E-02 0.  1.
       -2   -1    0    0    0  501  0.00000000000E+00  0.00000000000E+00 -0.21595208848E+04  0.21595208849E+04  0.25500000920E-02 0. -1.
    10030    2    1    2    0    0  0.00000000000E+00  0.00000000000E+00 -0.98172668590E+03  0.33373150838E+04  0.31896527527E+04 0.  0.
        2    1    3    3  502    0 -0.49479272754E+03 -0.11327143731E+04  0.56356525993E+03  0.13584798476E+04  0.25500000920E-02 0.  1.
       -2    1    3    3    0  502  0.49479272754E+03  0.11327143731E+04 -0.15452919458E+04  0.19788352362E+04  0.25500000920E-02 0. -1.
</event>
<event>
 5   0  0.2730981E-06  0.3379586E+04  0.7818609E-02  0.8142935E-01
        1   -1    0    0  501    0  0.00000000000E+00  0.00000000000E+00  0.27150758213E+04  0.27150758213E+04  0.50400001928E-02 0. -1.
       -1   -1    0    0    0  501  0.00000000000E+00  0.00000000000E+00 -0.10516837211E+04  0.10516837211E+04  0.50400001928E-02 0.  1.
    10030    2    1    2    0    0  0.00000000000E+00  0.00000000000E+00  0.16633921002E+04  0.37667595424E+04  0.33795863905E+04 0.  0.
        3    1    3    3  502    0  0.48832343512E+03 -0.13981785765E+04  0.17385676020E+04  0.22838521025E+04  0.10100000352E+00 0. -1.
       -3    1    3    3    0  502 -0.48832343512E+03  0.13981785765E+04 -0.75175501836E+02  0.14829074399E+04  0.10100000352E+00 0.  1.
</event>
<event>
 5   0  0.5855568E-06  0.3108224E+04  0.7818609E-02  0.8213484E-01
       -2   -1    0    0    0  501  0.00000000000E+00  0.00000000000E+00  0.81438245944E+03  0.81438245944E+03  0.25500000920E-02 0.  1.
        2   -1    0    0  501    0  0.00000000000E+00  0.00000000000E+00 -0.29657617578E+04  0.29657617578E+04  0.25500000920E-02 0. -1.
    10030    2    1    2    0    0  0.00000000000E+00  0.00000000000E+00 -0.21513792983E+04  0.37801442172E+04  0.31082241582E+04 0.  0.
        3    1    3    3  502    0 -0.12520171357E+04  0.88713329121E+03 -0.77602662126E+03  0.17195260136E+04  0.10100000352E+00 0.  1.
       -3    1    3    3    0  502  0.12520171357E+04 -0.88713329121E+03 -0.13753526771E+04  0.20606182036E+04  0.10100000352E+00 0. -1.
</event>
<event>
 5   0  0.5300268E-06  0.3597682E+04  0.7818609E-02  0.8091023E-01
        2   -1    0    0  501    0  0.00000000000E+00  0.00000000000E+00  0.19044852526E+04  0.19044852526E+04  0.25500000920E-02 0. -1.
       -2   -1    0    0    0  501  0.00000000000E+00  0.00000000000E+00 -0.16990566367E+04  0.16990566367E+04  0.25500000920E-02 0.  1.
    10030    2    1    2    0    0  0.00000000000E+00  0.00000000000E+00  0.20542861593E+03  0.36035418893E+04  0.35976816468E+04 0.  0.
        4    1    3    3  502    0 -0.80752171968E+03  0.66684490761E+03 -0.13622182825E+04  0.17182589213E+04  0.12699999809E+01 0.  1.
       -4    1    3    3    0  502  0.80752171968E+03 -0.66684490761E+03  0.15676468984E+04  0.18852829680E+04  0.12699999809E+01 0. -1.
</event>
<event>
 5   0  0.5300268E-06  0.3338699E+04  0.7818609E-02  0.8153118E-01
       -2   -1    0    0    0  501  0.00000000000E+00  0.00000000000E+00  0.30249518004E+04  0.30249518004E+04  0.25500000920E-02 0. -1.
        2   -1    0    0  501    0  0.00000000000E+00  0.00000000000E+00 -0.92124717411E+03  0.92124717412E+03  0.25500000920E-02 0.  1.
    10030    2    1    2    0    0  0.00000000000E+00  0.00000000000E+00  0.21037046263E+04  0.39461989745E+04  0.33386993264E+04 0.  0.
        4    1    3    3  502    0 -0.79506542185E+03  0.14675412418E+04  0.10877099261E+04  0.19922150531E+04  0.12699999809E+01 0. -1.
       -4    1    3    3    0  502  0.79506542185E+03 -0.14675412418E+04  0.10159947002E+04  0.19539839214E+04  0.12699999809E+01 0.  1.
</event>
<event>
 5   0  0.2037109E-06  0.3344555E+04  0.7818609E-02  0.8151650E-01
        1   -1    0    0  501    0  0.00000000000E+00  0.00000000000E+00  0.23336731517E+04  0.23336731517E+04  0.50400001928E-02 0.  1.
       -1   -1    0    0    0  501  0.00000000000E+00  0.00000000000E+00 -0.11983305996E+04  0.11983305996E+04  0.50400001928E-02 0. -1.
    10030    2    1    2    0    0  0.00000000000E+00  0.00000000000E+00  0.11353425521E+04  0.35320037512E+04  0.33445549462E+04 0.  0.
        2    1    3    3  502    0  0.26502753329E+03  0.64128309769E+03  0.21744681464E+04  0.22824976066E+04  0.25500000920E-02 0.  1.
       -2    1    3    3    0  502 -0.26502753329E+03 -0.64128309769E+03 -0.10391255943E+04  0.12495061446E+04  0.25500000920E-02 0. -1.
</event>
<event>
 5   0  0.5622811E-06  0.3339573E+04  0.7818609E-02  0.8152898E-01
       -2   -1    0    0    0  501  0.00000000000E+00  0.00000000000E+00  0.29501061186E+04  0.29501061186E+04  0.25500000920E-02 0. -1.
        2   -1    0    0  501    0  0.00000000000E+00  0.00000000000E+00 -0.94511435566E+03  0.94511435567E+03  0.25500000920E-02 0.  1.
    10030    2    1    2    0    0  0.00000000000E+00  0.00000000000E+00  0.20049917629E+04  0.38952204743E+04  0.33395734119E+04 0.  0.
        1    1    3    3  502    0  0.26751669292E+02  0.67076067612E+03 -0.78079299196E+03  0.10296956991E+04  0.50400001928E-02 0.  1.
       -1    1    3    3    0  502 -0.26751669292E+02 -0.67076067612E+03  0.27857847549E+04  0.28655247752E+04  0.50400001928E-02 0. -1.
</event>
<event>
 5   0  0.1925906E-06  0.3277039E+04  0.7818609E-02  0.8168762E-01
       -1   -1    0    0    0  501  0.00000000000E+00  0.00000000000E+00  0.98902354806E+03  0.98902354808E+03  0.50400001928E-02 0.  1.
        1   -1    0    0  501    0  0.00000000000E+00  0.00000000000E+00 -0.27145424947E+04  0.27145424948E+04  0.50400001928E-02 0. -1.
    10030    2    1    2    0    0  0.00000000000E+00  0.00000000000E+00 -0.17255189467E+04  0.37035660428E+04  0.32770391817E+04 0.  0.
        1    1    3    3  502    0  0.34840424544E+03  0.15972524554E+04 -0.98731029816E+03  0.19098121764E+04  0.50400001928E-02 0.  1.
       -1    1    3    3    0  502 -0.34840424544E+03 -0.15972524554E+04 -0.73820864852E+03  0.17937538664E+04  0.50400001928E-02 0. -1.
</event>
<event>
 5   0  0.1999849E-06  0.3125412E+04  0.7818609E-02  0.8208798E-01
        1   -1    0    0  501    0  0.00000000000E+00  0.00000000000E+00  0.26698954943E+04  0.26698954943E+04  0.50400001928E-02 0. -1.
       -1   -1    0    0    0  501  0.00000000000E+00  0.00000000000E+00 -0.91466119884E+03  0.91466119886E+03  0.50400001928E-02 0.  1.
    10030    2    1    2    0    0  0.00000000000E+00  0.00000000000E+00  0.17552342954E+04  0.35845566932E+04  0.31254118536E+04 0.  0.
        5    1    3    3  502    0  0.33296431690E+03  0.11218665450E+04  0.20654152563E+04  0.23739022836E+04  0.46999998093E+01 0. -1.
       -5    1    3    3    0  502 -0.33296431690E+03 -0.11218665450E+04 -0.31018096082E+03  0.12106544096E+04  0.46999998093E+01 0.  1.
</event>
<event>
 5   0  0.5622811E-06  0.3303237E+04  0.7818609E-02  0.8162072E-01
        2   -1    0    0  501    0  0.00000000000E+00  0.00000000000E+00  0.21565366209E+04  0.21565366209E+04  0.25500000920E-02 0. -1.
       -2   -1    0    0    0  501  0.00000000000E+00  0.00000000000E+00 -0.12649184422E+04  0.12649184422E+04  0.25500000920E-02 0.  1.
    10030    2    1    2    0    0  0.00000000000E+00  0.00000000000E+00  0.89161817870E+03  0.34214550631E+04  0.33032365601E+04 0.  0.
        1    1    3    3  502    0  0.10263630754E+04  0.74919179532E+03 -0.64700120516E+03  0.14259453244E+04  0.50400001928E-02 0.  1.
       -1    1    3    3    0  502 -0.10263630754E+04 -0.74919179532E+03  0.15386193839E+04  0.19955097387E+04  0.50400001928E-02 0. -1.
</event>
<event>
 5   0  0.1999849E-06  0.3429600E+04  0.7818609E-02  0.8130680E-01
        1   -1    0    0  501    0  0.00000000000E+00  0.00000000000E+00  0.20682044498E+04  0.20682044498E+04  0.50400001928E-02 0.  1.
       -1   -1    0    0    0  501  0.00000000000E+00  0.00000000000E+00 -0.14217834932E+04  0.14217834932E+04  0.50400001928E-02 0. -1.
    10030    2    1    2    0    0  0.00000000000E+00  0.00000000000E+00  0.64642095653E+03  0.34899879430E+04  0.34295999460E+04 0.  0.
        5    1    3    3  502    0  0.13144362187E+04  0.54747792661E+03 -0.64914684462E+03  0.15648924465E+04  0.46999998093E+01 0. -1.
       -5    1    3    3    0  502 -0.13144362187E+04 -0.54747792661E+03  0.12955678012E+04  0.19250954965E+04  0.46999998093E+01 0.  1.
</event>
<event>
 5   0  0.1999849E-06  0.3282654E+04  0.7818609E-02  0.8167323E-01
       -1   -1    0    0    0  501  0.00000000000E+00  0.00000000000E+00  0.13524305311E+04  0.13524305311E+04  0.50400001928E-02 0. -1.
        1   -1    0    0  501    0  0.00000000000E+00  0.00000000000E+00 -0.19919349544E+04  0.19919349544E+04  0.50400001928E-02 0.  1.
    10030    2    1    2    0    0  0.00000000000E+00  0.00000000000E+00 -0.63950442332E+03  0.33443654856E+04  0.32826535903E+04 0.  0.
        5    1    3    3  502    0 -0.10618318613E+04 -0.12361998208E+04 -0.12048729155E+03  0.16340796113E+04  0.46999998093E+01 0. -1.
       -5    1    3    3    0  502  0.10618318613E+04  0.12361998208E+04 -0.51901713177E+03  0.17102858743E+04  0.46999998093E+01 0.  1.
</event>
<event>
 5   0  0.2097842E-06  0.4162847E+04  0.7818609E-02  0.7972477E-01
        1   -1    0    0  501    0  0.00000000000E+00  0.00000000000E+00  0.14817668964E+04  0.14817668964E+04  0.50400001928E-02 0.  1.
       -1   -1    0    0    0  501  0.00000000000E+00  0.00000000000E+00 -0.29237549014E+04  0.29237549014E+04  0.50400001928E-02 0. -1.
    10030    2    1    2    0    0  0.00000000000E+00  0.00000000000E+00 -0.14419880049E+04  0.44055217978E+04  0.41628467308E+04 0.  0.
        4    1    3    3  502    0 -0.77575354395E+03  0.17470077138E+04  0.15073065586E+03  0.19174334034E+04  0.12699999809E+01 0.  1.
       -4    1    3    3    0  502  0.77575354395E+03 -0.17470077138E+04 -0.15927186608E+04  0.24880883944E+04  0.12699999809E+01 0. -1.
</event>
<event>
 5   0  0.5755250E-06  0.2556016E+04  0.7818609E-02  0.8383297E-01
       -2   -1    0    0    0  501  0.00000000000E+00  0.00000000000E+00  0.11189585560E+04  0.11189585560E+04  0.25500000920E-02 0.  1.
        2   -1    0    0  501    0  0.00000000000E+00  0.00000000000E+00 -0.14596644615E+04  0.14596644615E+04  0.25500000920E-02 0. -1.
    10030    2    1    2    0    0  0.00000000000E+00  0.00000000000E+00 -0.34070590552E+03  0.25786230175E+04  0.25560156792E+04 0.  0.
        5    1    3    3  502    0  0.19089450444E+03 -0.58780841623E+03 -0.12988721951E+04  0.14384194504E+04  0.46999998093E+01 0. -1.
       -5    1    3    3    0  502 -0.19089450444E+03  0.58780841623E+03  0.95816628960E+03  0.11402035671E+04  0.46999998093E+01 0.  1.
</event>
<event>
 5   0  0.5622811E-06  0.1762179E+04  0.7818609E-02  0.8726675E-01
       -2   -1    0    0    0  501  0.00000000000E+00  0.00000000000E+00  0.37348192576E+03  0.37348192576E+03  0.25500000920E-02 0. -1.
        2   -1    0    0  501    0  0.00000000000E+00  0.00000000000E+00 -0.20785988311E+04  0.20785988311E+04  0.25500000920E-02 0.  1.
    10030    2    1    2    0    0  0.00000000000E+00  0.00000000000E+00 -0.17051169054E+04  0.24520807569E+04  0.17621794396E+04 0.  0.
        1    1    3    3  502    0  0.67513959782E+03  0.41102756903E+02 -0.66861955291E+02  0.67968627635E+03  0.50400001928E-02 0. -1.
       -1    1    3    3    0  502 -0.67513959782E+03 -0.41102756903E+02 -0.16382549501E+04  0.17723944806E+04  0.50400001928E-02 0.  1.
</event>
<event>
 5   0  0.2037109E-06  0.2684265E+04  0.7818609E-02  0.8340128E-01
       -1   -1    0    0    0  501  0.00000000000E+00  0.00000000000E+00  0.15225327207E+04  0.15225327207E+04  0.50400001928E-02 0. -1.
        1   -1    0    0  501    0  0.00000000000E+00  0.00000000000E+00 -0.11831074664E+04  0.11831074664E+04  0.50400001928E-02 0.  1.
    10030    2    1    2    0    0  0.00000000000E+00  0.00000000000E+00  0.33942525429E+03  0.27056401872E+04  0.26842651358E+04 0.  0.
        2    1    3    3  502    0  0.76988830564E+03  0.10760888534E+04 -0.57078186835E+02  0.13243689603E+04  0.25500000920E-02 0.  1.
       -2    1    3    3    0  502 -0.76988830564E+03 -0.10760888534E+04  0.39650344112E+03  0.13812712269E+04  0.25500000920E-02 0. -1.
</event>
<event>
 5   0  0.1999849E-06  0.2090505E+04  0.7818609E-02  0.8565437E-01
        1   -1    0    0  501    0  0.00000000000E+00  0.00000000000E+00  0.11826406346E+04  0.11826406347E+04  0.50400001928E-02 0.  1.
       -1   -1    0    0    0  501  0.00000000000E+00  0.00000000000E+00 -0.92382497961E+03  0.92382497963E+03  0.50400001928E-02 0. -1.
    10030    2    1    2    0    0  0.00000000000E+00  0.00000000000E+00  0.25881565503E+03  0.21064656143E+04  0.20905051640E+04 0.  0.
        5    1    3    3  502    0  0.84867370917E+03  0.45421717154E+03 -0.28109737720E+03  0.10027951581E+04  0.46999998093E+01 0. -1.
       -5    1    3    3    0  502 -0.84867370917E+03 -0.45421717154E+03  0.53991303223E+03  0.11036704562E+04  0.46999998093E+01 0.  1.
</event>
<event>
 5   0  0.5855568E-06  0.3314430E+04  0.7818609E-02  0.8159233E-01
       -2   -1    0    0    0  501  0.00000000000E+00  0.00000000000E+00  0.21471300451E+04  0.21471300451E+04  0.25500000920E-02 0. -1.
        2   -1    0    0  501    0  0.00000000000E+00  0.00000000000E+00 -0.12790847783E+04  0.12790847783E+04  0.25500000920E-02 0.  1.
    10030    2    1    2    0    0  0.00000000000E+00  0.00000000000E+00  0.86804526678E+03  0.34262148234E+04  0.33144298802E+04 0.  0.
        3    1    3    3  502    0  0.13138043640E+04 -0.10031521305E+04  0.55618291170E+03  0.17440572082E+04  0.10100000352E+00 0. -1.
       -3    1    3    3    0  502 -0.13138043640E+04  0.10031521305E+04  0.31186235509E+03  0.16821576153E+04  0.10100000352E+00 0.  1.
</event>
<event>
 5   0  0.5622811E-06  0.3296096E+04  0.7818609E-02  0.8163889E-01
       -2   -1    0    0    0  501  0.00000000000E+00  0.00000000000E+00  0.16212366209E+04  0.16212366209E+04  0.25500000920E-02 0.  1.
        2   -1    0    0  501    0  0.00000000000E+00  0.00000000000E+00 -0.16753031352E+04  0.16753031352E+04  0.25500000920E-02 0. -1.
    10030    2    1    2    0    0  0.00000000000E+00  0.00000000000E+00 -0.54066514365E+02  0.32965397561E+04  0.32960963541E+04 0.  0.
        1    1    3    3  502    0 -0.11166738952E+04 -0.11086553075E+04  0.46291591016E+03  0.16402342268E+04  0.50400001928E-02 0.  1.
       -1    1    3    3    0  502  0.11166738952E+04  0.11086553075E+04 -0.51698242453E+03  0.16563055293E+04  0.50400001928E-02 0. -1.
</event>
<event>
 5   0  0.1878000E-06  0.3182845E+04  0.7818609E-02  0.8193363E-01
        3   -1    0    0  501    0  0.00000000000E+00  0.00000000000E+00  0.13318974787E+04  0.13318974825E+04  0.10100000352E+00 0. -1.
       -3   -1    0    0    0  501  0.00000000000E+00  0.00000000000E+00 -0.19015166741E+04  0.19015166768E+04  0.10100000352E+00 0.  1.
    10030    2    1    2    0    0  0.00000000000E+00  0.00000000000E+00 -0.56961919545E+03  0.32334141593E+04  0.31828448121E+04 0.  0.
        4    1    3    3  502    0  0.32513947070E+03 -0.12917191468E+04  0.59987066597E+03  0.14608560704E+04  0.12699999809E+01 0. -1.
       -4    1    3    3    0  502 -0.32513947070E+03  0.12917191468E+04 -0.11694898614E+04  0.17725580889E+04  0.12699999809E+01 0.  1.
</event>
<event>
 5   0  0.2037109E-06  0.1730742E+04  0.7818609E-02  0.8744023E-01
        1   -1    0    0  501    0  0.00000000000E+00  0.00000000000E+00  0.77043341000E+03  0.77043341002E+03  0.50400001928E-02 0.  1.
       -1   -1    0    0    0  501  0.00000000000E+00  0.00000000000E+00 -0.97200766688E+03  0.97200766689E+03  0.50400001928E-02 0. -1.
    10030    2    1    2    0    0  0.00000000000E+00  0.00000000000E+00 -0.20157425687E+03  0.17424410769E+04  0.17307422470E+04 0.  0.
        2    1    3    3  502    0 -0.78674774071E+03  0.10925875251E+03 -0.44655835597E+03  0.91122107515E+03  0.25500000920E-02 0. -1.
       -2    1    3    3    0  502  0.78674774071E+03 -0.10925875251E+03  0.24498409910E+03  0.83122000176E+03  0.25500000920E-02 0.  1.
</event>
<event>
 5   0  0.1999849E-06  0.3320291E+04  0.7818609E-02  0.8157752E-01
        1   -1    0    0  501    0  0.00000000000E+00  0.00000000000E+00  0.22865399578E+04  0.22865399578E+04  0.50400001928E-02 0. -1.
       -1   -1    0    0    0  501  0.00000000000E+00  0.00000000000E+00 -0.12053506465E+04  0.12053506465E+04  0.50400001928E-02 0.  1.
    10030    2    1    2    0    0  0.00000000000E+00  0.00000000000E+00  0.10811893113E+04  0.34918906043E+04  0.33202905995E+04 0.  0.
        5    1    3    3  502    0  0.41821441982E+03  0.12763382981E+04 -0.48560017908E+03  0.14282059992E+04  0.46999998093E+01 0.  1.
       -5    1    3    3    0  502 -0.41821441982E+03 -0.12763382981E+04  0.15667894904E+04  0.20636846051E+04  0.46999998093E+01 0. -1.
</event>
<event>
 5   0  0.2037109E-06  0.3437456E+04  0.7818609E-02  0.8128774E-01
        1   -1    0    0  501    0  0.00000000000E+00  0.00000000000E+00  0.16712453034E+04  0.16712453034E+04  0.50400001928E-02 0. -1.
       -1   -1    0    0    0  501  0.00000000000E+00  0.00000000000E+00 -0.17675595927E+04  0.17675595928E+04  0.50400001928E-02 0.  1.
    10030    2    1    2    0    0  0.00000000000E+00  0.00000000000E+00 -0.96314289312E+02  0.34388048962E+04  0.34374558429E+04 0.  0.
        2    1    3    3  502    0 -0.49419360733E+03 -0.25607172024E+03  0.15785885383E+04  0.16738404406E+04  0.25500000920E-02 0. -1.
       -2    1    3    3    0  502  0.49419360733E+03  0.25607172024E+03 -0.16749028276E+04  0.17649644556E+04  0.25500000920E-02 0.  1.
</event>
<event>
 5   0  0.1999849E-06  0.3315558E+04  0.7818609E-02  0.8158948E-01
        1   -1    0    0  501    0  0.00000000000E+00  0.00000000000E+00  0.87630896358E+03  0.87630896360E+03  0.50400001928E-02 0. -1.
       -1   -1    0    0    0  501  0.00000000000E+00  0.00000000000E+00 -0.31361447664E+04  0.31361447664E+04  0.50400001928E-02 0.  1.
    10030    2    1    2    0    0  0.00000000000E+00  0.00000000000E+00 -0.22598358029E+04  0.40124537300E+04  0.33155583361E+04 0.  0.
        5    1    3    3  502    0  0.98971212968E+03 -0.71784878672E+03  0.22493916009E+03  0.12431639859E+04  0.46999998093E+01 0. -1.
       -5    1    3    3    0  502 -0.98971212968E+03  0.71784878672E+03 -0.24847749629E+04  0.27692897441E+04  0.46999998093E+01 0.  1.
</event>
<event>
 5   0  0.2037109E-06  0.2370298E+04  0.7818609E-02  0.8450708E-01
       -1   -1    0    0    0  501  0.00000000000E+00  0.00000000000E+00  0.15833525908E+04  0.15833525908E+04  0.50400001928E-02 0.  1.
        1   -1    0    0  501    0  0.00000000000E+00  0.00000000000E+00 -0.88709140088E+03  0.88709140089E+03  0.50400001928E-02 0. -1.
    10030    2    1    2    0    0  0.00000000000E+00  0.00000000000E+00  0.69626118988E+03  0.24704439917E+04  0.23702982663E+04 0.  0.
        2    1    3    3  502    0 -0.36144044005E+03 -0.87918982052E+02  0.15209328764E+04  0.15657604394E+04  0.25500000920E-02 0.  1.
       -2    1    3    3    0  502  0.36144044005E+03  0.87918982052E+02 -0.82467168653E+03  0.90468355223E+03  0.25500000920E-02 0. -1.
</event>
<event>
 5   0  0.5855568E-06  0.3310681E+04  0.7818609E-02  0.8160183E-01
       -2   -1    0    0    0  501  0.00000000000E+00  0.00000000000E+00  0.10355408944E+04  0.10355408944E+04  0.25500000920E-02 0. -1.
        2   -1    0    0  501    0  0.00000000000E+00  0.00000000000E+00 -0.26461076703E+04  0.26461076703E+04  0.25500000920E-02 0.  1.
    10030    2    1    2    0    0  0.00000000000E+00  0.00000000000E+00 -0.16105667758E+04  0.36816485647E+04  0.33106813218E+04 0.  0.
        3    1    3    3  502    0 -0.12803790385E+04  0.10340201885E+04 -0.10029173994E+04  0.19272808702E+04  0.10100000352E+00 0. -1.
       -3    1    3    3    0  502  0.12803790385E+04 -0.10340201885E+04 -0.60764937647E+03  0.17543676945E+04  0.10100000352E+00 0.  1.
</event>
<event>
 5   0  0.5637538E-06  0.3205985E+04  0.7818609E-02  0.8187238E-01
        2   -1    0    0  501    0  0.00000000000E+00  0.00000000000E+00  0.24589674326E+04  0.24589674326E+04  0.25500000920E-02 0. -1.
       -2   -1    0    0    0  501  0.00000000000E+00  0.00000000000E+00 -0.10449853553E+04  0.10449853553E+04  0.25500000920E-02 0.  1.
    10030    2    1    2    0    0  0.00000000000E+00  0.00000000000E+00  0.14139820773E+04  0.35039527879E+04  0.32059850007E+04 0.  0.
        2    1    3    3  502    0  0.13886362663E+04 -0.26003311890E+03  0.15347862857E+04  0.20860241719E+04  0.25500000920E-02 0. -1.
       -2    1    3    3    0  502 -0.13886362663E+04  0.26003311890E+03 -0.12080420839E+03  0.14179286159E+04  0.25500000920E-02 0.  1.
</event>
<event>
 5   0  0.5622811E-06  0.3209030E+04  0.7818609E-02  0.8186436E-01
        2   -1    0    0  501    0  0.00000000000E+00  0.00000000000E+00  0.21375481382E+04  0.21375481382E+04  0.25500000920E-02 0. -1.
       -2   -1    0    0    0  501  0.00000000000E+00  0.00000000000E+00 -0.12044024174E+04  0.12044024174E+04  0.25500000920E-02 0.  1.
    10030    2    1    2    0    0  0.00000000000E+00  0.00000000000E+00  0.93314572077E+03  0.33419505556E+04  0.32090298502E+04 0.  0.
        1    1    3    3  502    0  0.10767807853E+04 -0.68430715561E+03 -0.54673282695E+03  0.13880381576E+04  0.50400001928E-02 0.  1.
       -1    1    3    3    0  502 -0.10767807853E+04  0.68430715561E+03  0.14798785477E+04  0.19539123980E+04  0.50400001928E-02 0. -1.
</event>
<event>
 5   0  0.2037109E-06  0.1985190E+04  0.7818609E-02  0.8613576E-01
        1   -1    0    0  501    0  0.00000000000E+00  0.00000000000E+00  0.80560572336E+03  0.80560572338E+03  0.50400001928E-02 0. -1.
       -1   -1    0    0    0  501  0.00000000000E+00  0.00000000000E+00 -0.12229865143E+04  0.12229865144E+04  0.50400001928E-02 0.  1.
    10030    2    1    2    0    0  0.00000000000E+00  0.00000000000E+00 -0.41738079099E+03  0.20285922377E+04  0.19851901023E+04 0.  0.
        2    1    3    3  502    0  0.95451876074E+03 -0.21695691797E+03 -0.40568108850E+02  0.97970512927E+03  0.25500000920E-02 0. -1.
       -2    1    3    3    0  502 -0.95451876074E+03  0.21695691797E+03 -0.37681268213E+03  0.10488871085E+04  0.25500000920E-02 0.  1.
</event>
<event>
 5   0  0.5300268E-06  0.3119382E+04  0.7818609E-02  0.8210439E-01
       -2   -1    0    0    0  501  0.00000000000E+00  0.00000000000E+00  0.15211770486E+04  0.15211770486E+04  0.25500000920E-02 0. -1.
        2   -1    0    0  501    0  0.00000000000E+00  0.00000000000E+00 -0.15991804791E+04  0.15991804791E+04  0.25500000920E-02 0.  1.
    10030    2    1    2    0    0  0.00000000000E+00  0.00000000000E+00 -0.78003430541E+02  0.31203575277E+04  0.31193824013E+04 0.  0.
        4    1    3    3  502    0  0.88612153180E+03 -0.67018384114E+03  0.10559989990E+04  0.15328056788E+04  0.12699999809E+01 0. -1.
       -4    1    3    3    0  502 -0.88612153180E+03  0.67018384114E+03 -0.11340024295E+04  0.15875518490E+04  0.12699999809E+01 0.  1.
</event>
<event>
 5   0  0.1925906E-06  0.3207912E+04  0.7818609E-02  0.8186731E-01
        1   -1    0    0  501    0  0.00000000000E+00  0.00000000000E+00  0.19050692148E+04  0.19050692148E+04  0.50400001928E-02 0. -1.
       -1   -1    0    0    0  501  0.00000000000E+00  0.00000000000E+00 -0.13504360259E+04  0.13504360259E+04  0.50400001928E-02 0.  1.
    10030    2    1    2    0    0  0.00000000000E+00  0.00000000000E+00  0.55463318893E+03  0.32555052407E+04  0.32079115322E+04 0.  0.
        1    1    3    3  502    0  0.68091882273E+03 -0.45654433175E+03  0.16763894872E+04  0.18661095581E+04  0.50400001928E-02 0. -1.
       -1    1    3    3    0  502 -0.68091882273E+03  0.45654433175E+03 -0.11217562983E+04  0.13893956826E+04  0.50400001928E-02 0.  1.
</event>
<event>
 5   0  0.2097842E-06  0.3190000E+04  0.7818609E-02  0.8191463E-01
        1   -1    0    0  501    0  0.00000000000E+00  0.00000000000E+00  0.16289677680E+04  0.16289677680E+04  0.50400001928E-02 0.  1.
       -1   -1    0    0    0  501  0.00000000000E+00  0.00000000000E+00 -0.15617410209E+04  0.15617410209E+04  0.50400001928E-02 0. -1.
    10030    2    1    2    0    0  0.00000000000E+00  0.00000000000E+00  0.67226747168E+02  0.31907087889E+04  0.31900004922E+04 0.  0.
        4    1    3    3  502    0  0.76417633129E+03 -0.99245417354E+03 -0.95407406742E+03  0.15745442804E+04  0.12699999809E+01 0. -1.
       -4    1    3    3    0  502 -0.76417633129E+03  0.99245417354E+03  0.10213008146E+04  0.16161645085E+04  0.12699999809E+01 0.  1.
</event>
<event>
 5   0  0.5855568E-06  0.3323845E+04  0.7818609E-02  0.8156854E-01
       -2   -1    0    0    0  501  0.00000000000E+00  0.00000000000E+00  0.13108386173E+04  0.13108386173E+04  0.25500000920E-02 0. -1.
        2   -1    0    0  501    0  0.00000000000E+00  0.00000000000E+00 -0.21070379163E+04  0.21070379163E+04  0.25500000920E-02 0.  1.
    10030    2    1    2    0    0  0.00000000000E+00  0.00000000000E+00 -0.79619929897E+03  0.34178765336E+04  0.33238451642E+04 0.  0.
        3    1    3    3  502    0  0.51757065321E+03  0.49731422571E+03  0.11432331653E+04  0.13498825506E+04  0.10100000352E+00 0. -1.
       -3    1    3    3    0  502 -0.51757065321E+03 -0.49731422571E+03 -0.19394324642E+04  0.20679939830E+04  0.10100000352E+00 0.  1.
</event>
<event>
 5   0  0.1999849E-06  0.3125924E+04  0.7818609E-02  0.8208659E-01
        1   -1    0    0  501    0  0.00000000000E+00  0.00000000000E+00  0.89512259169E+03  0.89512259170E+03  0.50400001928E-02 0. -1.
       -1   -1    0    0    0  501  0.00000000000E+00  0.00000000000E+00 -0.27290682337E+04  0.27290682337E+04  0.50400001928E-02 0.  1.
    10030    2    1    2    0    0  0.00000000000E+00  0.00000000000E+00 -0.18339456420E+04  0.36241908254E+04  0.31259242667E+04 0.  0.
        5    1    3    3  502    0 -0.12616475710E+04  0.47637547873E+03 -0.10186707895E+01  0.13485960544E+04  0.46999998093E+01 0. -1.
       -5    1    3    3    0  502  0.12616475710E+04 -0.47637547873E+03 -0.18329269713E+04  0.22755947711E+04  0.46999998093E+01 0.  1.
</event>
<event>
 5   0  0.5855568E-06  0.3238680E+04  0.7818609E-02  0.8178676E-01
       -2   -1    0    0    0  501  0.00000000000E+00  0.00000000000E+00  0.14487986544E+04  0.14487986544E+04  0.25500000920E-02 0. -1.
        2   -1    0    0  501    0  0.00000000000E+00  0.00000000000E+00 -0.18099562879E+04  0.18099562879E+04  0.25500000920E-02 0.  1.
    10030    2    1    2    0    0  0.00000000000E+00  0.00000000000E+00 -0.36115763342E+03  0.32587549423E+04  0.32386801228E+04 0.  0.
        3    1    3    3  502    0 -0.14567445586E+04 -0.70640236616E+03 -0.14640934318E+03  0.16255905751E+04  0.10100000352E+00 0. -1.
       -3    1    3    3    0  502  0.14567445586E+04  0.70640236616E+03 -0.21474829023E+03  0.16331643672E+04  0.10100000352E+00 0.  1.
</event>
<event>
 5   0  0.2097842E-06  0.3459081E+04  0.7818609E-02  0.8123556E-01
       -1   -1    0    0    0  501  0.00000000000E+00  0.00000000000E+00  0.21669886879E+04  0.21669886879E+04  0.50400001928E-02 0. -1.
        1   -1    0    0  501    0  0.00000000000E+00  0.00000000000E+00 -0.13803996640E+04  0.13803996640E+04  0.50400001928E-02 0.  1.
    10030    2    1    2    0    0  0.00000000000E+00  0.00000000000E+00  0.78658902385E+03  0.35473883519E+04  0.34590810668E+04 0.  0.
        4    1    3    3  502    0 -0.14812370840E+04  0.42749418494E+03 -0.41061452921E+03  0.15954373951E+04  0.12699999809E+01 0.  1.
       -4    1    3    3    0  502  0.14812370840E+04 -0.42749418494E+03  0.11972035531E+04  0.19519509568E+04  0.12699999809E+01 0. -1.
</event>
<event>
 5   0  0.1999849E-06  0.1955392E+04  0.7818609E-02  0.8627765E-01
       -1   -1    0    0    0  501  0.00000000000E+00  0.00000000000E+00  0.43610124777E+03  0.43610124780E+03  0.50400001928E-02 0.  1.
        1   -1    0    0  501    0  0.00000000000E+00  0.00000000000E+00 -0.21918988195E+04  0.21918988195E+04  0.50400001928E-02 0. -1.
    10030    2    1    2    0    0  0.00000000000E+00  0.00000000000E+00 -0.17557975717E+04  0.26280000673E+04  0.19553923496E+04 0.  0.
        5    1    3    3  502    0  0.56890583161E+02 -0.68302656124E+03  0.59138572045E+02  0.68795441892E+03  0.46999998093E+01 0. -1.
       -5    1    3    3    0  502 -0.56890583161E+02  0.68302656124E+03 -0.18149361437E+04  0.19400456483E+04  0.46999998093E+01 0.  1.
</event>
<event>
 5   0  0.5755250E-06  0.3283545E+04  0.7818609E-02  0.8167095E-01
       -2   -1    0    0    0  501  0.00000000000E+00  0.00000000000E+00  0.20234703930E+04  0.20234703930E+04  0.25500000920E-02 0.  1.
        2   -1    0    0  501    0  0.00000000000E+00  0.00000000000E+00 -0.13320761715E+04  0.13320761715E+04  0.25500000920E-02 0. -1.
    10030    2    1    2    0    0  0.00000000000E+00  0.00000000000E+00  0.69139422154E+03  0.33555465645E+04  0.32835448492E+04 0.  0.
        5    1    3    3  502    0 -0.14053071296E+04 -0.59178930737E+03 -0.27616259677E+03  0.15496420821E+04  0.46999998093E+01 0. -1.
       -5    1    3    3    0  502  0.14053071296E+04  0.59178930737E+03  0.96755681831E+03  0.18059044824E+04  0.46999998093E+01 0.  1.
</event>
<event>
 5   0  0.1925906E-06  0.3189627E+04  0.7818609E-02  0.8191562E-01
       -1   -1    0    0    0  501  0.00000000000E+00  0.00000000000E+00  0.14761272632E+04  0.14761272632E+04  0.50400001928E-02 0. -1.
        1   -1    0    0  501    0  0.00000000000E+00  0.00000000000E+00 -0.17230427845E+04  0.17230427845E+04  0.50400001928E-02 0.  1.
    10030    2    1    2    0    0  0.00000000000E+00  0.00000000000E+00 -0.24691552131E+03  0.31991700477E+04  0.31896272070E+04 0.  0.
        1    1    3    3  502    0  0.99954078413E+03 -0.10114810281E+04  0.60068204876E+03  0.15436951037E+04  0.50400001928E-02 0. -1.
       -1    1    3    3    0  502 -0.99954078413E+03  0.10114810281E+04 -0.84759757007E+03  0.16554749440E+04  0.50400001928E-02 0.  1.
</event>
<event>
 5   0  0.5755250E-06  0.2045459E+04  0.7818609E-02  0.8585657E-01
       -2   -1    0    0    0  501  0.00000000000E+00  0.00000000000E+00  0.13232407163E+04  0.13232407163E+04  0.25500000920E-02 0. -1.
        2   -1    0    0  501    0  0.00000000000E+00  0.00000000000E+00 -0.79046516319E+03  0.79046516319E+03  0.25500000920E-02 0.  1.
    10030    2    1    2    0    0  0.00000000000E+00  0.00000000000E+00  0.53277555310E+03  0.21137058795E+04  0.20454590573E+04 0.  0.
        5    1    3    3  502    0  0.13306674061E+02 -0.82632003333E+03 -0.35618505908E+03  0.89992874794E+03  0.46999998093E+01 0.  1.
       -5    1    3    3    0  502 -0.13306674061E+02  0.82632003333E+03  0.88896061218E+03  0.12137771315E+04  0.46999998093E+01 0. -1.
</event>
<event>
 5   0  0.2037109E-06  0.2658968E+04  0.7818609E-02  0.8348442E-01
        1   -1    0    0  501    0  0.00000000000E+00  0.00000000000E+00  0.17015255425E+04  0.17015255425E+04  0.50400001928E-02 0.  1.
       -1   -1    0    0    0  501  0.00000000000E+00  0.00000000000E+00 -0.10387903527E+04  0.10387903527E+04  0.50400001928E-02 0. -1.
    10030    2    1    2    0    0  0.00000000000E+00  0.00000000000E+00  0.66273518977E+03  0.27403158952E+04  0.26589684605E+04 0.  0.
        2    1    3    3  502    0  0.74280376738E+03 -0.60427020418E+03  0.12818791123E+04  0.16000356168E+04  0.25500000920E-02 0.  1.
       -2    1    3    3    0  502 -0.74280376738E+03  0.60427020418E+03 -0.61914392256E+03  0.11402802784E+04  0.25500000920E-02 0. -1.
</event>
<event>
 5   0  0.2730981E-06  0.3288421E+04  0.7818609E-02  0.8165848E-01
       -1   -1    0    0    0  501  0.00000000000E+00  0.00000000000E+00  0.14407999355E+04  0.14407999355E+04  0.50400001928E-02 0. -1.
        1   -1    0    0  501    0  0.00000000000E+00  0.00000000000E+00 -0.18763386089E+04  0.18763386089E+04  0.50400001928E-02 0.  1.
    10030    2    1    2    0    0  0.00000000000E+00  0.00000000000E+00 -0.43553867340E+03  0.33171385444E+04  0.32884212301E+04 0.  0.
        3    1    3    3  502    0 -0.77756223587E+03 -0.48335481333E+03  0.11598782292E+04  0.14776848185E+04  0.10100000352E+00 0. -1.
       -3    1    3    3    0  502  0.77756223587E+03  0.48335481333E+03 -0.15954169026E+04  0.18394537258E+04  0.10100000352E+00 0.  1.
</event>
<event>
 5   0  0.1999849E-06  0.3220155E+04  0.7818609E-02  0.8183515E-01
       -1   -1    0    0    0  501  0.00000000000E+00  0.00000000000E+00  0.24518956682E+04  0.24518956682E+04  0.50400001928E-02 0.  1.
        1   -1    0    0  501    0  0.00000000000E+00  0.00000000000E+00 -0.10572836163E+04  0.10572836163E+04  0.50400001928E-02 0. -1.
    10030    2    1    2    0    0  0.00000000000E+00  0.00000000000E+00  0.13946120519E+04  0.35091792844E+04  0.32201547284E+04 0.  0.
        5    1    3    3  502    0  0.20725710229E+03  0.23773238713E+03 -0.10232836452E+04  0.10707958269E+04  0.46999998093E+01 0. -1.
       -5    1    3    3    0  502 -0.20725710229E+03 -0.23773238713E+03  0.24178956971E+04  0.24383834576E+04  0.46999998093E+01 0.  1.
</event>
<event>
 5   0  0.5637538E-06  0.3287293E+04  0.7818609E-02  0.8166136E-01
        2   -1    0    0  501    0  0.00000000000E+00  0.00000000000E+00  0.26438440568E+04  0.26438440568E+04  0.25500000920E-02 0. -1.
       -2   -1    0    0    0  501  0.00000000000E+00  0.00000000000E+00 -0.10218353967E+04  0.10218353967E+04  0.25500000920E-02 0.  1.
    10030    2    1    2    0    0  0.00000000000E+00  0.00000000000E+00  0.16220086601E+04  0.36656794535E+04  0.32872927710E+04 0.  0.
        2    1    3    3  502    0 -0.28584387935E+03  0.13739159592E+04  0.17651998753E+04  0.22550570694E+04  0.25500000920E-02 0. -1.
       -2    1    3    3    0  502  0.28584387935E+03 -0.13739159592E+04 -0.14319121516E+03  0.14106223841E+04  0.25500000920E-02 0.  1.
</event>
<event>
 5   0  0.5622811E-06  0.3062029E+04  0.7818609E-02  0.8226237E-01
       -2   -1    0    0    0  501  0.00000000000E+00  0.00000000000E+00  0.17734352338E+04  0.17734352338E+04  0.25500000920E-02 0.  1.
        2   -1    0    0  501    0  0.00000000000E+00  0.00000000000E+00 -0.13217319436E+04  0.13217319436E+04  0.25500000920E-02 0. -1.
    10030    2    1    2    0    0  0.00000000000E+00  0.00000000000E+00  0.45170329022E+03  0.30951671774E+04  0.30620293914E+04 0.  0.
        1    1    3    3  502    0 -0.12344485577E+04 -0.29323312597E+03 -0.64025078091E+03  0.14211861139E+04  0.50400001928E-02 0. -1.
       -1    1    3    3    0  502  0.12344485577E+04  0.29323312597E+03  0.10919540711E+04  0.16739810636E+04  0.50400001928E-02 0.  1.
</event>
<event>
 5   0  0.1925906E-06  0.3439164E+04  0.7818609E-02  0.8128361E-01
       -1   -1    0    0    0  501  0.00000000000E+00  0.00000000000E+00  0.12926274815E+04  0.12926274815E+04  0.50400001928E-02 0.  1.
        1   -1    0    0  501    0  0.00000000000E+00  0.00000000000E+00 -0.22875594655E+04  0.22875594655E+04  0.50400001928E-02 0. -1.
    10030    2    1    2    0    0  0.00000000000E+00  0.00000000000E+00 -0.99493198395E+03  0.35801869470E+04  0.34391639860E+04 0.  0.
        1    1    3    3  502    0  0.43616043204E+03 -0.46575048321E+03  0.11648214234E+04  0.13281447148E+04  0.50400001928E-02 0.  1.
       -1    1    3    3    0  502 -0.43616043204E+03  0.46575048321E+03 -0.21597534073E+04  0.22520422322E+04  0.50400001928E-02 0. -1.
</event>
<event>
 5   0  0.2730981E-06  0.3123136E+04  0.7818609E-02  0.8209417E-01
       -1   -1    0    0    0  501  0.00000000000E+00  0.00000000000E+00  0.10941546188E+04  0.10941546188E+04  0.50400001928E-02 0. -1.
        1   -1    0    0  501    0  0.00000000000E+00  0.00000000000E+00 -0.22286559197E+04  0.22286559197E+04  0.50400001928E-02 0.  1.
    10030    2    1    2    0    0  0.00000000000E+00  0.00000000000E+00 -0.11345013009E+04  0.33228105385E+04  0.31231357115E+04 0.  0.
        3    1    3    3  502    0 -0.56975912017E+03 -0.29350490550E+03  0.94777190265E+03  0.11441338096E+04  0.10100000352E+00 0. -1.
       -3    1    3    3    0  502  0.56975912017E+03  0.29350490550E+03 -0.20822732035E+04  0.21786767289E+04  0.10100000352E+00 0.  1.
</event>
<event>
 5   0  0.2730981E-06  0.3295769E+04  0.7818609E-02  0.8163973E-01
       -1   -1    0    0    0  501  0.00000000000E+00  0.00000000000E+00  0.16476608974E+04  0.16476608974E+04  0.50400001928E-02 0. -1.
        1   -1    0    0  501    0  0.00000000000E+00  0.00000000000E+00 -0.16481079955E+04  0.16481079955E+04  0.50400001928E-02 0.  1.
    10030    2    1    2    0    0  0.00000000000E+00  0.00000000000E+00 -0.44709811516E+00  0.32957688930E+04  0.32957688627E+04 0.  0.
        3    1    3    3  502    0 -0.84457992747E+03 -0.98335962155E+03  0.10172299922E+04  0.16477464206E+04  0.10100000352E+00 0. -1.
       -3    1    3    3    0  502  0.84457992747E+03  0.98335962155E+03 -0.10176770904E+04  0.16480224724E+04  0.10100000352E+00 0.  1.
</event>
<event>
 5   0  0.2037109E-06  0.3282548E+04  0.7818609E-02  0.8167350E-01
        1   -1    0    0  501    0  0.00000000000E+00  0.00000000000E+00  0.17419882640E+04  0.17419882641E+04  0.50400001928E-02 0. -1.
       -1   -1    0    0    0  501  0.00000000000E+00  0.00000000000E+00 -0.15463829128E+04  0.15463829128E+04  0.50400001928E-02 0.  1.
    10030    2    1    2    0    0  0.00000000000E+00  0.00000000000E+00  0.19560535124E+03  0.32883711769E+04  0.32825483307E+04 0.  0.
        2    1    3    3  502    0  0.84272941437E+03  0.74690824639E+02 -0.13111093253E+04  0.15603779183E+04  0.25500000920E-02 0.  1.
       -2    1    3    3    0  502 -0.84272941437E+03 -0.74690824639E+02  0.15067146765E+04  0.17279932586E+04  0.25500000920E-02 0. -1.
</event>
<event>
 5   0  0.5622811E-06  0.3294985E+04  0.7818609E-02  0.8164173E-01
       -2   -1    0    0    0  501  0.00000000000E+00  0.00000000000E+00  0.13230143859E+04  0.13230143859E+04  0.25500000920E-02 0. -1.
        2   -1    0    0  501    0  0.00000000000E+00  0.00000000000E+00 -0.20515506899E+04  0.20515506899E+04  0.25500000920E-02 0.  1.
    10030    2    1    2    0    0  0.00000000000E+00  0.00000000000E+00 -0.72853630394E+03  0.33745650758E+04  0.32949847200E+04 0.  0.
        1    1    3    3  502    0  0.64902737904E+03 -0.80234714112E+03 -0.16795096104E+04  0.19712305814E+04  0.50400001928E-02 0.  1.
       -1    1    3    3    0  502 -0.64902737904E+03  0.80234714112E+03  0.95097330646E+03  0.14033344944E+04  0.50400001928E-02 0. -1.
</event>
<event>
 5   0  0.5855568E-06  0.3239842E+04  0.7818609E-02  0.8178374E-01
        2   -1    0    0  501    0  0.00000000000E+00  0.00000000000E+00  0.12254785644E+04  0.12254785645E+04  0.25500000920E-02 0.  1.
       -2   -1    0    0    0  501  0.00000000000E+00  0.00000000000E+00 -0.21413212542E+04  0.21413212542E+04  0.25500000920E-02 0. -1.
    10030    2    1    2    0    0  0.00000000000E+00  0.00000000000E+00 -0.91584268980E+03  0.33667998187E+04  0.32398415373E+04 0.  0.
        3    1    3    3  502    0 -0.11466642622E+04 -0.10191924327E+04  0.82606674203E+02  0.15363645459E+04  0.10100000352E+00 0. -1.
       -3    1    3    3    0  502  0.11466642622E+04  0.10191924327E+04 -0.99844936400E+03  0.18304352728E+04  0.10100000352E+00 0.  1.
</event>
<event>
 5   0  0.2730981E-06  0.3339655E+04  0.7818609E-02  0.8152878E-01
       -1   -1    0    0    0  501  0.00000000000E+00  0.00000000000E+00  0.13111294177E+04  0.13111294177E+04  0.50400001928E-02 0.  1.
        1   -1    0    0  501    0  0.00000000000E+00  0.00000000000E+00 -0.21266584106E+04  0.21266584106E+04  0.50400001928E-02 0. -1.
    10030    2    1    2    0    0  0.00000000000E+00  0.00000000000E+00 -0.81552899291E+03  0.34377878284E+04  0.33396553137E+04 0.  0.
        3    1    3    3  502    0 -0.13707801692E+04  0.59654301157E+03  0.35801873491E+03  0.15372310372E+04  0.10100000352E+00 0. -1.
       -3    1    3    3    0  502  0.13707801692E+04 -0.59654301157E+03 -0.11735477278E+04  0.19005567912E+04  0.10100000352E+00 0.  1.
</event>
<event>
 5   0  0.5667274E-06  0.1847978E+04  0.7818609E-02  0.8681193E-01
       -2   -1    0    0    0  501  0.00000000000E+00  0.00000000000E+00  0.44454510874E+03  0.44454510875E+03  0.25500000920E-02 0. -1.
        2   -1    0    0  501    0  0.00000000000E+00  0.00000000000E+00 -0.19205154936E+04  0.19205154936E+04  0.25500000920E-02 0.  1.
    10030    2    1    2    0    0  0.00000000000E+00  0.00000000000E+00 -0.14759703849E+04  0.23650606024E+04  0.18479781048E+04 0.  0.
        4    1    3    3  502    0  0.70896509580E+03  0.14200429653E+02  0.20156061838E+02  0.70939483999E+03  0.12699999809E+01 0. -1.
       -4    1    3    3    0  502 -0.70896509580E+03 -0.14200429653E+02 -0.14961264467E+04  0.16556657624E+04  0.12699999809E+01 0.  1.
</event>
<event>
 5   0  0.2730981E-06  0.3282529E+04  0.7818609E-02  0.8167355E-01
        1   -1    0    0  501    0  0.00000000000E+00  0.00000000000E+00  0.15936867391E+04  0.15936867391E+04  0.50400001928E-02 0. -1.
       -1   -1    0    0    0  501  0.00000000000E+00  0.00000000000E+00 -0.16902627492E+04  0.16902627492E+04  0.50400001928E-02 0.  1.
    10030    2    1    2    0    0  0.00000000000E+00  0.00000000000E+00 -0.96576010146E+02  0.32839494883E+04  0.32825291036E+04 0.  0.
        3    1    3    3  502    0  0.22447372144E+03  0.31965823382E+03 -0.16430855303E+04  0.16888753382E+04  0.10100000352E+00 0.  1.
       -3    1    3    3    0  502 -0.22447372144E+03 -0.31965823382E+03  0.15465095201E+04  0.15950741501E+04  0.10100000352E+00 0. -1.
</event>
<event>
 5   0  0.2730981E-06  0.3218042E+04  0.7818609E-02  0.8184069E-01
       -1   -1    0    0    0  501  0.00000000000E+00  0.00000000000E+00  0.17933180656E+04  0.17933180656E+04  0.50400001928E-02 0.  1.
        1   -1    0    0  501    0  0.00000000000E+00  0.00000000000E+00 -0.14436636348E+04  0.14436636348E+04  0.50400001928E-02 0. -1.
    10030    2    1    2    0    0  0.00000000000E+00  0.00000000000E+00  0.34965443083E+03  0.32369817003E+04  0.32180416883E+04 0.  0.
        3    1    3    3  502    0 -0.57837945382E+03 -0.95703198458E+03 -0.98892416300E+03  0.14927839839E+04  0.10100000352E+00 0. -1.
       -3    1    3    3    0  502  0.57837945382E+03  0.95703198458E+03  0.13385785938E+04  0.17441977165E+04  0.10100000352E+00 0.  1.
</event>
<event>
 5   0  0.5855568E-06  0.3112214E+04  0.7818609E-02  0.8212394E-01
       -2   -1    0    0    0  501  0.00000000000E+00  0.00000000000E+00  0.10676280651E+04  0.10676280651E+04  0.25500000920E-02 0.  1.
        2   -1    0    0  501    0  0.00000000000E+00  0.00000000000E+00 -0.22680826716E+04  0.22680826716E+04  0.25500000920E-02 0. -1.
    10030    2    1    2    0    0  0.00000000000E+00  0.00000000000E+00 -0.12004546065E+04  0.33357107367E+04  0.31122138193E+04 0.  0.
        3    1    3    3  502    0  0.78550693717E+03 -0.11578362426E+04 -0.13302119473E+04  0.19305620290E+04  0.10100000352E+00 0.  1.
       -3    1    3    3    0  502 -0.78550693717E+03  0.11578362426E+04  0.12975734075E+03  0.14051487077E+04  0.10100000352E+00 0. -1.
</event>
<event>
 5   0  0.2097842E-06  0.1975217E+04  0.7818609E-02  0.8618296E-01
       -1   -1    0    0    0  501  0.00000000000E+00  0.00000000000E+00  0.65170554866E+03  0.65170554868E+03  0.50400001928E-02 0. -1.
        1   -1    0    0  501    0  0.00000000000E+00  0.00000000000E+00 -0.14966433316E+04  0.14966433316E+04  0.50400001928E-02 0.  1.
    10030    2    1    2    0    0  0.00000000000E+00  0.00000000000E+00 -0.84493778296E+03  0.21483488803E+04  0.19752172170E+04 0.  0.
        4    1    3    3  502    0 -0.73653364870E+03 -0.46344840717E+03 -0.93041855428E+03  0.12739491908E+04  0.12699999809E+01 0.  1.
       -4    1    3    3    0  502  0.73653364870E+03  0.46344840717E+03  0.85480771323E+02  0.87439968947E+03  0.12699999809E+01 0. -1.
</event>
<event>
 5   0  0.3429267E-06  0.1783878E+04  0.7818609E-02  0.8714920E-01
       -1   -1    0    0    0  501  0.00000000000E+00  0.00000000000E+00  0.76026199074E+03  0.76026199076E+03  0.50400001928E-02 0.  1.
        1   -1    0    0  501    0  0.00000000000E+00  0.00000000000E+00 -0.10464221760E+04  0.10464221760E+04  0.50400001928E-02 0. -1.
    10030    2    1    2    0    0  0.00000000000E+00  0.00000000000E+00 -0.28616018527E+03  0.18066841668E+04  0.17838778060E+04 0.  0.
        3    1    3    3  502    0 -0.55536206250E+02 -0.36751856818E+02 -0.10439007271E+04  0.10460228045E+04  0.10100000352E+00 0. -1.
       -3    1    3    3    0  502  0.55536206250E+02  0.36751856818E+02  0.75774054184E+03  0.76066136232E+03  0.10100000352E+00 0.  1.
</event>
<event>
 5   0  0.5637538E-06  0.3314268E+04  0.7818609E-02  0.8159274E-01
       -2   -1    0    0    0  501  0.00000000000E+00  0.00000000000E+00  0.10526711518E+04  0.10526711518E+04  0.25500000920E-02 0.  1.
        2   -1    0    0  501    0  0.00000000000E+00  0.00000000000E+00 -0.26086897069E+04  0.26086897069E+04  0.25500000920E-02 0. -1.
    10030    2    1    2    0    0  0.00000000000E+00  0.00000000000E+00 -0.15560185550E+04  0.36613608587E+04  0.33142675803E+04 0.  0.
        2    1    3    3  502    0 -0.79346691836E+03  0.69864654083E+03  0.63171745007E+03  0.12315695986E+04  0.25500000920E-02 0.  1.
       -2    1    3    3    0  502  0.79346691836E+03 -0.69864654083E+03 -0.21877360051E+04  0.24297912601E+04  0.25500000920E-02 0. -1.
</event>
<event>
 5   0  0.2097842E-06  0.3205155E+04  0.7818609E-02  0.8187457E-01
       -1   -1    0    0    0  501  0.00000000000E+00  0.00000000000E+00  0.29058456778E+04  0.29058456778E+04  0.50400001928E-02 0.  1.
        1   -1    0    0  501    0  0.00000000000E+00  0.00000000000E+00 -0.88382364519E+03  0.88382364521E+03  0.50400001928E-02 0. -1.
    10030    2    1    2    0    0  0.00000000000E+00  0.00000000000E+00  0.20220220327E+04  0.37896693231E+04  0.32051552970E+04 0.  0.
        4    1    3    3  502    0 -0.93937867448E+03  0.11542683379E+04  0.30803867881E+03  0.15197556154E+04  0.12699999809E+01 0.  1.
       -4    1    3    3    0  502  0.93937867448E+03 -0.11542683379E+04  0.17139833538E+04  0.22699137076E+04  0.12699999809E+01 0. -1.
</event>
<event>
 5   0  0.5622811E-06  0.3486769E+04  0.7818609E-02  0.8116933E-01
       -2   -1    0    0    0  501  0.00000000000E+00  0.00000000000E+00  0.17509818707E+04  0.17509818707E+04  0.25500000920E-02 0.  1.
        2   -1    0    0  501    0  0.00000000000E+00  0.00000000000E+00 -0.17358203978E+04  0.17358203978E+04  0.25500000920E-02 0. -1.
    10030    2    1    2    0    0  0.00000000000E+00  0.00000000000E+00  0.15161472906E+02  0.34868022686E+04  0.34867693055E+04 0.  0.
        1    1    3    3  502    0  0.39722325929E+02 -0.90802135217E+03  0.14953143338E+04  0.17498701655E+04  0.50400001928E-02 0.  1.
       -1    1    3    3    0  502 -0.39722325929E+02  0.90802135217E+03 -0.14801528609E+04  0.17369321031E+04  0.50400001928E-02 0. -1.
</event>
<event>
 5   0  0.2037109E-06  0.3356771E+04  0.7818609E-02  0.8148598E-01
        1   -1    0    0  501    0  0.00000000000E+00  0.00000000000E+00  0.12128111352E+04  0.12128111352E+04  0.50400001928E-02 0. -1.
       -1   -1    0    0    0  501  0.00000000000E+00  0.00000000000E+00 -0.23226844587E+04  0.23226844587E+04  0.50400001928E-02 0.  1.
    10030    2    1    2    0    0  0.00000000000E+00  0.00000000000E+00 -0.11098733235E+04  0.35354955938E+04  0.33567708143E+04 0.  0.
        2    1    3    3  502    0 -0.37669757439E+03 -0.95239173608E+03  0.84553070688E+03  0.13281089028E+04  0.25500000920E-02 0. -1.
       -2    1    3    3    0  502  0.37669757439E+03  0.95239173608E+03 -0.19554040304E+04  0.22073866910E+04  0.25500000920E-02 0.  1.
</event>
<event>
 5   0  0.2097842E-06  0.2086830E+04  0.7818609E-02  0.8567067E-01
        1   -1    0    0  501    0  0.00000000000E+00  0.00000000000E+00  0.11602748921E+04  0.11602748921E+04  0.50400001928E-02 0. -1.
       -1   -1    0    0    0  501  0.00000000000E+00  0.00000000000E+00 -0.93832527892E+03  0.93832527894E+03  0.50400001928E-02 0.  1.
    10030    2    1    2    0    0  0.00000000000E+00  0.00000000000E+00  0.22194961314E+03  0.20986001710E+04  0.20868303829E+04 0.  0.
        4    1    3    3  502    0 -0.13727096416E+03  0.10342746607E+04  0.98812905173E+02  0.10480138332E+04  0.12699999809E+01 0. -1.
       -4    1    3    3    0  502  0.13727096416E+03 -0.10342746607E+04  0.12313670796E+03  0.10505863378E+04  0.12699999809E+01 0.  1.
</event>
<event>
 5   0  0.5855568E-06  0.3312046E+04  0.7818609E-02  0.8159837E-01
        2   -1    0    0  501    0  0.00000000000E+00  0.00000000000E+00  0.19392233616E+04  0.19392233616E+04  0.25500000920E-02 0.  1.
       -2   -1    0    0    0  501  0.00000000000E+00  0.00000000000E+00 -0.14141805952E+04  0.14141805952E+04  0.25500000920E-02 0. -1.
    10030    2    1    2    0    0  0.00000000000E+00  0.00000000000E+00  0.52504276640E+03  0.33534039568E+04  0.33120459222E+04 0.  0.
        3    1    3    3  502    0  0.54867829679E+03 -0.14202887042E+04 -0.39687455710E+03  0.15734602953E+04  0.10100000352E+00 0.  1.
       -3    1    3    3    0  502 -0.54867829679E+03  0.14202887042E+04  0.92191732350E+03  0.17799436615E+04  0.10100000352E+00 0. -1.
</event>
<event>
 5   0  0.2730981E-06  0.3319975E+04  0.7818609E-02  0.8157831E-01
        1   -1    0    0  501    0  0.00000000000E+00  0.00000000000E+00  0.25530106054E+04  0.25530106054E+04  0.50400001928E-02 0.  1.
       -1   -1    0    0    0  501  0.00000000000E+00  0.00000000000E+00 -0.10793371510E+04  0.10793371510E+04  0.50400001928E-02 0. -1.
    10030    2    1    2    0    0  0.00000000000E+00  0.00000000000E+00  0.14736734544E+04  0.36323477564E+04  0.33199754176E+04 0.  0.
        3    1    3    3  502    0  0.30083129613E+03 -0.12859726454E+04  0.18371082472E+04  0.22625631120E+04  0.10100000352E+00 0.  1.
       -3    1    3    3    0  502 -0.30083129613E+03  0.12859726454E+04 -0.36343479279E+03  0.13697846445E+04  0.10100000352E+00 0. -1.
</event>
<event>
 5   0  0.5637538E-06  0.3529536E+04  0.7818609E-02  0.8106826E-01
        2   -1    0    0  501    0  0.00000000000E+00  0.00000000000E+00  0.21298026813E+04  0.21298026813E+04  0.25500000920E-02 0.  1.
       -2   -1    0    0    0  501  0.00000000000E+00  0.00000000000E+00 -0.14622983335E+04  0.14622983335E+04  0.25500000920E-02 0. -1.
    10030    2    1    2    0    0  0.00000000000E+00  0.00000000000E+00  0.66750434774E+03  0.35921010148E+04  0.35295364633E+04 0.  0.
        2    1    3    3  502    0  0.13652683444E+04 -0.96110377376E+03 -0.24798199584E+03  0.16879494028E+04  0.25500000920E-02 0. -1.
       -2    1    3    3    0  502 -0.13652683444E+04  0.96110377376E+03  0.91548634358E+03  0.19041516120E+04  0.25500000920E-02 0.  1.
</event>
<event>
 5   0  0.5855568E-06  0.2538457E+04  0.7818609E-02  0.8389412E-01
        2   -1    0    0  501    0  0.00000000000E+00  0.00000000000E+00  0.16561049602E+04  0.16561049602E+04  0.25500000920E-02 0. -1.
       -2   -1    0    0    0  501  0.00000000000E+00  0.00000000000E+00 -0.97272904522E+03  0.97272904523E+03  0.25500000920E-02 0.  1.
    10030    2    1    2    0    0  0.00000000000E+00  0.00000000000E+00  0.68337591497E+03  0.26288340054E+04  0.25384573242E+04 0.  0.
        3    1    3    3  502    0  0.70713965365E+02 -0.89564485534E+03 -0.58675840742E+03  0.10730636564E+04  0.10100000352E+00 0.  1.
       -3    1    3    3    0  502 -0.70713965365E+02  0.89564485534E+03  0.12701343224E+04  0.15557703490E+04  0.10100000352E+00 0. -1.
</event>
<event>
 5   0  0.5637538E-06  0.3250958E+04  0.7818609E-02  0.8175487E-01
        2   -1    0    0  501    0  0.00000000000E+00  0.00000000000E+00  0.19026415635E+04  0.19026415635E+04  0.25500000920E-02 0.  1.
       -2   -1    0    0    0  501  0.00000000000E+00  0.00000000000E+00 -0.13886916620E+04  0.13886916620E+04  0.25500000920E-02 0. -1.
    10030    2    1    2    0    0  0.00000000000E+00  0.00000000000E+00  0.51394990144E+03  0.32913332255E+04  0.32509583049E+04 0.  0.
        2    1    3    3  502    0 -0.75254032349E+02  0.55278837514E+03 -0.12887293098E+04  0.14043010329E+04  0.25500000920E-02 0. -1.
       -2    1    3    3    0  502  0.75254032349E+02 -0.55278837514E+03  0.18026792113E+04  0.18870321926E+04  0.25500000920E-02 0.  1.
</event>
<event>
 5   0  0.5637538E-06  0.3292929E+04  0.7818609E-02  0.8164697E-01
       -2   -1    0    0    0  501  0.00000000000E+00  0.00000000000E+00  0.10961254426E+04  0.10961254426E+04  0.25500000920E-02 0.  1.
        2   -1    0    0  501    0  0.00000000000E+00  0.00000000000E+00 -0.24731162908E+04  0.24731162908E+04  0.25500000920E-02 0. -1.
    10030    2    1    2    0    0  0.00000000000E+00  0.00000000000E+00 -0.13769908483E+04  0.35692417334E+04  0.32929292059E+04 0.  0.
        2    1    3    3  502    0 -0.83773811066E+03 -0.22992090931E+03 -0.22044899527E+04  0.23694819514E+04  0.25500000920E-02 0. -1.
       -2    1    3    3    0  502  0.83773811066E+03  0.22992090931E+03  0.82749910442E+03  0.11997597820E+04  0.25500000920E-02 0.  1.
</event>
<event>
 5   0  0.1999849E-06  0.3438927E+04  0.7818609E-02  0.8128418E-01
        1   -1    0    0  501    0  0.00000000000E+00  0.00000000000E+00  0.18628830930E+04  0.18628830930E+04  0.50400001928E-02 0. -1.
       -1   -1    0    0    0  501  0.00000000000E+00  0.00000000000E+00 -0.15870859237E+04  0.15870859237E+04  0.50400001928E-02 0.  1.
    10030    2    1    2    0    0  0.00000000000E+00  0.00000000000E+00  0.27579716932E+03  0.34499690167E+04  0.34389274691E+04 0.  0.
        5    1    3    3  502    0 -0.14284337799E+04  0.60230924181E+03  0.88415115578E+03  0.17846413765E+04  0.46999998093E+01 0. -1.
       -5    1    3    3    0  502  0.14284337799E+04 -0.60230924181E+03 -0.60835398646E+03  0.16653276402E+04  0.46999998093E+01 0.  1.
</event>
<event>
 5   0  0.2097842E-06  0.3362913E+04  0.7818609E-02  0.8147069E-01
        1   -1    0    0  501    0  0.00000000000E+00  0.00000000000E+00  0.21254683431E+04  0.21254683431E+04  0.50400001928E-02 0.  1.
       -1   -1    0    0    0  501  0.00000000000E+00  0.00000000000E+00 -0.13301986970E+04  0.13301986970E+04  0.50400001928E-02 0. -1.
    10030    2    1    2    0    0  0.00000000000E+00  0.00000000000E+00  0.79526964607E+03  0.34556670401E+04  0.33629125594E+04 0.  0.
        4    1    3    3  502    0 -0.39838371966E+03  0.11710099495E+04  0.15680496774E+04  0.19971868450E+04  0.12699999809E+01 0.  1.
       -4    1    3    3    0  502  0.39838371966E+03 -0.11710099495E+04 -0.77278003135E+03  0.14584801952E+04  0.12699999809E+01 0. -1.
</event>
<event>
 5   0  0.5637538E-06  0.3298089E+04  0.7818609E-02  0.8163382E-01
       -2   -1    0    0    0  501  0.00000000000E+00  0.00000000000E+00  0.19848927413E+04  0.19848927413E+04  0.25500000920E-02 0.  1.
        2   -1    0    0  501    0  0.00000000000E+00  0.00000000000E+00 -0.13700225351E+04  0.13700225351E+04  0.25500000920E-02 0. -1.
    10030    2    1    2    0    0  0.00000000000E+00  0.00000000000E+00  0.61487020623E+03  0.33549152764E+04  0.32980890135E+04 0.  0.
        2    1    3    3  502    0 -0.53343435087E+03  0.14401760875E+04  0.91835642313E+03  0.17894238988E+04  0.25500000920E-02 0.  1.
       -2    1    3    3    0  502  0.53343435087E+03 -0.14401760875E+04 -0.30348621691E+03  0.15654913776E+04  0.25500000920E-02 0. -1.
</event>
<event>
 5   0  0.5637538E-06  0.2054287E+04  0.7818609E-02  0.8581652E-01
       -2   -1    0    0    0  501  0.00000000000E+00  0.00000000000E+00  0.11018205018E+04  0.11018205018E+04  0.25500000920E-02 0. -1.
        2   -1    0    0  501    0  0.00000000000E+00  0.00000000000E+00 -0.95752752280E+03  0.95752752280E+03  0.25500000920E-02 0.  1.
    10030    2    1    2    0    0  0.00000000000E+00  0.00000000000E+00  0.14429297896E+03  0.20593480246E+04  0.20542866943E+04 0.  0.
        2    1    3    3  502    0  0.42301876512E+03 -0.93016080226E+03 -0.32415154383E+02  0.10223476590E+04  0.25500000920E-02 0. -1.
       -2    1    3    3    0  502 -0.42301876512E+03  0.93016080226E+03  0.17670813335E+03  0.10370003655E+04  0.25500000920E-02 0.  1.
</event>
<event>
 5   0  0.5855568E-06  0.2891912E+04  0.7818609E-02  0.8275288E-01
       -2   -1    0    0    0  501  0.00000000000E+00  0.00000000000E+00  0.14880324090E+04  0.14880324090E+04  0.25500000920E-02 0. -1.
        2   -1    0    0  501    0  0.00000000000E+00  0.00000000000E+00 -0.14050694318E+04  0.14050694318E+04  0.25500000920E-02 0.  1.
    10030    2    1    2    0    0  0.00000000000E+00  0.00000000000E+00  0.82962977191E+02  0.28931018409E+04  0.28919120675E+04 0.  0.
        3    1    3    3  502    0 -0.11132493060E+04 -0.91555035830E+03 -0.73597855962E+02  0.14432508897E+04  0.10100000352E+00 0.  1.
       -3    1    3    3    0  502  0.11132493060E+04  0.91555035830E+03  0.15656083315E+03  0.14498509512E+04  0.10100000352E+00 0. -1.
</event>
<event>
 5   0  0.2037109E-06  0.3416244E+04  0.7818609E-02  0.8133931E-01
        1   -1    0    0  501    0  0.00000000000E+00  0.00000000000E+00  0.20387698129E+04  0.20387698129E+04  0.50400001928E-02 0.  1.
       -1   -1    0    0    0  501  0.00000000000E+00  0.00000000000E+00 -0.14310990299E+04  0.14310990299E+04  0.50400001928E-02 0. -1.
    10030    2    1    2    0    0  0.00000000000E+00  0.00000000000E+00  0.60767078297E+03  0.34698688429E+04  0.34162444301E+04 0.  0.
        2    1    3    3  502    0 -0.10488767796E+03  0.99746379582E+03  0.17081978899E+04  0.19808774520E+04  0.25500000920E-02 0.  1.
       -2    1    3    3    0  502  0.10488767796E+03 -0.99746379582E+03 -0.11005271069E+04  0.14889913908E+04  0.25500000920E-02 0. -1.
</event>
<event>
 5   0  0.1925906E-06  0.3411672E+04  0.7818609E-02  0.8135048E-01
        1   -1    0    0  501    0  0.00000000000E+00  0.00000000000E+00  0.22570523938E+04  0.22570523938E+04  0.50400001928E-02 0.  1.
       -1   -1    0    0    0  501  0.00000000000E+00  0.00000000000E+00 -0.12892374747E+04  0.12892374747E+04  0.50400001928E-02 0. -1.
    10030    2    1    2    0    0  0.00000000000E+00  0.00000000000E+00  0.96781491912E+03  0.35462898685E+04  0.34116720408E+04 0.  0.
        1    1    3    3  502    0 -0.66720670669E+03 -0.13031923862E+04 -0.42607932155E+03  0.15248012242E+04  0.50400001928E-02 0. -1.
       -1    1    3    3    0  502  0.66720670669E+03  0.13031923862E+04  0.13938942407E+04  0.20214886443E+04  0.50400001928E-02 0.  1.
</event>
<event>
 5   0  0.5637538E-06  0.3276370E+04  0.7818609E-02  0.8168934E-01
        2   -1    0    0  501    0  0.00000000000E+00  0.00000000000E+00  0.17649388122E+04  0.17649388122E+04  0.25500000920E-02 0.  1.
       -2   -1    0    0    0  501  0.00000000000E+00  0.00000000000E+00 -0.15205339988E+04  0.15205339988E+04  0.25500000920E-02 0. -1.
    10030    2    1    2    0    0  0.00000000000E+00  0.00000000000E+00  0.24440481346E+03  0.32854728110E+04  0.32763696188E+04 0.  0.
        2    1    3    3  502    0  0.30328764705E+03  0.50193383830E+03  0.16560694614E+04  0.17568400712E+04  0.25500000920E-02 0.  1.
       -2    1    3    3    0  502 -0.30328764705E+03 -0.50193383830E+03 -0.14116646479E+04  0.15286327398E+04  0.25500000920E-02 0. -1.
</event>
<event>
 5   0  0.5755250E-06  0.2202757E+04  0.7818609E-02  0.8517281E-01
        2   -1    0    0  501    0  0.00000000000E+00  0.00000000000E+00  0.13451382354E+04  0.13451382354E+04  0.25500000920E-02 0. -1.
       -2   -1    0    0    0  501  0.00000000000E+00  0.00000000000E+00 -0.90179180422E+03  0.90179180422E+03  0.25500000920E-02 0.  1.
    10030    2    1    2    0    0  0.00000000000E+00  0.00000000000E+00  0.44334643120E+03  0.22469300397E+04  0.22027570327E+04 0.  0.
        5    1    3    3  502    0 -0.70157428528E+03  0.84365586691E+03  0.12462946821E+03  0.11043171165E+04  0.46999998093E+01 0.  1.
       -5    1    3    3    0  502  0.70157428528E+03 -0.84365586691E+03  0.31871696299E+03  0.11426129231E+04  0.46999998093E+01 0. -1.
</event>
<event>
 5   0  0.2037109E-06  0.3897395E+04  0.7818609E-02  0.8025571E-01
        1   -1    0    0  501    0  0.00000000000E+00  0.00000000000E+00  0.21112739431E+04  0.21112739431E+04  0.50400001928E-02 0.  1.
       -1   -1    0    0    0  501  0.00000000000E+00  0.00000000000E+00 -0.17986399383E+04  0.17986399383E+04  0.50400001928E-02 0. -1.
    10030    2    1    2    0    0  0.00000000000E+00  0.00000000000E+00  0.31263400482E+03  0.39099138814E+04  0.38973948400E+04 0.  0.
        2    1    3    3  502    0 -0.13323620613E+03 -0.18782976428E+04 -0.34695936488E+03  0.19147153111E+04  0.25500000920E-02 0. -1.
       -2    1    3    3    0  502  0.13323620613E+03  0.18782976428E+04  0.65959336970E+03  0.19951985703E+04  0.25500000920E-02 0.  1.
</event>
<event>
 5   0  0.1999849E-06  0.3331421E+04  0.7818609E-02  0.8154946E-01
        1   -1    0    0  501    0  0.00000000000E+00  0.00000000000E+00  0.17497421637E+04  0.17497421637E+04  0.50400001928E-02 0.  1.
       -1   -1    0    0    0  501  0.00000000000E+00  0.00000000000E+00 -0.15857144292E+04  0.15857144292E+04  0.50400001928E-02 0. -1.
    10030    2    1    2    0    0  0.00000000000E+00  0.00000000000E+00  0.16402773446E+03  0.33354565929E+04  0.33314209560E+04 0.  0.
        5    1    3    3  502    0  0.25795955123E+03  0.13071863388E+04  0.10828697862E+04  0.17169473837E+04  0.46999998093E+01 0.  1.
       -5    1    3    3    0  502 -0.25795955123E+03 -0.13071863388E+04 -0.91884205171E+03  0.16185092093E+04  0.46999998093E+01 0. -1.
</event>
<event>
 5   0  0.5300268E-06  0.2837495E+04  0.7818609E-02  0.8291721E-01
        2   -1    0    0  501    0  0.00000000000E+00  0.00000000000E+00  0.19407022728E+04  0.19407022728E+04  0.25500000920E-02 0.  1.
       -2   -1    0    0    0  501  0.00000000000E+00  0.00000000000E+00 -0.10371730113E+04  0.10371730113E+04  0.25500000920E-02 0. -1.
    10030    2    1    2    0    0  0.00000000000E+00  0.00000000000E+00  0.90352926142E+03  0.29778752841E+04  0.28374946839E+04 0.  0.
        4    1    3    3  502    0  0.81968588587E+03  0.14994653412E+03  0.16568204107E+04  0.18545685214E+04  0.12699999809E+01 0.  1.
       -4    1    3    3    0  502 -0.81968588587E+03 -0.14994653412E+03 -0.75329114926E+03  0.11233067627E+04  0.12699999809E+01 0. -1.
</event>
<event>
 5   0  0.2730981E-06  0.3288615E+04  0.7818609E-02  0.8165798E-01
       -1   -1    0    0    0  501  0.00000000000E+00  0.00000000000E+00  0.13763833470E+04  0.13763833470E+04  0.50400001928E-02 0.  1.
        1   -1    0    0  501    0  0.00000000000E+00  0.00000000000E+00 -0.19643856126E+04  0.19643856126E+04  0.50400001928E-02 0. -1.
    10030    2    1    2    0    0  0.00000000000E+00  0.00000000000E+00 -0.58800226562E+03  0.33407689596E+04  0.32886152978E+04 0.  0.
        3    1    3    3  502    0 -0.70750135484E+03  0.98469381024E+03 -0.14222758081E+04  0.18689699173E+04  0.10100000352E+00 0. -1.
       -3    1    3    3    0  502  0.70750135484E+03 -0.98469381024E+03  0.83427354253E+03  0.14717990423E+04  0.10100000352E+00 0.  1.
</event>
<event>
 5   0  0.2037109E-06  0.2349309E+04  0.7818609E-02  0.8458729E-01
       -1   -1    0    0    0  501  0.00000000000E+00  0.00000000000E+00  0.10635669247E+04  0.10635669247E+04  0.50400001928E-02 0.  1.
        1   -1    0    0  501    0  0.00000000000E+00  0.00000000000E+00 -0.12973450101E+04  0.12973450101E+04  0.50400001928E-02 0. -1.
    10030    2    1    2    0    0  0.00000000000E+00  0.00000000000E+00 -0.23377808543E+03  0.23609119348E+04  0.23493090411E+04 0.  0.
        2    1    3    3  502    0 -0.14986878831E+03 -0.10338782777E+04 -0.65661539902E+03  0.12338998051E+04  0.25500000920E-02 0. -1.
       -2    1    3    3    0  502  0.14986878831E+03  0.10338782777E+04  0.42283731359E+03  0.11270121297E+04  0.25500000920E-02 0.  1.
</event>
<event>
 5   0  0.5637538E-06  0.3247429E+04  0.7818609E-02  0.8176402E-01
       -2   -1    0    0    0  501  0.00000000000E+00  0.00000000000E+00  0.14500859674E+04  0.14500859674E+04  0.25500000920E-02 0.  1.
        2   -1    0    0  501    0  0.00000000000E+00  0.00000000000E+00 -0.18181326652E+04  0.18181326652E+04  0.25500000920E-02 0. -1.
    10030    2    1    2    0    0  0.00000000000E+00  0.00000000000E+00 -0.36804669779E+03  0.32682186326E+04  0.32474289305E+04 0.  0.
        2    1    3    3  502    0 -0.30121966145E+03  0.15788491721E+04 -0.41560662034E+03  0.16601888012E+04  0.25500000920E-02 0. -1.
       -2    1    3    3    0  502  0.30121966145E+03 -0.15788491721E+04  0.47559922551E+02  0.16080298315E+04  0.25500000920E-02 0.  1.
</event>
<event>
 5   0  0.5855568E-06  0.3288657E+04  0.7818609E-02  0.8165788E-01
       -2   -1    0    0    0  501  0.00000000000E+00  0.00000000000E+00  0.16008372179E+04  0.16008372179E+04  0.25500000920E-02 0.  1.
        2   -1    0    0  501    0  0.00000000000E+00  0.00000000000E+00 -0.16890014721E+04  0.16890014721E+04  0.25500000920E-02 0. -1.
    10030    2    1    2    0    0  0.00000000000E+00  0.00000000000E+00 -0.88164254177E+02  0.32898386899E+04  0.32886571226E+04 0.  0.
        3    1    3    3  502    0  0.45788125795E+03  0.14354861284E+04  0.61459254373E+03  0.16272675491E+04  0.10100000352E+00 0.  1.
       -3    1    3    3    0  502 -0.45788125795E+03 -0.14354861284E+04 -0.70275679791E+03  0.16625711409E+04  0.10100000352E+00 0. -1.
</event>
<event>
 5   0  0.2097842E-06  0.3052773E+04  0.7818609E-02  0.8228820E-01
        1   -1    0    0  501    0  0.00000000000E+00  0.00000000000E+00  0.10826357181E+04  0.10826357181E+04  0.50400001928E-02 0. -1.
       -1   -1    0    0    0  501  0.00000000000E+00  0.00000000000E+00 -0.21520225493E+04  0.21520225493E+04  0.50400001928E-02 0.  1.
    10030    2    1    2    0    0  0.00000000000E+00  0.00000000000E+00 -0.10693868312E+04  0.32346582674E+04  0.30527734787E+04 0.  0.
        4    1    3    3  502    0 -0.62552511469E+02  0.14162785866E+04 -0.11341733298E+04  0.18155188257E+04  0.12699999809E+01 0.  1.
       -4    1    3    3    0  502  0.62552511469E+02 -0.14162785866E+04  0.64786498650E+02  0.14191394417E+04  0.12699999809E+01 0. -1.
</event>
<event>
 5   0  0.5855568E-06  0.3345324E+04  0.7818609E-02  0.8151458E-01
        2   -1    0    0  501    0  0.00000000000E+00  0.00000000000E+00  0.13323297842E+04  0.13323297842E+04  0.25500000920E-02 0.  1.
       -2   -1    0    0    0  501  0.00000000000E+00  0.00000000000E+00 -0.20999291508E+04  0.20999291508E+04  0.25500000920E-02 0. -1.
    10030    2    1    2    0    0  0.00000000000E+00  0.00000000000E+00 -0.76759936660E+03  0.34322589350E+04  0.33453239917E+04 0.  0.
        3    1    3    3  502    0  0.10659927715E+04 -0.75874578899E+03  0.68527797633E+03  0.14770381431E+04  0.10100000352E+00 0. -1.
       -3    1    3    3    0  502 -0.10659927715E+04  0.75874578899E+03 -0.14528773429E+04  0.19552207919E+04  0.10100000352E+00 0.  1.
</event>
<event>
 5   0  0.2730981E-06  0.3304316E+04  0.7818609E-02  0.8161798E-01
        1   -1    0    0  501    0  0.00000000000E+00  0.00000000000E+00  0.20987869013E+04  0.20987869013E+04  0.50400001928E-02 0. -1.
       -1   -1    0    0    0  501  0.00000000000E+00  0.00000000000E+00 -0.13005732865E+04  0.13005732865E+04  0.50400001928E-02 0.  1.
    10030    2    1    2    0    0  0.00000000000E+00  0.00000000000E+00  0.79821361486E+03  0.33993601878E+04  0.33043160732E+04 0.  0.
        3    1    3    3  502    0 -0.38732181114E+03  0.14910803457E+04  0.10131738988E+04  0.18438709668E+04  0.10100000352E+00 0.  1.
       -3    1    3    3    0  502  0.38732181114E+03 -0.14910803457E+04 -0.21496028390E+03  0.15554892210E+04  0.10100000352E+00 0. -1.
</event>
<event>
 5   0  0.5637538E-06  0.2880548E+04  0.7818609E-02  0.8278689E-01
        2   -1    0    0  501    0  0.00000000000E+00  0.00000000000E+00  0.17330722068E+04  0.17330722068E+04  0.25500000920E-02 0. -1.
       -2   -1    0    0    0  501  0.00000000000E+00  0.00000000000E+00 -0.11969433747E+04  0.11969433747E+04  0.25500000920E-02 0.  1.
    10030    2    1    2    0    0  0.00000000000E+00  0.00000000000E+00  0.53612883211E+03  0.29300155815E+04  0.28805480699E+04 0.  0.
        2    1    3    3  502    0  0.14366821283E+03 -0.13750147995E+04  0.67883487587E+03  0.15401698098E+04  0.25500000920E-02 0. -1.
       -2    1    3    3    0  502 -0.14366821283E+03  0.13750147995E+04 -0.14270604376E+03  0.13898457717E+04  0.25500000920E-02 0.  1.
</event>
<event>
 5   0  0.5855568E-06  0.3303730E+04  0.7818609E-02  0.8161947E-01
       -2   -1    0    0    0  501  0.00000000000E+00  0.00000000000E+00  0.16443261290E+04  0.16443261290E+04  0.25500000920E-02 0.  1.
        2   -1    0    0  501    0  0.00000000000E+00  0.00000000000E+00 -0.16594381424E+04  0.16594381424E+04  0.25500000920E-02 0. -1.
    10030    2    1    2    0    0  0.00000000000E+00  0.00000000000E+00 -0.15112013452E+02  0.33037642714E+04  0.33037297087E+04 0.  0.
        3    1    3    3  502    0  0.15773531759E+04  0.38237574305E+03  0.29969830433E+03  0.16504766991E+04  0.10100000352E+00 0. -1.
       -3    1    3    3    0  502 -0.15773531759E+04 -0.38237574305E+03 -0.31481031779E+03  0.16532875723E+04  0.10100000352E+00 0.  1.
</event>
<event>
 5   0  0.5622811E-06  0.3297945E+04  0.7818609E-02  0.8163418E-01
       -2   -1    0    0    0  501  0.00000000000E+00  0.00000000000E+00  0.19000559461E+04  0.19000559461E+04  0.25500000920E-02 0. -1.
        2   -1    0    0  501    0  0.00000000000E+00  0.00000000000E+00 -0.14310689396E+04  0.14310689396E+04  0.25500000920E-02 0.  1.
    10030    2    1    2    0    0  0.00000000000E+00  0.00000000000E+00  0.46898700654E+03  0.33311248857E+04  0.32979454501E+04 0.  0.
        1    1    3    3  502    0  0.57243911631E+03 -0.73471424566E+03  0.16089256932E+04  0.18590678984E+04  0.50400001928E-02 0. -1.
       -1    1    3    3    0  502 -0.57243911631E+03  0.73471424566E+03 -0.11399386866E+04  0.14720569873E+04  0.50400001928E-02 0.  1.
</event>
<event>
 5   0  0.1925906E-06  0.2636509E+04  0.7818609E-02  0.8355905E-01
        1   -1    0    0  501    0  0.00000000000E+00  0.00000000000E+00  0.19188031047E+04  0.19188031047E+04  0.50400001928E-02 0.  1.
       -1   -1    0    0    0  501  0.00000000000E+00  0.00000000000E+00 -0.90566576447E+03  0.90566576449E+03  0.50400001928E-02 0. -1.
    10030    2    1    2    0    0  0.00000000000E+00  0.00000000000E+00  0.10131373403E+04  0.28244688692E+04  0.26365085099E+04 0.  0.
        1    1    3    3  502    0 -0.96491456329E+03 -0.16210358359E+03  0.14529844923E+04  0.17517139096E+04  0.50400001928E-02 0.  1.
       -1    1    3    3    0  502  0.96491456329E+03  0.16210358359E+03 -0.43984715201E+03  0.10727549596E+04  0.50400001928E-02 0. -1.
</event>
<event>
 5   0  0.5855568E-06  0.3305929E+04  0.7818609E-02  0.8161388E-01
       -2   -1    0    0    0  501  0.00000000000E+00  0.00000000000E+00  0.13257631017E+04  0.13257631017E+04  0.25500000920E-02 0. -1.
        2   -1    0    0  501    0  0.00000000000E+00  0.00000000000E+00 -0.20609205812E+04  0.20609205812E+04  0.25500000920E-02 0.  1.
    10030    2    1    2    0    0  0.00000000000E+00  0.00000000000E+00 -0.73515747950E+03  0.33866836829E+04  0.33059294984E+04 0.  0.
        3    1    3    3  502    0  0.14056143079E+04  0.49337982932E+03  0.36624091480E+03  0.15340494309E+04  0.10100000352E+00 0. -1.
       -3    1    3    3    0  502 -0.14056143079E+04 -0.49337982932E+03 -0.11013983943E+04  0.18526342520E+04  0.10100000352E+00 0.  1.
</event>
<event>
 5   0  0.2097842E-06  0.2068323E+04  0.7818609E-02  0.8575327E-01
        1   -1    0    0  501    0  0.00000000000E+00  0.00000000000E+00  0.17613809488E+04  0.17613809488E+04  0.50400001928E-02 0.  1.
       -1   -1    0    0    0  501  0.00000000000E+00  0.00000000000E+00 -0.60718843015E+03  0.60718843017E+03  0.50400001928E-02 0. -1.
    10030    2    1    2    0    0  0.00000000000E+00  0.00000000000E+00  0.11541925187E+04  0.23685693790E+04  0.20683231210E+04 0.  0.
        4    1    3    3  502    0 -0.91329389341E+03 -0.17584467374E+03  0.10949098278E+04  0.14366127623E+04  0.12699999809E+01 0.  1.
       -4    1    3    3    0  502  0.91329389341E+03  0.17584467374E+03  0.59282690903E+02  0.93195661667E+03  0.12699999809E+01 0. -1.
</event>
<event>
 5   0  0.5755250E-06  0.2499927E+04  0.7818609E-02  0.8403011E-01
        2   -1    0    0  501    0  0.00000000000E+00  0.00000000000E+00  0.25014453167E+04  0.25014453167E+04  0.25500000920E-02 0.  1.
       -2   -1    0    0    0  501  0.00000000000E+00  0.00000000000E+00 -0.62460264135E+03  0.62460264136E+03  0.25500000920E-02 0. -1.
    10030    2    1    2    0    0  0.00000000000E+00  0.00000000000E+00  0.18768426753E+04  0.31260479580E+04  0.24999274806E+04 0.  0.
        5    1    3    3  502    0 -0.10362929855E+04  0.43858451397E+02  0.18106626873E+04  0.20867074958E+04  0.46999998093E+01 0.  1.
       -5    1    3    3    0  502  0.10362929855E+04 -0.43858451397E+02  0.66179987973E+02  0.10393404622E+04  0.46999998093E+01 0. -1.
</event>
<event>
 5   0  0.2097842E-06  0.3266209E+04  0.7818609E-02  0.8171547E-01
        1   -1    0    0  501    0  0.00000000000E+00  0.00000000000E+00  0.13929847147E+04  0.13929847147E+04  0.50400001928E-02 0. -1.
       -1   -1    0    0    0  501  0.00000000000E+00  0.00000000000E+00 -0.19146153162E+04  0.19146153162E+04  0.50400001928E-02 0.  1.
    10030    2    1    2    0    0  0.00000000000E+00  0.00000000000E+00 -0.52163060151E+03  0.33076000308E+04  0.32662087318E+04 0.  0.
        4    1    3    3  502    0  0.22133485042E+03  0.35430661786E+03 -0.18595895869E+04  0.19059373914E+04  0.12699999809E+01 0.  1.
       -4    1    3    3    0  502 -0.22133485042E+03 -0.35430661786E+03  0.13379589853E+04  0.14016626395E+04  0.12699999809E+01 0. -1.
</event>
<event>
 5   0  0.1999849E-06  0.1657254E+04  0.7818609E-02  0.8786126E-01
       -1   -1    0    0    0  501  0.00000000000E+00  0.00000000000E+00  0.47216041163E+03  0.47216041166E+03  0.50400001928E-02 0.  1.
        1   -1    0    0  501    0  0.00000000000E+00  0.00000000000E+00 -0.14542153309E+04  0.14542153309E+04  0.50400001928E-02 0. -1.
    10030    2    1    2    0    0  0.00000000000E+00  0.00000000000E+00 -0.98205491923E+03  0.19263757425E+04  0.16572542463E+04 0.  0.
        5    1    3    3  502    0 -0.59105540801E+03  0.46657735723E+03 -0.89295208938E+03  0.11680866618E+04  0.46999998093E+01 0. -1.
       -5    1    3    3    0  502  0.59105540801E+03 -0.46657735723E+03 -0.89102829851E+02  0.75828908070E+03  0.46999998093E+01 0.  1.
</event>
<event>
 5   0  0.5622811E-06  0.3254203E+04  0.7818609E-02  0.8174647E-01
       -2   -1    0    0    0  501  0.00000000000E+00  0.00000000000E+00  0.14637735280E+04  0.14637735280E+04  0.25500000920E-02 0. -1.
        2   -1    0    0  501    0  0.00000000000E+00  0.00000000000E+00 -0.18086539285E+04  0.18086539285E+04  0.25500000920E-02 0.  1.
    10030    2    1    2    0    0  0.00000000000E+00  0.00000000000E+00 -0.34488040051E+03  0.32724274564E+04  0.32542032768E+04 0.  0.
        1    1    3    3  502    0 -0.69019002816E+03 -0.14109730528E+04 -0.59937938020E+03  0.16812087533E+04  0.50400001928E-02 0.  1.
       -1    1    3    3    0  502  0.69019002816E+03  0.14109730528E+04  0.25449897968E+03  0.15912187032E+04  0.50400001928E-02 0. -1.
</event>
<event>
 5   0  0.5300268E-06  0.2951292E+04  0.7818609E-02  0.8257778E-01
       -2   -1    0    0    0  501  0.00000000000E+00  0.00000000000E+00  0.86349871870E+03  0.86349871871E+03  0.25500000920E-02 0. -1.
        2   -1    0    0  501    0  0.00000000000E+00  0.00000000000E+00 -0.25217537330E+04  0.25217537330E+04  0.25500000920E-02 0.  1.
    10030    2    1    2    0    0  0.00000000000E+00  0.00000000000E+00 -0.16582550143E+04  0.33852524517E+04  0.29512920000E+04 0.  0.
        4    1    3    3  502    0  0.45723057019E+03 -0.32013566738E+03  0.73774155803E+03  0.92510045897E+03  0.12699999809E+01 0. -1.
       -4    1    3    3    0  502 -0.45723057019E+03  0.32013566738E+03 -0.23959965723E+04  0.24601519928E+04  0.12699999809E+01 0.  1.
</event>
<event>
 5   0  0.5855568E-06  0.3309739E+04  0.7818609E-02  0.8160422E-01
       -2   -1    0    0    0  501  0.00000000000E+00  0.00000000000E+00  0.10839913636E+04  0.10839913636E+04  0.25500000920E-02 0.  1.
        2   -1    0    0  501    0  0.00000000000E+00  0.00000000000E+00 -0.25263979689E+04  0.25263979689E+04  0.25500000920E-02 0. -1.
    10030    2    1    2    0    0  0.00000000000E+00  0.00000000000E+00 -0.14424066053E+04  0.36103893325E+04  0.33097393126E+04 0.  0.
        3    1    3    3  502    0 -0.12469041829E+04  0.10774071974E+04 -0.55570747537E+03  0.17390765132E+04  0.10100000352E+00 0. -1.
       -3    1    3    3    0  502  0.12469041829E+04 -0.10774071974E+04 -0.88669912991E+03  0.18713128193E+04  0.10100000352E+00 0.  1.
</event>
<event>
 5   0  0.2037109E-06  0.3184266E+04  0.7818609E-02  0.8192985E-01
        1   -1    0    0  501    0  0.00000000000E+00  0.00000000000E+00  0.17580908053E+04  0.17580908053E+04  0.50400001928E-02 0.  1.
       -1   -1    0    0    0  501  0.00000000000E+00  0.00000000000E+00 -0.14418408673E+04  0.14418408673E+04  0.50400001928E-02 0. -1.
    10030    2    1    2    0    0  0.00000000000E+00  0.00000000000E+00  0.31624993804E+03  0.31999316726E+04  0.31842658001E+04 0.  0.
        2    1    3    3  502    0  0.13906963424E+03 -0.15444164845E+04  0.52090592209E+03  0.16358195562E+04  0.25500000920E-02 0. -1.
       -2    1    3    3    0  502 -0.13906963424E+03  0.15444164845E+04 -0.20465598405E+03  0.15641121164E+04  0.25500000920E-02 0.  1.
</event>
<event>
 5   0  0.2037109E-06  0.2806121E+04  0.7818609E-02  0.8301371E-01
       -1   -1    0    0    0  501  0.00000000000E+00  0.00000000000E+00  0.10275038556E+04  0.10275038556E+04  0.50400001928E-02 0. -1.
        1   -1    0    0  501    0  0.00000000000E+00  0.00000000000E+00 -0.19158846816E+04  0.19158846816E+04  0.50400001928E-02 0.  1.
    10030    2    1    2    0    0  0.00000000000E+00  0.00000000000E+00 -0.88838082604E+03  0.29433885372E+04  0.28061210930E+04 0.  0.
        2    1    3    3  502    0 -0.49128637515E+03  0.69157690938E+03  0.72803631911E+03  0.11178898899E+04  0.25500000920E-02 0. -1.
       -2    1    3    3    0  502  0.49128637515E+03 -0.69157690938E+03 -0.16164171452E+04  0.18254986473E+04  0.25500000920E-02 0.  1.
</event>
<event>
 5   0  0.5755250E-06  0.2564949E+04  0.7818609E-02  0.8380206E-01
       -2   -1    0    0    0  501  0.00000000000E+00  0.00000000000E+00  0.13006011036E+04  0.13006011036E+04  0.25500000920E-02 0. -1.
        2   -1    0    0  501    0  0.00000000000E+00  0.00000000000E+00 -0.12646001071E+04  0.12646001071E+04  0.25500000920E-02 0.  1.
    10030    2    1    2    0    0  0.00000000000E+00  0.00000000000E+00  0.36000996505E+02  0.25652012107E+04  0.25649485725E+04 0.  0.
        5    1    3    3  502    0  0.26799581515E+03  0.18705191427E+03  0.12582468452E+04  0.13000066880E+04  0.46999998093E+01 0. -1.
       -5    1    3    3    0  502 -0.26799581515E+03 -0.18705191427E+03 -0.12222458487E+04  0.12651945227E+04  0.46999998093E+01 0.  1.
</event>
<event>
 5   0  0.1925906E-06  0.3338452E+04  0.7818609E-02  0.8153180E-01
       -1   -1    0    0    0  501  0.00000000000E+00  0.00000000000E+00  0.10015941036E+04  0.10015941036E+04  0.50400001928E-02 0. -1.
        1   -1    0    0  501    0  0.00000000000E+00  0.00000000000E+00 -0.27818815783E+04  0.27818815783E+04  0.50400001928E-02 0.  1.
    10030    2    1    2    0    0  0.00000000000E+00  0.00000000000E+00 -0.17802874747E+04  0.37834756819E+04  0.33384524474E+04 0.  0.
        1    1    3    3  502    0  0.50398961301E+03 -0.50087431889E+03  0.82164378660E+03  0.10862684408E+04  0.50400001928E-02 0. -1.
       -1    1    3    3    0  502 -0.50398961301E+03  0.50087431889E+03 -0.26019312613E+04  0.26972072412E+04  0.50400001928E-02 0.  1.
</event>
<event>
 5   0  0.5622811E-06  0.3166349E+04  0.7818609E-02  0.8197761E-01
       -2   -1    0    0    0  501  0.00000000000E+00  0.00000000000E+00  0.13082735080E+04  0.13082735080E+04  0.25500000920E-02 0.  1.
        2   -1    0    0  501    0  0.00000000000E+00  0.00000000000E+00 -0.19158389814E+04  0.19158389814E+04  0.25500000920E-02 0. -1.
    10030    2    1    2    0    0  0.00000000000E+00  0.00000000000E+00 -0.60756547336E+03  0.32241124894E+04  0.31663489290E+04 0.  0.
        1    1    3    3  502    0  0.63574748326E+03  0.50745108497E+03 -0.16867800644E+04  0.18726741446E+04  0.50400001928E-02 0. -1.
       -1    1    3    3    0  502 -0.63574748326E+03 -0.50745108497E+03  0.10792145911E+04  0.13514383448E+04  0.50400001928E-02 0.  1.
</event>
<event>
 5   0  0.2037109E-06  0.2649628E+04  0.7818609E-02  0.8351537E-01
       -1   -1    0    0    0  501  0.00000000000E+00  0.00000000000E+00  0.12755759743E+04  0.12755759743E+04  0.50400001928E-02 0.  1.
        1   -1    0    0  501    0  0.00000000000E+00  0.00000000000E+00 -0.13759521816E+04  0.13759521817E+04  0.50400001928E-02 0. -1.
    10030    2    1    2    0    0  0.00000000000E+00  0.00000000000E+00 -0.10037620732E+03  0.26515281560E+04  0.26496275548E+04 0.  0.
        2    1    3    3  502    0 -0.35800972867E+03  0.12488085166E+04  0.20968619279E+03  0.13159262808E+04  0.25500000920E-02 0.  1.
       -2    1    3    3    0  502  0.35800972867E+03 -0.12488085166E+04 -0.31006240011E+03  0.13356018752E+04  0.25500000920E-02 0. -1.
</event>
<event>
 5   0  0.2097842E-06  0.3214827E+04  0.7818609E-02  0.8184912E-01
       -1   -1    0    0    0  501  0.00000000000E+00  0.00000000000E+00  0.17007286282E+04  0.17007286282E+04  0.50400001928E-02 0.  1.
        1   -1    0    0  501    0  0.00000000000E+00  0.00000000000E+00 -0.15192178930E+04  0.15192178930E+04  0.50400001928E-02 0. -1.
    10030    2    1    2    0    0  0.00000000000E+00  0.00000000000E+00  0.18151073524E+03  0.32199465212E+04  0.32148265042E+04 0.  0.
        4    1    3    3  502    0  0.62983101922E+02  0.14984689352E+04  0.66994939804E+03  0.16426228508E+04  0.12699999809E+01 0.  1.
       -4    1    3    3    0  502 -0.62983101922E+02 -0.14984689352E+04 -0.48843866281E+03  0.15773236704E+04  0.12699999809E+01 0. -1.
</event>
<event>
 5   0  0.1878000E-06  0.2026665E+04  0.7818609E-02  0.8594254E-01
       -3   -1    0    0    0  501  0.00000000000E+00  0.00000000000E+00  0.84924412105E+03  0.84924412706E+03  0.10100000352E+00 0. -1.
        3   -1    0    0  501    0  0.00000000000E+00  0.00000000000E+00 -0.12091253524E+04  0.12091253566E+04  0.10100000352E+00 0.  1.
    10030    2    1    2    0    0  0.00000000000E+00  0.00000000000E+00 -0.35988123133E+03  0.20583694837E+04  0.20266648540E+04 0.  0.
        1    1    3    3  502    0 -0.33747623805E+03  0.18429265162E+03  0.77227001006E+03  0.86270212771E+03  0.50400001928E-02 0. -1.
       -1    1    3    3    0  502  0.33747623805E+03 -0.18429265162E+03 -0.11321512414E+04  0.11956673559E+04  0.50400001928E-02 0.  1.
</event>
<event>
 5   0  0.5300268E-06  0.2772567E+04  0.7818609E-02  0.8311836E-01
        2   -1    0    0  501    0  0.00000000000E+00  0.00000000000E+00  0.10781610286E+04  0.10781610286E+04  0.25500000920E-02 0.  1.
       -2   -1    0    0    0  501  0.00000000000E+00  0.00000000000E+00 -0.17824629978E+04  0.17824629978E+04  0.25500000920E-02 0. -1.
    10030    2    1    2    0    0  0.00000000000E+00  0.00000000000E+00 -0.70430196920E+03  0.28606240263E+04  0.27725671419E+04 0.  0.
        4    1    3    3  502    0  0.25499398712E+03  0.13588814351E+04 -0.24794915415E+03  0.14046569275E+04  0.12699999809E+01 0.  1.
       -4    1    3    3    0  502 -0.25499398712E+03 -0.13588814351E+04 -0.45635281505E+03  0.14559670988E+04  0.12699999809E+01 0. -1.
</event>
<event>
 5   0  0.1999849E-06  0.3307748E+04  0.7818609E-02  0.8160927E-01
        1   -1    0    0  501    0  0.00000000000E+00  0.00000000000E+00  0.15264343662E+04  0.15264343663E+04  0.50400001928E-02 0.  1.
       -1   -1    0    0    0  501  0.00000000000E+00  0.00000000000E+00 -0.17919530555E+04  0.17919530555E+04  0.50400001928E-02 0. -1.
    10030    2    1    2    0    0  0.00000000000E+00  0.00000000000E+00 -0.26551868928E+03  0.33183874218E+04  0.33077477091E+04 0.  0.
        5    1    3    3  502    0  0.14742173835E+03 -0.69167558368E+03  0.13670841551E+04  0.15391846735E+04  0.46999998093E+01 0.  1.
       -5    1    3    3    0  502 -0.14742173835E+03  0.69167558368E+03 -0.16326028444E+04  0.17792027483E+04  0.46999998093E+01 0. -1.
</event>
<event>
 5   0  0.5637538E-06  0.2999462E+04  0.7818609E-02  0.8243884E-01
        2   -1    0    0  501    0  0.00000000000E+00  0.00000000000E+00  0.14875777716E+04  0.14875777716E+04  0.25500000920E-02 0.  1.
       -2   -1    0    0    0  501  0.00000000000E+00  0.00000000000E+00 -0.15119838067E+04  0.15119838067E+04  0.25500000920E-02 0. -1.
    10030    2    1    2    0    0  0.00000000000E+00  0.00000000000E+00 -0.24406035031E+02  0.29995615783E+04  0.29994622864E+04 0.  0.
        2    1    3    3  502    0  0.70614438157E+03  0.35008726967E+03 -0.12881733555E+04  0.15101627653E+04  0.25500000920E-02 0. -1.
       -2    1    3    3    0  502 -0.70614438157E+03 -0.35008726967E+03  0.12637673204E+04  0.14893988130E+04  0.25500000920E-02 0.  1.
</event>
<event>
 5   0  0.2037109E-06  0.3292636E+04  0.7818609E-02  0.8164772E-01
        1   -1    0    0  501    0  0.00000000000E+00  0.00000000000E+00  0.23582030881E+04  0.23582030881E+04  0.50400001928E-02 0.  1.
       -1   -1    0    0    0  501  0.00000000000E+00  0.00000000000E+00 -0.11493343345E+04  0.11493343345E+04  0.50400001928E-02 0. -1.
    10030    2    1    2    0    0  0.00000000000E+00  0.00000000000E+00  0.12088687536E+04  0.35075374226E+04  0.32926364980E+04 0.  0.
        2    1    3    3  502    0  0.99951535629E+03  0.11121455760E+04 -0.12933678204E+03  0.15008753222E+04  0.25500000920E-02 0. -1.
       -2    1    3    3    0  502 -0.99951535629E+03 -0.11121455760E+04  0.13382055357E+04  0.20066621004E+04  0.25500000920E-02 0.  1.
</event>
<event>
 5   0  0.1925906E-06  0.3310265E+04  0.7818609E-02  0.8160288E-01
        1   -1    0    0  501    0  0.00000000000E+00  0.00000000000E+00  0.25917483784E+04  0.25917483784E+04  0.50400001928E-02 0.  1.
       -1   -1    0    0    0  501  0.00000000000E+00  0.00000000000E+00 -0.10569942605E+04  0.10569942606E+04  0.50400001928E-02 0. -1.
    10030    2    1    2    0    0  0.00000000000E+00  0.00000000000E+00  0.15347541178E+04  0.36487426390E+04  0.33102647391E+04 0.  0.
        1    1    3    3  502    0 -0.31572055794E+03  0.35138909675E+03  0.25158645242E+04  0.25598296959E+04  0.50400001928E-02 0.  1.
       -1    1    3    3    0  502  0.31572055794E+03 -0.35138909675E+03 -0.98111040635E+03  0.10889129430E+04  0.50400001928E-02 0. -1.
</event>
<event>
 5   0  0.5637538E-06  0.2550109E+04  0.7818609E-02  0.8385348E-01
        2   -1    0    0  501    0  0.00000000000E+00  0.00000000000E+00  0.10702456412E+04  0.10702456412E+04  0.25500000920E-02 0. -1.
       -2   -1    0    0    0  501  0.00000000000E+00  0.00000000000E+00 -0.15190563140E+04  0.15190563140E+04  0.25500000920E-02 0.  1.
    10030    2    1    2    0    0  0.00000000000E+00  0.00000000000E+00 -0.44881067275E+03  0.25893019552E+04  0.25501085457E+04 0.  0.
        2    1    3    3  502    0 -0.78737051409E+03 -0.94145084131E+03 -0.57537870010E+03  0.13554861348E+04  0.25500000920E-02 0.  1.
       -2    1    3    3    0  502  0.78737051409E+03  0.94145084131E+03  0.12656802734E+03  0.12338158204E+04  0.25500000920E-02 0. -1.
</event>
<event>
 5   0  0.5300268E-06  0.2873152E+04  0.7818609E-02  0.8280911E-01
        2   -1    0    0  501    0  0.00000000000E+00  0.00000000000E+00  0.34145828632E+04  0.34145828632E+04  0.25500000920E-02 0. -1.
       -2   -1    0    0    0  501  0.00000000000E+00  0.00000000000E+00 -0.60439331906E+03  0.60439331907E+03  0.25500000920E-02 0.  1.
    10030    2    1    2    0    0  0.00000000000E+00  0.00000000000E+00  0.28101895441E+04  0.40189761822E+04  0.28731523245E+04 0.  0.
        4    1    3    3  502    0 -0.11619897625E+03  0.82774183448E+03 -0.22922688845E+03  0.86672101966E+03  0.12699999809E+01 0.  1.
       -4    1    3    3    0  502  0.11619897625E+03 -0.82774183448E+03  0.30394164326E+04  0.31522551626E+04  0.12699999809E+01 0. -1.
</event>
<event>
 5   0  0.2037109E-06  0.3254747E+04  0.7818609E-02  0.8174506E-01
       -1   -1    0    0    0  501  0.00000000000E+00  0.00000000000E+00  0.14530359268E+04  0.14530359268E+04  0.50400001928E-02 0. -1.
        1   -1    0    0  501    0  0.00000000000E+00  0.00000000000E+00 -0.18226282868E+04  0.18226282868E+04  0.50400001928E-02 0.  1.
    10030    2    1    2    0    0  0.00000000000E+00  0.00000000000E+00 -0.36959236000E+03  0.32756642136E+04  0.32547469223E+04 0.  0.
        2    1    3    3  502    0 -0.46409836894E+03 -0.88769388898E+03  0.11060050756E+04  0.14921913295E+04  0.25500000920E-02 0. -1.
       -2    1    3    3    0  502  0.46409836894E+03  0.88769388898E+03 -0.14755974356E+04  0.17834728841E+04  0.25500000920E-02 0.  1.
</event>
<event>
 5   0  0.1925906E-06  0.3261216E+04  0.7818609E-02  0.8172835E-01
       -1   -1    0    0    0  501  0.00000000000E+00  0.00000000000E+00  0.15236620107E+04  0.15236620107E+04  0.50400001928E-02 0.  1.
        1   -1    0    0  501    0  0.00000000000E+00  0.00000000000E+00 -0.17450601791E+04  0.17450601791E+04  0.50400001928E-02 0. -1.
    10030    2    1    2    0    0  0.00000000000E+00  0.00000000000E+00 -0.22139816839E+03  0.32687221899E+04  0.32612156638E+04 0.  0.
        1    1    3    3  502    0  0.11374413911E+04  0.12333361331E+03 -0.12752244074E+04  0.17132371078E+04  0.50400001928E-02 0. -1.
       -1    1    3    3    0  502 -0.11374413911E+04 -0.12333361331E+03  0.10538262390E+04  0.15554850820E+04  0.50400001928E-02 0.  1.
</event>
<event>
 5   0  0.2097842E-06  0.3061415E+04  0.7818609E-02  0.8226408E-01
       -1   -1    0    0    0  501  0.00000000000E+00  0.00000000000E+00  0.16153989470E+04  0.16153989470E+04  0.50400001928E-02 0.  1.
        1   -1    0    0  501    0  0.00000000000E+00  0.00000000000E+00 -0.14504562584E+04  0.14504562584E+04  0.50400001928E-02 0. -1.
    10030    2    1    2    0    0  0.00000000000E+00  0.00000000000E+00  0.16494268854E+03  0.30658552054E+04  0.30614150404E+04 0.  0.
        4    1    3    3  502    0  0.12704765068E+04 -0.80620222897E+03 -0.19899021552E+03  0.15177850003E+04  0.12699999809E+01 0. -1.
       -4    1    3    3    0  502 -0.12704765068E+04  0.80620222897E+03  0.36393290406E+03  0.15480702051E+04  0.12699999809E+01 0.  1.
</event>
<event>
 5   0  0.5300268E-06  0.3398802E+04  0.7818609E-02  0.8138200E-01
        2   -1    0    0  501    0  0.00000000000E+00  0.00000000000E+00  0.22398778354E+04  0.22398778354E+04  0.25500000920E-02 0.  1.
       -2   -1    0    0    0  501  0.00000000000E+00  0.00000000000E+00 -0.12893396732E+04  0.12893396732E+04  0.25500000920E-02 0. -1.
    10030    2    1    2    0    0  0.00000000000E+00  0.00000000000E+00  0.95053816220E+03  0.35292175087E+04  0.33988017632E+04 0.  0.
        4    1    3    3  502    0 -0.13929194901E+04 -0.79552175444E+03 -0.10740624653E+03  0.16076744952E+04  0.12699999809E+01 0. -1.
       -4    1    3    3    0  502  0.13929194901E+04  0.79552175444E+03  0.10579444087E+04  0.19215430135E+04  0.12699999809E+01 0.  1.
</event>
<event>
 5   0  0.2730981E-06  0.3486827E+04  0.7818609E-02  0.8116919E-01
       -1   -1    0    0    0  501  0.00000000000E+00  0.00000000000E+00  0.13780429652E+04  0.13780429652E+04  0.50400001928E-02 0.  1.
        1   -1    0    0  501    0  0.00000000000E+00  0.00000000000E+00 -0.22056576643E+04  0.22056576643E+04  0.50400001928E-02 0. -1.
    10030    2    1    2    0    0  0.00000000000E+00  0.00000000000E+00 -0.82761469908E+03  0.35837006295E+04  0.34868272271E+04 0.  0.
        3    1    3    3  502    0 -0.31485189636E+03  0.12479425908E+04 -0.16224896523E+04  0.20709816775E+04  0.10100000352E+00 0. -1.
       -3    1    3    3    0  502  0.31485189636E+03 -0.12479425908E+04  0.79487495319E+03  0.15127189521E+04  0.10100000352E+00 0.  1.
</event>
<event>
 5   0  0.1925906E-06  0.2445273E+04  0.7818609E-02  0.8422746E-01
       -1   -1    0    0    0  501  0.00000000000E+00  0.00000000000E+00  0.87127454868E+03  0.87127454869E+03  0.50400001928E-02 0. -1.
        1   -1    0    0  501    0  0.00000000000E+00  0.00000000000E+00 -0.17156936074E+04  0.17156936074E+04  0.50400001928E-02 0.  1.
    10030    2    1    2    0    0  0.00000000000E+00  0.00000000000E+00 -0.84441905873E+03  0.25869681561E+04  0.24452731328E+04 0.  0.
        1    1    3    3  502    0  0.79897412657E+02 -0.71763788734E+03 -0.14660186220E+04  0.16341965408E+04  0.50400001928E-02 0.  1.
       -1    1    3    3    0  502 -0.79897412657E+02  0.71763788734E+03  0.62159956325E+03  0.95277161532E+03  0.50400001928E-02 0. -1.
</event>
<event>
 5   0  0.1925906E-06  0.3291483E+04  0.7818609E-02  0.8165066E-01
       -1   -1    0    0    0  501  0.00000000000E+00  0.00000000000E+00  0.14532738996E+04  0.14532738996E+04  0.50400001928E-02 0. -1.
        1   -1    0    0  501    0  0.00000000000E+00  0.00000000000E+00 -0.18636984281E+04  0.18636984281E+04  0.50400001928E-02 0.  1.
    10030    2    1    2    0    0  0.00000000000E+00  0.00000000000E+00 -0.41042452855E+03  0.33169723277E+04  0.32914825124E+04 0.  0.
        1    1    3    3  502    0  0.15860593227E+04 -0.36009217871E+03 -0.45858273880E+03  0.16898368799E+04  0.50400001928E-02 0.  1.
       -1    1    3    3    0  502 -0.15860593227E+04  0.36009217871E+03  0.48158210255E+02  0.16271354478E+04  0.50400001928E-02 0. -1.
</event>
<event>
 5   0  0.5300268E-06  0.3266118E+04  0.7818609E-02  0.8171571E-01
        2   -1    0    0  501    0  0.00000000000E+00  0.00000000000E+00  0.17510435308E+04  0.17510435308E+04  0.25500000920E-02 0.  1.
       -2   -1    0    0    0  501  0.00000000000E+00  0.00000000000E+00 -0.15230238303E+04  0.15230238303E+04  0.25500000920E-02 0. -1.
    10030    2    1    2    0    0  0.00000000000E+00  0.00000000000E+00  0.22801970049E+03  0.32740673611E+04  0.32661175884E+04 0.  0.
        4    1    3    3  502    0  0.20616803874E+03 -0.10140831555E+04  0.13804175165E+04  0.17252315901E+04  0.12699999809E+01 0.  1.
       -4    1    3    3    0  502 -0.20616803874E+03  0.10140831555E+04 -0.11523978160E+04  0.15488357711E+04  0.12699999809E+01 0. -1.
</event>
<event>
 5   0  0.5855568E-06  0.1777143E+04  0.7818609E-02  0.8718550E-01
       -2   -1    0    0    0  501  0.00000000000E+00  0.00000000000E+00  0.80539056947E+03  0.80539056947E+03  0.25500000920E-02 0. -1.
        2   -1    0    0  501    0  0.00000000000E+00  0.00000000000E+00 -0.98034306079E+03  0.98034306079E+03  0.25500000920E-02 0.  1.
    10030    2    1    2    0    0  0.00000000000E+00  0.00000000000E+00 -0.17495249132E+03  0.17857336303E+04  0.17771427135E+04 0.  0.
        3    1    3    3  502    0 -0.72374030016E+03  0.26408466552E+03 -0.53235605527E+03  0.93645272834E+03  0.10100000352E+00 0.  1.
       -3    1    3    3    0  502  0.72374030016E+03 -0.26408466552E+03  0.35740356395E+03  0.84928090192E+03  0.10100000352E+00 0. -1.
</event>
<event>
 5   0  0.5755250E-06  0.3299481E+04  0.7818609E-02  0.8163028E-01
       -2   -1    0    0    0  501  0.00000000000E+00  0.00000000000E+00  0.26603583777E+04  0.26603583777E+04  0.25500000920E-02 0.  1.
        2   -1    0    0  501    0  0.00000000000E+00  0.00000000000E+00 -0.10230363578E+04  0.10230363578E+04  0.25500000920E-02 0. -1.
    10030    2    1    2    0    0  0.00000000000E+00  0.00000000000E+00  0.16373220199E+04  0.36833947354E+04  0.32994807744E+04 0.  0.
        5    1    3    3  502    0 -0.46718516481E+03 -0.15190546451E+04  0.13126812943E+04  0.20612965006E+04  0.46999998093E+01 0. -1.
       -5    1    3    3    0  502  0.46718516481E+03  0.15190546451E+04  0.32464072559E+03  0.16220982349E+04  0.46999998093E+01 0.  1.
</event>
<event>
 5   0  0.5855568E-06  0.3515402E+04  0.7818609E-02  0.8110150E-01
       -2   -1    0    0    0  501  0.00000000000E+00  0.00000000000E+00  0.14250427541E+04  0.14250427541E+04  0.25500000920E-02 0.  1.
        2   -1    0    0  501    0  0.00000000000E+00  0.00000000000E+00 -0.21680142147E+04  0.21680142147E+04  0.25500000920E-02 0. -1.
    10030    2    1    2    0    0  0.00000000000E+00  0.00000000000E+00 -0.74297146062E+03  0.35930569688E+04  0.35154020808E+04 0.  0.
        3    1    3    3  502    0 -0.15303917267E+04  0.83669454870E+03 -0.59390792791E+03  0.18425208932E+04  0.10100000352E+00 0.  1.
       -3    1    3    3    0  502  0.15303917267E+04 -0.83669454870E+03 -0.14906353271E+03  0.17505360756E+04  0.10100000352E+00 0. -1.
</event>
<event>
 5   0  0.1999849E-06  0.3310579E+04  0.7818609E-02  0.8160209E-01
        1   -1    0    0  501    0  0.00000000000E+00  0.00000000000E+00  0.24594148961E+04  0.24594148961E+04  0.50400001928E-02 0.  1.
       -1   -1    0    0    0  501  0.00000000000E+00  0.00000000000E+00 -0.11140790720E+04  0.11140790720E+04  0.50400001928E-02 0. -1.
    10030    2    1    2    0    0  0.00000000000E+00  0.00000000000E+00  0.13453358242E+04  0.35734939681E+04  0.33105785990E+04 0.  0.
        5    1    3    3  502    0 -0.91007524793E+03  0.97798251651E+03 -0.38233361188E+03  0.13895639029E+04  0.46999998093E+01 0. -1.
       -5    1    3    3    0  502  0.91007524793E+03 -0.97798251651E+03  0.17276694361E+04  0.21839300652E+04  0.46999998093E+01 0.  1.
</event>
<event>
 5   0  0.5755250E-06  0.2175150E+04  0.7818609E-02  0.8528843E-01
       -2   -1    0    0    0  501  0.00000000000E+00  0.00000000000E+00  0.68869842533E+03  0.68869842533E+03  0.25500000920E-02 0.  1.
        2   -1    0    0  501    0  0.00000000000E+00  0.00000000000E+00 -0.17174709903E+04  0.17174709903E+04  0.25500000920E-02 0. -1.
    10030    2    1    2    0    0  0.00000000000E+00  0.00000000000E+00 -0.10287725650E+04  0.24061694156E+04  0.21751501710E+04 0.  0.
        5    1    3    3  502    0 -0.32182492052E+03 -0.94615958789E+03 -0.39865123986E+02  0.10002002616E+04  0.46999998093E+01 0.  1.
       -5    1    3    3    0  502  0.32182492052E+03  0.94615958789E+03 -0.98890744098E+03  0.14059691540E+04  0.46999998093E+01 0. -1.
</event>
<event>
 5   0  0.5637538E-06  0.2782477E+04  0.7818609E-02  0.8308729E-01
        2   -1    0    0  501    0  0.00000000000E+00  0.00000000000E+00  0.26745510194E+04  0.26745510194E+04  0.25500000920E-02 0. -1.
       -2   -1    0    0    0  501  0.00000000000E+00  0.00000000000E+00 -0.72368965197E+03  0.72368965198E+03  0.25500000920E-02 0.  1.
    10030    2    1    2    0    0  0.00000000000E+00  0.00000000000E+00  0.19508613675E+04  0.33982406714E+04  0.27824772390E+04 0.  0.
        2    1    3    3  502    0  0.13325619229E+03 -0.99451111410E+03 -0.20154772463E+03  0.10234407917E+04  0.25500000920E-02 0.  1.
       -2    1    3    3    0  502 -0.13325619229E+03  0.99451111410E+03  0.21524090921E+04  0.23747998797E+04  0.25500000920E-02 0. -1.
</event>
<event>
 5   0  0.5755250E-06  0.3321093E+04  0.7818609E-02  0.8157549E-01
        2   -1    0    0  501    0  0.00000000000E+00  0.00000000000E+00  0.18029201833E+04  0.18029201833E+04  0.25500000920E-02 0.  1.
       -2   -1    0    0    0  501  0.00000000000E+00  0.00000000000E+00 -0.15294158676E+04  0.15294158676E+04  0.25500000920E-02 0. -1.
    10030    2    1    2    0    0  0.00000000000E+00  0.00000000000E+00  0.27350431573E+03  0.33323360508E+04  0.33210930347E+04 0.  0.
        5    1    3    3  502    0  0.73846515538E+03 -0.14468922210E+04  0.48225017984E+03  0.16945250694E+04  0.46999998093E+01 0.  1.
       -5    1    3    3    0  502 -0.73846515538E+03  0.14468922210E+04 -0.20874586411E+03  0.16378109814E+04  0.46999998093E+01 0. -1.
</event>
<event>
 5   0  0.1925906E-06  0.1876132E+04  0.7818609E-02  0.8666829E-01
        1   -1    0    0  501    0  0.00000000000E+00  0.00000000000E+00  0.30201722364E+04  0.30201722364E+04  0.50400001928E-02 0. -1.
       -1   -1    0    0    0  501  0.00000000000E+00  0.00000000000E+00 -0.29136355586E+03  0.29136355591E+03  0.50400001928E-02 0.  1.
    10030    2    1    2    0    0  0.00000000000E+00  0.00000000000E+00  0.27288086805E+04  0.33115357923E+04  0.18761323218E+04 0.  0.
        1    1    3    3  502    0  0.49864082837E+03  0.29351873922E+03  0.26676696557E+04  0.27296991259E+04  0.50400001928E-02 0. -1.
       -1    1    3    3    0  502 -0.49864082837E+03 -0.29351873922E+03  0.61139024832E+02  0.58183666640E+03  0.50400001928E-02 0.  1.
</event>
<event>
 5   0  0.5637538E-06  0.3206884E+04  0.7818609E-02  0.8187001E-01
        2   -1    0    0  501    0  0.00000000000E+00  0.00000000000E+00  0.22231427087E+04  0.22231427087E+04  0.25500000920E-02 0. -1.
       -2   -1    0    0    0  501  0.00000000000E+00  0.00000000000E+00 -0.11564827677E+04  0.11564827677E+04  0.25500000920E-02 0.  1.
    10030    2    1    2    0    0  0.00000000000E+00  0.00000000000E+00  0.10666599411E+04  0.33796254764E+04  0.32068839909E+04 0.  0.
        2    1    3    3  502    0  0.15833095577E+04 -0.90598380662E+02  0.28405335981E+03  0.16111373415E+04  0.25500000920E-02 0.  1.
       -2    1    3    3    0  502 -0.15833095577E+04  0.90598380662E+02  0.78260658127E+03  0.17684881349E+04  0.25500000920E-02 0. -1.
</event>
<event>
 5   0  0.1999849E-06  0.2369481E+04  0.7818609E-02  0.8451018E-01
        1   -1    0    0  501    0  0.00000000000E+00  0.00000000000E+00  0.12214451757E+04  0.12214451757E+04  0.50400001928E-02 0. -1.
       -1   -1    0    0    0  501  0.00000000000E+00  0.00000000000E+00 -0.11491389756E+04  0.11491389756E+04  0.50400001928E-02 0.  1.
    10030    2    1    2    0    0  0.00000000000E+00  0.00000000000E+00  0.72306200048E+02  0.23705841513E+04  0.23694811736E+04 0.  0.
        5    1    3    3  502    0 -0.11671150419E+04  0.19509972987E+03  0.94203745328E+02  0.11870627032E+04  0.46999998093E+01 0. -1.
       -5    1    3    3    0  502  0.11671150419E+04 -0.19509972987E+03 -0.21897545281E+02  0.11835214481E+04  0.46999998093E+01 0.  1.
</event>
<event>
 5   0  0.2730981E-06  0.3325816E+04  0.7818609E-02  0.8156357E-01
        1   -1    0    0  501    0  0.00000000000E+00  0.00000000000E+00  0.10747852560E+04  0.10747852560E+04  0.50400001928E-02 0. -1.
       -1   -1    0    0    0  501  0.00000000000E+00  0.00000000000E+00 -0.25728515258E+04  0.25728515258E+04  0.50400001928E-02 0.  1.
    10030    2    1    2    0    0  0.00000000000E+00  0.00000000000E+00 -0.14980662698E+04  0.36476367819E+04  0.33258159215E+04 0.  0.
        3    1    3    3  502    0  0.17681922120E+03  0.71620213599E+03 -0.23835626786E+04  0.24951115385E+04  0.10100000352E+00 0.  1.
       -3    1    3    3    0  502 -0.17681922120E+03 -0.71620213599E+03  0.88549640874E+03  0.11525252434E+04  0.10100000352E+00 0. -1.
</event>
<event>
 5   0  0.5300268E-06  0.3295301E+04  0.7818609E-02  0.8164092E-01
        2   -1    0    0  501    0  0.00000000000E+00  0.00000000000E+00  0.13338848544E+04  0.13338848544E+04  0.25500000920E-02 0.  1.
       -2   -1    0    0    0  501  0.00000000000E+00  0.00000000000E+00 -0.20352227222E+04  0.20352227222E+04  0.25500000920E-02 0. -1.
    10030    2    1    2    0    0  0.00000000000E+00  0.00000000000E+00 -0.70133786788E+03  0.33691075766E+04  0.32953013607E+04 0.  0.
        4    1    3    3  502    0  0.18963550202E+03 -0.92133143940E+03  0.10323811821E+04  0.13966480455E+04  0.12699999809E+01 0.  1.
       -4    1    3    3    0  502 -0.18963550202E+03  0.92133143940E+03 -0.17337190500E+04  0.19724595311E+04  0.12699999809E+01 0. -1.
</event>
<event>
 5   0  0.1999849E-06  0.1623255E+04  0.7818609E-02  0.8806387E-01
        1   -1    0    0  501    0  0.00000000000E+00  0.00000000000E+00  0.24099657472E+04  0.24099657472E+04  0.50400001928E-02 0.  1.
       -1   -1    0    0    0  501  0.00000000000E+00  0.00000000000E+00 -0.27333976715E+03  0.27333976720E+03  0.50400001928E-02 0. -1.
    10030    2    1    2    0    0  0.00000000000E+00  0.00000000000E+00  0.21366259801E+04  0.26833055144E+04  0.16232553419E+04 0.  0.
        5    1    3    3  502    0  0.55598348387E+03 -0.57931870103E+03  0.12638305850E+04  0.14973368456E+04  0.46999998093E+01 0.  1.
       -5    1    3    3    0  502 -0.55598348387E+03  0.57931870103E+03  0.87279539511E+03  0.11859686688E+04  0.46999998093E+01 0. -1.
</event>
<event>
 5   0  0.2097842E-06  0.3319224E+04  0.7818609E-02  0.8158021E-01
       -1   -1    0    0    0  501  0.00000000000E+00  0.00000000000E+00  0.19480432858E+04  0.19480432858E+04  0.50400001928E-02 0.  1.
        1   -1    0    0  501    0  0.00000000000E+00  0.00000000000E+00 -0.14138866298E+04  0.14138866298E+04  0.50400001928E-02 0. -1.
    10030    2    1    2    0    0  0.00000000000E+00  0.00000000000E+00  0.53415665600E+03  0.33619299156E+04  0.33192242203E+04 0.  0.
        4    1    3    3  502    0  0.11209010854E+04 -0.11246140620E+04 -0.22197423031E+03  0.16032623627E+04  0.12699999809E+01 0. -1.
       -4    1    3    3    0  502 -0.11209010854E+04  0.11246140620E+04  0.75613088631E+03  0.17586675530E+04  0.12699999809E+01 0.  1.
</event>
<event>
 5   0  0.1999849E-06  0.3269813E+04  0.7818609E-02  0.8170619E-01
        1   -1    0    0  501    0  0.00000000000E+00  0.00000000000E+00  0.20779247545E+04  0.20779247545E+04  0.50400001928E-02 0.  1.
       -1   -1    0    0    0  501  0.00000000000E+00  0.00000000000E+00 -0.12863409636E+04  0.12863409636E+04  0.50400001928E-02 0. -1.
    10030    2    1    2    0    0  0.00000000000E+00  0.00000000000E+00  0.79158379093E+03  0.33642657181E+04  0.32698132858E+04 0.  0.
        5    1    3    3  502    0  0.84890066052E+03  0.68645131591E+03 -0.85634606397E+03  0.13875151934E+04  0.46999998093E+01 0. -1.
       -5    1    3    3    0  502 -0.84890066052E+03 -0.68645131591E+03  0.16479298549E+04  0.19767505248E+04  0.46999998093E+01 0.  1.
</event>
<event>
 5   0  0.5755250E-06  0.3003347E+04  0.7818609E-02  0.8242776E-01
        2   -1    0    0  501    0  0.00000000000E+00  0.00000000000E+00  0.20489129623E+04  0.20489129623E+04  0.25500000920E-02 0.  1.
       -2   -1    0    0    0  501  0.00000000000E+00  0.00000000000E+00 -0.11005948288E+04  0.11005948289E+04  0.25500000920E-02 0. -1.
    10030    2    1    2    0    0  0.00000000000E+00  0.00000000000E+00  0.94831813344E+03  0.31495077911E+04  0.30033468072E+04 0.  0.
        5    1    3    3  502    0  0.11915381444E+04  0.90081894609E+03  0.63581357381E+03  0.16234281363E+04  0.46999998093E+01 0.  1.
       -5    1    3    3    0  502 -0.11915381444E+04 -0.90081894609E+03  0.31250455962E+03  0.15260796548E+04  0.46999998093E+01 0. -1.
</event>
<event>
 5   0  0.2097842E-06  0.2899659E+04  0.7818609E-02  0.8272979E-01
        1   -1    0    0  501    0  0.00000000000E+00  0.00000000000E+00  0.16415877389E+04  0.16415877390E+04  0.50400001928E-02 0.  1.
       -1   -1    0    0    0  501  0.00000000000E+00  0.00000000000E+00 -0.12804714505E+04  0.12804714506E+04  0.50400001928E-02 0. -1.
    10030    2    1    2    0    0  0.00000000000E+00  0.00000000000E+00  0.36111628840E+03  0.29220591895E+04  0.28996594513E+04 0.  0.
        4    1    3    3  502    0  0.32658603934E+03  0.13903892413E+04 -0.70694863283E+02  0.14299790418E+04  0.12699999809E+01 0. -1.
       -4    1    3    3    0  502 -0.32658603934E+03 -0.13903892413E+04  0.43181115169E+03  0.14920801477E+04  0.12699999809E+01 0.  1.
</event>
<event>
 5   0  0.1878000E-06  0.3211490E+04  0.7818609E-02  0.8185789E-01
       -3   -1    0    0    0  501  0.00000000000E+00  0.00000000000E+00  0.25112976814E+04  0.25112976835E+04  0.10100000352E+00 0. -1.
        3   -1    0    0  501    0  0.00000000000E+00  0.00000000000E+00 -0.10267268983E+04  0.10267269032E+04  0.10100000352E+00 0.  1.
    10030    2    1    2    0    0  0.00000000000E+00  0.00000000000E+00  0.14845707832E+04  0.35380245867E+04  0.32114899293E+04 0.  0.
        2    1    3    3  502    0 -0.76452427852E+03  0.75025094127E+03 -0.57560906327E+03  0.12160179444E+04  0.25500000920E-02 0.  1.
       -2    1    3    3    0  502  0.76452427852E+03 -0.75025094127E+03  0.20601798464E+04  0.23220066423E+04  0.25500000920E-02 0. -1.
</event>
<event>
 5   0  0.5755250E-06  0.3240663E+04  0.7818609E-02  0.8178160E-01
        2   -1    0    0  501    0  0.00000000000E+00  0.00000000000E+00  0.19884561793E+04  0.19884561793E+04  0.25500000920E-02 0.  1.
       -2   -1    0    0    0  501  0.00000000000E+00  0.00000000000E+00 -0.13203582163E+04  0.13203582163E+04  0.25500000920E-02 0. -1.
    10030    2    1    2    0    0  0.00000000000E+00  0.00000000000E+00  0.66809796301E+03  0.33088143957E+04  0.32406631755E+04 0.  0.
        5    1    3    3  502    0 -0.93792399549E+03 -0.97014512515E+03  0.12498903619E+04  0.18393289515E+04  0.46999998093E+01 0.  1.
       -5    1    3    3    0  502  0.93792399549E+03  0.97014512515E+03 -0.58179239887E+03  0.14694854441E+04  0.46999998093E+01 0. -1.
</event>
<event>
 5   0  0.1999849E-06  0.3023715E+04  0.7818609E-02  0.8236991E-01
        1   -1    0    0  501    0  0.00000000000E+00  0.00000000000E+00  0.14497650589E+04  0.14497650589E+04  0.50400001928E-02 0.  1.
       -1   -1    0    0    0  501  0.00000000000E+00  0.00000000000E+00 -0.15766089724E+04  0.15766089724E+04  0.50400001928E-02 0. -1.
    10030    2    1    2    0    0  0.00000000000E+00  0.00000000000E+00 -0.12684391351E+03  0.30263740314E+04  0.30237146690E+04 0.  0.
        5    1    3    3  502    0  0.14718608123E+04 -0.33672055508E+03 -0.14053208621E+03  0.15164189198E+04  0.46999998093E+01 0. -1.
       -5    1    3    3    0  502 -0.14718608123E+04  0.33672055508E+03  0.13688172697E+02  0.15099551116E+04  0.46999998093E+01 0.  1.
</event>
<event>
 5   0  0.5300268E-06  0.3258837E+04  0.7818609E-02  0.8173449E-01
       -2   -1    0    0    0  501  0.00000000000E+00  0.00000000000E+00  0.12137659843E+04  0.12137659843E+04  0.25500000920E-02 0.  1.
        2   -1    0    0  501    0  0.00000000000E+00  0.00000000000E+00 -0.21874110407E+04  0.21874110407E+04  0.25500000920E-02 0. -1.
    10030    2    1    2    0    0  0.00000000000E+00  0.00000000000E+00 -0.97364505649E+03  0.34011770250E+04  0.32588372864E+04 0.  0.
        4    1    3    3  502    0  0.58401461815E+03 -0.39880145413E+03  0.10452484788E+04  0.12620070005E+04  0.12699999809E+01 0.  1.
       -4    1    3    3    0  502 -0.58401461815E+03  0.39880145413E+03 -0.20188935353E+04  0.21391700245E+04  0.12699999809E+01 0. -1.
</event>
<event>
 5   0  0.2097842E-06  0.3337613E+04  0.7818609E-02  0.8153390E-01
       -1   -1    0    0    0  501  0.00000000000E+00  0.00000000000E+00  0.15296801698E+04  0.15296801698E+04  0.50400001928E-02 0.  1.
        1   -1    0    0  501    0  0.00000000000E+00  0.00000000000E+00 -0.18205860450E+04  0.18205860450E+04  0.50400001928E-02 0. -1.
    10030    2    1    2    0    0  0.00000000000E+00  0.00000000000E+00 -0.29090587522E+03  0.33502662148E+04  0.33376125422E+04 0.  0.
        4    1    3    3  502    0  0.85854490230E+03 -0.13808915734E+04 -0.52231187700E+03  0.17078560233E+04  0.12699999809E+01 0. -1.
       -4    1    3    3    0  502 -0.85854490230E+03  0.13808915734E+04  0.23140600178E+03  0.16424101915E+04  0.12699999809E+01 0.  1.
</event>
<event>
 5   0  0.2037109E-06  0.1768496E+04  0.7818609E-02  0.8723234E-01
        1   -1    0    0  501    0  0.00000000000E+00  0.00000000000E+00  0.54209257312E+03  0.54209257314E+03  0.50400001928E-02 0.  1.
       -1   -1    0    0    0  501  0.00000000000E+00  0.00000000000E+00 -0.14423640340E+04  0.14423640340E+04  0.50400001928E-02 0. -1.
    10030    2    1    2    0    0  0.00000000000E+00  0.00000000000E+00 -0.90027146086E+03  0.19844566071E+04  0.17684963450E+04 0.  0.
        2    1    3    3  502    0 -0.69534602688E+03  0.48596141393E+03 -0.17021299718E+03  0.86523815065E+03  0.25500000920E-02 0.  1.
       -2    1    3    3    0  502  0.69534602688E+03 -0.48596141393E+03 -0.73005846369E+03  0.11192184565E+04  0.25500000920E-02 0. -1.
</event>
<event>
 5   0  0.1925906E-06  0.3365444E+04  0.7818609E-02  0.8146440E-01
        1   -1    0    0  501    0  0.00000000000E+00  0.00000000000E+00  0.13656073041E+04  0.13656073041E+04  0.50400001928E-02 0. -1.
       -1   -1    0    0    0  501  0.00000000000E+00  0.00000000000E+00 -0.20734756844E+04  0.20734756845E+04  0.50400001928E-02 0.  1.
    10030    2    1    2    0    0  0.00000000000E+00  0.00000000000E+00 -0.70786838038E+03  0.34390829885E+04  0.33654441249E+04 0.  0.
        1    1    3    3  502    0  0.70440829469E+03  0.10631388785E+04  0.76785562749E+03  0.14886428669E+04  0.50400001928E-02 0.  1.
       -1    1    3    3    0  502 -0.70440829469E+03 -0.10631388785E+04 -0.14757240079E+04  0.19504401216E+04  0.50400001928E-02 0. -1.
</event>
<event>
 5   0  0.5855568E-06  0.1747119E+04  0.7818609E-02  0.8734938E-01
       -2   -1    0    0    0  501  0.00000000000E+00  0.00000000000E+00  0.13968134674E+04  0.13968134674E+04  0.25500000920E-02 0. -1.
        2   -1    0    0  501    0  0.00000000000E+00  0.00000000000E+00 -0.54631944502E+03  0.54631944502E+03  0.25500000920E-02 0.  1.
    10030    2    1    2    0    0  0.00000000000E+00  0.00000000000E+00  0.85049402239E+03  0.19431329124E+04  0.17471191812E+04 0.  0.
        3    1    3    3  502    0  0.38870826164E+03 -0.53615718511E+03  0.10588529650E+04  0.12488908084E+04  0.10100000352E+00 0. -1.
       -3    1    3    3    0  502 -0.38870826164E+03  0.53615718511E+03 -0.20835894257E+03  0.69424210399E+03  0.10100000352E+00 0.  1.
</event>
<event>
 5   0  0.2037109E-06  0.3226158E+04  0.7818609E-02  0.8181943E-01
        1   -1    0    0  501    0  0.00000000000E+00  0.00000000000E+00  0.15806123450E+04  0.15806123450E+04  0.50400001928E-02 0. -1.
       -1   -1    0    0    0  501  0.00000000000E+00  0.00000000000E+00 -0.16462122497E+04  0.16462122497E+04  0.50400001928E-02 0.  1.
    10030    2    1    2    0    0  0.00000000000E+00  0.00000000000E+00 -0.65599904772E+02  0.32268245947E+04  0.32261577174E+04 0.  0.
        2    1    3    3  502    0  0.19002715026E+03  0.12192703963E+04  0.10063049670E+04  0.15922877578E+04  0.25500000920E-02 0. -1.
       -2    1    3    3    0  502 -0.19002715026E+03 -0.12192703963E+04 -0.10719048717E+04  0.16345368369E+04  0.25500000920E-02 0.  1.
</event>
<event>
 5   0  0.2037109E-06  0.3276668E+04  0.7818609E-02  0.8168858E-01
       -1   -1    0    0    0  501  0.00000000000E+00  0.00000000000E+00  0.12347534690E+04  0.12347534690E+04  0.50400001928E-02 0. -1.
        1   -1    0    0  501    0  0.00000000000E+00  0.00000000000E+00 -0.21738255422E+04  0.21738255422E+04  0.50400001928E-02 0.  1.
    10030    2    1    2    0    0  0.00000000000E+00  0.00000000000E+00 -0.93907207322E+03  0.34085790112E+04  0.32766682037E+04 0.  0.
        2    1    3    3  502    0 -0.74714035316E+03  0.47332671750E+03 -0.19041420703E+04  0.20995270688E+04  0.25500000920E-02 0.  1.
       -2    1    3    3    0  502  0.74714035316E+03 -0.47332671750E+03  0.96506999704E+03  0.13090519424E+04  0.25500000920E-02 0. -1.
</event>
<event>
 5   0  0.5755250E-06  0.3280521E+04  0.7818609E-02  0.8167869E-01
        2   -1    0    0  501    0  0.00000000000E+00  0.00000000000E+00  0.21237817507E+04  0.21237817507E+04  0.25500000920E-02 0.  1.
       -2   -1    0    0    0  501  0.00000000000E+00  0.00000000000E+00 -0.12668227113E+04  0.12668227113E+04  0.25500000920E-02 0. -1.
    10030    2    1    2    0    0  0.00000000000E+00  0.00000000000E+00  0.85695903933E+03  0.33906044620E+04  0.32805212730E+04 0.  0.
        5    1    3    3  502    0  0.58733857457E+03 -0.44349877799E+03 -0.10865802005E+04  0.13123781427E+04  0.46999998093E+01 0. -1.
       -5    1    3    3    0  502 -0.58733857457E+03  0.44349877799E+03  0.19435392399E+04  0.20782263193E+04  0.46999998093E+01 0.  1.
</event>
<event>
 5   0  0.5300268E-06  0.3164287E+04  0.7818609E-02  0.8198313E-01
        2   -1    0    0  501    0  0.00000000000E+00  0.00000000000E+00  0.16762877725E+04  0.16762877725E+04  0.25500000920E-02 0. -1.
       -2   -1    0    0    0  501  0.00000000000E+00  0.00000000000E+00 -0.14932864975E+04  0.14932864975E+04  0.25500000920E-02 0.  1.
    10030    2    1    2    0    0  0.00000000000E+00  0.00000000000E+00  0.18300127502E+03  0.31695742699E+04  0.31642869001E+04 0.  0.
        4    1    3    3  502    0  0.45292223294E+03  0.21091021927E+03 -0.14121921725E+04  0.14979686294E+04  0.12699999809E+01 0.  1.
       -4    1    3    3    0  502 -0.45292223294E+03 -0.21091021927E+03  0.15951934475E+04  0.16716056406E+04  0.12699999809E+01 0. -1.
</event>
<event>
 5   0  0.2037109E-06  0.3299372E+04  0.7818609E-02  0.8163055E-01
        1   -1    0    0  501    0  0.00000000000E+00  0.00000000000E+00  0.27933685725E+04  0.27933685725E+04  0.50400001928E-02 0. -1.
       -1   -1    0    0    0  501  0.00000000000E+00  0.00000000000E+00 -0.97425867087E+03  0.97425867088E+03  0.50400001928E-02 0.  1.
    10030    2    1    2    0    0  0.00000000000E+00  0.00000000000E+00  0.18191099016E+04  0.37676272434E+04  0.32993717903E+04 0.  0.
        2    1    3    3  502    0  0.10191533882E+03  0.15530993538E+04  0.28518406622E+03  0.15823508747E+04  0.25500000920E-02 0. -1.
       -2    1    3    3    0  502 -0.10191533882E+03 -0.15530993538E+04  0.15339258354E+04  0.21852763687E+04  0.25500000920E-02 0.  1.
</event>
<event>
 5   0  0.1925906E-06  0.3272648E+04  0.7818609E-02  0.8169890E-01
       -1   -1    0    0    0  501  0.00000000000E+00  0.00000000000E+00  0.18030530206E+04  0.18030530206E+04  0.50400001928E-02 0. -1.
        1   -1    0    0  501    0  0.00000000000E+00  0.00000000000E+00 -0.14850123216E+04  0.14850123216E+04  0.50400001928E-02 0.  1.
    10030    2    1    2    0    0  0.00000000000E+00  0.00000000000E+00  0.31804069894E+03  0.32880653422E+04  0.32726478284E+04 0.  0.
        1    1    3    3  502    0 -0.13433641598E+04 -0.18008145389E+03 -0.76208617584E+03  0.15549379201E+04  0.50400001928E-02 0.  1.
       -1    1    3    3    0  502  0.13433641598E+04  0.18008145389E+03  0.10801268748E+04  0.17331274222E+04  0.50400001928E-02 0. -1.
</event>
<event>
 5   0  0.2730981E-06  0.3277911E+04  0.7818609E-02  0.8168539E-01
        1   -1    0    0  501    0  0.00000000000E+00  0.00000000000E+00  0.21594046367E+04  0.21594046367E+04  0.50400001928E-02 0. -1.
       -1   -1    0    0    0  501  0.00000000000E+00  0.00000000000E+00 -0.12439421767E+04  0.12439421767E+04  0.50400001928E-02 0.  1.
    10030    2    1    2    0    0  0.00000000000E+00  0.00000000000E+00  0.91546245996E+03  0.34033468134E+04  0.32779106176E+04 0.  0.
        3    1    3    3  502    0 -0.74411979498E+03  0.10257643184E+03  0.19701619026E+04  0.21085004449E+04  0.10100000352E+00 0. -1.
       -3    1    3    3    0  502  0.74411979498E+03 -0.10257643184E+03 -0.10546994426E+04  0.12948463685E+04  0.10100000352E+00 0.  1.
</event>
<event>
 5   0  0.5637538E-06  0.2746125E+04  0.7818609E-02  0.8320192E-01
        2   -1    0    0  501    0  0.00000000000E+00  0.00000000000E+00  0.23998142091E+04  0.23998142091E+04  0.25500000920E-02 0.  1.
       -2   -1    0    0    0  501  0.00000000000E+00  0.00000000000E+00 -0.78560255980E+03  0.78560255980E+03  0.25500000920E-02 0. -1.
    10030    2    1    2    0    0  0.00000000000E+00  0.00000000000E+00  0.16142116493E+04  0.31854167689E+04  0.27461246772E+04 0.  0.
        2    1    3    3  502    0 -0.35471156716E+03  0.10936954790E+04 -0.63496406748E+02  0.11515302386E+04  0.25500000920E-02 0. -1.
       -2    1    3    3    0  502  0.35471156716E+03 -0.10936954790E+04  0.16777080561E+04  0.20338865303E+04  0.25500000920E-02 0.  1.
</event>
<event>
 5   0  0.1925906E-06  0.3246239E+04  0.7818609E-02  0.8176711E-01
       -1   -1    0    0    0  501  0.00000000000E+00  0.00000000000E+00  0.13250153212E+04  0.13250153212E+04  0.50400001928E-02 0. -1.
        1   -1    0    0  501    0  0.00000000000E+00  0.00000000000E+00 -0.19882916436E+04  0.19882916436E+04  0.50400001928E-02 0.  1.
    10030    2    1    2    0    0  0.00000000000E+00  0.00000000000E+00 -0.66327632239E+03  0.33133069648E+04  0.32462389874E+04 0.  0.
        1    1    3    3  502    0  0.85850161329E+03 -0.35611432253E+03  0.10265206192E+04  0.13847696604E+04  0.50400001928E-02 0. -1.
       -1    1    3    3    0  502 -0.85850161329E+03  0.35611432253E+03 -0.16897969416E+04  0.19285373044E+04  0.50400001928E-02 0.  1.
</event>
<event>
 5   0  0.5755250E-06  0.3046671E+04  0.7818609E-02  0.8230528E-01
        2   -1    0    0  501    0  0.00000000000E+00  0.00000000000E+00  0.13422739635E+04  0.13422739635E+04  0.25500000920E-02 0. -1.
       -2   -1    0    0    0  501  0.00000000000E+00  0.00000000000E+00 -0.17288206290E+04  0.17288206290E+04  0.25500000920E-02 0.  1.
    10030    2    1    2    0    0  0.00000000000E+00  0.00000000000E+00 -0.38654666550E+03  0.30710945924E+04  0.30466709161E+04 0.  0.
        5    1    3    3  502    0 -0.87193376514E+03  0.84669055315E+03  0.73244341836E+03  0.14190309492E+04  0.46999998093E+01 0. -1.
       -5    1    3    3    0  502  0.87193376514E+03 -0.84669055315E+03 -0.11189900839E+04  0.16520636433E+04  0.46999998093E+01 0.  1.
</event>
<event>
 5   0  0.2730981E-06  0.3308708E+04  0.7818609E-02  0.8160683E-01
        1   -1    0    0  501    0  0.00000000000E+00  0.00000000000E+00  0.13741967199E+04  0.13741967199E+04  0.50400001928E-02 0. -1.
       -1   -1    0    0    0  501  0.00000000000E+00  0.00000000000E+00 -0.19916272167E+04  0.19916272167E+04  0.50400001928E-02 0.  1.
    10030    2    1    2    0    0  0.00000000000E+00  0.00000000000E+00 -0.61743049679E+03  0.33658239367E+04  0.33087082607E+04 0.  0.
        3    1    3    3  502    0 -0.13740746421E+04  0.65066392856E+03  0.35480405699E+03  0.15611952469E+04  0.10100000352E+00 0. -1.
       -3    1    3    3    0  502  0.13740746421E+04 -0.65066392856E+03 -0.97223455377E+03  0.18046286897E+04  0.10100000352E+00 0.  1.
</event>
<event>
 5   0  0.5637538E-06  0.1668968E+04  0.7818609E-02  0.8779264E-01
        2   -1    0    0  501    0  0.00000000000E+00  0.00000000000E+00  0.19676264729E+04  0.19676264729E+04  0.25500000920E-02 0. -1.
       -2   -1    0    0    0  501  0.00000000000E+00  0.00000000000E+00 -0.35391035991E+03  0.35391035992E+03  0.25500000920E-02 0.  1.
    10030    2    1    2    0    0  0.00000000000E+00  0.00000000000E+00  0.16137161130E+04  0.23215368328E+04  0.16689678166E+04 0.  0.
        2    1    3    3  502    0 -0.34263901414E+03 -0.62459357594E+02 -0.24797679710E+03  0.42754550315E+03  0.25500000920E-02 0.  1.
       -2    1    3    3    0  502  0.34263901414E+03  0.62459357594E+02  0.18616929101E+04  0.18939913297E+04  0.25500000920E-02 0. -1.
</event>
<event>
 5   0  0.5755250E-06  0.2615680E+04  0.7818609E-02  0.8362894E-01
       -2   -1    0    0    0  501  0.00000000000E+00  0.00000000000E+00  0.19324215404E+04  0.19324215404E+04  0.25500000920E-02 0.  1.
        2   -1    0    0  501    0  0.00000000000E+00  0.00000000000E+00 -0.88513094100E+03  0.88513094101E+03  0.25500000920E-02 0. -1.
    10030    2    1    2    0    0  0.00000000000E+00  0.00000000000E+00  0.10472905994E+04  0.28175524814E+04  0.26156804824E+04 0.  0.
        5    1    3    3  502    0 -0.10757830948E+04  0.94777572311E+02  0.13182286059E+04  0.17041246442E+04  0.46999998093E+01 0.  1.
       -5    1    3    3    0  502  0.10757830948E+04 -0.94777572311E+02 -0.27093800655E+03  0.11134278372E+04  0.46999998093E+01 0. -1.
</event>
<event>
 5   0  0.1925906E-06  0.2776531E+04  0.7818609E-02  0.8310592E-01
        1   -1    0    0  501    0  0.00000000000E+00  0.00000000000E+00  0.12095691781E+04  0.12095691781E+04  0.50400001928E-02 0. -1.
       -1   -1    0    0    0  501  0.00000000000E+00  0.00000000000E+00 -0.15933612299E+04  0.15933612300E+04  0.50400001928E-02 0.  1.
    10030    2    1    2    0    0  0.00000000000E+00  0.00000000000E+00 -0.38379205189E+03  0.28029304080E+04  0.27765306649E+04 0.  0.
        1    1    3    3  502    0  0.11542657348E+04  0.24177853606E+03  0.54752608267E+03  0.13002196192E+04  0.50400001928E-02 0.  1.
       -1    1    3    3    0  502 -0.11542657348E+04 -0.24177853606E+03 -0.93131813456E+03  0.15027107888E+04  0.50400001928E-02 0. -1.
</event>
<event>
 5   0  0.2097842E-06  0.3322068E+04  0.7818609E-02  0.8157303E-01
       -1   -1    0    0    0  501  0.00000000000E+00  0.00000000000E+00  0.15813261744E+04  0.15813261744E+04  0.50400001928E-02 0.  1.
        1   -1    0    0  501    0  0.00000000000E+00  0.00000000000E+00 -0.17447596689E+04  0.17447596689E+04  0.50400001928E-02 0. -1.
    10030    2    1    2    0    0  0.00000000000E+00  0.00000000000E+00 -0.16343349455E+03  0.33260858433E+04  0.33220681103E+04 0.  0.
        4    1    3    3  502    0  0.14663391927E+04 -0.68909141483E+03  0.28483381561E+03  0.16450317691E+04  0.12699999809E+01 0.  1.
       -4    1    3    3    0  502 -0.14663391927E+04  0.68909141483E+03 -0.44826731016E+03  0.16810540742E+04  0.12699999809E+01 0. -1.
</event>
<event>
 5   0  0.5855568E-06  0.3289828E+04  0.7818609E-02  0.8165489E-01
       -2   -1    0    0    0  501  0.00000000000E+00  0.00000000000E+00  0.17528431198E+04  0.17528431198E+04  0.25500000920E-02 0.  1.
        2   -1    0    0  501    0  0.00000000000E+00  0.00000000000E+00 -0.15436303393E+04  0.15436303393E+04  0.25500000920E-02 0. -1.
    10030    2    1    2    0    0  0.00000000000E+00  0.00000000000E+00  0.20921278050E+03  0.32964734591E+04  0.32898278495E+04 0.  0.
        3    1    3    3  502    0 -0.17108951260E+03  0.10871734264E+04 -0.11203704455E+04  0.15704927971E+04  0.10100000352E+00 0. -1.
       -3    1    3    3    0  502  0.17108951260E+03 -0.10871734264E+04  0.13295832260E+04  0.17259806620E+04  0.10100000352E+00 0.  1.
</event>
<event>
 5   0  0.1999849E-06  0.2432035E+04  0.7818609E-02  0.8427607E-01
        1   -1    0    0  501    0  0.00000000000E+00  0.00000000000E+00  0.19325461802E+04  0.19325461802E+04  0.50400001928E-02 0. -1.
       -1   -1    0    0    0  501  0.00000000000E+00  0.00000000000E+00 -0.76515577709E+03  0.76515577711E+03  0.50400001928E-02 0.  1.
    10030    2    1    2    0    0  0.00000000000E+00  0.00000000000E+00  0.11673904031E+04  0.26977019573E+04  0.24320352582E+04 0.  0.
        5    1    3    3  502    0 -0.48864726961E+02  0.83614535647E+02  0.19282514943E+04  0.19306877188E+04  0.46999998093E+01 0. -1.
       -5    1    3    3    0  502  0.48864726961E+02 -0.83614535647E+02 -0.76086109117E+03  0.76701423857E+03  0.46999998093E+01 0.  1.
</event>
<event>
 5   0  0.5622811E-06  0.3238520E+04  0.7818609E-02  0.8178717E-01
        2   -1    0    0  501    0  0.00000000000E+00  0.00000000000E+00  0.11133420345E+04  0.11133420345E+04  0.25500000920E-02 0.  1.
       -2   -1    0    0    0  501  0.00000000000E+00  0.00000000000E+00 -0.23550746959E+04  0.23550746959E+04  0.25500000920E-02 0. -1.
    10030    2    1    2    0    0  0.00000000000E+00  0.00000000000E+00 -0.12417326614E+04  0.34684167304E+04  0.32385204358E+04 0.  0.
        1    1    3    3  502    0 -0.16341720057E+03 -0.30602446419E+03 -0.23148050214E+04  0.23406576941E+04  0.50400001928E-02 0. -1.
       -1    1    3    3    0  502  0.16341720057E+03  0.30602446419E+03  0.10730723600E+04  0.11277590363E+04  0.50400001928E-02 0.  1.
</event>
<event>
 5   0  0.1925906E-06  0.3204043E+04  0.7818609E-02  0.8187750E-01
        1   -1    0    0  501    0  0.00000000000E+00  0.00000000000E+00  0.13850047080E+04  0.13850047080E+04  0.50400001928E-02 0.  1.
       -1   -1    0    0    0  501  0.00000000000E+00  0.00000000000E+00 -0.18530427987E+04  0.18530427987E+04  0.50400001928E-02 0. -1.
    10030    2    1    2    0    0  0.00000000000E+00  0.00000000000E+00 -0.46803809072E+03  0.32380475068E+04  0.32040430711E+04 0.  0.
        1    1    3    3  502    0  0.11276273941E+04  0.11371142013E+04 -0.27807937907E+03  0.16253923797E+04  0.50400001928E-02 0. -1.
       -1    1    3    3    0  502 -0.11276273941E+04 -0.11371142013E+04 -0.18995871165E+03  0.16126551271E+04  0.50400001928E-02 0.  1.
</event>
<event>
 5   0  0.5637538E-06  0.3257843E+04  0.7818609E-02  0.8173706E-01
        2   -1    0    0  501    0  0.00000000000E+00  0.00000000000E+00  0.22382609397E+04  0.22382609397E+04  0.25500000920E-02 0. -1.
       -2   -1    0    0    0  501  0.00000000000E+00  0.00000000000E+00 -0.11854671427E+04  0.11854671427E+04  0.25500000920E-02 0.  1.
    10030    2    1    2    0    0  0.00000000000E+00  0.00000000000E+00  0.10527937969E+04  0.34237280824E+04  0.32578427223E+04 0.  0.
        2    1    3    3  502    0 -0.10970632868E+04 -0.72402749638E+03  0.15374775065E+04  0.20227705638E+04  0.25500000920E-02 0. -1.
       -2    1    3    3    0  502  0.10970632868E+04  0.72402749638E+03 -0.48468370954E+03  0.14009575186E+04  0.25500000920E-02 0.  1.
</event>
<event>
 5   0  0.2730981E-06  0.3166894E+04  0.7818609E-02  0.8197616E-01
        1   -1    0    0  501    0  0.00000000000E+00  0.00000000000E+00  0.11153512436E+04  0.11153512436E+04  0.50400001928E-02 0.  1.
       -1   -1    0    0    0  501  0.00000000000E+00  0.00000000000E+00 -0.22479946814E+04  0.22479946814E+04  0.50400001928E-02 0. -1.
    10030    2    1    2    0    0  0.00000000000E+00  0.00000000000E+00 -0.11326434378E+04  0.33633459250E+04  0.31668935338E+04 0.  0.
        3    1    3    3  502    0 -0.11265022883E+04 -0.34866554496E+03 -0.16886292850E+04  0.20596222809E+04  0.10100000352E+00 0. -1.
       -3    1    3    3    0  502  0.11265022883E+04  0.34866554496E+03  0.55598584720E+03  0.13037236441E+04  0.10100000352E+00 0.  1.
</event>
<event>
 5   0  0.5300268E-06  0.2532999E+04  0.7818609E-02  0.8391323E-01
       -2   -1    0    0    0  501  0.00000000000E+00  0.00000000000E+00  0.15755157596E+04  0.15755157596E+04  0.25500000920E-02 0.  1.
        2   -1    0    0  501    0  0.00000000000E+00  0.00000000000E+00 -0.10180925861E+04  0.10180925861E+04  0.25500000920E-02 0. -1.
    10030    2    1    2    0    0  0.00000000000E+00  0.00000000000E+00  0.55742317344E+03  0.25936083457E+04  0.25329989452E+04 0.  0.
        4    1    3    3  502    0 -0.72189160327E+03  0.57457546924E+03 -0.60966308022E+03  0.11058730221E+04  0.12699999809E+01 0. -1.
       -4    1    3    3    0  502  0.72189160327E+03 -0.57457546924E+03  0.11670862537E+04  0.14877353236E+04  0.12699999809E+01 0.  1.
</event>
<event>
 5   0  0.5622811E-06  0.3373023E+04  0.7818609E-02  0.8144559E-01
       -2   -1    0    0    0  501  0.00000000000E+00  0.00000000000E+00  0.14754641432E+04  0.14754641432E+04  0.25500000920E-02 0. -1.
        2   -1    0    0  501    0  0.00000000000E+00  0.00000000000E+00 -0.19277462546E+04  0.19277462546E+04  0.25500000920E-02 0.  1.
    10030    2    1    2    0    0  0.00000000000E+00  0.00000000000E+00 -0.45228211141E+03  0.34032103978E+04  0.33730226657E+04 0.  0.
        1    1    3    3  502    0 -0.13592664495E+04  0.48911848526E+03 -0.11042626122E+04  0.18183063796E+04  0.50400001928E-02 0.  1.
       -1    1    3    3    0  502  0.13592664495E+04 -0.48911848526E+03  0.65198050083E+03  0.15849040182E+04  0.50400001928E-02 0. -1.
</event>
<event>
 5   0  0.2730981E-06  0.3335851E+04  0.7818609E-02  0.8153832E-01
       -1   -1    0    0    0  501  0.00000000000E+00  0.00000000000E+00  0.14271337772E+04  0.14271337772E+04  0.50400001928E-02 0.  1.
        1   -1    0    0  501    0  0.00000000000E+00  0.00000000000E+00 -0.19493450581E+04  0.19493450581E+04  0.50400001928E-02 0. -1.
    10030    2    1    2    0    0  0.00000000000E+00  0.00000000000E+00 -0.52221128089E+03  0.33764788353E+04  0.33358514210E+04 0.  0.
        3    1    3    3  502    0  0.39277185525E+03 -0.97472547796E+03 -0.15721086854E+04  0.18910011149E+04  0.10100000352E+00 0. -1.
       -3    1    3    3    0  502 -0.39277185525E+03  0.97472547796E+03  0.10498974045E+04  0.14854777204E+04  0.10100000352E+00 0.  1.
</event>
<event>
 5   0  0.1999849E-06  0.2935007E+04  0.7818609E-02  0.8262538E-01
       -1   -1    0    0    0  501  0.00000000000E+00  0.00000000000E+00  0.11026069612E+04  0.11026069612E+04  0.50400001928E-02 0.  1.
        1   -1    0    0  501    0  0.00000000000E+00  0.00000000000E+00 -0.19531582368E+04  0.19531582368E+04  0.50400001928E-02 0. -1.
    10030    2    1    2    0    0  0.00000000000E+00  0.00000000000E+00 -0.85055127559E+03  0.30557651980E+04  0.29350065542E+04 0.  0.
        5    1    3    3  502    0  0.83711537809E+03 -0.87296630061E+03  0.44000948319E+03  0.12870364228E+04  0.46999998093E+01 0.  1.
       -5    1    3    3    0  502 -0.83711537809E+03  0.87296630061E+03 -0.12905607588E+04  0.17687287752E+04  0.46999998093E+01 0. -1.
</event>
<event>
 5   0  0.2730981E-06  0.3340641E+04  0.7818609E-02  0.8152630E-01
        1   -1    0    0  501    0  0.00000000000E+00  0.00000000000E+00  0.20795688873E+04  0.20795688873E+04  0.50400001928E-02 0. -1.
       -1   -1    0    0    0  501  0.00000000000E+00  0.00000000000E+00 -0.13416104126E+04  0.13416104126E+04  0.50400001928E-02 0.  1.
    10030    2    1    2    0    0  0.00000000000E+00  0.00000000000E+00  0.73795847469E+03  0.34211792999E+04  0.33406414192E+04 0.  0.
        3    1    3    3  502    0 -0.35293944479E+02 -0.14915144111E+04  0.11381592894E+04  0.18765040579E+04  0.10100000352E+00 0. -1.
       -3    1    3    3    0  502  0.35293944479E+02  0.14915144111E+04 -0.40020081472E+03  0.15446752420E+04  0.10100000352E+00 0.  1.
</event>
<event>
 5   0  0.1878000E-06  0.3091855E+04  0.7818609E-02  0.8217977E-01
       -3   -1    0    0    0  501  0.00000000000E+00  0.00000000000E+00  0.11849551738E+04  0.11849551781E+04  0.10100000352E+00 0.  1.
        3   -1    0    0  501    0  0.00000000000E+00  0.00000000000E+00 -0.20168620639E+04  0.20168620665E+04  0.10100000352E+00 0. -1.
    10030    2    1    2    0    0  0.00000000000E+00  0.00000000000E+00 -0.83190689012E+03  0.32018172446E+04  0.30918545557E+04 0.  0.
        2    1    3    3  502    0  0.89433019674E+03  0.71543325067E+03 -0.14912571871E+04  0.18802976454E+04  0.25500000920E-02 0. -1.
       -2    1    3    3    0  502 -0.89433019674E+03 -0.71543325067E+03  0.65935029700E+03  0.13215195992E+04  0.25500000920E-02 0.  1.
</event>
<event>
 5   0  0.5637538E-06  0.3097579E+04  0.7818609E-02  0.8216403E-01
        2   -1    0    0  501    0  0.00000000000E+00  0.00000000000E+00  0.18593264410E+04  0.18593264410E+04  0.25500000920E-02 0. -1.
       -2   -1    0    0    0  501  0.00000000000E+00  0.00000000000E+00 -0.12901171787E+04  0.12901171787E+04  0.25500000920E-02 0.  1.
    10030    2    1    2    0    0  0.00000000000E+00  0.00000000000E+00  0.56920926229E+03  0.31494436197E+04  0.30975790432E+04 0.  0.
        2    1    3    3  502    0  0.30545970071E+03  0.12155794948E+04  0.12096791838E+04  0.17419135641E+04  0.25500000920E-02 0. -1.
       -2    1    3    3    0  502 -0.30545970071E+03 -0.12155794948E+04 -0.64046992150E+03  0.14075300556E+04  0.25500000920E-02 0.  1.
</event>
<event>
 5   0  0.2730981E-06  0.3349824E+04  0.7818609E-02  0.8150332E-01
        1   -1    0    0  501    0  0.00000000000E+00  0.00000000000E+00  0.19798739227E+04  0.19798739227E+04  0.50400001928E-02 0.  1.
       -1   -1    0    0    0  501  0.00000000000E+00  0.00000000000E+00 -0.14169234269E+04  0.14169234269E+04  0.50400001928E-02 0. -1.
    10030    2    1    2    0    0  0.00000000000E+00  0.00000000000E+00  0.56295049576E+03  0.33967973497E+04  0.33498237228E+04 0.  0.
        3    1    3    3  502    0  0.11359651774E+04  0.12136356493E+04  0.48929142837E+03  0.17328400058E+04  0.10100000352E+00 0.  1.
       -3    1    3    3    0  502 -0.11359651774E+04 -0.12136356493E+04  0.73659067387E+02  0.16639573438E+04  0.10100000352E+00 0. -1.
</event>
<event>
 5   0  0.5622811E-06  0.3312520E+04  0.7818609E-02  0.8159717E-01
       -2   -1    0    0    0  501  0.00000000000E+00  0.00000000000E+00  0.98363745348E+03  0.98363745348E+03  0.25500000920E-02 0.  1.
        2   -1    0    0  501    0  0.00000000000E+00  0.00000000000E+00 -0.27888287470E+04  0.27888287470E+04  0.25500000920E-02 0. -1.
    10030    2    1    2    0    0  0.00000000000E+00  0.00000000000E+00 -0.18051912935E+04  0.37724662005E+04  0.33125195286E+04 0.  0.
        1    1    3    3  502    0 -0.89694258719E+03  0.13505874609E+03  0.67562732355E+03  0.11310257070E+04  0.50400001928E-02 0.  1.
       -1    1    3    3    0  502  0.89694258719E+03 -0.13505874609E+03 -0.24808186171E+04  0.26414404935E+04  0.50400001928E-02 0. -1.
</event>
<event>
 5   0  0.5300268E-06  0.3355797E+04  0.7818609E-02  0.8148841E-01
        2   -1    0    0  501    0  0.00000000000E+00  0.00000000000E+00  0.11611126853E+04  0.11611126853E+04  0.25500000920E-02 0.  1.
       -2   -1    0    0    0  501  0.00000000000E+00  0.00000000000E+00 -0.24246942415E+04  0.24246942415E+04  0.25500000920E-02 0. -1.
    10030    2    1    2    0    0  0.00000000000E+00  0.00000000000E+00 -0.12635815562E+04  0.35858069268E+04  0.33557969198E+04 0.  0.
        4    1    3    3  502    0  0.88314666790E+03  0.11811488643E+04 -0.14868112669E+04  0.20941991388E+04  0.12699999809E+01 0. -1.
       -4    1    3    3    0  502 -0.88314666790E+03 -0.11811488643E+04  0.22322971070E+03  0.14916077880E+04  0.12699999809E+01 0.  1.
</event>
<event>
 5   0  0.1999849E-06  0.3291261E+04  0.7818609E-02  0.8165123E-01
       -1   -1    0    0    0  501  0.00000000000E+00  0.00000000000E+00  0.95026157172E+03  0.95026157173E+03  0.50400001928E-02 0.  1.
        1   -1    0    0  501    0  0.00000000000E+00  0.00000000000E+00 -0.28498464846E+04  0.28498464846E+04  0.50400001928E-02 0. -1.
    10030    2    1    2    0    0  0.00000000000E+00  0.00000000000E+00 -0.18995849129E+04  0.38001080563E+04  0.32912609132E+04 0.  0.
        5    1    3    3  502    0 -0.19751801103E+03  0.98188483701E+03 -0.24574112234E+04  0.26536772993E+04  0.46999998093E+01 0. -1.
       -5    1    3    3    0  502  0.19751801103E+03 -0.98188483701E+03  0.55782631057E+03  0.11464307570E+04  0.46999998093E+01 0.  1.
</event>
<event>
 5   0  0.5855568E-06  0.3264643E+04  0.7818609E-02  0.8171951E-01
       -2   -1    0    0    0  501  0.00000000000E+00  0.00000000000E+00  0.12333389253E+04  0.12333389253E+04  0.25500000920E-02 0.  1.
        2   -1    0    0  501    0  0.00000000000E+00  0.00000000000E+00 -0.21603742331E+04  0.21603742331E+04  0.25500000920E-02 0. -1.
    10030    2    1    2    0    0  0.00000000000E+00  0.00000000000E+00 -0.92703530782E+03  0.33937131584E+04  0.32646430952E+04 0.  0.
        3    1    3    3  502    0  0.43838169519E+03  0.74242750986E+03  0.97731656506E+03  0.13032746436E+04  0.10100000352E+00 0.  1.
       -3    1    3    3    0  502 -0.43838169519E+03 -0.74242750986E+03 -0.19043518729E+04  0.20904385148E+04  0.10100000352E+00 0. -1.
</event>
<event>
 5   0  0.5622811E-06  0.1929141E+04  0.7818609E-02  0.8640486E-01
       -2   -1    0    0    0  501  0.00000000000E+00  0.00000000000E+00  0.16654681563E+04  0.16654681563E+04  0.25500000920E-02 0.  1.
        2   -1    0    0  501    0  0.00000000000E+00  0.00000000000E+00 -0.55863942558E+03  0.55863942558E+03  0.25500000920E-02 0. -1.
    10030    2    1    2    0    0  0.00000000000E+00  0.00000000000E+00  0.11068287308E+04  0.22241075819E+04  0.19291409219E+04 0.  0.
        1    1    3    3  502    0  0.83238333772E+03 -0.18761444330E+02 -0.80637690229E+01  0.83263379532E+03  0.50400001928E-02 0. -1.
       -1    1    3    3    0  502 -0.83238333772E+03  0.18761444330E+02  0.11148924998E+04  0.13914737866E+04  0.50400001928E-02 0.  1.
</event>
<event>
 5   0  0.2037109E-06  0.3231273E+04  0.7818609E-02  0.8180607E-01
        1   -1    0    0  501    0  0.00000000000E+00  0.00000000000E+00  0.27150727584E+04  0.27150727584E+04  0.50400001928E-02 0. -1.
       -1   -1    0    0    0  501  0.00000000000E+00  0.00000000000E+00 -0.96140356688E+03  0.96140356689E+03  0.50400001928E-02 0.  1.
    10030    2    1    2    0    0  0.00000000000E+00  0.00000000000E+00  0.17536691915E+04  0.36764763253E+04  0.32312725879E+04 0.  0.
        2    1    3    3  502    0 -0.49190305922E+03  0.28743087930E+03  0.25969887332E+04  0.26587470001E+04  0.25500000920E-02 0. -1.
       -2    1    3    3    0  502  0.49190305922E+03 -0.28743087930E+03 -0.84331954167E+03  0.10177293252E+04  0.25500000920E-02 0.  1.
</event>
<event>
 5   0  0.1999849E-06  0.3173585E+04  0.7818609E-02  0.8195828E-01
       -1   -1    0    0    0  501  0.00000000000E+00  0.00000000000E+00  0.76734126798E+03  0.76734126800E+03  0.50400001928E-02 0.  1.
        1   -1    0    0  501    0  0.00000000000E+00  0.00000000000E+00 -0.32813436548E+04  0.32813436549E+04  0.50400001928E-02 0. -1.
    10030    2    1    2    0    0  0.00000000000E+00  0.00000000000E+00 -0.25140023869E+04  0.40486849228E+04  0.31735849765E+04 0.  0.
        5    1    3    3  502    0 -0.43371394864E+03  0.10426297992E+04 -0.26791584811E+04  0.29074210126E+04  0.46999998093E+01 0. -1.
       -5    1    3    3    0  502  0.43371394864E+03 -0.10426297992E+04  0.16515609428E+03  0.11412639103E+04  0.46999998093E+01 0.  1.
</event>
<event>
 5   0  0.1925906E-06  0.3341253E+04  0.7818609E-02  0.8152477E-01
        1   -1    0    0  501    0  0.00000000000E+00  0.00000000000E+00  0.11086098239E+04  0.11086098239E+04  0.50400001928E-02 0.  1.
       -1   -1    0    0    0  501  0.00000000000E+00  0.00000000000E+00 -0.25175609777E+04  0.25175609777E+04  0.50400001928E-02 0. -1.
    10030    2    1    2    0    0  0.00000000000E+00  0.00000000000E+00 -0.14089511537E+04  0.36261708016E+04  0.33412529579E+04 0.  0.
        1    1    3    3  502    0  0.14046146867E+04 -0.82399050919E+03 -0.29972550052E+03  0.16558194808E+04  0.50400001928E-02 0. -1.
       -1    1    3    3    0  502 -0.14046146867E+04  0.82399050919E+03 -0.11092256532E+04  0.19703513208E+04  0.50400001928E-02 0.  1.
</event>
<event>
 5   0  0.5755250E-06  0.3329940E+04  0.7818609E-02  0.8155319E-01
       -2   -1    0    0    0  501  0.00000000000E+00  0.00000000000E+00  0.17264125279E+04  0.17264125279E+04  0.25500000920E-02 0.  1.
        2   -1    0    0  501    0  0.00000000000E+00  0.00000000000E+00 -0.16057145829E+04  0.16057145829E+04  0.25500000920E-02 0. -1.
    10030    2    1    2    0    0  0.00000000000E+00  0.00000000000E+00  0.12069794499E+03  0.33321271107E+04  0.33299404031E+04 0.  0.
        5    1    3    3  502    0 -0.22255305013E+03 -0.11149797649E+03 -0.15869829879E+04  0.16063930879E+04  0.46999998093E+01 0. -1.
       -5    1    3    3    0  502  0.22255305013E+03  0.11149797649E+03  0.17076809329E+04  0.17257340228E+04  0.46999998093E+01 0.  1.
</event>
<event>
 5   0  0.5855568E-06  0.3230648E+04  0.7818609E-02  0.8180770E-01
        2   -1    0    0  501    0  0.00000000000E+00  0.00000000000E+00  0.18842434428E+04  0.18842434428E+04  0.25500000920E-02 0. -1.
       -2   -1    0    0    0  501  0.00000000000E+00  0.00000000000E+00 -0.13847847020E+04  0.13847847020E+04  0.25500000920E-02 0.  1.
    10030    2    1    2    0    0  0.00000000000E+00  0.00000000000E+00  0.49945874084E+03  0.32690281448E+04  0.32306479192E+04 0.  0.
        3    1    3    3  502    0  0.73720658248E+03  0.41542157008E+02 -0.12040264622E+04  0.14124018649E+04  0.10100000352E+00 0.  1.
       -3    1    3    3    0  502 -0.73720658248E+03 -0.41542157008E+02  0.17034852031E+04  0.18566262799E+04  0.10100000352E+00 0. -1.
</event>
<event>
 5   0  0.5300268E-06  0.3378333E+04  0.7818609E-02  0.8143245E-01
       -2   -1    0    0    0  501  0.00000000000E+00  0.00000000000E+00  0.10936049973E+04  0.10936049973E+04  0.25500000920E-02 0.  1.
        2   -1    0    0  501    0  0.00000000000E+00  0.00000000000E+00 -0.26090622665E+04  0.26090622665E+04  0.25500000920E-02 0. -1.
    10030    2    1    2    0    0  0.00000000000E+00  0.00000000000E+00 -0.15154572692E+04  0.37026672639E+04  0.33783330404E+04 0.  0.
        4    1    3    3  502    0 -0.57489122975E+03  0.13382273762E+04  0.17993451106E+03  0.14675593609E+04  0.12699999809E+01 0. -1.
       -4    1    3    3    0  502  0.57489122975E+03 -0.13382273762E+04 -0.16953917803E+04  0.22351079030E+04  0.12699999809E+01 0.  1.
</event>
<event>
 5   0  0.5855568E-06  0.3250541E+04  0.7818609E-02  0.8175595E-01
        2   -1    0    0  501    0  0.00000000000E+00  0.00000000000E+00  0.19820737816E+04  0.19820737816E+04  0.25500000920E-02 0. -1.
       -2   -1    0    0    0  501  0.00000000000E+00  0.00000000000E+00 -0.13326975735E+04  0.13326975735E+04  0.25500000920E-02 0.  1.
    10030    2    1    2    0    0  0.00000000000E+00  0.00000000000E+00  0.64937620809E+03  0.33147713552E+04  0.32505414437E+04 0.  0.
        3    1    3    3  502    0 -0.37647955198E+02  0.15964978835E+04  0.16588912718E+02  0.15970278842E+04  0.10100000352E+00 0.  1.
       -3    1    3    3    0  502  0.37647955198E+02 -0.15964978835E+04  0.63278729538E+03  0.17177434710E+04  0.10100000352E+00 0. -1.
</event>
<event>
 5   0  0.1999849E-06  0.3317287E+04  0.7818609E-02  0.8158510E-01
       -1   -1    0    0    0  501  0.00000000000E+00  0.00000000000E+00  0.12622131988E+04  0.12622131988E+04  0.50400001928E-02 0.  1.
        1   -1    0    0  501    0  0.00000000000E+00  0.00000000000E+00 -0.21795834510E+04  0.21795834510E+04  0.50400001928E-02 0. -1.
    10030    2    1    2    0    0  0.00000000000E+00  0.00000000000E+00 -0.91737025226E+03  0.34417966498E+04  0.33172874459E+04 0.  0.
        5    1    3    3  502    0  0.11294736265E+04 -0.43365476245E+03  0.71849694044E+03  0.14071343466E+04  0.46999998093E+01 0.  1.
       -5    1    3    3    0  502 -0.11294736265E+04  0.43365476245E+03 -0.16358671927E+04  0.20346623032E+04  0.46999998093E+01 0. -1.
</event>
<event>
 5   0  0.2097842E-06  0.3320436E+04  0.7818609E-02  0.8157715E-01
       -1   -1    0    0    0  501  0.00000000000E+00  0.00000000000E+00  0.16560723215E+04  0.16560723215E+04  0.50400001928E-02 0.  1.
        1   -1    0    0  501    0  0.00000000000E+00  0.00000000000E+00 -0.16643744486E+04  0.16643744486E+04  0.50400001928E-02 0. -1.
    10030    2    1    2    0    0  0.00000000000E+00  0.00000000000E+00 -0.83021271734E+01  0.33204467701E+04  0.33204363912E+04 0.  0.
        4    1    3    3  502    0 -0.12001881750E+04  0.77932427660E+03 -0.84589288255E+03  0.16623279957E+04  0.12699999809E+01 0. -1.
       -4    1    3    3    0  502  0.12001881750E+04 -0.77932427660E+03  0.83759075538E+03  0.16581187744E+04  0.12699999809E+01 0.  1.
</event>
<event>
 5   0  0.1999849E-06  0.3217954E+04  0.7818609E-02  0.8184092E-01
        1   -1    0    0  501    0  0.00000000000E+00  0.00000000000E+00  0.17270857573E+04  0.17270857573E+04  0.50400001928E-02 0.  1.
       -1   -1    0    0    0  501  0.00000000000E+00  0.00000000000E+00 -0.14989449101E+04  0.14989449101E+04  0.50400001928E-02 0. -1.
    10030    2    1    2    0    0  0.00000000000E+00  0.00000000000E+00  0.22814084719E+03  0.32260306673E+04  0.32179536386E+04 0.  0.
        5    1    3    3  502    0  0.70703658544E+02  0.13638458227E+04  0.96691709629E+03  0.16733275819E+04  0.46999998093E+01 0.  1.
       -5    1    3    3    0  502 -0.70703658544E+02 -0.13638458227E+04 -0.73877624910E+03  0.15527030854E+04  0.46999998093E+01 0. -1.
</event>
<event>
 5   0  0.2097842E-06  0.3253494E+04  0.7818609E-02  0.8174831E-01
       -1   -1    0    0    0  501  0.00000000000E+00  0.00000000000E+00  0.16484036399E+04  0.16484036399E+04  0.50400001928E-02 0.  1.
        1   -1    0    0  501    0  0.00000000000E+00  0.00000000000E+00 -0.16053750660E+04  0.16053750661E+04  0.50400001928E-02 0. -1.
    10030    2    1    2    0    0  0.00000000000E+00  0.00000000000E+00  0.43028573895E+02  0.32537787060E+04  0.32534941846E+04 0.  0.
        4    1    3    3  502    0  0.44705097624E+03  0.38010728199E+03 -0.14958422977E+04  0.16068235477E+04  0.12699999809E+01 0. -1.
       -4    1    3    3    0  502 -0.44705097624E+03 -0.38010728199E+03  0.15388708715E+04  0.16469551583E+04  0.12699999809E+01 0.  1.
</event>
<event>
 5   0  0.5855568E-06  0.2584884E+04  0.7818609E-02  0.8373354E-01
        2   -1    0    0  501    0  0.00000000000E+00  0.00000000000E+00  0.16651655119E+04  0.16651655119E+04  0.25500000920E-02 0.  1.
       -2   -1    0    0    0  501  0.00000000000E+00  0.00000000000E+00 -0.10031475037E+04  0.10031475037E+04  0.25500000920E-02 0. -1.
    10030    2    1    2    0    0  0.00000000000E+00  0.00000000000E+00  0.66201800817E+03  0.26683130157E+04  0.25848842346E+04 0.  0.
        3    1    3    3  502    0 -0.10002915465E+03  0.12857793931E+04  0.41843084820E+03  0.13558461802E+04  0.10100000352E+00 0.  1.
       -3    1    3    3    0  502  0.10002915465E+03 -0.12857793931E+04  0.24358715997E+03  0.13124668354E+04  0.10100000352E+00 0. -1.
</event>
<event>
 5   0  0.2730981E-06  0.3259010E+04  0.7818609E-02  0.8173404E-01
       -1   -1    0    0    0  501  0.00000000000E+00  0.00000000000E+00  0.13079544073E+04  0.13079544074E+04  0.50400001928E-02 0.  1.
        1   -1    0    0  501    0  0.00000000000E+00  0.00000000000E+00 -0.20301062569E+04  0.20301062569E+04  0.50400001928E-02 0. -1.
    10030    2    1    2    0    0  0.00000000000E+00  0.00000000000E+00 -0.72215184956E+03  0.33380606643E+04  0.32590099270E+04 0.  0.
        3    1    3    3  502    0  0.92641731840E+03 -0.12567349995E+04 -0.83892678943E+03  0.17724079877E+04  0.10100000352E+00 0. -1.
       -3    1    3    3    0  502 -0.92641731840E+03  0.12567349995E+04  0.11677493988E+03  0.15656526765E+04  0.10100000352E+00 0.  1.
</event>
<event>
 5   0  0.5755250E-06  0.2817522E+04  0.7818609E-02  0.8297849E-01
        2   -1    0    0  501    0  0.00000000000E+00  0.00000000000E+00  0.12245280624E+04  0.12245280624E+04  0.25500000920E-02 0. -1.
       -2   -1    0    0    0  501  0.00000000000E+00  0.00000000000E+00 -0.16207127101E+04  0.16207127101E+04  0.25500000920E-02 0.  1.
    10030    2    1    2    0    0  0.00000000000E+00  0.00000000000E+00 -0.39618464766E+03  0.28452407725E+04  0.28175224539E+04 0.  0.
        5    1    3    3  502    0 -0.83576585506E+00  0.13956221533E+03 -0.16137062515E+04  0.16197370980E+04  0.46999998093E+01 0.  1.
       -5    1    3    3    0  502  0.83576585506E+00 -0.13956221533E+03  0.12175216038E+04  0.12255036745E+04  0.46999998093E+01 0. -1.
</event>
<event>
 5   0  0.5855568E-06  0.3200552E+04  0.7818609E-02  0.8188671E-01
       -2   -1    0    0    0  501  0.00000000000E+00  0.00000000000E+00  0.11577938361E+04  0.11577938361E+04  0.25500000920E-02 0.  1.
        2   -1    0    0  501    0  0.00000000000E+00  0.00000000000E+00 -0.22118646329E+04  0.22118646329E+04  0.25500000920E-02 0. -1.
    10030    2    1    2    0    0  0.00000000000E+00  0.00000000000E+00 -0.10540707968E+04  0.33696584690E+04  0.32005519763E+04 0.  0.
        3    1    3    3  502    0  0.11821861920E+04  0.91552987712E+02 -0.16584978976E+04  0.20387646820E+04  0.10100000352E+00 0. -1.
       -3    1    3    3    0  502 -0.11821861920E+04 -0.91552987712E+02  0.60442710075E+03  0.13308937870E+04  0.10100000352E+00 0.  1.
</event>
<event>
 5   0  0.2730981E-06  0.3287406E+04  0.7818609E-02  0.8166107E-01
       -1   -1    0    0    0  501  0.00000000000E+00  0.00000000000E+00  0.11668701831E+04  0.11668701831E+04  0.50400001928E-02 0. -1.
        1   -1    0    0  501    0  0.00000000000E+00  0.00000000000E+00 -0.23153894089E+04  0.23153894089E+04  0.50400001928E-02 0.  1.
    10030    2    1    2    0    0  0.00000000000E+00  0.00000000000E+00 -0.11485192258E+04  0.34822595921E+04  0.32874055811E+04 0.  0.
        3    1    3    3  502    0 -0.31256404656E+03 -0.84208357185E+03  0.88390861075E+03  0.12601965988E+04  0.10100000352E+00 0. -1.
       -3    1    3    3    0  502  0.31256404656E+03  0.84208357185E+03 -0.20324278366E+04  0.22220629933E+04  0.10100000352E+00 0.  1.
</event>
<event>
 5   0  0.5300268E-06  0.1838564E+04  0.7818609E-02  0.8686056E-01
        2   -1    0    0  501    0  0.00000000000E+00  0.00000000000E+00  0.78966554005E+03  0.78966554006E+03  0.25500000920E-02 0.  1.
       -2   -1    0    0    0  501  0.00000000000E+00  0.00000000000E+00 -0.10701738201E+04  0.10701738201E+04  0.25500000920E-02 0. -1.
    10030    2    1    2    0    0  0.00000000000E+00  0.00000000000E+00 -0.28050828009E+03  0.18598393602E+04  0.18385639914E+04 0.  0.
        4    1    3    3  502    0 -0.63853922871E+03  0.22629956052E+03 -0.76884153949E+03  0.10247257016E+04  0.12699999809E+01 0. -1.
       -4    1    3    3    0  502  0.63853922871E+03 -0.22629956052E+03  0.48833325940E+03  0.83511365863E+03  0.12699999809E+01 0.  1.
</event>
<event>
 5   0  0.5755250E-06  0.1962372E+04  0.7818609E-02  0.8624418E-01
       -2   -1    0    0    0  501  0.00000000000E+00  0.00000000000E+00  0.51968211372E+03  0.51968211372E+03  0.25500000920E-02 0.  1.
        2   -1    0    0  501    0  0.00000000000E+00  0.00000000000E+00 -0.18525283011E+04  0.18525283011E+04  0.25500000920E-02 0. -1.
    10030    2    1    2    0    0  0.00000000000E+00  0.00000000000E+00 -0.13328461874E+04  0.23722104149E+04  0.19623718539E+04 0.  0.
        5    1    3    3  502    0 -0.31420443300E+03 -0.47725775090E+03  0.29778376868E+03  0.64435754779E+03  0.46999998093E+01 0.  1.
       -5    1    3    3    0  502  0.31420443300E+03  0.47725775090E+03 -0.16306299561E+04  0.17278528671E+04  0.46999998093E+01 0. -1.
</event>
<event>
 5   0  0.2037109E-06  0.2924090E+04  0.7818609E-02  0.8265746E-01
        1   -1    0    0  501    0  0.00000000000E+00  0.00000000000E+00  0.10243020330E+04  0.10243020330E+04  0.50400001928E-02 0. -1.
       -1   -1    0    0    0  501  0.00000000000E+00  0.00000000000E+00 -0.20868607827E+04  0.20868607827E+04  0.50400001928E-02 0.  1.
    10030    2    1    2    0    0  0.00000000000E+00  0.00000000000E+00 -0.10625587497E+04  0.31111628156E+04  0.29240901096E+04 0.  0.
        2    1    3    3  502    0  0.26675107408E+03 -0.40258206737E+03  0.93698771099E+03  0.10541225864E+04  0.25500000920E-02 0. -1.
       -2    1    3    3    0  502 -0.26675107408E+03  0.40258206737E+03 -0.19995464607E+04  0.20570402293E+04  0.25500000920E-02 0.  1.
</event>
<event>
 5   0  0.2097842E-06  0.3267471E+04  0.7818609E-02  0.8171222E-01
        1   -1    0    0  501    0  0.00000000000E+00  0.00000000000E+00  0.26582880289E+04  0.26582880289E+04  0.50400001928E-02 0. -1.
       -1   -1    0    0    0  501  0.00000000000E+00  0.00000000000E+00 -0.10040640752E+04  0.10040640752E+04  0.50400001928E-02 0.  1.
    10030    2    1    2    0    0  0.00000000000E+00  0.00000000000E+00  0.16542239536E+04  0.36623521041E+04  0.32674708944E+04 0.  0.
        4    1    3    3  502    0  0.16746312452E+03 -0.11404138360E+03  0.26441516094E+04  0.26519028417E+04  0.12699999809E+01 0. -1.
       -4    1    3    3    0  502 -0.16746312452E+03  0.11404138360E+03 -0.98992765581E+03  0.10104492624E+04  0.12699999809E+01 0.  1.
</event>
<event>
 5   0  0.2730981E-06  0.3323729E+04  0.7818609E-02  0.8156884E-01
       -1   -1    0    0    0  501  0.00000000000E+00  0.00000000000E+00  0.18693330828E+04  0.18693330828E+04  0.50400001928E-02 0. -1.
        1   -1    0    0  501    0  0.00000000000E+00  0.00000000000E+00 -0.14774214492E+04  0.14774214492E+04  0.50400001928E-02 0.  1.
    10030    2    1    2    0    0  0.00000000000E+00  0.00000000000E+00  0.39191163362E+03  0.33467545321E+04  0.33237285041E+04 0.  0.
        3    1    3    3  502    0  0.11654434157E+04 -0.48829081024E+03 -0.89092302209E+03  0.15461015853E+04  0.10100000352E+00 0.  1.
       -3    1    3    3    0  502 -0.11654434157E+04  0.48829081024E+03  0.12828346557E+04  0.18006529468E+04  0.10100000352E+00 0. -1.
</event>
<event>
 5   0  0.1999849E-06  0.3270886E+04  0.7818609E-02  0.8170343E-01
       -1   -1    0    0    0  501  0.00000000000E+00  0.00000000000E+00  0.10629970486E+04  0.10629970486E+04  0.50400001928E-02 0.  1.
        1   -1    0    0  501    0  0.00000000000E+00  0.00000000000E+00 -0.25161630610E+04  0.25161630610E+04  0.50400001928E-02 0. -1.
    10030    2    1    2    0    0  0.00000000000E+00  0.00000000000E+00 -0.14531660124E+04  0.35791601096E+04  0.32708860620E+04 0.  0.
        5    1    3    3  502    0 -0.10750696286E+04  0.41970455890E+03 -0.19945538849E+04  0.23043857995E+04  0.46999998093E+01 0. -1.
       -5    1    3    3    0  502  0.10750696286E+04 -0.41970455890E+03  0.54138787255E+03  0.12747743101E+04  0.46999998093E+01 0.  1.
</event>
<event>
 5   0  0.5622811E-06  0.3303885E+04  0.7818609E-02  0.8161908E-01
       -2   -1    0    0    0  501  0.00000000000E+00  0.00000000000E+00  0.13880647111E+04  0.13880647111E+04  0.25500000920E-02 0.  1.
        2   -1    0    0  501    0  0.00000000000E+00  0.00000000000E+00 -0.19659841978E+04  0.19659841978E+04  0.25500000920E-02 0. -1.
    10030    2    1    2    0    0  0.00000000000E+00  0.00000000000E+00 -0.57791948668E+03  0.33540489090E+04  0.33038845547E+04 0.  0.
        1    1    3    3  502    0 -0.97374447989E+03  0.22884835713E+03 -0.16235933572E+04  0.19069885349E+04  0.50400001928E-02 0. -1.
       -1    1    3    3    0  502  0.97374447989E+03 -0.22884835713E+03  0.10456738705E+04  0.14470603741E+04  0.50400001928E-02 0.  1.
</event>
<event>
 5   0  0.1925906E-06  0.3250276E+04  0.7818609E-02  0.8175664E-01
       -1   -1    0    0    0  501  0.00000000000E+00  0.00000000000E+00  0.11268035523E+04  0.11268035523E+04  0.50400001928E-02 0. -1.
        1   -1    0    0  501    0  0.00000000000E+00  0.00000000000E+00 -0.23438630503E+04  0.23438630503E+04  0.50400001928E-02 0.  1.
    10030    2    1    2    0    0  0.00000000000E+00  0.00000000000E+00 -0.12170594981E+04  0.34706666026E+04  0.32502758105E+04 0.  0.
        1    1    3    3  502    0 -0.39149672114E+03 -0.14279752644E+04  0.10673358011E+03  0.14845117364E+04  0.50400001928E-02 0. -1.
       -1    1    3    3    0  502  0.39149672114E+03  0.14279752644E+04 -0.13237930782E+04  0.19861548662E+04  0.50400001928E-02 0.  1.
</event>
<event>
 5   0  0.5622811E-06  0.3432206E+04  0.7818609E-02  0.8130047E-01
       -2   -1    0    0    0  501  0.00000000000E+00  0.00000000000E+00  0.22791851336E+04  0.22791851336E+04  0.25500000920E-02 0.  1.
        2   -1    0    0  501    0  0.00000000000E+00  0.00000000000E+00 -0.12921323368E+04  0.12921323368E+04  0.25500000920E-02 0. -1.
    10030    2    1    2    0    0  0.00000000000E+00  0.00000000000E+00  0.98705279673E+03  0.35713174704E+04  0.34322055957E+04 0.  0.
        1    1    3    3  502    0  0.14423345547E+03 -0.82684733930E+03 -0.10639821827E+04  0.13551892478E+04  0.50400001928E-02 0. -1.
       -1    1    3    3    0  502 -0.14423345547E+03  0.82684733930E+03  0.20510349794E+04  0.22161282226E+04  0.50400001928E-02 0.  1.
</event>
<event>
 5   0  0.2730981E-06  0.3299618E+04  0.7818609E-02  0.8162993E-01
        1   -1    0    0  501    0  0.00000000000E+00  0.00000000000E+00  0.17052479952E+04  0.17052479952E+04  0.50400001928E-02 0.  1.
       -1   -1    0    0    0  501  0.00000000000E+00  0.00000000000E+00 -0.15961727093E+04  0.15961727093E+04  0.50400001928E-02 0. -1.
    10030    2    1    2    0    0  0.00000000000E+00  0.00000000000E+00  0.10907528590E+03  0.33014207044E+04  0.32996183491E+04 0.  0.
        3    1    3    3  502    0  0.43550199615E+03 -0.15686576839E+04 -0.21304326093E+03  0.16418697753E+04  0.10100000352E+00 0. -1.
       -3    1    3    3    0  502 -0.43550199615E+03  0.15686576839E+04  0.32211854682E+03  0.16595509291E+04  0.10100000352E+00 0.  1.
</event>
<event>
 5   0  0.2037109E-06  0.3453671E+04  0.7818609E-02  0.8124858E-01
       -1   -1    0    0    0  501  0.00000000000E+00  0.00000000000E+00  0.11435311188E+04  0.11435311188E+04  0.50400001928E-02 0.  1.
        1   -1    0    0  501    0  0.00000000000E+00  0.00000000000E+00 -0.26076772609E+04  0.26076772609E+04  0.50400001928E-02 0. -1.
    10030    2    1    2    0    0  0.00000000000E+00  0.00000000000E+00 -0.14641461421E+04  0.37512083797E+04  0.34536705666E+04 0.  0.
        2    1    3    3  502    0 -0.48982409115E+03  0.16558163758E+04 -0.75102897418E+03  0.18830029290E+04  0.25500000920E-02 0. -1.
       -2    1    3    3    0  502  0.48982409115E+03 -0.16558163758E+04 -0.71311716791E+03  0.18682054507E+04  0.25500000920E-02 0.  1.
</event>
<event>
 5   0  0.1999849E-06  0.3319611E+04  0.7818609E-02  0.8157923E-01
       -1   -1    0    0    0  501  0.00000000000E+00  0.00000000000E+00  0.25460511154E+04  0.25460511154E+04  0.50400001928E-02 0. -1.
        1   -1    0    0  501    0  0.00000000000E+00  0.00000000000E+00 -0.10820496238E+04  0.10820496238E+04  0.50400001928E-02 0.  1.
    10030    2    1    2    0    0  0.00000000000E+00  0.00000000000E+00  0.14640014916E+04  0.36281007391E+04  0.33196106106E+04 0.  0.
        5    1    3    3  502    0 -0.16070839907E+04 -0.81724400432E+01  0.27853923180E+03  0.16310707941E+04  0.46999998093E+01 0.  1.
       -5    1    3    3    0  502  0.16070839907E+04  0.81724400432E+01  0.11854622598E+04  0.19970299450E+04  0.46999998093E+01 0. -1.
</event>
<event>
 5   0  0.5755250E-06  0.3196148E+04  0.7818609E-02  0.8189835E-01
       -2   -1    0    0    0  501  0.00000000000E+00  0.00000000000E+00  0.19312271775E+04  0.19312271775E+04  0.25500000920E-02 0. -1.
        2   -1    0    0  501    0  0.00000000000E+00  0.00000000000E+00 -0.13223927304E+04  0.13223927304E+04  0.25500000920E-02 0.  1.
    10030    2    1    2    0    0  0.00000000000E+00  0.00000000000E+00  0.60883444710E+03  0.32536199079E+04  0.31961481694E+04 0.  0.
        5    1    3    3  502    0 -0.12117191450E+04 -0.56192720369E+03  0.11975724698E+04  0.17939418550E+04  0.46999998093E+01 0.  1.
       -5    1    3    3    0  502  0.12117191450E+04  0.56192720369E+03 -0.58873802269E+03  0.14596780529E+04  0.46999998093E+01 0. -1.
</event>
<event>
 5   0  0.5755250E-06  0.2484883E+04  0.7818609E-02  0.8408391E-01
       -2   -1    0    0    0  501  0.00000000000E+00  0.00000000000E+00  0.78705677488E+03  0.78705677488E+03  0.25500000920E-02 0.  1.
        2   -1    0    0  501    0  0.00000000000E+00  0.00000000000E+00 -0.19613083937E+04  0.19613083937E+04  0.25500000920E-02 0. -1.
    10030    2    1    2    0    0  0.00000000000E+00  0.00000000000E+00 -0.11742516188E+04  0.27483651685E+04  0.24848831432E+04 0.  0.
        5    1    3    3  502    0 -0.95316924357E+03  0.75486687236E+03 -0.86972423527E+03  0.14949240574E+04  0.46999998093E+01 0.  1.
       -5    1    3    3    0  502  0.95316924357E+03 -0.75486687236E+03 -0.30452738352E+03  0.12534411112E+04  0.46999998093E+01 0. -1.
</event>
<event>
 5   0  0.5755250E-06  0.3177566E+04  0.7818609E-02  0.8194767E-01
        2   -1    0    0  501    0  0.00000000000E+00  0.00000000000E+00  0.22332778073E+04  0.22332778073E+04  0.25500000920E-02 0.  1.
       -2   -1    0    0    0  501  0.00000000000E+00  0.00000000000E+00 -0.11302806683E+04  0.11302806683E+04  0.25500000920E-02 0. -1.
    10030    2    1    2    0    0  0.00000000000E+00  0.00000000000E+00  0.11029971390E+04  0.33635584756E+04  0.31775655667E+04 0.  0.
        5    1    3    3  502    0 -0.91422087626E+03  0.47620397054E+03 -0.72824944681E+03  0.12621170227E+04  0.46999998093E+01 0. -1.
       -5    1    3    3    0  502  0.91422087626E+03 -0.47620397054E+03  0.18312465858E+04  0.21014414530E+04  0.46999998093E+01 0.  1.
</event>
<event>
 5   0  0.2097842E-06  0.3247064E+04  0.7818609E-02  0.8176497E-01
        1   -1    0    0  501    0  0.00000000000E+00  0.00000000000E+00  0.12872146339E+04  0.12872146339E+04  0.50400001928E-02 0.  1.
       -1   -1    0    0    0  501  0.00000000000E+00  0.00000000000E+00 -0.20477206301E+04  0.20477206301E+04  0.50400001928E-02 0. -1.
    10030    2    1    2    0    0  0.00000000000E+00  0.00000000000E+00 -0.76050599624E+03  0.33349352640E+04  0.32470638806E+04 0.  0.
        4    1    3    3  502    0 -0.10193086844E+04 -0.64701435581E+03 -0.14950937250E+04  0.19216983713E+04  0.12699999809E+01 0.  1.
       -4    1    3    3    0  502  0.10193086844E+04  0.64701435581E+03  0.73458772879E+03  0.14132368927E+04  0.12699999809E+01 0. -1.
</event>
<event>
 5   0  0.5637538E-06  0.1853532E+04  0.7818609E-02  0.8678339E-01
        2   -1    0    0  501    0  0.00000000000E+00  0.00000000000E+00  0.11462515679E+04  0.11462515679E+04  0.25500000920E-02 0. -1.
       -2   -1    0    0    0  501  0.00000000000E+00  0.00000000000E+00 -0.74930784122E+03  0.74930784123E+03  0.25500000920E-02 0.  1.
    10030    2    1    2    0    0  0.00000000000E+00  0.00000000000E+00  0.39694372669E+03  0.18955594091E+04  0.18535320746E+04 0.  0.
        2    1    3    3  502    0  0.20823680256E+03 -0.67586779237E+03 -0.41405401509E+03  0.81951239535E+03  0.25500000920E-02 0.  1.
       -2    1    3    3    0  502 -0.20823680256E+03  0.67586779237E+03  0.81099774179E+03  0.10760470138E+04  0.25500000920E-02 0. -1.
</event>
<event>
 5   0  0.5855568E-06  0.3270116E+04  0.7818609E-02  0.8170541E-01
       -2   -1    0    0    0  501  0.00000000000E+00  0.00000000000E+00  0.15772243008E+04  0.15772243008E+04  0.25500000920E-02 0.  1.
        2   -1    0    0  501    0  0.00000000000E+00  0.00000000000E+00 -0.16950122200E+04  0.16950122200E+04  0.25500000920E-02 0. -1.
    10030    2    1    2    0    0  0.00000000000E+00  0.00000000000E+00 -0.11778791919E+03  0.32722365208E+04  0.32701158778E+04 0.  0.
        3    1    3    3  502    0  0.71345401694E+03 -0.49527231446E+03 -0.14451093128E+04  0.16860166773E+04  0.10100000352E+00 0. -1.
       -3    1    3    3    0  502 -0.71345401694E+03  0.49527231446E+03  0.13273213936E+04  0.15862198435E+04  0.10100000352E+00 0.  1.
</event>
<event>
 5   0  0.1925906E-06  0.2604480E+04  0.7818609E-02  0.8366681E-01
        1   -1    0    0  501    0  0.00000000000E+00  0.00000000000E+00  0.64004653146E+03  0.64004653148E+03  0.50400001928E-02 0. -1.
       -1   -1    0    0    0  501  0.00000000000E+00  0.00000000000E+00 -0.26495395246E+04  0.26495395246E+04  0.50400001928E-02 0.  1.
    10030    2    1    2    0    0  0.00000000000E+00  0.00000000000E+00 -0.20094929932E+04  0.32895860561E+04  0.26044796661E+04 0.  0.
        1    1    3    3  502    0 -0.11042275646E+04  0.48861741471E+03 -0.38887160425E+03  0.12685766106E+04  0.50400001928E-02 0. -1.
       -1    1    3    3    0  502  0.11042275646E+04 -0.48861741471E+03 -0.16206213889E+04  0.20210094455E+04  0.50400001928E-02 0.  1.
</event>
<event>
 5   0  0.5855568E-06  0.3356688E+04  0.7818609E-02  0.8148619E-01
       -2   -1    0    0    0  501  0.00000000000E+00  0.00000000000E+00  0.15740949369E+04  0.15740949369E+04  0.25500000920E-02 0. -1.
        2   -1    0    0  501    0  0.00000000000E+00  0.00000000000E+00 -0.17894974417E+04  0.17894974417E+04  0.25500000920E-02 0.  1.
    10030    2    1    2    0    0  0.00000000000E+00  0.00000000000E+00 -0.21540250485E+03  0.33635923786E+04  0.33566881670E+04 0.  0.
        3    1    3    3  502    0  0.19385906215E+03 -0.12974817181E+04 -0.11566584182E+04  0.17489707978E+04  0.10100000352E+00 0.  1.
       -3    1    3    3    0  502 -0.19385906215E+03  0.12974817181E+04  0.94125591338E+03  0.16146215809E+04  0.10100000352E+00 0. -1.
</event>
<event>
 5   0  0.2097842E-06  0.3267403E+04  0.7818609E-02  0.8171239E-01
       -1   -1    0    0    0  501  0.00000000000E+00  0.00000000000E+00  0.15596252633E+04  0.15596252634E+04  0.50400001928E-02 0.  1.
        1   -1    0    0  501    0  0.00000000000E+00  0.00000000000E+00 -0.17112965538E+04  0.17112965538E+04  0.50400001928E-02 0. -1.
    10030    2    1    2    0    0  0.00000000000E+00  0.00000000000E+00 -0.15167129043E+03  0.32709218171E+04  0.32674034574E+04 0.  0.
        4    1    3    3  502    0  0.95104514040E+03 -0.57804480817E+03 -0.12730988405E+04  0.16909775073E+04  0.12699999809E+01 0. -1.
       -4    1    3    3    0  502 -0.95104514040E+03  0.57804480817E+03  0.11214275501E+04  0.15799443099E+04  0.12699999809E+01 0.  1.
</event>
<event>
 5   0  0.5755250E-06  0.3316108E+04  0.7818609E-02  0.8158809E-01
       -2   -1    0    0    0  501  0.00000000000E+00  0.00000000000E+00  0.18803203621E+04  0.18803203621E+04  0.25500000920E-02 0. -1.
        2   -1    0    0  501    0  0.00000000000E+00  0.00000000000E+00 -0.14620610297E+04  0.14620610297E+04  0.25500000920E-02 0.  1.
    10030    2    1    2    0    0  0.00000000000E+00  0.00000000000E+00  0.41825933242E+03  0.33423813918E+04  0.33161080349E+04 0.  0.
        5    1    3    3  502    0 -0.24714281387E+03 -0.98014240104E+03  0.15338343048E+04  0.18369617474E+04  0.46999998093E+01 0. -1.
       -5    1    3    3    0  502  0.24714281387E+03  0.98014240104E+03 -0.11155749724E+04  0.15054196444E+04  0.46999998093E+01 0.  1.
</event>
<event>
 5   0  0.2730981E-06  0.1894658E+04  0.7818609E-02  0.8657520E-01
       -1   -1    0    0    0  501  0.00000000000E+00  0.00000000000E+00  0.50401654824E+03  0.50401654827E+03  0.50400001928E-02 0. -1.
        1   -1    0    0  501    0  0.00000000000E+00  0.00000000000E+00 -0.17805606443E+04  0.17805606443E+04  0.50400001928E-02 0.  1.
    10030    2    1    2    0    0  0.00000000000E+00  0.00000000000E+00 -0.12765440960E+04  0.22845771926E+04  0.18946577843E+04 0.  0.
        3    1    3    3  502    0 -0.15698961044E+03 -0.88024590992E+03 -0.26088685164E+03  0.93141857361E+03  0.10100000352E+00 0. -1.
       -3    1    3    3    0  502  0.15698961044E+03  0.88024590992E+03 -0.10156572444E+04  0.13531586189E+04  0.10100000352E+00 0.  1.
</event>
<event>
 5   0  0.5637538E-06  0.1656386E+04  0.7818609E-02  0.8786638E-01
       -2   -1    0    0    0  501  0.00000000000E+00  0.00000000000E+00  0.55145809063E+03  0.55145809064E+03  0.25500000920E-02 0.  1.
        2   -1    0    0  501    0  0.00000000000E+00  0.00000000000E+00 -0.12437996385E+04  0.12437996385E+04  0.25500000920E-02 0. -1.
    10030    2    1    2    0    0  0.00000000000E+00  0.00000000000E+00 -0.69234154785E+03  0.17952577291E+04  0.16563856722E+04 0.  0.
        2    1    3    3  502    0  0.47070455875E+03 -0.14775537617E+03  0.37481445129E+03  0.61958074996E+03  0.25500000920E-02 0.  1.
       -2    1    3    3    0  502 -0.47070455875E+03  0.14775537617E+03 -0.10671559991E+04  0.11756769792E+04  0.25500000920E-02 0. -1.
</event>
<event>
 5   0  0.1999849E-06  0.3271088E+04  0.7818609E-02  0.8170291E-01
        1   -1    0    0  501    0  0.00000000000E+00  0.00000000000E+00  0.10260364722E+04  0.10260364722E+04  0.50400001928E-02 0.  1.
       -1   -1    0    0    0  501  0.00000000000E+00  0.00000000000E+00 -0.26071238020E+04  0.26071238020E+04  0.50400001928E-02 0. -1.
    10030    2    1    2    0    0  0.00000000000E+00  0.00000000000E+00 -0.15810873298E+04  0.36331602742E+04  0.32710879588E+04 0.  0.
        5    1    3    3  502    0 -0.29298231302E+03  0.10905208817E+04  0.52359749669E+03  0.12446890607E+04  0.46999998093E+01 0.  1.
       -5    1    3    3    0  502  0.29298231302E+03 -0.10905208817E+04 -0.21046848265E+04  0.23884712135E+04  0.46999998093E+01 0. -1.
</event>
<event>
 5   0  0.2037109E-06  0.3167096E+04  0.7818609E-02  0.8197562E-01
        1   -1    0    0  501    0  0.00000000000E+00  0.00000000000E+00  0.18455616694E+04  0.18455616694E+04  0.50400001928E-02 0. -1.
       -1   -1    0    0    0  501  0.00000000000E+00  0.00000000000E+00 -0.13587320495E+04  0.13587320495E+04  0.50400001928E-02 0.  1.
    10030    2    1    2    0    0  0.00000000000E+00  0.00000000000E+00  0.48682961993E+03  0.32042937189E+04  0.31670956976E+04 0.  0.
        2    1    3    3  502    0  0.27541323492E+03  0.75807626566E+03  0.16221720577E+04  0.18116219968E+04  0.25500000920E-02 0. -1.
       -2    1    3    3    0  502 -0.27541323492E+03 -0.75807626566E+03 -0.11353424377E+04  0.13926717221E+04  0.25500000920E-02 0.  1.
</event>
<event>
 5   0  0.1999849E-06  0.3346006E+04  0.7818609E-02  0.8151287E-01
        1   -1    0    0  501    0  0.00000000000E+00  0.00000000000E+00  0.20139240070E+04  0.20139240070E+04  0.50400001928E-02 0. -1.
       -1   -1    0    0    0  501  0.00000000000E+00  0.00000000000E+00 -0.13897941842E+04  0.13897941842E+04  0.50400001928E-02 0.  1.
    10030    2    1    2    0    0  0.00000000000E+00  0.00000000000E+00  0.62412982282E+03  0.34037181912E+04  0.33460064987E+04 0.  0.
        5    1    3    3  502    0 -0.48439234937E+03 -0.99002534135E+03  0.15923964751E+04  0.19366297397E+04  0.46999998093E+01 0. -1.
       -5    1    3    3    0  502  0.48439234937E+03  0.99002534135E+03 -0.96826665232E+03  0.14670884515E+04  0.46999998093E+01 0.  1.
</event>
<event>
 5   0  0.5755250E-06  0.3328836E+04  0.7818609E-02  0.8155597E-01
        2   -1    0    0  501    0  0.00000000000E+00  0.00000000000E+00  0.22655601715E+04  0.22655601715E+04  0.25500000920E-02 0.  1.
       -2   -1    0    0    0  501  0.00000000000E+00  0.00000000000E+00 -0.12227826728E+04  0.12227826728E+04  0.25500000920E-02 0. -1.
    10030    2    1    2    0    0  0.00000000000E+00  0.00000000000E+00  0.10427774987E+04  0.34883428443E+04  0.33288362663E+04 0.  0.
        5    1    3    3  502    0 -0.51443270049E+03  0.15814582033E+04  0.59257445605E+03  0.17654511118E+04  0.46999998093E+01 0. -1.
       -5    1    3    3    0  502  0.51443270049E+03 -0.15814582033E+04  0.45020304260E+03  0.17228917325E+04  0.46999998093E+01 0.  1.
</event>
<event>
 5   0  0.1999849E-06  0.3300896E+04  0.7818609E-02  0.8162668E-01
       -1   -1    0    0    0  501  0.00000000000E+00  0.00000000000E+00  0.94298513248E+03  0.94298513249E+03  0.50400001928E-02 0. -1.
        1   -1    0    0  501    0  0.00000000000E+00  0.00000000000E+00 -0.28886756159E+04  0.28886756159E+04  0.50400001928E-02 0.  1.
    10030    2    1    2    0    0  0.00000000000E+00  0.00000000000E+00 -0.19456904834E+04  0.38316607484E+04  0.33008957320E+04 0.  0.
        5    1    3    3  502    0  0.90660584999E+03 -0.63403719977E+03 -0.23945309085E+04  0.26377523955E+04  0.46999998093E+01 0.  1.
       -5    1    3    3    0  502 -0.90660584999E+03  0.63403719977E+03  0.44884042512E+03  0.11939083529E+04  0.46999998093E+01 0. -1.
</event>
<event>
 5   0  0.5622811E-06  0.3340504E+04  0.7818609E-02  0.8152665E-01
        2   -1    0    0  501    0  0.00000000000E+00  0.00000000000E+00  0.17206061999E+04  0.17206061999E+04  0.25500000920E-02 0.  1.
       -2   -1    0    0    0  501  0.00000000000E+00  0.00000000000E+00 -0.16213713663E+04  0.16213713663E+04  0.25500000920E-02 0. -1.
    10030    2    1    2    0    0  0.00000000000E+00  0.00000000000E+00  0.99234833552E+02  0.33419775662E+04  0.33405039291E+04 0.  0.
        1    1    3    3  502    0 -0.15991741970E+04 -0.47653177903E+03  0.12245734007E+03  0.16731516515E+04  0.50400001928E-02 0. -1.
       -1    1    3    3    0  502  0.15991741970E+04  0.47653177903E+03 -0.23222506518E+02  0.16688259147E+04  0.50400001928E-02 0.  1.
</event>
<event>
 5   0  0.5755250E-06  0.3273377E+04  0.7818609E-02  0.8169703E-01
        2   -1    0    0  501    0  0.00000000000E+00  0.00000000000E+00  0.90728063510E+03  0.90728063510E+03  0.25500000920E-02 0.  1.
       -2   -1    0    0    0  501  0.00000000000E+00  0.00000000000E+00 -0.29525040787E+04  0.29525040787E+04  0.25500000920E-02 0. -1.
    10030    2    1    2    0    0  0.00000000000E+00  0.00000000000E+00 -0.20452234436E+04  0.38597847138E+04  0.32733773236E+04 0.  0.
        5    1    3    3  502    0  0.14593571951E+04  0.24771159143E+03 -0.19919797731E+03  0.14935817285E+04  0.46999998093E+01 0.  1.
       -5    1    3    3    0  502 -0.14593571951E+04 -0.24771159143E+03 -0.18460254663E+04  0.23662029853E+04  0.46999998093E+01 0. -1.
</event>
<event>
 5   0  0.5755250E-06  0.2577466E+04  0.7818609E-02  0.8375896E-01
       -2   -1    0    0    0  501  0.00000000000E+00  0.00000000000E+00  0.77664733340E+03  0.77664733341E+03  0.25500000920E-02 0.  1.
        2   -1    0    0  501    0  0.00000000000E+00  0.00000000000E+00 -0.21384638147E+04  0.21384638147E+04  0.25500000920E-02 0. -1.
    10030    2    1    2    0    0  0.00000000000E+00  0.00000000000E+00 -0.13618164813E+04  0.29151111481E+04  0.25774655918E+04 0.  0.
        5    1    3    3  502    0 -0.11159170439E+04 -0.44162356193E+03 -0.12120058277E+04  0.17056618762E+04  0.46999998093E+01 0. -1.
       -5    1    3    3    0  502  0.11159170439E+04  0.44162356193E+03 -0.14981065353E+03  0.12094492719E+04  0.46999998093E+01 0.  1.
</event>
<event>
 5   0  0.1999849E-06  0.3295311E+04  0.7818609E-02  0.8164090E-01
       -1   -1    0    0    0  501  0.00000000000E+00  0.00000000000E+00  0.10762331197E+04  0.10762331197E+04  0.50400001928E-02 0. -1.
        1   -1    0    0  501    0  0.00000000000E+00  0.00000000000E+00 -0.25224727956E+04  0.25224727956E+04  0.50400001928E-02 0.  1.
    10030    2    1    2    0    0  0.00000000000E+00  0.00000000000E+00 -0.14462396760E+04  0.35987059153E+04  0.32953110725E+04 0.  0.
        5    1    3    3  502    0  0.14587386319E+04  0.49672680582E+03 -0.13599848006E+04  0.20552947875E+04  0.46999998093E+01 0.  1.
       -5    1    3    3    0  502 -0.14587386319E+04 -0.49672680582E+03 -0.86254875403E+02  0.15434111278E+04  0.46999998093E+01 0. -1.
</event>
<event>
 5   0  0.1999849E-06  0.3260157E+04  0.7818609E-02  0.8173108E-01
       -1   -1    0    0    0  501  0.00000000000E+00  0.00000000000E+00  0.13938116964E+04  0.13938116964E+04  0.50400001928E-02 0.  1.
        1   -1    0    0  501    0  0.00000000000E+00  0.00000000000E+00 -0.19063950546E+04  0.19063950546E+04  0.50400001928E-02 0. -1.
    10030    2    1    2    0    0  0.00000000000E+00  0.00000000000E+00 -0.51258335823E+03  0.33002067510E+04  0.32601568827E+04 0.  0.
        5    1    3    3  502    0  0.12577983473E+04 -0.49559424882E+03 -0.11782286579E+04  0.17932972989E+04  0.46999998093E+01 0. -1.
       -5    1    3    3    0  502 -0.12577983473E+04  0.49559424882E+03  0.66564529964E+03  0.15069094521E+04  0.46999998093E+01 0.  1.
</event>
<event>
 5   0  0.5755250E-06  0.3540644E+04  0.7818609E-02  0.8104225E-01
       -2   -1    0    0    0  501  0.00000000000E+00  0.00000000000E+00  0.11608164981E+04  0.11608164981E+04  0.25500000920E-02 0.  1.
        2   -1    0    0  501    0  0.00000000000E+00  0.00000000000E+00 -0.26998581485E+04  0.26998581485E+04  0.25500000920E-02 0. -1.
    10030    2    1    2    0    0  0.00000000000E+00  0.00000000000E+00 -0.15390416503E+04  0.38606746466E+04  0.35406439422E+04 0.  0.
        5    1    3    3  502    0  0.53083534915E+03  0.46091083580E+03  0.10020799866E+04  0.12240961384E+04  0.46999998093E+01 0.  1.
       -5    1    3    3    0  502 -0.53083534915E+03 -0.46091083580E+03 -0.25411216369E+04  0.26365785082E+04  0.46999998093E+01 0. -1.
</event>
<event>
 5   0  0.2097842E-06  0.1990548E+04  0.7818609E-02  0.8611052E-01
        1   -1    0    0  501    0  0.00000000000E+00  0.00000000000E+00  0.11750056130E+04  0.11750056130E+04  0.50400001928E-02 0. -1.
       -1   -1    0    0    0  501  0.00000000000E+00  0.00000000000E+00 -0.84303484062E+03  0.84303484064E+03  0.50400001928E-02 0.  1.
    10030    2    1    2    0    0  0.00000000000E+00  0.00000000000E+00  0.33197077235E+03  0.20180404536E+04  0.19905483362E+04 0.  0.
        4    1    3    3  502    0 -0.92987700771E+02 -0.32580608396E+03  0.11147377071E+04  0.11650914494E+04  0.12699999809E+01 0. -1.
       -4    1    3    3    0  502  0.92987700771E+02  0.32580608396E+03 -0.78276693474E+03  0.85294900426E+03  0.12699999809E+01 0.  1.
</event>
<event>
 5   0  0.5622811E-06  0.3150838E+04  0.7818609E-02  0.8201923E-01
       -2   -1    0    0    0  501  0.00000000000E+00  0.00000000000E+00  0.10906101299E+04  0.10906101299E+04  0.25500000920E-02 0. -1.
        2   -1    0    0  501    0  0.00000000000E+00  0.00000000000E+00 -0.22757393912E+04  0.22757393912E+04  0.25500000920E-02 0.  1.
    10030    2    1    2    0    0  0.00000000000E+00  0.00000000000E+00 -0.11851292613E+04  0.33663495211E+04  0.31508376239E+04 0.  0.
        1    1    3    3  502    0 -0.52473532127E+03 -0.12674833645E+04 -0.14201997596E+04  0.19745451613E+04  0.50400001928E-02 0.  1.
       -1    1    3    3    0  502  0.52473532127E+03  0.12674833645E+04  0.23507049833E+03  0.13918043598E+04  0.50400001928E-02 0. -1.
</event>
<event>
 5   0  0.1999849E-06  0.2982095E+04  0.7818609E-02  0.8248862E-01
        1   -1    0    0  501    0  0.00000000000E+00  0.00000000000E+00  0.20980243747E+04  0.20980243747E+04  0.50400001928E-02 0.  1.
       -1   -1    0    0    0  501  0.00000000000E+00  0.00000000000E+00 -0.10596740208E+04  0.10596740208E+04  0.50400001928E-02 0. -1.
    10030    2    1    2    0    0  0.00000000000E+00  0.00000000000E+00  0.10383503539E+04  0.31576983955E+04  0.29820945155E+04 0.  0.
        5    1    3    3  502    0  0.99620050645E+02 -0.90328900704E+03 -0.73252700902E+03  0.11672502275E+04  0.46999998093E+01 0. -1.
       -5    1    3    3    0  502 -0.99620050645E+02  0.90328900704E+03  0.17708773629E+04  0.19904481679E+04  0.46999998093E+01 0.  1.
</event>
<event>
 5   0  0.1925906E-06  0.2129066E+04  0.7818609E-02  0.8548547E-01
       -1   -1    0    0    0  501  0.00000000000E+00  0.00000000000E+00  0.65316283821E+03  0.65316283822E+03  0.50400001928E-02 0.  1.
        1   -1    0    0  501    0  0.00000000000E+00  0.00000000000E+00 -0.17349889154E+04  0.17349889154E+04  0.50400001928E-02 0. -1.
    10030    2    1    2    0    0  0.00000000000E+00  0.00000000000E+00 -0.10818260772E+04  0.23881517536E+04  0.21290657897E+04 0.  0.
        1    1    3    3  502    0 -0.73478651575E+03  0.76990666454E+03 -0.51430300612E+03  0.11820216064E+04  0.50400001928E-02 0.  1.
       -1    1    3    3    0  502  0.73478651575E+03 -0.76990666454E+03 -0.56752307103E+03  0.12061301472E+04  0.50400001928E-02 0. -1.
</event>
<event>
 5   0  0.1925906E-06  0.3413996E+04  0.7818609E-02  0.8134480E-01
        1   -1    0    0  501    0  0.00000000000E+00  0.00000000000E+00  0.29149097989E+04  0.29149097989E+04  0.50400001928E-02 0. -1.
       -1   -1    0    0    0  501  0.00000000000E+00  0.00000000000E+00 -0.99963346778E+03  0.99963346779E+03  0.50400001928E-02 0.  1.
    10030    2    1    2    0    0  0.00000000000E+00  0.00000000000E+00  0.19152763311E+04  0.39145432666E+04  0.34139955422E+04 0.  0.
        1    1    3    3  502    0 -0.96865123131E+03  0.13979945998E+04  0.11244591541E+04  0.20388924686E+04  0.50400001928E-02 0.  1.
       -1    1    3    3    0  502  0.96865123131E+03 -0.13979945998E+04  0.79081717695E+03  0.18756507981E+04  0.50400001928E-02 0. -1.
</event>
<event>
 5   0  0.2097842E-06  0.3156576E+04  0.7818609E-02  0.8200380E-01
       -1   -1    0    0    0  501  0.00000000000E+00  0.00000000000E+00  0.10789655797E+04  0.10789655797E+04  0.50400001928E-02 0. -1.
        1   -1    0    0  501    0  0.00000000000E+00  0.00000000000E+00 -0.23086861848E+04  0.23086861848E+04  0.50400001928E-02 0.  1.
    10030    2    1    2    0    0  0.00000000000E+00  0.00000000000E+00 -0.12297206051E+04  0.33876517644E+04  0.31565759472E+04 0.  0.
        4    1    3    3  502    0 -0.77360013650E+03  0.10016359093E+04 -0.16268982812E+04  0.20611965691E+04  0.12699999809E+01 0.  1.
       -4    1    3    3    0  502  0.77360013650E+03 -0.10016359093E+04  0.39717767612E+03  0.13264551954E+04  0.12699999809E+01 0. -1.
</event>
<event>
 5   0  0.5300268E-06  0.2221344E+04  0.7818609E-02  0.8509596E-01
       -2   -1    0    0    0  501  0.00000000000E+00  0.00000000000E+00  0.75174838521E+03  0.75174838521E+03  0.25500000920E-02 0.  1.
        2   -1    0    0  501    0  0.00000000000E+00  0.00000000000E+00 -0.16409648750E+04  0.16409648750E+04  0.25500000920E-02 0. -1.
    10030    2    1    2    0    0  0.00000000000E+00  0.00000000000E+00 -0.88921648984E+03  0.23927132603E+04  0.22213443632E+04 0.  0.
        4    1    3    3  502    0 -0.74430851638E+03  0.73628045685E+02  0.43981679930E+03  0.86767314498E+03  0.12699999809E+01 0.  1.
       -4    1    3    3    0  502  0.74430851638E+03 -0.73628045685E+02 -0.13290332891E+04  0.15250401153E+04  0.12699999809E+01 0. -1.
</event>
<event>
 5   0  0.5622811E-06  0.1681365E+04  0.7818609E-02  0.8772065E-01
        2   -1    0    0  501    0  0.00000000000E+00  0.00000000000E+00  0.11376435431E+04  0.11376435431E+04  0.25500000920E-02 0. -1.
       -2   -1    0    0    0  501  0.00000000000E+00  0.00000000000E+00 -0.62123756516E+03  0.62123756516E+03  0.25500000920E-02 0.  1.
    10030    2    1    2    0    0  0.00000000000E+00  0.00000000000E+00  0.51640597797E+03  0.17588811083E+04  0.16813648084E+04 0.  0.
        1    1    3    3  502    0  0.83338170921E+02  0.82335658325E+03  0.10344478935E+03  0.83400368007E+03  0.50400001928E-02 0.  1.
       -1    1    3    3    0  502 -0.83338170921E+02 -0.82335658325E+03  0.41296118862E+03  0.92487742822E+03  0.50400001928E-02 0. -1.
</event>
<event>
 5   0  0.2097842E-06  0.1846751E+04  0.7818609E-02  0.8681826E-01
        1   -1    0    0  501    0  0.00000000000E+00  0.00000000000E+00  0.64337699336E+03  0.64337699338E+03  0.50400001928E-02 0.  1.
       -1   -1    0    0    0  501  0.00000000000E+00  0.00000000000E+00 -0.13252290852E+04  0.13252290852E+04  0.50400001928E-02 0. -1.
    10030    2    1    2    0    0  0.00000000000E+00  0.00000000000E+00 -0.68185209183E+03  0.19686060786E+04  0.18467505564E+04 0.  0.
        4    1    3    3  502    0 -0.52364267027E+03 -0.40956166084E+03 -0.10240527221E+04  0.12209127695E+04  0.12699999809E+01 0. -1.
       -4    1    3    3    0  502  0.52364267027E+03  0.40956166084E+03  0.34220063029E+03  0.74769330907E+03  0.12699999809E+01 0.  1.
</event>
<event>
 5   0  0.5755250E-06  0.2987325E+04  0.7818609E-02  0.8247360E-01
        2   -1    0    0  501    0  0.00000000000E+00  0.00000000000E+00  0.19878774183E+04  0.19878774183E+04  0.25500000920E-02 0.  1.
       -2   -1    0    0    0  501  0.00000000000E+00  0.00000000000E+00 -0.11223163962E+04  0.11223163962E+04  0.25500000920E-02 0. -1.
    10030    2    1    2    0    0  0.00000000000E+00  0.00000000000E+00  0.86556102207E+03  0.31101938145E+04  0.29873248368E+04 0.  0.
        5    1    3    3  502    0 -0.13300330021E+04  0.63060427612E+03  0.69689900880E+03  0.16286005827E+04  0.46999998093E+01 0.  1.
       -5    1    3    3    0  502  0.13300330021E+04 -0.63060427612E+03  0.16866201328E+03  0.14815932317E+04  0.46999998093E+01 0. -1.
</event>
<event>
 5   0  0.5855568E-06  0.3506931E+04  0.7818609E-02  0.8112149E-01
       -2   -1    0    0    0  501  0.00000000000E+00  0.00000000000E+00  0.11351283818E+04  0.11351283818E+04  0.25500000920E-02 0. -1.
        2   -1    0    0  501    0  0.00000000000E+00  0.00000000000E+00 -0.27086293393E+04  0.27086293393E+04  0.25500000920E-02 0.  1.
    10030    2    1    2    0    0  0.00000000000E+00  0.00000000000E+00 -0.15735009575E+04  0.38437577210E+04  0.35069314442E+04 0.  0.
        3    1    3    3  502    0  0.11694734915E+04 -0.12169032650E+04 -0.13079433099E+04  0.21352371100E+04  0.10100000352E+00 0.  1.
       -3    1    3    3    0  502 -0.11694734915E+04  0.12169032650E+04 -0.26555764758E+03  0.17085206110E+04  0.10100000352E+00 0. -1.
</event>
<event>
 5   0  0.5300268E-06  0.2682031E+04  0.7818609E-02  0.8340859E-01
        2   -1    0    0  501    0  0.00000000000E+00  0.00000000000E+00  0.21040610693E+04  0.21040610693E+04  0.25500000920E-02 0.  1.
       -2   -1    0    0    0  501  0.00000000000E+00  0.00000000000E+00 -0.85469101880E+03  0.85469101881E+03  0.25500000920E-02 0. -1.
    10030    2    1    2    0    0  0.00000000000E+00  0.00000000000E+00  0.12493700505E+04  0.29587520881E+04  0.26820306478E+04 0.  0.
        4    1    3    3  502    0  0.10052510094E+03 -0.13372263918E+04  0.61764134071E+03  0.14764017602E+04  0.12699999809E+01 0. -1.
       -4    1    3    3    0  502 -0.10052510094E+03  0.13372263918E+04  0.63172870980E+03  0.14823503279E+04  0.12699999809E+01 0.  1.
</event>
<event>
 5   0  0.5637538E-06  0.1628803E+04  0.7818609E-02  0.8803046E-01
       -2   -1    0    0    0  501  0.00000000000E+00  0.00000000000E+00  0.36572902172E+03  0.36572902173E+03  0.25500000920E-02 0.  1.
        2   -1    0    0  501    0  0.00000000000E+00  0.00000000000E+00 -0.18135015392E+04  0.18135015392E+04  0.25500000920E-02 0. -1.
    10030    2    1    2    0    0  0.00000000000E+00  0.00000000000E+00 -0.14477725175E+04  0.21792305610E+04  0.16288034183E+04 0.  0.
        2    1    3    3  502    0  0.17246892304E+03  0.13004919439E+03 -0.17744765633E+04  0.17875752840E+04  0.25500000920E-02 0. -1.
       -2    1    3    3    0  502 -0.17246892304E+03 -0.13004919439E+03  0.32670404582E+03  0.39165527691E+03  0.25500000920E-02 0.  1.
</event>
<event>
 5   0  0.5637538E-06  0.2634340E+04  0.7818609E-02  0.8356630E-01
        2   -1    0    0  501    0  0.00000000000E+00  0.00000000000E+00  0.12219447878E+04  0.12219447878E+04  0.25500000920E-02 0. -1.
       -2   -1    0    0    0  501  0.00000000000E+00  0.00000000000E+00 -0.14198155068E+04  0.14198155068E+04  0.25500000920E-02 0.  1.
    10030    2    1    2    0    0  0.00000000000E+00  0.00000000000E+00 -0.19787071900E+03  0.26417602946E+04  0.26343395060E+04 0.  0.
        2    1    3    3  502    0  0.52616125380E+03  0.13257774774E+03 -0.13025302910E+04  0.14110307166E+04  0.25500000920E-02 0.  1.
       -2    1    3    3    0  502 -0.52616125380E+03 -0.13257774774E+03  0.11046595720E+04  0.12307295780E+04  0.25500000920E-02 0. -1.
</event>
<event>
 5   0  0.5637538E-06  0.3154571E+04  0.7818609E-02  0.8200919E-01
       -2   -1    0    0    0  501  0.00000000000E+00  0.00000000000E+00  0.13788164118E+04  0.13788164118E+04  0.25500000920E-02 0.  1.
        2   -1    0    0  501    0  0.00000000000E+00  0.00000000000E+00 -0.18043223368E+04  0.18043223368E+04  0.25500000920E-02 0. -1.
    10030    2    1    2    0    0  0.00000000000E+00  0.00000000000E+00 -0.42550592500E+03  0.31831387486E+04  0.31545708109E+04 0.  0.
        2    1    3    3  502    0 -0.14265122764E+04 -0.67136848519E+03 -0.16589610478E+03  0.15853057860E+04  0.25500000920E-02 0. -1.
       -2    1    3    3    0  502  0.14265122764E+04  0.67136848519E+03 -0.25960982022E+03  0.15978329626E+04  0.25500000920E-02 0.  1.
</event>
<event>
 5   0  0.5855568E-06  0.3320335E+04  0.7818609E-02  0.8157740E-01
        2   -1    0    0  501    0  0.00000000000E+00  0.00000000000E+00  0.13920361875E+04  0.13920361875E+04  0.25500000920E-02 0. -1.
       -2   -1    0    0    0  501  0.00000000000E+00  0.00000000000E+00 -0.19799460961E+04  0.19799460961E+04  0.25500000920E-02 0.  1.
    10030    2    1    2    0    0  0.00000000000E+00  0.00000000000E+00 -0.58790990863E+03  0.33719822836E+04  0.33203352934E+04 0.  0.
        3    1    3    3  502    0 -0.13161166221E+04 -0.46344051259E+03  0.61960218545E+03  0.15267111547E+04  0.10100000352E+00 0. -1.
       -3    1    3    3    0  502  0.13161166221E+04  0.46344051259E+03 -0.12075120941E+04  0.18452711289E+04  0.10100000352E+00 0.  1.
</event>
<event>
 5   0  0.5300268E-06  0.3287457E+04  0.7818609E-02  0.8166094E-01
       -2   -1    0    0    0  501  0.00000000000E+00  0.00000000000E+00  0.17310354996E+04  0.17310354996E+04  0.25500000920E-02 0.  1.
        2   -1    0    0  501    0  0.00000000000E+00  0.00000000000E+00 -0.15608251958E+04  0.15608251958E+04  0.25500000920E-02 0. -1.
    10030    2    1    2    0    0  0.00000000000E+00  0.00000000000E+00  0.17021030384E+03  0.32918606954E+04  0.32874572682E+04 0.  0.
        4    1    3    3  502    0 -0.12810768264E+04 -0.99495089424E+03 -0.18125320157E+03  0.16321579130E+04  0.12699999809E+01 0. -1.
       -4    1    3    3    0  502  0.12810768264E+04  0.99495089424E+03  0.35146350541E+03  0.16597027823E+04  0.12699999809E+01 0.  1.
</event>
<event>
 5   0  0.5622811E-06  0.3258066E+04  0.7818609E-02  0.8173648E-01
       -2   -1    0    0    0  501  0.00000000000E+00  0.00000000000E+00  0.15723706894E+04  0.15723706894E+04  0.25500000920E-02 0.  1.
        2   -1    0    0  501    0  0.00000000000E+00  0.00000000000E+00 -0.16877375136E+04  0.16877375136E+04  0.25500000920E-02 0. -1.
    10030    2    1    2    0    0  0.00000000000E+00  0.00000000000E+00 -0.11536682422E+03  0.32601082029E+04  0.32580662962E+04 0.  0.
        1    1    3    3  502    0 -0.33211363372E+03 -0.12225665856E+04 -0.10824250763E+04  0.16663170670E+04  0.50400001928E-02 0. -1.
       -1    1    3    3    0  502  0.33211363372E+03  0.12225665856E+04  0.96705825210E+03  0.15937911359E+04  0.50400001928E-02 0.  1.
</event>
<event>
 5   0  0.1925906E-06  0.2128827E+04  0.7818609E-02  0.8548650E-01
       -1   -1    0    0    0  501  0.00000000000E+00  0.00000000000E+00  0.95303068489E+03  0.95303068490E+03  0.50400001928E-02 0.  1.
        1   -1    0    0  501    0  0.00000000000E+00  0.00000000000E+00 -0.11888133761E+04  0.11888133761E+04  0.50400001928E-02 0. -1.
    10030    2    1    2    0    0  0.00000000000E+00  0.00000000000E+00 -0.23578269124E+03  0.21418440610E+04  0.21288265557E+04 0.  0.
        1    1    3    3  502    0 -0.85085371470E+03 -0.41463209895E+03  0.37201924833E+03  0.10169907288E+04  0.50400001928E-02 0.  1.
       -1    1    3    3    0  502  0.85085371470E+03  0.41463209895E+03 -0.60780193957E+03  0.11248533323E+04  0.50400001928E-02 0. -1.
</event>
<event>
 5   0  0.2730981E-06  0.3228390E+04  0.7818609E-02  0.8181359E-01
       -1   -1    0    0    0  501  0.00000000000E+00  0.00000000000E+00  0.12506598240E+04  0.12506598240E+04  0.50400001928E-02 0. -1.
        1   -1    0    0  501    0  0.00000000000E+00  0.00000000000E+00 -0.20834008116E+04  0.20834008116E+04  0.50400001928E-02 0.  1.
    10030    2    1    2    0    0  0.00000000000E+00  0.00000000000E+00 -0.83274098761E+03  0.33340606357E+04  0.32283901205E+04 0.  0.
        3    1    3    3  502    0  0.90945030428E+02 -0.15762340083E+04 -0.76328384534E+03  0.17536781022E+04  0.10100000352E+00 0.  1.
       -3    1    3    3    0  502 -0.90945030428E+02  0.15762340083E+04 -0.69457142271E+02  0.15803825335E+04  0.10100000352E+00 0. -1.
</event>
<event>
 5   0  0.1925906E-06  0.3281914E+04  0.7818609E-02  0.8167513E-01
       -1   -1    0    0    0  501  0.00000000000E+00  0.00000000000E+00  0.10873438771E+04  0.10873438771E+04  0.50400001928E-02 0.  1.
        1   -1    0    0  501    0  0.00000000000E+00  0.00000000000E+00 -0.24764374917E+04  0.24764374917E+04  0.50400001928E-02 0. -1.
    10030    2    1    2    0    0  0.00000000000E+00  0.00000000000E+00 -0.13890936146E+04  0.35637813688E+04  0.32819135538E+04 0.  0.
        1    1    3    3  502    0 -0.31916120489E+03  0.16081743994E+04 -0.76859725158E+03  0.18107541271E+04  0.50400001928E-02 0. -1.
       -1    1    3    3    0  502  0.31916120489E+03 -0.16081743994E+04 -0.62049636300E+03  0.17530272417E+04  0.50400001928E-02 0.  1.
</event>
<event>
 5   0  0.5300268E-06  0.3271412E+04  0.7818609E-02  0.8170208E-01
       -2   -1    0    0    0  501  0.00000000000E+00  0.00000000000E+00  0.25887568786E+04  0.25887568786E+04  0.25500000920E-02 0.  1.
        2   -1    0    0  501    0  0.00000000000E+00  0.00000000000E+00 -0.10335209422E+04  0.10335209422E+04  0.25500000920E-02 0. -1.
    10030    2    1    2    0    0  0.00000000000E+00  0.00000000000E+00  0.15552359364E+04  0.36222778208E+04  0.32714122016E+04 0.  0.
        4    1    3    3  502    0 -0.16613754029E+03 -0.87240166220E+03 -0.74333145319E+03  0.11581146768E+04  0.12699999809E+01 0. -1.
       -4    1    3    3    0  502  0.16613754029E+03  0.87240166220E+03  0.22985673896E+04  0.24641631440E+04  0.12699999809E+01 0.  1.
</event>
<event>
 5   0  0.5637538E-06  0.1767684E+04  0.7818609E-02  0.8723676E-01
       -2   -1    0    0    0  501  0.00000000000E+00  0.00000000000E+00  0.69700117695E+03  0.69700117695E+03  0.25500000920E-02 0. -1.
        2   -1    0    0  501    0  0.00000000000E+00  0.00000000000E+00 -0.11207679230E+04  0.11207679230E+04  0.25500000920E-02 0.  1.
    10030    2    1    2    0    0  0.00000000000E+00  0.00000000000E+00 -0.42376674607E+03  0.18177691000E+04  0.17676838648E+04 0.  0.
        2    1    3    3  502    0 -0.24654516088E+03  0.81932751021E+03  0.15967361943E+02  0.85576693205E+03  0.25500000920E-02 0. -1.
       -2    1    3    3    0  502  0.24654516088E+03 -0.81932751021E+03 -0.43973410801E+03  0.96200216792E+03  0.25500000920E-02 0.  1.
</event>
<event>
 5   0  0.5637538E-06  0.3071012E+04  0.7818609E-02  0.8223739E-01
        2   -1    0    0  501    0  0.00000000000E+00  0.00000000000E+00  0.16398835098E+04  0.16398835098E+04  0.25500000920E-02 0.  1.
       -2   -1    0    0    0  501  0.00000000000E+00  0.00000000000E+00 -0.14377716706E+04  0.14377716706E+04  0.25500000920E-02 0. -1.
    10030    2    1    2    0    0  0.00000000000E+00  0.00000000000E+00  0.20211183920E+03  0.30776551804E+04  0.30710115945E+04 0.  0.
        2    1    3    3  502    0  0.51343661482E+02 -0.11851115573E+03 -0.14323184755E+04  0.14381297858E+04  0.25500000920E-02 0. -1.
       -2    1    3    3    0  502 -0.51343661482E+02  0.11851115573E+03  0.16344303147E+04  0.16395253945E+04  0.25500000920E-02 0.  1.
</event>
<event>
 5   0  0.5622811E-06  0.3313614E+04  0.7818609E-02  0.8159440E-01
        2   -1    0    0  501    0  0.00000000000E+00  0.00000000000E+00  0.20282035749E+04  0.20282035749E+04  0.25500000920E-02 0. -1.
       -2   -1    0    0    0  501  0.00000000000E+00  0.00000000000E+00 -0.13534191504E+04  0.13534191504E+04  0.25500000920E-02 0.  1.
    10030    2    1    2    0    0  0.00000000000E+00  0.00000000000E+00  0.67478442458E+03  0.33816227253E+04  0.33136140748E+04 0.  0.
        1    1    3    3  502    0  0.15519756264E+04 -0.36411784686E+03  0.79809907953E+03  0.17827429126E+04  0.50400001928E-02 0. -1.
       -1    1    3    3    0  502 -0.15519756264E+04  0.36411784686E+03 -0.12331465494E+03  0.15988798128E+04  0.50400001928E-02 0.  1.
</event>
<event>
 5   0  0.5755250E-06  0.3407282E+04  0.7818609E-02  0.8136121E-01
        2   -1    0    0  501    0  0.00000000000E+00  0.00000000000E+00  0.17561238308E+04  0.17561238308E+04  0.25500000920E-02 0. -1.
       -2   -1    0    0    0  501  0.00000000000E+00  0.00000000000E+00 -0.16527265810E+04  0.16527265810E+04  0.25500000920E-02 0.  1.
    10030    2    1    2    0    0  0.00000000000E+00  0.00000000000E+00  0.10339724980E+03  0.34088504118E+04  0.34072819283E+04 0.  0.
        5    1    3    3  502    0 -0.75943369994E+03 -0.83200885546E+03 -0.12269320170E+04  0.16656417816E+04  0.46999998093E+01 0.  1.
       -5    1    3    3    0  502  0.75943369994E+03  0.83200885546E+03  0.13303292668E+04  0.17432086302E+04  0.46999998093E+01 0. -1.
</event>
<event>
 5   0  0.2037109E-06  0.1779710E+04  0.7818609E-02  0.8717165E-01
       -1   -1    0    0    0  501  0.00000000000E+00  0.00000000000E+00  0.32178875824E+03  0.32178875828E+03  0.50400001928E-02 0. -1.
        1   -1    0    0  501    0  0.00000000000E+00  0.00000000000E+00 -0.24607499551E+04  0.24607499551E+04  0.50400001928E-02 0.  1.
    10030    2    1    2    0    0  0.00000000000E+00  0.00000000000E+00 -0.21389611968E+04  0.27825387133E+04  0.17797097207E+04 0.  0.
        2    1    3    3  502    0  0.48776215448E+03  0.25586377489E+03  0.23237391810E+02  0.55128773524E+03  0.25500000920E-02 0. -1.
       -2    1    3    3    0  502 -0.48776215448E+03 -0.25586377489E+03 -0.21621985886E+04  0.22312509781E+04  0.25500000920E-02 0.  1.
</event>
<event>
 5   0  0.2730981E-06  0.3290333E+04  0.7818609E-02  0.8165359E-01
        1   -1    0    0  501    0  0.00000000000E+00  0.00000000000E+00  0.12557064766E+04  0.12557064766E+04  0.50400001928E-02 0. -1.
       -1   -1    0    0    0  501  0.00000000000E+00  0.00000000000E+00 -0.21554189646E+04  0.21554189646E+04  0.50400001928E-02 0.  1.
    10030    2    1    2    0    0  0.00000000000E+00  0.00000000000E+00 -0.89971248800E+03  0.34111254412E+04  0.32903334504E+04 0.  0.
        3    1    3    3  502    0 -0.10872668096E+04  0.20626931589E+03 -0.17118694946E+04  0.20384291312E+04  0.10100000352E+00 0.  1.
       -3    1    3    3    0  502  0.10872668096E+04 -0.20626931589E+03  0.81215700664E+03  0.13726963100E+04  0.10100000352E+00 0. -1.
</event>
<event>
 5   0  0.1925906E-06  0.2532105E+04  0.7818609E-02  0.8391637E-01
        1   -1    0    0  501    0  0.00000000000E+00  0.00000000000E+00  0.13277639437E+04  0.13277639437E+04  0.50400001928E-02 0. -1.
       -1   -1    0    0    0  501  0.00000000000E+00  0.00000000000E+00 -0.12072090251E+04  0.12072090251E+04  0.50400001928E-02 0.  1.
    10030    2    1    2    0    0  0.00000000000E+00  0.00000000000E+00  0.12055491865E+03  0.25349729688E+04  0.25321047498E+04 0.  0.
        1    1    3    3  502    0  0.73888955982E+03  0.86433909665E+03  0.61754859152E+03  0.12939884538E+04  0.50400001928E-02 0. -1.
       -1    1    3    3    0  502 -0.73888955982E+03 -0.86433909665E+03 -0.49699367287E+03  0.12409845150E+04  0.50400001928E-02 0.  1.
</event>
<event>
 5   0  0.2037109E-06  0.3282740E+04  0.7818609E-02  0.8167301E-01
        1   -1    0    0  501    0  0.00000000000E+00  0.00000000000E+00  0.13825333293E+04  0.13825333293E+04  0.50400001928E-02 0.  1.
       -1   -1    0    0    0  501  0.00000000000E+00  0.00000000000E+00 -0.19486663770E+04  0.19486663770E+04  0.50400001928E-02 0. -1.
    10030    2    1    2    0    0  0.00000000000E+00  0.00000000000E+00 -0.56613304770E+03  0.33311997062E+04  0.32827404490E+04 0.  0.
        2    1    3    3  502    0 -0.15584853929E+04  0.36575602346E+03  0.84834709647E+02  0.16030755181E+04  0.25500000920E-02 0.  1.
       -2    1    3    3    0  502  0.15584853929E+04 -0.36575602346E+03 -0.65096775735E+03  0.17281241882E+04  0.25500000920E-02 0. -1.
</event>
<event>
 5   0  0.5855568E-06  0.1980571E+04  0.7818609E-02  0.8615759E-01
        2   -1    0    0  501    0  0.00000000000E+00  0.00000000000E+00  0.19324906787E+04  0.19324906787E+04  0.25500000920E-02 0.  1.
       -2   -1    0    0    0  501  0.00000000000E+00  0.00000000000E+00 -0.50746195476E+03  0.50746195477E+03  0.25500000920E-02 0. -1.
    10030    2    1    2    0    0  0.00000000000E+00  0.00000000000E+00  0.14250287240E+04  0.24399526335E+04  0.19805711271E+04 0.  0.
        3    1    3    3  502    0 -0.63689501488E+03  0.34988164909E+03 -0.11629470208E+03  0.73591908270E+03  0.10100000352E+00 0. -1.
       -3    1    3    3    0  502  0.63689501488E+03 -0.34988164909E+03  0.15413234261E+04  0.17040335508E+04  0.10100000352E+00 0.  1.
</event>
<event>
 5   0  0.2037109E-06  0.2468513E+04  0.7818609E-02  0.8414289E-01
        1   -1    0    0  501    0  0.00000000000E+00  0.00000000000E+00  0.11109022924E+04  0.11109022924E+04  0.50400001928E-02 0.  1.
       -1   -1    0    0    0  501  0.00000000000E+00  0.00000000000E+00 -0.13713084153E+04  0.13713084153E+04  0.50400001928E-02 0. -1.
    10030    2    1    2    0    0  0.00000000000E+00  0.00000000000E+00 -0.26040612291E+03  0.24822107078E+04  0.24685134492E+04 0.  0.
        2    1    3    3  502    0 -0.28384409163E+02  0.36858161809E+03  0.10539268446E+04  0.11168795269E+04  0.25500000920E-02 0.  1.
       -2    1    3    3    0  502  0.28384409163E+02 -0.36858161809E+03 -0.13143329675E+04  0.13653311808E+04  0.25500000920E-02 0. -1.
</event>
<event>
 5   0  0.5755250E-06  0.2168547E+04  0.7818609E-02  0.8531635E-01
       -2   -1    0    0    0  501  0.00000000000E+00  0.00000000000E+00  0.36791047910E+03  0.36791047910E+03  0.25500000920E-02 0. -1.
        2   -1    0    0  501    0  0.00000000000E+00  0.00000000000E+00 -0.31954743229E+04  0.31954743229E+04  0.25500000920E-02 0.  1.
    10030    2    1    2    0    0  0.00000000000E+00  0.00000000000E+00 -0.28275638438E+04  0.35633848020E+04  0.21685465078E+04 0.  0.
        5    1    3    3  502    0 -0.10347005833E+04  0.14307224372E+03 -0.18915910850E+04  0.21608363860E+04  0.46999998093E+01 0.  1.
       -5    1    3    3    0  502  0.10347005833E+04 -0.14307224372E+03 -0.93597275878E+03  0.14025484160E+04  0.46999998093E+01 0. -1.
</event>
<event>
 5   0  0.5300268E-06  0.3367038E+04  0.7818609E-02  0.8146044E-01
        2   -1    0    0  501    0  0.00000000000E+00  0.00000000000E+00  0.14300948537E+04  0.14300948537E+04  0.25500000920E-02 0. -1.
       -2   -1    0    0    0  501  0.00000000000E+00  0.00000000000E+00 -0.19818517978E+04  0.19818517978E+04  0.25500000920E-02 0.  1.
    10030    2    1    2    0    0  0.00000000000E+00  0.00000000000E+00 -0.55175694415E+03  0.34119466515E+04  0.33670379011E+04 0.  0.
        4    1    3    3  502    0 -0.10261305884E+04  0.32714143881E+03  0.10353151771E+04  0.14939359539E+04  0.12699999809E+01 0. -1.
       -4    1    3    3    0  502  0.10261305884E+04 -0.32714143881E+03 -0.15870721212E+04  0.19180106977E+04  0.12699999809E+01 0.  1.
</event>
<event>
 5   0  0.1999849E-06  0.3412915E+04  0.7818609E-02  0.8134744E-01
        1   -1    0    0  501    0  0.00000000000E+00  0.00000000000E+00  0.17714506252E+04  0.17714506253E+04  0.50400001928E-02 0.  1.
       -1   -1    0    0    0  501  0.00000000000E+00  0.00000000000E+00 -0.16438493112E+04  0.16438493112E+04  0.50400001928E-02 0. -1.
    10030    2    1    2    0    0  0.00000000000E+00  0.00000000000E+00  0.12760131408E+03  0.34152999364E+04  0.34129154048E+04 0.  0.
        5    1    3    3  502    0  0.46045455959E+03 -0.16418551943E+04  0.12918327554E+03  0.17100927721E+04  0.46999998093E+01 0.  1.
       -5    1    3    3    0  502 -0.46045455959E+03  0.16418551943E+04 -0.15819614671E+01  0.17052071643E+04  0.46999998093E+01 0. -1.
</event>
<event>
 5   0  0.2730981E-06  0.3088346E+04  0.7818609E-02  0.8218944E-01
        1   -1    0    0  501    0  0.00000000000E+00  0.00000000000E+00  0.19455909239E+04  0.19455909239E+04  0.50400001928E-02 0. -1.
       -1   -1    0    0    0  501  0.00000000000E+00  0.00000000000E+00 -0.12255763739E+04  0.12255763739E+04  0.50400001928E-02 0.  1.
    10030    2    1    2    0    0  0.00000000000E+00  0.00000000000E+00  0.72001455003E+03  0.31711672978E+04  0.30883460102E+04 0.  0.
        3    1    3    3  502    0 -0.34247977489E+03  0.55362062824E+03 -0.10777871342E+04  0.12591319681E+04  0.10100000352E+00 0.  1.
       -3    1    3    3    0  502  0.34247977489E+03 -0.55362062824E+03  0.17978016842E+04  0.19120353297E+04  0.10100000352E+00 0. -1.
</event>
<event>
 5   0  0.2097842E-06  0.3143126E+04  0.7818609E-02  0.8204001E-01
       -1   -1    0    0    0  501  0.00000000000E+00  0.00000000000E+00  0.10789696760E+04  0.10789696760E+04  0.50400001928E-02 0.  1.
        1   -1    0    0  501    0  0.00000000000E+00  0.00000000000E+00 -0.22890447944E+04  0.22890447944E+04  0.50400001928E-02 0. -1.
    10030    2    1    2    0    0  0.00000000000E+00  0.00000000000E+00 -0.12100751184E+04  0.33680144704E+04  0.31431257819E+04 0.  0.
        4    1    3    3  502    0 -0.22425133520E+03 -0.12397010456E+03 -0.22665097010E+04  0.22809482865E+04  0.12699999809E+01 0. -1.
       -4    1    3    3    0  502  0.22425133520E+03  0.12397010456E+03  0.10564345825E+04  0.10870661839E+04  0.12699999809E+01 0.  1.
</event>
<event>
 5   0  0.1999849E-06  0.3392500E+04  0.7818609E-02  0.8139749E-01
       -1   -1    0    0    0  501  0.00000000000E+00  0.00000000000E+00  0.10552357727E+04  0.10552357727E+04  0.50400001928E-02 0. -1.
        1   -1    0    0  501    0  0.00000000000E+00  0.00000000000E+00 -0.27266553069E+04  0.27266553069E+04  0.50400001928E-02 0.  1.
    10030    2    1    2    0    0  0.00000000000E+00  0.00000000000E+00 -0.16714195342E+04  0.37818910797E+04  0.33925000927E+04 0.  0.
        5    1    3    3  502    0  0.54667127733E+03  0.13302925424E+04 -0.18382152018E+04  0.23340062022E+04  0.46999998093E+01 0.  1.
       -5    1    3    3    0  502 -0.54667127733E+03 -0.13302925424E+04  0.16679566757E+03  0.14478848775E+04  0.46999998093E+01 0. -1.
</event>
<event>
 5   0  0.5637538E-06  0.3292930E+04  0.7818609E-02  0.8164697E-01
        2   -1    0    0  501    0  0.00000000000E+00  0.00000000000E+00  0.17839919838E+04  0.17839919839E+04  0.25500000920E-02 0. -1.
       -2   -1    0    0    0  501  0.00000000000E+00  0.00000000000E+00 -0.15195397339E+04  0.15195397339E+04  0.25500000920E-02 0.  1.
    10030    2    1    2    0    0  0.00000000000E+00  0.00000000000E+00  0.26445224997E+03  0.33035317177E+04  0.32929298227E+04 0.  0.
        2    1    3    3  502    0  0.11439409214E+04 -0.43915289261E+03 -0.97103750523E+03  0.15634480904E+04  0.25500000920E-02 0.  1.
       -2    1    3    3    0  502 -0.11439409214E+04  0.43915289261E+03  0.12354897552E+04  0.17400836273E+04  0.25500000920E-02 0. -1.
</event>
<event>
 5   0  0.2037109E-06  0.3328304E+04  0.7818609E-02  0.8155731E-01
       -1   -1    0    0    0  501  0.00000000000E+00  0.00000000000E+00  0.16062056366E+04  0.16062056366E+04  0.50400001928E-02 0. -1.
        1   -1    0    0  501    0  0.00000000000E+00  0.00000000000E+00 -0.17241884186E+04  0.17241884186E+04  0.50400001928E-02 0.  1.
    10030    2    1    2    0    0  0.00000000000E+00  0.00000000000E+00 -0.11798278202E+03  0.33303940552E+04  0.33283035658E+04 0.  0.
        2    1    3    3  502    0  0.31608464482E+02 -0.21450314001E+03 -0.17099945333E+04  0.17236855850E+04  0.25500000920E-02 0.  1.
       -2    1    3    3    0  502 -0.31608464482E+02  0.21450314001E+03  0.15920117513E+04  0.16067084702E+04  0.25500000920E-02 0. -1.
</event>
<event>
 5   0  0.6115954E-06  0.1803604E+04  0.7818609E-02  0.8704385E-01
       -2   -1    0    0    0  501  0.00000000000E+00  0.00000000000E+00  0.80685720631E+03  0.80685720631E+03  0.25500000920E-02 0. -1.
        2   -1    0    0  501    0  0.00000000000E+00  0.00000000000E+00 -0.10079192849E+04  0.10079192849E+04  0.25500000920E-02 0.  1.
    10030    2    1    2    0    0  0.00000000000E+00  0.00000000000E+00 -0.20106207858E+03  0.18147764912E+04  0.18036041011E+04 0.  0.
        5    1    3    3  502    0  0.31422769909E+03  0.44189529549E+03 -0.82555986530E+03  0.98771538423E+03  0.46999998093E+01 0.  1.
       -5    1    3    3    0  502 -0.31422769909E+03 -0.44189529549E+03  0.62449778672E+03  0.82706110697E+03  0.46999998093E+01 0. -1.
</event>
<event>
 5   0  0.1925906E-06  0.3299739E+04  0.7818609E-02  0.8162962E-01
        1   -1    0    0  501    0  0.00000000000E+00  0.00000000000E+00  0.17371894382E+04  0.17371894382E+04  0.50400001928E-02 0. -1.
       -1   -1    0    0    0  501  0.00000000000E+00  0.00000000000E+00 -0.15669389087E+04  0.15669389087E+04  0.50400001928E-02 0.  1.
    10030    2    1    2    0    0  0.00000000000E+00  0.00000000000E+00  0.17025052946E+03  0.33041283469E+04  0.32997392155E+04 0.  0.
        1    1    3    3  502    0 -0.10987951882E+04  0.66336317607E+02 -0.11454595177E+04  0.15886563125E+04  0.50400001928E-02 0.  1.
       -1    1    3    3    0  502  0.10987951882E+04 -0.66336317607E+02  0.13157100472E+04  0.17154720344E+04  0.50400001928E-02 0. -1.
</event>
<event>
 5   0  0.5855568E-06  0.3286246E+04  0.7818609E-02  0.8166404E-01
       -2   -1    0    0    0  501  0.00000000000E+00  0.00000000000E+00  0.12253526474E+04  0.12253526474E+04  0.25500000920E-02 0.  1.
        2   -1    0    0  501    0  0.00000000000E+00  0.00000000000E+00 -0.22033276369E+04  0.22033276369E+04  0.25500000920E-02 0. -1.
    10030    2    1    2    0    0  0.00000000000E+00  0.00000000000E+00 -0.97797498951E+03  0.34286802844E+04  0.32862460974E+04 0.  0.
        3    1    3    3  502    0 -0.13197887576E+04 -0.96655753509E+03 -0.64987046973E+03  0.17602293802E+04  0.10100000352E+00 0. -1.
       -3    1    3    3    0  502  0.13197887576E+04  0.96655753509E+03 -0.32810451978E+03  0.16684509041E+04  0.10100000352E+00 0.  1.
</event>
<event>
 5   0  0.5755250E-06  0.1821148E+04  0.7818609E-02  0.8695133E-01
        2   -1    0    0  501    0  0.00000000000E+00  0.00000000000E+00  0.77943854172E+03  0.77943854173E+03  0.25500000920E-02 0.  1.
       -2   -1    0    0    0  501  0.00000000000E+00  0.00000000000E+00 -0.10637721908E+04  0.10637721908E+04  0.25500000920E-02 0. -1.
    10030    2    1    2    0    0  0.00000000000E+00  0.00000000000E+00 -0.28433364904E+03  0.18432107325E+04  0.18211480391E+04 0.  0.
        5    1    3    3  502    0  0.70281711014E+03  0.51261693612E+03 -0.41448952871E+03  0.96361386090E+03  0.46999998093E+01 0. -1.
       -5    1    3    3    0  502 -0.70281711014E+03 -0.51261693612E+03  0.13015587967E+03  0.87959687159E+03  0.46999998093E+01 0.  1.
</event>
<event>
 5   0  0.5755250E-06  0.3171864E+04  0.7818609E-02  0.8196288E-01
        2   -1    0    0  501    0  0.00000000000E+00  0.00000000000E+00  0.27401057367E+04  0.27401057367E+04  0.25500000920E-02 0.  1.
       -2   -1    0    0    0  501  0.00000000000E+00  0.00000000000E+00 -0.91791331524E+03  0.91791331524E+03  0.25500000920E-02 0. -1.
    10030    2    1    2    0    0  0.00000000000E+00  0.00000000000E+00  0.18221924215E+04  0.36580190520E+04  0.31718635159E+04 0.  0.
        5    1    3    3  502    0 -0.15837285935E+04 -0.59787463931E+02  0.84398164732E+03  0.17955773193E+04  0.46999998093E+01 0. -1.
       -5    1    3    3    0  502  0.15837285935E+04  0.59787463931E+02  0.97821077419E+03  0.18624417326E+04  0.46999998093E+01 0.  1.
</event>
<event>
 5   0  0.5855568E-06  0.3284665E+04  0.7818609E-02  0.8166808E-01
       -2   -1    0    0    0  501  0.00000000000E+00  0.00000000000E+00  0.10321146484E+04  0.10321146484E+04  0.25500000920E-02 0.  1.
        2   -1    0    0  501    0  0.00000000000E+00  0.00000000000E+00 -0.26133300988E+04  0.26133300988E+04  0.25500000920E-02 0. -1.
    10030    2    1    2    0    0  0.00000000000E+00  0.00000000000E+00 -0.15812154504E+04  0.36454447472E+04  0.32846651434E+04 0.  0.
        3    1    3    3  502    0  0.11625522806E+04  0.10568603881E+03  0.49151115297E+03  0.12666019768E+04  0.10100000352E+00 0.  1.
       -3    1    3    3    0  502 -0.11625522806E+04 -0.10568603881E+03 -0.20727266033E+04  0.23788427704E+04  0.10100000352E+00 0. -1.
</event>
<event>
 5   0  0.1925906E-06  0.3152899E+04  0.7818609E-02  0.8201368E-01
       -1   -1    0    0    0  501  0.00000000000E+00  0.00000000000E+00  0.90511852236E+03  0.90511852238E+03  0.50400001928E-02 0.  1.
        1   -1    0    0  501    0  0.00000000000E+00  0.00000000000E+00 -0.27457094606E+04  0.27457094606E+04  0.50400001928E-02 0. -1.
    10030    2    1    2    0    0  0.00000000000E+00  0.00000000000E+00 -0.18405909383E+04  0.36508279830E+04  0.31528986599E+04 0.  0.
        1    1    3    3  502    0 -0.69750568864E+03 -0.10043969826E+04 -0.20723402062E+04  0.24062255535E+04  0.50400001928E-02 0. -1.
       -1    1    3    3    0  502  0.69750568864E+03  0.10043969826E+04  0.23174926790E+03  0.12446024295E+04  0.50400001928E-02 0.  1.
</event>
<event>
 5   0  0.2097842E-06  0.1652302E+04  0.7818609E-02  0.8789046E-01
        1   -1    0    0  501    0  0.00000000000E+00  0.00000000000E+00  0.42455415271E+03  0.42455415274E+03  0.50400001928E-02 0.  1.
       -1   -1    0    0    0  501  0.00000000000E+00  0.00000000000E+00 -0.16076278682E+04  0.16076278682E+04  0.50400001928E-02 0. -1.
    10030    2    1    2    0    0  0.00000000000E+00  0.00000000000E+00 -0.11830737155E+04  0.20321820210E+04  0.16523015312E+04 0.  0.
        4    1    3    3  502    0 -0.58725915386E+03 -0.12718757402E+03 -0.12888789436E+04  0.14220620721E+04  0.12699999809E+01 0. -1.
       -4    1    3    3    0  502  0.58725915386E+03  0.12718757402E+03  0.10580522811E+03  0.61011994884E+03  0.12699999809E+01 0.  1.
</event>
<event>
 5   0  0.1999849E-06  0.2302181E+04  0.7818609E-02  0.8477062E-01
       -1   -1    0    0    0  501  0.00000000000E+00  0.00000000000E+00  0.68780619208E+03  0.68780619210E+03  0.50400001928E-02 0.  1.
        1   -1    0    0  501    0  0.00000000000E+00  0.00000000000E+00 -0.19264289378E+04  0.19264289378E+04  0.50400001928E-02 0. -1.
    10030    2    1    2    0    0  0.00000000000E+00  0.00000000000E+00 -0.12386227457E+04  0.26142351299E+04  0.23021813587E+04 0.  0.
        5    1    3    3  502    0 -0.14250293716E+03 -0.11229953398E+04 -0.85631731042E+03  0.14194108096E+04  0.46999998093E+01 0.  1.
       -5    1    3    3    0  502  0.14250293716E+03  0.11229953398E+04 -0.38230543527E+03  0.11948243202E+04  0.46999998093E+01 0. -1.
</event>
<event>
 5   0  0.5637538E-06  0.3306455E+04  0.7818609E-02  0.8161255E-01
        2   -1    0    0  501    0  0.00000000000E+00  0.00000000000E+00  0.19737480704E+04  0.19737480704E+04  0.25500000920E-02 0.  1.
       -2   -1    0    0    0  501  0.00000000000E+00  0.00000000000E+00 -0.13847572398E+04  0.13847572398E+04  0.25500000920E-02 0. -1.
    10030    2    1    2    0    0  0.00000000000E+00  0.00000000000E+00  0.58899083065E+03  0.33585053103E+04  0.33064554617E+04 0.  0.
        2    1    3    3  502    0  0.15571141459E+03  0.15455449993E+04  0.86927119799E+03  0.17800527535E+04  0.25500000920E-02 0.  1.
       -2    1    3    3    0  502 -0.15571141459E+03 -0.15455449993E+04 -0.28028036735E+03  0.15784525568E+04  0.25500000920E-02 0. -1.
</event>
<event>
 5   0  0.2730981E-06  0.1820470E+04  0.7818609E-02  0.8695489E-01
        1   -1    0    0  501    0  0.00000000000E+00  0.00000000000E+00  0.69513290085E+03  0.69513290086E+03  0.50400001928E-02 0.  1.
       -1   -1    0    0    0  501  0.00000000000E+00  0.00000000000E+00 -0.11918984320E+04  0.11918984320E+04  0.50400001928E-02 0. -1.
    10030    2    1    2    0    0  0.00000000000E+00  0.00000000000E+00 -0.49676553114E+03  0.18870313329E+04  0.18204700652E+04 0.  0.
        3    1    3    3  502    0 -0.52122061900E+03 -0.73123613950E+03 -0.40265512109E+03  0.98412823459E+03  0.10100000352E+00 0. -1.
       -3    1    3    3    0  502  0.52122061900E+03  0.73123613950E+03 -0.94110410053E+02  0.90290309827E+03  0.10100000352E+00 0.  1.
</event>
<event>
 5   0  0.2097842E-06  0.2923661E+04  0.7818609E-02  0.8265872E-01
       -1   -1    0    0    0  501  0.00000000000E+00  0.00000000000E+00  0.11899390048E+04  0.11899390048E+04  0.50400001928E-02 0.  1.
        1   -1    0    0  501    0  0.00000000000E+00  0.00000000000E+00 -0.17958471767E+04  0.17958471767E+04  0.50400001928E-02 0. -1.
    10030    2    1    2    0    0  0.00000000000E+00  0.00000000000E+00 -0.60590817188E+03  0.29857861815E+04  0.29236611310E+04 0.  0.
        4    1    3    3  502    0  0.97411325580E+03  0.10892410714E+04 -0.26204999995E+03  0.14845923892E+04  0.12699999809E+01 0.  1.
       -4    1    3    3    0  502 -0.97411325580E+03 -0.10892410714E+04 -0.34385817193E+03  0.15011937923E+04  0.12699999809E+01 0. -1.
</event>
<event>
 5   0  0.5300268E-06  0.3286941E+04  0.7818609E-02  0.8166226E-01
        2   -1    0    0  501    0  0.00000000000E+00  0.00000000000E+00  0.10423779076E+04  0.10423779076E+04  0.25500000920E-02 0.  1.
       -2   -1    0    0    0  501  0.00000000000E+00  0.00000000000E+00 -0.25911858363E+04  0.25911858363E+04  0.25500000920E-02 0. -1.
    10030    2    1    2    0    0  0.00000000000E+00  0.00000000000E+00 -0.15488079287E+04  0.36335637439E+04  0.32869407480E+04 0.  0.
        4    1    3    3  502    0  0.33359630778E+03  0.57827875065E+03 -0.24345378382E+04  0.25244145675E+04  0.12699999809E+01 0. -1.
       -4    1    3    3    0  502 -0.33359630778E+03 -0.57827875065E+03  0.88572990951E+03  0.11091491764E+04  0.12699999809E+01 0.  1.
</event>
<event>
 5   0  0.2097842E-06  0.3221506E+04  0.7818609E-02  0.8183160E-01
        1   -1    0    0  501    0  0.00000000000E+00  0.00000000000E+00  0.20656162135E+04  0.20656162135E+04  0.50400001928E-02 0. -1.
       -1   -1    0    0    0  501  0.00000000000E+00  0.00000000000E+00 -0.12560540395E+04  0.12560540395E+04  0.50400001928E-02 0.  1.
    10030    2    1    2    0    0  0.00000000000E+00  0.00000000000E+00  0.80956217401E+03  0.33216702530E+04  0.32215062248E+04 0.  0.
        4    1    3    3  502    0 -0.73452907227E+03  0.23652460398E+03  0.18626183909E+04  0.20161412969E+04  0.12699999809E+01 0. -1.
       -4    1    3    3    0  502  0.73452907227E+03 -0.23652460398E+03 -0.10530562169E+04  0.13055289561E+04  0.12699999809E+01 0.  1.
</event>
<event>
 5   0  0.2097842E-06  0.3041521E+04  0.7818609E-02  0.8231973E-01
       -1   -1    0    0    0  501  0.00000000000E+00  0.00000000000E+00  0.10641247429E+04  0.10641247429E+04  0.50400001928E-02 0.  1.
        1   -1    0    0  501    0  0.00000000000E+00  0.00000000000E+00 -0.21733469333E+04  0.21733469333E+04  0.50400001928E-02 0. -1.
    10030    2    1    2    0    0  0.00000000000E+00  0.00000000000E+00 -0.11092221904E+04  0.32374716763E+04  0.30415208346E+04 0.  0.
        4    1    3    3  502    0  0.49195332113E+03 -0.35631136489E+03  0.92938816399E+03  0.11102881748E+04  0.12699999809E+01 0.  1.
       -4    1    3    3    0  502 -0.49195332113E+03  0.35631136489E+03 -0.20386103544E+04  0.21271835015E+04  0.12699999809E+01 0. -1.
</event>
<event>
 5   0  0.1925906E-06  0.3117534E+04  0.7818609E-02  0.8210942E-01
        1   -1    0    0  501    0  0.00000000000E+00  0.00000000000E+00  0.15355734699E+04  0.15355734699E+04  0.50400001928E-02 0. -1.
       -1   -1    0    0    0  501  0.00000000000E+00  0.00000000000E+00 -0.15823107330E+04  0.15823107330E+04  0.50400001928E-02 0.  1.
    10030    2    1    2    0    0  0.00000000000E+00  0.00000000000E+00 -0.46737263131E+02  0.31178842029E+04  0.31175338861E+04 0.  0.
        1    1    3    3  502    0  0.59562621139E+03  0.38941164884E+03  0.13636334025E+04  0.15381508614E+04  0.50400001928E-02 0. -1.
       -1    1    3    3    0  502 -0.59562621139E+03 -0.38941164884E+03 -0.14103706656E+04  0.15797333415E+04  0.50400001928E-02 0.  1.
</event>
<event>
 5   0  0.5622811E-06  0.3287157E+04  0.7818609E-02  0.8166171E-01
        2   -1    0    0  501    0  0.00000000000E+00  0.00000000000E+00  0.23717226369E+04  0.23717226369E+04  0.25500000920E-02 0.  1.
       -2   -1    0    0    0  501  0.00000000000E+00  0.00000000000E+00 -0.11389820668E+04  0.11389820668E+04  0.25500000920E-02 0. -1.
    10030    2    1    2    0    0  0.00000000000E+00  0.00000000000E+00  0.12327405700E+04  0.35107047037E+04  0.32871565530E+04 0.  0.
        1    1    3    3  502    0 -0.79222777077E+03  0.11885756797E+04 -0.25194764730E+03  0.14504532409E+04  0.50400001928E-02 0. -1.
       -1    1    3    3    0  502  0.79222777077E+03 -0.11885756797E+04  0.14846882173E+04  0.20602514628E+04  0.50400001928E-02 0.  1.
</event>
<event>
 5   0  0.2730981E-06  0.3313818E+04  0.7818609E-02  0.8159388E-01
        1   -1    0    0  501    0  0.00000000000E+00  0.00000000000E+00  0.27692096037E+04  0.27692096037E+04  0.50400001928E-02 0. -1.
       -1   -1    0    0    0  501  0.00000000000E+00  0.00000000000E+00 -0.99138288027E+03  0.99138288028E+03  0.50400001928E-02 0.  1.
    10030    2    1    2    0    0  0.00000000000E+00  0.00000000000E+00  0.17778267234E+04  0.37605924840E+04  0.33138177337E+04 0.  0.
        3    1    3    3  502    0 -0.37723058405E+03 -0.40166780801E+03 -0.88435487040E+03  0.10419805605E+04  0.10100000352E+00 0.  1.
       -3    1    3    3    0  502  0.37723058405E+03  0.40166780801E+03  0.26621815938E+04  0.27186119234E+04  0.10100000352E+00 0. -1.
</event>
<event>
 5   0  0.5637538E-06  0.3263196E+04  0.7818609E-02  0.8172324E-01
        2   -1    0    0  501    0  0.00000000000E+00  0.00000000000E+00  0.25176166581E+04  0.25176166581E+04  0.25500000920E-02 0.  1.
       -2   -1    0    0    0  501  0.00000000000E+00  0.00000000000E+00 -0.10573936488E+04  0.10573936488E+04  0.25500000920E-02 0. -1.
    10030    2    1    2    0    0  0.00000000000E+00  0.00000000000E+00  0.14602230093E+04  0.35750103070E+04  0.32631958964E+04 0.  0.
        2    1    3    3  502    0 -0.13804907213E+04 -0.30891437970E+03  0.16207707939E+04  0.21512974438E+04  0.25500000920E-02 0.  1.
       -2    1    3    3    0  502  0.13804907213E+04  0.30891437970E+03 -0.16054778461E+03  0.14237128631E+04  0.25500000920E-02 0. -1.
</event>
<event>
 5   0  0.5855568E-06  0.1993404E+04  0.7818609E-02  0.8609711E-01
       -2   -1    0    0    0  501  0.00000000000E+00  0.00000000000E+00  0.94378754401E+03  0.94378754401E+03  0.25500000920E-02 0.  1.
        2   -1    0    0  501    0  0.00000000000E+00  0.00000000000E+00 -0.10525833994E+04  0.10525833994E+04  0.25500000920E-02 0. -1.
    10030    2    1    2    0    0  0.00000000000E+00  0.00000000000E+00 -0.10879585542E+03  0.19963709434E+04  0.19934042254E+04 0.  0.
        3    1    3    3  502    0 -0.50863236032E+03 -0.26525577245E+03 -0.87068618154E+03  0.10426705806E+04  0.10100000352E+00 0. -1.
       -3    1    3    3    0  502  0.50863236032E+03  0.26525577245E+03  0.76189032612E+03  0.95370036281E+03  0.10100000352E+00 0.  1.
</event>
<event>
 5   0  0.1999849E-06  0.3366821E+04  0.7818609E-02  0.8146098E-01
       -1   -1    0    0    0  501  0.00000000000E+00  0.00000000000E+00  0.18276461693E+04  0.18276461693E+04  0.50400001928E-02 0. -1.
        1   -1    0    0  501    0  0.00000000000E+00  0.00000000000E+00 -0.15505580867E+04  0.15505580867E+04  0.50400001928E-02 0.  1.
    10030    2    1    2    0    0  0.00000000000E+00  0.00000000000E+00  0.27708808256E+03  0.33782042560E+04  0.33668213777E+04 0.  0.
        5    1    3    3  502    0 -0.26317660160E+03  0.85209274590E+03 -0.12940525102E+04  0.15715972640E+04  0.46999998093E+01 0.  1.
       -5    1    3    3    0  502  0.26317660160E+03 -0.85209274590E+03  0.15711405927E+04  0.18066069919E+04  0.46999998093E+01 0. -1.
</event>
<event>
 5   0  0.5300268E-06  0.2119116E+04  0.7818609E-02  0.8552869E-01
        2   -1    0    0  501    0  0.00000000000E+00  0.00000000000E+00  0.84030527346E+03  0.84030527347E+03  0.25500000920E-02 0.  1.
       -2   -1    0    0    0  501  0.00000000000E+00  0.00000000000E+00 -0.13360183755E+04  0.13360183755E+04  0.25500000920E-02 0. -1.
    10030    2    1    2    0    0  0.00000000000E+00  0.00000000000E+00 -0.49571310202E+03  0.21763236490E+04  0.21191161236E+04 0.  0.
        4    1    3    3  502    0  0.12541640938E+03  0.91089202606E+02 -0.13243105397E+04  0.13333516179E+04  0.12699999809E+01 0. -1.
       -4    1    3    3    0  502 -0.12541640938E+03 -0.91089202606E+02  0.82859743765E+03  0.84297203106E+03  0.12699999809E+01 0.  1.
</event>
<event>
 5   0  0.5300268E-06  0.3353900E+04  0.7818609E-02  0.8149314E-01
       -2   -1    0    0    0  501  0.00000000000E+00  0.00000000000E+00  0.96952578643E+03  0.96952578643E+03  0.25500000920E-02 0.  1.
        2   -1    0    0  501    0  0.00000000000E+00  0.00000000000E+00 -0.29005528689E+04  0.29005528689E+04  0.25500000920E-02 0. -1.
    10030    2    1    2    0    0  0.00000000000E+00  0.00000000000E+00 -0.19310270825E+04  0.38700786554E+04  0.33538997012E+04 0.  0.
        4    1    3    3  502    0 -0.54600777420E+03  0.79070002083E+03 -0.25513775656E+04  0.27263272195E+04  0.12699999809E+01 0. -1.
       -4    1    3    3    0  502  0.54600777420E+03 -0.79070002083E+03  0.62035048308E+03  0.11437514359E+04  0.12699999809E+01 0.  1.
</event>
<event>
 5   0  0.5637538E-06  0.2676695E+04  0.7818609E-02  0.8342606E-01
        2   -1    0    0  501    0  0.00000000000E+00  0.00000000000E+00  0.20740526072E+04  0.20740526072E+04  0.25500000920E-02 0.  1.
       -2   -1    0    0    0  501  0.00000000000E+00  0.00000000000E+00 -0.86361081399E+03  0.86361081399E+03  0.25500000920E-02 0. -1.
    10030    2    1    2    0    0  0.00000000000E+00  0.00000000000E+00  0.12104417932E+04  0.29376634212E+04  0.26766951715E+04 0.  0.
        2    1    3    3  502    0  0.53465018893E+02  0.35215472422E+03  0.20210775706E+04  0.20522246476E+04  0.25500000920E-02 0.  1.
       -2    1    3    3    0  502 -0.53465018893E+02 -0.35215472422E+03 -0.81063577741E+03  0.88543877352E+03  0.25500000920E-02 0. -1.
</event>
<event>
 5   0  0.1999849E-06  0.3276169E+04  0.7818609E-02  0.8168986E-01
        1   -1    0    0  501    0  0.00000000000E+00  0.00000000000E+00  0.94279701544E+03  0.94279701545E+03  0.50400001928E-02 0.  1.
       -1   -1    0    0    0  501  0.00000000000E+00  0.00000000000E+00 -0.28461272166E+04  0.28461272166E+04  0.50400001928E-02 0. -1.
    10030    2    1    2    0    0  0.00000000000E+00  0.00000000000E+00 -0.19033302012E+04  0.37889242320E+04  0.32761686436E+04 0.  0.
        5    1    3    3  502    0  0.14220354888E+04 -0.17690996275E+03 -0.18694830498E+04  0.23555192697E+04  0.46999998093E+01 0. -1.
       -5    1    3    3    0  502 -0.14220354888E+04  0.17690996275E+03 -0.33847151342E+02  0.14334049623E+04  0.46999998093E+01 0.  1.
</event>
<event>
 5   0  0.5855568E-06  0.3271136E+04  0.7818609E-02  0.8170279E-01
        2   -1    0    0  501    0  0.00000000000E+00  0.00000000000E+00  0.26622007940E+04  0.26622007940E+04  0.25500000920E-02 0. -1.
       -2   -1    0    0    0  501  0.00000000000E+00  0.00000000000E+00 -0.10048385972E+04  0.10048385972E+04  0.25500000920E-02 0.  1.
    10030    2    1    2    0    0  0.00000000000E+00  0.00000000000E+00  0.16573621968E+04  0.36670393912E+04  0.32711356507E+04 0.  0.
        3    1    3    3  502    0 -0.10806063129E+04 -0.60935507084E+03 -0.36617985106E+03  0.12934880361E+04  0.10100000352E+00 0. -1.
       -3    1    3    3    0  502  0.10806063129E+04  0.60935507084E+03  0.20235420479E+04  0.23735513552E+04  0.10100000352E+00 0.  1.
</event>
<event>
 5   0  0.1878000E-06  0.2213789E+04  0.7818609E-02  0.8512711E-01
        3   -1    0    0  501    0  0.00000000000E+00  0.00000000000E+00  0.46777980272E+03  0.46777981362E+03  0.10100000352E+00 0.  1.
       -3   -1    0    0    0  501  0.00000000000E+00  0.00000000000E+00 -0.26192128645E+04  0.26192128665E+04  0.10100000352E+00 0. -1.
    10030    2    1    2    0    0  0.00000000000E+00  0.00000000000E+00 -0.21514330618E+04  0.30869926801E+04  0.22137885146E+04 0.  0.
        3    1    3    3  502    0 -0.10330351961E+04  0.39722778818E+03 -0.10983414723E+04  0.15592644522E+04  0.10100000352E+00 0.  1.
       -3    1    3    3    0  502  0.10330351961E+04 -0.39722778818E+03 -0.10530915896E+04  0.15277282279E+04  0.10100000352E+00 0. -1.
</event>
<event>
 5   0  0.2730981E-06  0.2770921E+04  0.7818609E-02  0.8312353E-01
        1   -1    0    0  501    0  0.00000000000E+00  0.00000000000E+00  0.18258033300E+04  0.18258033300E+04  0.50400001928E-02 0. -1.
       -1   -1    0    0    0  501  0.00000000000E+00  0.00000000000E+00 -0.10513188266E+04  0.10513188266E+04  0.50400001928E-02 0.  1.
    10030    2    1    2    0    0  0.00000000000E+00  0.00000000000E+00  0.77448450336E+03  0.28771221566E+04  0.27709214457E+04 0.  0.
        3    1    3    3  502    0 -0.22231901921E+03 -0.24429667196E+03 -0.10098360052E+04  0.10624854718E+04  0.10100000352E+00 0.  1.
       -3    1    3    3    0  502  0.22231901921E+03  0.24429667196E+03  0.17843205086E+04  0.18146366848E+04  0.10100000352E+00 0. -1.
</event>
<event>
 5   0  0.1878000E-06  0.1892053E+04  0.7818609E-02  0.8658822E-01
        3   -1    0    0  501    0  0.00000000000E+00  0.00000000000E+00  0.80737161595E+03  0.80737162226E+03  0.10100000352E+00 0.  1.
       -3   -1    0    0    0  501  0.00000000000E+00  0.00000000000E+00 -0.11084937320E+04  0.11084937366E+04  0.10100000352E+00 0. -1.
    10030    2    1    2    0    0  0.00000000000E+00  0.00000000000E+00 -0.30112211601E+03  0.19158653588E+04  0.18920532615E+04 0.  0.
        5    1    3    3  502    0 -0.30487860400E+03 -0.87190378040E+03  0.56405859419E+02  0.92540308862E+03  0.46999998093E+01 0.  1.
       -5    1    3    3    0  502  0.30487860400E+03  0.87190378040E+03 -0.35752797542E+03  0.99046227019E+03  0.46999998093E+01 0. -1.
</event>
<event>
 5   0  0.5300268E-06  0.3429150E+04  0.7818609E-02  0.8130789E-01
       -2   -1    0    0    0  501  0.00000000000E+00  0.00000000000E+00  0.23940326672E+04  0.23940326672E+04  0.25500000920E-02 0. -1.
        2   -1    0    0  501    0  0.00000000000E+00  0.00000000000E+00 -0.12279562860E+04  0.12279562860E+04  0.25500000920E-02 0.  1.
    10030    2    1    2    0    0  0.00000000000E+00  0.00000000000E+00  0.11660763812E+04  0.36219889531E+04  0.34291500186E+04 0.  0.
        4    1    3    3  502    0 -0.12865093030E+04  0.10747193882E+04  0.20273792441E+03  0.16885592168E+04  0.12699999809E+01 0.  1.
       -4    1    3    3    0  502  0.12865093030E+04 -0.10747193882E+04  0.96333845679E+03  0.19334297363E+04  0.12699999809E+01 0. -1.
</event>
<event>
 5   0  0.2097842E-06  0.3193056E+04  0.7818609E-02  0.8190653E-01
        1   -1    0    0  501    0  0.00000000000E+00  0.00000000000E+00  0.84130892932E+03  0.84130892934E+03  0.50400001928E-02 0.  1.
       -1   -1    0    0    0  501  0.00000000000E+00  0.00000000000E+00 -0.30296865160E+04  0.30296865160E+04  0.50400001928E-02 0. -1.
    10030    2    1    2    0    0  0.00000000000E+00  0.00000000000E+00 -0.21883775867E+04  0.38709954453E+04  0.31930564160E+04 0.  0.
        4    1    3    3  502    0  0.73268374643E+03 -0.13324364950E+04 -0.50438930574E+03  0.16020682476E+04  0.12699999809E+01 0.  1.
       -4    1    3    3    0  502 -0.73268374643E+03  0.13324364950E+04 -0.16839882809E+04  0.22689271977E+04  0.12699999809E+01 0. -1.
</event>
<event>
 5   0  0.2730981E-06  0.2638238E+04  0.7818609E-02  0.8355327E-01
       -1   -1    0    0    0  501  0.00000000000E+00  0.00000000000E+00  0.79291221795E+03  0.79291221797E+03  0.50400001928E-02 0. -1.
        1   -1    0    0  501    0  0.00000000000E+00  0.00000000000E+00 -0.21945366078E+04  0.21945366078E+04  0.50400001928E-02 0.  1.
    10030    2    1    2    0    0  0.00000000000E+00  0.00000000000E+00 -0.14016243899E+04  0.29874488258E+04  0.26382379643E+04 0.  0.
        3    1    3    3  502    0  0.80752510155E+03 -0.92918065374E+03 -0.16416020938E+03  0.12419428576E+04  0.10100000352E+00 0. -1.
       -3    1    3    3    0  502 -0.80752510155E+03  0.92918065374E+03 -0.12374641805E+04  0.17455059682E+04  0.10100000352E+00 0.  1.
</event>
<event>
 5   0  0.5637538E-06  0.3277806E+04  0.7818609E-02  0.8168566E-01
       -2   -1    0    0    0  501  0.00000000000E+00  0.00000000000E+00  0.20293567852E+04  0.20293567852E+04  0.25500000920E-02 0. -1.
        2   -1    0    0  501    0  0.00000000000E+00  0.00000000000E+00 -0.13235738069E+04  0.13235738069E+04  0.25500000920E-02 0.  1.
    10030    2    1    2    0    0  0.00000000000E+00  0.00000000000E+00  0.70578297830E+03  0.33529305922E+04  0.32778062700E+04 0.  0.
        2    1    3    3  502    0 -0.92722624926E+03 -0.13376923135E+04  0.54921266948E+03  0.17177903828E+04  0.25500000920E-02 0.  1.
       -2    1    3    3    0  502  0.92722624926E+03  0.13376923135E+04  0.15657030883E+03  0.16351402094E+04  0.25500000920E-02 0. -1.
</event>
<event>
 5   0  0.2730981E-06  0.3184399E+04  0.7818609E-02  0.8192949E-01
        1   -1    0    0  501    0  0.00000000000E+00  0.00000000000E+00  0.10569621652E+04  0.10569621652E+04  0.50400001928E-02 0. -1.
       -1   -1    0    0    0  501  0.00000000000E+00  0.00000000000E+00 -0.23984774316E+04  0.23984774316E+04  0.50400001928E-02 0.  1.
    10030    2    1    2    0    0  0.00000000000E+00  0.00000000000E+00 -0.13415152663E+04  0.34554395968E+04  0.31843994092E+04 0.  0.
        3    1    3    3  502    0  0.33271054880E+03  0.12829033308E+04 -0.16282218373E+04  0.20994388838E+04  0.10100000352E+00 0.  1.
       -3    1    3    3    0  502 -0.33271054880E+03 -0.12829033308E+04  0.28670657091E+03  0.13560007129E+04  0.10100000352E+00 0. -1.
</event>
<event>
 5   0  0.5300268E-06  0.3322337E+04  0.7818609E-02  0.8157235E-01
        2   -1    0    0  501    0  0.00000000000E+00  0.00000000000E+00  0.28065283797E+04  0.28065283797E+04  0.25500000920E-02 0. -1.
       -2   -1    0    0    0  501  0.00000000000E+00  0.00000000000E+00 -0.98323642815E+03  0.98323642815E+03  0.25500000920E-02 0.  1.
    10030    2    1    2    0    0  0.00000000000E+00  0.00000000000E+00  0.18232919516E+04  0.37897648079E+04  0.33223370928E+04 0.  0.
        4    1    3    3  502    0 -0.76718711205E+03 -0.44999937357E+01  0.25923327157E+04  0.27034768053E+04  0.12699999809E+01 0. -1.
       -4    1    3    3    0  502  0.76718711205E+03  0.44999937357E+01 -0.76904076412E+03  0.10862880026E+04  0.12699999809E+01 0.  1.
</event>
<event>
 5   0  0.5622811E-06  0.3308416E+04  0.7818609E-02  0.8160757E-01
        2   -1    0    0  501    0  0.00000000000E+00  0.00000000000E+00  0.18454063297E+04  0.18454063297E+04  0.25500000920E-02 0.  1.
       -2   -1    0    0    0  501  0.00000000000E+00  0.00000000000E+00 -0.14828190046E+04  0.14828190046E+04  0.25500000920E-02 0. -1.
    10030    2    1    2    0    0  0.00000000000E+00  0.00000000000E+00  0.36258732507E+03  0.33282253342E+04  0.33084156793E+04 0.  0.
        1    1    3    3  502    0 -0.32001278526E+03  0.88569180189E+03  0.15494166904E+04  0.18131602884E+04  0.50400001928E-02 0.  1.
       -1    1    3    3    0  502  0.32001278526E+03 -0.88569180189E+03 -0.11868293654E+04  0.15150650459E+04  0.50400001928E-02 0. -1.
</event>
<event>
 5   0  0.5622811E-06  0.3316286E+04  0.7818609E-02  0.8158764E-01
        2   -1    0    0  501    0  0.00000000000E+00  0.00000000000E+00  0.15073968676E+04  0.15073968676E+04  0.25500000920E-02 0. -1.
       -2   -1    0    0    0  501  0.00000000000E+00  0.00000000000E+00 -0.18239642333E+04  0.18239642333E+04  0.25500000920E-02 0.  1.
    10030    2    1    2    0    0  0.00000000000E+00  0.00000000000E+00 -0.31656736566E+03  0.33313611009E+04  0.33162858574E+04 0.  0.
        1    1    3    3  502    0 -0.10307860525E+04  0.89401464574E+02  0.11433400528E+04  0.15419918885E+04  0.50400001928E-02 0. -1.
       -1    1    3    3    0  502  0.10307860525E+04 -0.89401464574E+02 -0.14599074185E+04  0.17893692124E+04  0.50400001928E-02 0.  1.
</event>
<event>
 5   0  0.5855568E-06  0.2617795E+04  0.7818609E-02  0.8362182E-01
        2   -1    0    0  501    0  0.00000000000E+00  0.00000000000E+00  0.10023099986E+04  0.10023099986E+04  0.25500000920E-02 0. -1.
       -2   -1    0    0    0  501  0.00000000000E+00  0.00000000000E+00 -0.17092641195E+04  0.17092641195E+04  0.25500000920E-02 0.  1.
    10030    2    1    2    0    0  0.00000000000E+00  0.00000000000E+00 -0.70695412083E+03  0.27115741181E+04  0.26177948867E+04 0.  0.
        3    1    3    3  502    0 -0.25081404707E+02 -0.11640835160E+04  0.26584939901E+03  0.11943179737E+04  0.10100000352E+00 0. -1.
       -3    1    3    3    0  502  0.25081404707E+02  0.11640835160E+04 -0.97280351983E+03  0.15172561444E+04  0.10100000352E+00 0.  1.
</event>
<event>
 5   0  0.5755250E-06  0.3122531E+04  0.7818609E-02  0.8209582E-01
        2   -1    0    0  501    0  0.00000000000E+00  0.00000000000E+00  0.20339279694E+04  0.20339279694E+04  0.25500000920E-02 0. -1.
       -2   -1    0    0    0  501  0.00000000000E+00  0.00000000000E+00 -0.11984447007E+04  0.11984447007E+04  0.25500000920E-02 0.  1.
    10030    2    1    2    0    0  0.00000000000E+00  0.00000000000E+00  0.83548326875E+03  0.32323726702E+04  0.31225311506E+04 0.  0.
        5    1    3    3  502    0  0.64489270075E+02 -0.15321230337E+04  0.11422416684E+03  0.15377350574E+04  0.46999998093E+01 0.  1.
       -5    1    3    3    0  502 -0.64489270075E+02  0.15321230337E+04  0.72125910191E+03  0.16946376128E+04  0.46999998093E+01 0. -1.
</event>
<event>
 5   0  0.2730981E-06  0.3328023E+04  0.7818609E-02  0.8155801E-01
        1   -1    0    0  501    0  0.00000000000E+00  0.00000000000E+00  0.11639804868E+04  0.11639804868E+04  0.50400001928E-02 0.  1.
       -1   -1    0    0    0  501  0.00000000000E+00  0.00000000000E+00 -0.23788492934E+04  0.23788492934E+04  0.50400001928E-02 0. -1.
    10030    2    1    2    0    0  0.00000000000E+00  0.00000000000E+00 -0.12148688066E+04  0.35428297802E+04  0.33280229318E+04 0.  0.
        3    1    3    3  502    0  0.67859673251E+02  0.16418671228E+04 -0.32860986880E+03  0.16758034014E+04  0.10100000352E+00 0.  1.
       -3    1    3    3    0  502 -0.67859673251E+02 -0.16418671228E+04 -0.88625893776E+03  0.18670263788E+04  0.10100000352E+00 0. -1.
</event>
<event>
 5   0  0.2097842E-06  0.1648911E+04  0.7818609E-02  0.8791051E-01
       -1   -1    0    0    0  501  0.00000000000E+00  0.00000000000E+00  0.79096907732E+03  0.79096907734E+03  0.50400001928E-02 0.  1.
        1   -1    0    0  501    0  0.00000000000E+00  0.00000000000E+00 -0.85935953345E+03  0.85935953346E+03  0.50400001928E-02 0. -1.
    10030    2    1    2    0    0  0.00000000000E+00  0.00000000000E+00 -0.68390456122E+02  0.16503286108E+04  0.16489109343E+04 0.  0.
        4    1    3    3  502    0 -0.54680047328E+02  0.19246189969E+03  0.76630096797E+03  0.79199133633E+03  0.12699999809E+01 0.  1.
       -4    1    3    3    0  502  0.54680047328E+02 -0.19246189969E+03 -0.83469142409E+03  0.85833727448E+03  0.12699999809E+01 0. -1.
</event>
<event>
 5   0  0.5300268E-06  0.3329508E+04  0.7818609E-02  0.8155428E-01
       -2   -1    0    0    0  501  0.00000000000E+00  0.00000000000E+00  0.13809099685E+04  0.13809099685E+04  0.25500000920E-02 0.  1.
        2   -1    0    0  501    0  0.00000000000E+00  0.00000000000E+00 -0.20069411760E+04  0.20069411760E+04  0.25500000920E-02 0. -1.
    10030    2    1    2    0    0  0.00000000000E+00  0.00000000000E+00 -0.62603120744E+03  0.33878511445E+04  0.33295075169E+04 0.  0.
        4    1    3    3  502    0  0.69607842135E+03  0.73901939434E+03 -0.16555018850E+04  0.19419997266E+04  0.12699999809E+01 0. -1.
       -4    1    3    3    0  502 -0.69607842135E+03 -0.73901939434E+03  0.10294706776E+04  0.14458514179E+04  0.12699999809E+01 0.  1.
</event>
<event>
 5   0  0.2730981E-06  0.3267746E+04  0.7818609E-02  0.8171151E-01
        1   -1    0    0  501    0  0.00000000000E+00  0.00000000000E+00  0.19025907582E+04  0.19025907582E+04  0.50400001928E-02 0.  1.
       -1   -1    0    0    0  501  0.00000000000E+00  0.00000000000E+00 -0.14031080972E+04  0.14031080972E+04  0.50400001928E-02 0. -1.
    10030    2    1    2    0    0  0.00000000000E+00  0.00000000000E+00  0.49948266102E+03  0.33056988554E+04  0.32677457052E+04 0.  0.
        3    1    3    3  502    0 -0.38123713775E+03  0.10858578567E+04  0.14230010735E+04  0.18301259807E+04  0.10100000352E+00 0.  1.
       -3    1    3    3    0  502  0.38123713775E+03 -0.10858578567E+04 -0.92351841245E+03  0.14755728747E+04  0.10100000352E+00 0. -1.
</event>
<event>
 5   0  0.2037109E-06  0.3304940E+04  0.7818609E-02  0.8161639E-01
       -1   -1    0    0    0  501  0.00000000000E+00  0.00000000000E+00  0.15401557978E+04  0.15401557978E+04  0.50400001928E-02 0. -1.
        1   -1    0    0  501    0  0.00000000000E+00  0.00000000000E+00 -0.17729750514E+04  0.17729750514E+04  0.50400001928E-02 0.  1.
    10030    2    1    2    0    0  0.00000000000E+00  0.00000000000E+00 -0.23281925352E+03  0.33131308492E+04  0.33049404260E+04 0.  0.
        2    1    3    3  502    0  0.13582048905E+04  0.88209001967E+03  0.21281631012E+03  0.16334301666E+04  0.25500000920E-02 0. -1.
       -2    1    3    3    0  502 -0.13582048905E+04 -0.88209001967E+03 -0.44563556364E+03  0.16797006826E+04  0.25500000920E-02 0.  1.
</event>
<event>
 5   0  0.1999849E-06  0.2251824E+04  0.7818609E-02  0.8497162E-01
        1   -1    0    0  501    0  0.00000000000E+00  0.00000000000E+00  0.26673625144E+04  0.26673625144E+04  0.50400001928E-02 0. -1.
       -1   -1    0    0    0  501  0.00000000000E+00  0.00000000000E+00 -0.47525519184E+03  0.47525519186E+03  0.50400001928E-02 0.  1.
    10030    2    1    2    0    0  0.00000000000E+00  0.00000000000E+00  0.21921073225E+04  0.31426177062E+04  0.22518240460E+04 0.  0.
        5    1    3    3  502    0 -0.18863079371E+03 -0.26201591280E+02  0.26447080414E+04  0.26515600717E+04  0.46999998093E+01 0. -1.
       -5    1    3    3    0  502  0.18863079371E+03  0.26201591280E+02 -0.45260071885E+03  0.49105763453E+03  0.46999998093E+01 0.  1.
</event>
<event>
 5   0  0.2730981E-06  0.3328916E+04  0.7818609E-02  0.8155576E-01
        1   -1    0    0  501    0  0.00000000000E+00  0.00000000000E+00  0.24030518826E+04  0.24030518827E+04  0.50400001928E-02 0.  1.
       -1   -1    0    0    0  501  0.00000000000E+00  0.00000000000E+00 -0.11528760627E+04  0.11528760627E+04  0.50400001928E-02 0. -1.
    10030    2    1    2    0    0  0.00000000000E+00  0.00000000000E+00  0.12501758200E+04  0.35559279454E+04  0.33289163360E+04 0.  0.
        3    1    3    3  502    0 -0.97476357457E+03  0.13334930940E+04  0.40603490931E+03  0.17009503861E+04  0.10100000352E+00 0.  1.
       -3    1    3    3    0  502  0.97476357457E+03 -0.13334930940E+04  0.84414091064E+03  0.18549775593E+04  0.10100000352E+00 0. -1.
</event>
<event>
 5   0  0.1999849E-06  0.3273921E+04  0.7818609E-02  0.8169563E-01
        1   -1    0    0  501    0  0.00000000000E+00  0.00000000000E+00  0.16711768877E+04  0.16711768877E+04  0.50400001928E-02 0. -1.
       -1   -1    0    0    0  501  0.00000000000E+00  0.00000000000E+00 -0.16034442929E+04  0.16034442929E+04  0.50400001928E-02 0.  1.
    10030    2    1    2    0    0  0.00000000000E+00  0.00000000000E+00  0.67732594839E+02  0.32746211806E+04  0.32739206118E+04 0.  0.
        5    1    3    3  502    0 -0.62880686656E+02  0.67853637407E+03  0.15225568369E+04  0.16681028156E+04  0.46999998093E+01 0. -1.
       -5    1    3    3    0  502  0.62880686656E+02 -0.67853637407E+03 -0.14548242421E+04  0.16065183650E+04  0.46999998093E+01 0.  1.
</event>
<event>
 5   0  0.2037109E-06  0.3316083E+04  0.7818609E-02  0.8158815E-01
       -1   -1    0    0    0  501  0.00000000000E+00  0.00000000000E+00  0.12445303487E+04  0.12445303487E+04  0.50400001928E-02 0.  1.
        1   -1    0    0  501    0  0.00000000000E+00  0.00000000000E+00 -0.22089469023E+04  0.22089469023E+04  0.50400001928E-02 0. -1.
    10030    2    1    2    0    0  0.00000000000E+00  0.00000000000E+00 -0.96441655369E+03  0.34534772510E+04  0.33160829052E+04 0.  0.
        2    1    3    3  502    0  0.85328824063E+03  0.58699101153E+03 -0.18306292865E+04  0.21032980897E+04  0.25500000920E-02 0. -1.
       -2    1    3    3    0  502 -0.85328824063E+03 -0.58699101153E+03  0.86621273285E+03  0.13501791614E+04  0.25500000920E-02 0.  1.
</event>
<event>
 5   0  0.2037109E-06  0.3315143E+04  0.7818609E-02  0.8159053E-01
        1   -1    0    0  501    0  0.00000000000E+00  0.00000000000E+00  0.14167177378E+04  0.14167177378E+04  0.50400001928E-02 0. -1.
       -1   -1    0    0    0  501  0.00000000000E+00  0.00000000000E+00 -0.19393720903E+04  0.19393720904E+04  0.50400001928E-02 0.  1.
    10030    2    1    2    0    0  0.00000000000E+00  0.00000000000E+00 -0.52265435254E+03  0.33560898282E+04  0.33151427364E+04 0.  0.
        2    1    3    3  502    0  0.44794764251E+03  0.87719990276E+03  0.10883337511E+04  0.14678580019E+04  0.25500000920E-02 0. -1.
       -2    1    3    3    0  502 -0.44794764251E+03 -0.87719990276E+03 -0.16109881036E+04  0.18882318263E+04  0.25500000920E-02 0.  1.
</event>
<event>
 5   0  0.5755250E-06  0.3115776E+04  0.7818609E-02  0.8211422E-01
        2   -1    0    0  501    0  0.00000000000E+00  0.00000000000E+00  0.23163057499E+04  0.23163057499E+04  0.25500000920E-02 0.  1.
       -2   -1    0    0    0  501  0.00000000000E+00  0.00000000000E+00 -0.10477954205E+04  0.10477954205E+04  0.25500000920E-02 0. -1.
    10030    2    1    2    0    0  0.00000000000E+00  0.00000000000E+00  0.12685103294E+04  0.33641011703E+04  0.31157757025E+04 0.  0.
        5    1    3    3  502    0 -0.14312396335E+04  0.57579051110E+02 -0.27125923604E+02  0.14326619076E+04  0.46999998093E+01 0. -1.
       -5    1    3    3    0  502  0.14312396335E+04 -0.57579051110E+02  0.12956362530E+04  0.19314392628E+04  0.46999998093E+01 0.  1.
</event>
<event>
 5   0  0.1925906E-06  0.3062089E+04  0.7818609E-02  0.8226220E-01
       -1   -1    0    0    0  501  0.00000000000E+00  0.00000000000E+00  0.14174885852E+04  0.14174885852E+04  0.50400001928E-02 0. -1.
        1   -1    0    0  501    0  0.00000000000E+00  0.00000000000E+00 -0.16536969853E+04  0.16536969853E+04  0.50400001928E-02 0.  1.
    10030    2    1    2    0    0  0.00000000000E+00  0.00000000000E+00 -0.23620840010E+03  0.30711855705E+04  0.30620885683E+04 0.  0.
        1    1    3    3  502    0 -0.28475147357E+02  0.13011270264E+04 -0.92694545477E+03  0.15978016926E+04  0.50400001928E-02 0.  1.
       -1    1    3    3    0  502  0.28475147357E+02 -0.13011270264E+04  0.69073705467E+03  0.14733838779E+04  0.50400001928E-02 0. -1.
</event>
<event>
 5   0  0.5755250E-06  0.3135697E+04  0.7818609E-02  0.8206009E-01
        2   -1    0    0  501    0  0.00000000000E+00  0.00000000000E+00  0.32557626313E+04  0.32557626313E+04  0.25500000920E-02 0. -1.
       -2   -1    0    0    0  501  0.00000000000E+00  0.00000000000E+00 -0.75501485466E+03  0.75501485467E+03  0.25500000920E-02 0.  1.
    10030    2    1    2    0    0  0.00000000000E+00  0.00000000000E+00  0.25007477766E+04  0.40107774859E+04  0.31356971473E+04 0.  0.
        5    1    3    3  502    0 -0.38695829185E+03 -0.12981421224E+04  0.22601247494E+04  0.26349754577E+04  0.46999998093E+01 0. -1.
       -5    1    3    3    0  502  0.38695829185E+03  0.12981421224E+04  0.24062302718E+03  0.13758020282E+04  0.46999998093E+01 0.  1.
</event>
<event>
 5   0  0.2730981E-06  0.2270027E+04  0.7818609E-02  0.8489834E-01
       -1   -1    0    0    0  501  0.00000000000E+00  0.00000000000E+00  0.11755938487E+04  0.11755938487E+04  0.50400001928E-02 0. -1.
        1   -1    0    0  501    0  0.00000000000E+00  0.00000000000E+00 -0.10958339978E+04  0.10958339979E+04  0.50400001928E-02 0.  1.
    10030    2    1    2    0    0  0.00000000000E+00  0.00000000000E+00  0.79759850853E+02  0.22714278466E+04  0.22700270545E+04 0.  0.
        3    1    3    3  502    0  0.20785184701E+03  0.13171035667E+03  0.11485824758E+04  0.11746453603E+04  0.10100000352E+00 0. -1.
       -3    1    3    3    0  502 -0.20785184701E+03 -0.13171035667E+03 -0.10688226250E+04  0.10967824863E+04  0.10100000352E+00 0.  1.
</event>
<event>
 5   0  0.5300268E-06  0.3506143E+04  0.7818609E-02  0.8112336E-01
       -2   -1    0    0    0  501  0.00000000000E+00  0.00000000000E+00  0.25449350701E+04  0.25449350701E+04  0.25500000920E-02 0.  1.
        2   -1    0    0  501    0  0.00000000000E+00  0.00000000000E+00 -0.12075985316E+04  0.12075985316E+04  0.25500000920E-02 0. -1.
    10030    2    1    2    0    0  0.00000000000E+00  0.00000000000E+00  0.13373365385E+04  0.37525336016E+04  0.35061430966E+04 0.  0.
        4    1    3    3  502    0 -0.67818551870E+03 -0.68437911792E+03  0.22361530152E+04  0.24348906126E+04  0.12699999809E+01 0.  1.
       -4    1    3    3    0  502  0.67818551870E+03  0.68437911792E+03 -0.89881647675E+03  0.13176429890E+04  0.12699999809E+01 0. -1.
</event>
<event>
 5   0  0.2097842E-06  0.1903498E+04  0.7818609E-02  0.8653117E-01
       -1   -1    0    0    0  501  0.00000000000E+00  0.00000000000E+00  0.70791883981E+03  0.70791883983E+03  0.50400001928E-02 0.  1.
        1   -1    0    0  501    0  0.00000000000E+00  0.00000000000E+00 -0.12795621460E+04  0.12795621460E+04  0.50400001928E-02 0. -1.
    10030    2    1    2    0    0  0.00000000000E+00  0.00000000000E+00 -0.57164330620E+03  0.19874809859E+04  0.19034979904E+04 0.  0.
        4    1    3    3  502    0  0.52315730507E+02  0.31403441773E+03 -0.12223166953E+04  0.12630970936E+04  0.12699999809E+01 0. -1.
       -4    1    3    3    0  502 -0.52315730507E+02 -0.31403441773E+03  0.65067338914E+03  0.72438389229E+03  0.12699999809E+01 0.  1.
</event>
<event>
 5   0  0.5300268E-06  0.3511194E+04  0.7818609E-02  0.8111142E-01
        2   -1    0    0  501    0  0.00000000000E+00  0.00000000000E+00  0.11476807285E+04  0.11476807285E+04  0.25500000920E-02 0.  1.
       -2   -1    0    0    0  501  0.00000000000E+00  0.00000000000E+00 -0.26855205649E+04  0.26855205649E+04  0.25500000920E-02 0. -1.
    10030    2    1    2    0    0  0.00000000000E+00  0.00000000000E+00 -0.15378398364E+04  0.38332012933E+04  0.35111936422E+04 0.  0.
        4    1    3    3  502    0  0.16623313792E+04  0.19855067635E+02 -0.15292251782E+03  0.16694690016E+04  0.12699999809E+01 0.  1.
       -4    1    3    3    0  502 -0.16623313792E+04 -0.19855067635E+02 -0.13849173186E+04  0.21637322917E+04  0.12699999809E+01 0. -1.
</event>
<event>
 5   0  0.5637538E-06  0.3367813E+04  0.7818609E-02  0.8145852E-01
        2   -1    0    0  501    0  0.00000000000E+00  0.00000000000E+00  0.14227107391E+04  0.14227107391E+04  0.25500000920E-02 0.  1.
       -2   -1    0    0    0  501  0.00000000000E+00  0.00000000000E+00 -0.19930552198E+04  0.19930552198E+04  0.25500000920E-02 0. -1.
    10030    2    1    2    0    0  0.00000000000E+00  0.00000000000E+00 -0.57034448068E+03  0.34157659590E+04  0.33678129787E+04 0.  0.
        2    1    3    3  502    0  0.14454064377E+04  0.51073398211E+01 -0.11613682805E+04  0.18541850334E+04  0.25500000920E-02 0. -1.
       -2    1    3    3    0  502 -0.14454064377E+04 -0.51073398211E+01  0.59102379982E+03  0.15615809256E+04  0.25500000920E-02 0.  1.
</event>
<event>
 5   0  0.1925906E-06  0.3329439E+04  0.7818609E-02  0.8155445E-01
        1   -1    0    0  501    0  0.00000000000E+00  0.00000000000E+00  0.10323034045E+04  0.10323034045E+04  0.50400001928E-02 0.  1.
       -1   -1    0    0    0  501  0.00000000000E+00  0.00000000000E+00 -0.26845704546E+04  0.26845704546E+04  0.50400001928E-02 0. -1.
    10030    2    1    2    0    0  0.00000000000E+00  0.00000000000E+00 -0.16522670501E+04  0.37168738591E+04  0.33294391239E+04 0.  0.
        1    1    3    3  502    0 -0.99285932892E+03  0.12524836423E+04 -0.13459412046E+04  0.20895077525E+04  0.50400001928E-02 0.  1.
       -1    1    3    3    0  502  0.99285932892E+03 -0.12524836423E+04 -0.30632584545E+03  0.16273661066E+04  0.50400001928E-02 0. -1.
</event>
<event>
 5   0  0.1878000E-06  0.3303557E+04  0.7818609E-02  0.8161991E-01
        3   -1    0    0  501    0  0.00000000000E+00  0.00000000000E+00  0.27219741285E+04  0.27219741304E+04  0.10100000352E+00 0.  1.
       -3   -1    0    0    0  501  0.00000000000E+00  0.00000000000E+00 -0.10023506087E+04  0.10023506138E+04  0.10100000352E+00 0. -1.
    10030    2    1    2    0    0  0.00000000000E+00  0.00000000000E+00  0.17196235199E+04  0.37243247441E+04  0.33035571358E+04 0.  0.
        5    1    3    3  502    0  0.33228885602E+03 -0.15906885852E+04  0.52605695254E+03  0.17080585664E+04  0.46999998093E+01 0. -1.
       -5    1    3    3    0  502 -0.33228885602E+03  0.15906885852E+04  0.11935665673E+04  0.20162661778E+04  0.46999998093E+01 0.  1.
</event>
<event>
 5   0  0.1925906E-06  0.3189977E+04  0.7818609E-02  0.8191469E-01
       -1   -1    0    0    0  501  0.00000000000E+00  0.00000000000E+00  0.18015408020E+04  0.18015408021E+04  0.50400001928E-02 0.  1.
        1   -1    0    0  501    0  0.00000000000E+00  0.00000000000E+00 -0.14121179752E+04  0.14121179752E+04  0.50400001928E-02 0. -1.
    10030    2    1    2    0    0  0.00000000000E+00  0.00000000000E+00  0.38942282684E+03  0.32136587773E+04  0.31899768963E+04 0.  0.
        1    1    3    3  502    0 -0.56053614106E+03 -0.12891310653E+04 -0.56449356717E+03  0.15148309003E+04  0.50400001928E-02 0. -1.
       -1    1    3    3    0  502  0.56053614106E+03  0.12891310653E+04  0.95391639401E+03  0.16988278770E+04  0.50400001928E-02 0.  1.
</event>
<event>
 5   0  0.5755250E-06  0.2256383E+04  0.7818609E-02  0.8495320E-01
        2   -1    0    0  501    0  0.00000000000E+00  0.00000000000E+00  0.11813715302E+04  0.11813715302E+04  0.25500000920E-02 0.  1.
       -2   -1    0    0    0  501  0.00000000000E+00  0.00000000000E+00 -0.10774054293E+04  0.10774054293E+04  0.25500000920E-02 0. -1.
    10030    2    1    2    0    0  0.00000000000E+00  0.00000000000E+00  0.10396610093E+03  0.22587769594E+04  0.22563830354E+04 0.  0.
        5    1    3    3  502    0  0.51923195792E+03  0.99628876329E+03  0.15505288448E+03  0.11341325377E+04  0.46999998093E+01 0.  1.
       -5    1    3    3    0  502 -0.51923195792E+03 -0.99628876329E+03 -0.51086783550E+02  0.11246444218E+04  0.46999998093E+01 0. -1.
</event>
<event>
 5   0  0.5855568E-06  0.3330870E+04  0.7818609E-02  0.8155085E-01
       -2   -1    0    0    0  501  0.00000000000E+00  0.00000000000E+00  0.20537038522E+04  0.20537038522E+04  0.25500000920E-02 0.  1.
        2   -1    0    0  501    0  0.00000000000E+00  0.00000000000E+00 -0.13505711182E+04  0.13505711182E+04  0.25500000920E-02 0. -1.
    10030    2    1    2    0    0  0.00000000000E+00  0.00000000000E+00  0.70313273408E+03  0.34042749704E+04  0.33308696211E+04 0.  0.
        3    1    3    3  502    0  0.88310628138E+03  0.55995328069E+02 -0.10904349036E+04  0.14043007050E+04  0.10100000352E+00 0. -1.
       -3    1    3    3    0  502 -0.88310628138E+03 -0.55995328069E+02  0.17935676377E+04  0.19999742654E+04  0.10100000352E+00 0.  1.
</event>
<event>
 5   0  0.5855568E-06  0.2531900E+04  0.7818609E-02  0.8391709E-01
       -2   -1    0    0    0  501  0.00000000000E+00  0.00000000000E+00  0.91250667671E+03  0.91250667671E+03  0.25500000920E-02 0.  1.
        2   -1    0    0  501    0  0.00000000000E+00  0.00000000000E+00 -0.17562926767E+04  0.17562926767E+04  0.25500000920E-02 0. -1.
    10030    2    1    2    0    0  0.00000000000E+00  0.00000000000E+00 -0.84378599997E+03  0.26687993534E+04  0.25318995191E+04 0.  0.
        3    1    3    3  502    0  0.55783355779E+03  0.19283676191E+03 -0.16023876431E+04  0.17076330004E+04  0.10100000352E+00 0. -1.
       -3    1    3    3    0  502 -0.55783355779E+03 -0.19283676191E+03  0.75860164316E+03  0.96116635301E+03  0.10100000352E+00 0.  1.
</event>
<event>
 5   0  0.2037109E-06  0.2493052E+04  0.7818609E-02  0.8405465E-01
        1   -1    0    0  501    0  0.00000000000E+00  0.00000000000E+00  0.11664746763E+04  0.11664746763E+04  0.50400001928E-02 0.  1.
       -1   -1    0    0    0  501  0.00000000000E+00  0.00000000000E+00 -0.13320710298E+04  0.13320710298E+04  0.50400001928E-02 0. -1.
    10030    2    1    2    0    0  0.00000000000E+00  0.00000000000E+00 -0.16559635345E+03  0.24985457061E+04  0.24930520439E+04 0.  0.
        2    1    3    3  502    0  0.11984644124E+04 -0.32915261089E+03  0.13166332303E+02  0.12429126041E+04  0.25500000920E-02 0. -1.
       -2    1    3    3    0  502 -0.11984644124E+04  0.32915261089E+03 -0.17876268575E+03  0.12556331020E+04  0.25500000920E-02 0.  1.
</event>
<event>
 5   0  0.5300268E-06  0.3302318E+04  0.7818609E-02  0.8162306E-01
        2   -1    0    0  501    0  0.00000000000E+00  0.00000000000E+00  0.19424528254E+04  0.19424528254E+04  0.25500000920E-02 0.  1.
       -2   -1    0    0    0  501  0.00000000000E+00  0.00000000000E+00 -0.14035482193E+04  0.14035482193E+04  0.25500000920E-02 0. -1.
    10030    2    1    2    0    0  0.00000000000E+00  0.00000000000E+00  0.53890460611E+03  0.33460010446E+04  0.33023180974E+04 0.  0.
        4    1    3    3  502    0 -0.12034923837E+04  0.44344968440E+03  0.13230549800E+04  0.18426930383E+04  0.12699999809E+01 0.  1.
       -4    1    3    3    0  502  0.12034923837E+04 -0.44344968440E+03 -0.78415037388E+03  0.15033080064E+04  0.12699999809E+01 0. -1.
</event>
<event>
 5   0  0.1925906E-06  0.3079131E+04  0.7818609E-02  0.8221489E-01
        1   -1    0    0  501    0  0.00000000000E+00  0.00000000000E+00  0.33359615508E+04  0.33359615508E+04  0.50400001928E-02 0. -1.
       -1   -1    0    0    0  501  0.00000000000E+00  0.00000000000E+00 -0.71051840878E+03  0.71051840880E+03  0.50400001928E-02 0.  1.
    10030    2    1    2    0    0  0.00000000000E+00  0.00000000000E+00  0.26254431421E+04  0.40464799596E+04  0.30791311066E+04 0.  0.
        1    1    3    3  502    0 -0.13880290392E+04  0.52093143595E+02  0.21853532507E+04  0.25894221633E+04  0.50400001928E-02 0. -1.
       -1    1    3    3    0  502  0.13880290392E+04 -0.52093143595E+02  0.44008989138E+03  0.14570577964E+04  0.50400001928E-02 0.  1.
</event>
<event>
 5   0  0.5855568E-06  0.3182148E+04  0.7818609E-02  0.8193548E-01
       -2   -1    0    0    0  501  0.00000000000E+00  0.00000000000E+00  0.17853281828E+04  0.17853281828E+04  0.25500000920E-02 0.  1.
        2   -1    0    0  501    0  0.00000000000E+00  0.00000000000E+00 -0.14179556975E+04  0.14179556975E+04  0.25500000920E-02 0. -1.
    10030    2    1    2    0    0  0.00000000000E+00  0.00000000000E+00  0.36737248529E+03  0.32032838803E+04  0.31821478713E+04 0.  0.
        3    1    3    3  502    0 -0.88637572391E+03  0.49045736054E+03 -0.10513720468E+04  0.14599977868E+04  0.10100000352E+00 0. -1.
       -3    1    3    3    0  502  0.88637572391E+03 -0.49045736054E+03  0.14187445321E+04  0.17432860935E+04  0.10100000352E+00 0.  1.
</event>
<event>
 5   0  0.1925906E-06  0.3296908E+04  0.7818609E-02  0.8163683E-01
       -1   -1    0    0    0  501  0.00000000000E+00  0.00000000000E+00  0.15266697289E+04  0.15266697289E+04  0.50400001928E-02 0.  1.
        1   -1    0    0  501    0  0.00000000000E+00  0.00000000000E+00 -0.17799531939E+04  0.17799531939E+04  0.50400001928E-02 0. -1.
    10030    2    1    2    0    0  0.00000000000E+00  0.00000000000E+00 -0.25328346497E+03  0.33066229228E+04  0.32969080424E+04 0.  0.
        1    1    3    3  502    0 -0.19854904264E+03  0.13888186293E+04  0.74145003316E+03  0.15868166432E+04  0.50400001928E-02 0.  1.
       -1    1    3    3    0  502  0.19854904264E+03 -0.13888186293E+04 -0.99473349813E+03  0.17198062797E+04  0.50400001928E-02 0. -1.
</event>
<event>
 5   0  0.5755250E-06  0.3292482E+04  0.7818609E-02  0.8164811E-01
       -2   -1    0    0    0  501  0.00000000000E+00  0.00000000000E+00  0.16629343485E+04  0.16629343485E+04  0.25500000920E-02 0. -1.
        2   -1    0    0  501    0  0.00000000000E+00  0.00000000000E+00 -0.16297151388E+04  0.16297151388E+04  0.25500000920E-02 0.  1.
    10030    2    1    2    0    0  0.00000000000E+00  0.00000000000E+00  0.33219209722E+02  0.32926494872E+04  0.32924819103E+04 0.  0.
        5    1    3    3  502    0 -0.23742049018E+03  0.14580123257E+04  0.74322676781E+03  0.16536555111E+04  0.46999998093E+01 0. -1.
       -5    1    3    3    0  502  0.23742049018E+03 -0.14580123257E+04 -0.71000755808E+03  0.16389939761E+04  0.46999998093E+01 0.  1.
</event>
<event>
 5   0  0.2097842E-06  0.3243835E+04  0.7818609E-02  0.8177335E-01
        1   -1    0    0  501    0  0.00000000000E+00  0.00000000000E+00  0.17342571628E+04  0.17342571628E+04  0.50400001928E-02 0.  1.
       -1   -1    0    0    0  501  0.00000000000E+00  0.00000000000E+00 -0.15168552502E+04  0.15168552502E+04  0.50400001928E-02 0. -1.
    10030    2    1    2    0    0  0.00000000000E+00  0.00000000000E+00  0.21740191262E+03  0.32511124130E+04  0.32438354351E+04 0.  0.
        4    1    3    3  502    0 -0.22906916900E+03  0.11684245240E+04 -0.99509929754E+03  0.15517450748E+04  0.12699999809E+01 0. -1.
       -4    1    3    3    0  502  0.22906916900E+03 -0.11684245240E+04  0.12125012102E+04  0.16993673381E+04  0.12699999809E+01 0.  1.
</event>
<event>
 5   0  0.5637538E-06  0.2461738E+04  0.7818609E-02  0.8416745E-01
        2   -1    0    0  501    0  0.00000000000E+00  0.00000000000E+00  0.15976268621E+04  0.15976268621E+04  0.25500000920E-02 0.  1.
       -2   -1    0    0    0  501  0.00000000000E+00  0.00000000000E+00 -0.94830561939E+03  0.94830561940E+03  0.25500000920E-02 0. -1.
    10030    2    1    2    0    0  0.00000000000E+00  0.00000000000E+00  0.64932124273E+03  0.25459324815E+04  0.24617380292E+04 0.  0.
        2    1    3    3  502    0  0.39183808273E+03 -0.87441867752E+03 -0.47435164106E+03  0.10691840749E+04  0.25500000920E-02 0. -1.
       -2    1    3    3    0  502 -0.39183808273E+03  0.87441867752E+03  0.11236728838E+04  0.14767484066E+04  0.25500000920E-02 0.  1.
</event>
<event>
 5   0  0.5855568E-06  0.3288608E+04  0.7818609E-02  0.8165800E-01
       -2   -1    0    0    0  501  0.00000000000E+00  0.00000000000E+00  0.12308327642E+04  0.12308327642E+04  0.25500000920E-02 0. -1.
        2   -1    0    0  501    0  0.00000000000E+00  0.00000000000E+00 -0.21966723537E+04  0.21966723537E+04  0.25500000920E-02 0.  1.
    10030    2    1    2    0    0  0.00000000000E+00  0.00000000000E+00 -0.96583958952E+03  0.34275051179E+04  0.32886084018E+04 0.  0.
        3    1    3    3  502    0  0.96979156974E+03 -0.13167985558E+04 -0.66126752031E+03  0.17640093166E+04  0.10100000352E+00 0.  1.
       -3    1    3    3    0  502 -0.96979156974E+03  0.13167985558E+04 -0.30457206920E+03  0.16634958013E+04  0.10100000352E+00 0. -1.
</event>
<event>
 5   0  0.1999849E-06  0.3320431E+04  0.7818609E-02  0.8157716E-01
       -1   -1    0    0    0  501  0.00000000000E+00  0.00000000000E+00  0.16759910609E+04  0.16759910609E+04  0.50400001928E-02 0. -1.
        1   -1    0    0  501    0  0.00000000000E+00  0.00000000000E+00 -0.16445883628E+04  0.16445883628E+04  0.50400001928E-02 0.  1.
    10030    2    1    2    0    0  0.00000000000E+00  0.00000000000E+00  0.31402698101E+02  0.33205794236E+04  0.33204309328E+04 0.  0.
        5    1    3    3  502    0 -0.83221590866E+02  0.26954519823E+02 -0.16422753611E+04  0.16446102368E+04  0.46999998093E+01 0.  1.
       -5    1    3    3    0  502  0.83221590866E+02 -0.26954519823E+02  0.16736780592E+04  0.16759691868E+04  0.46999998093E+01 0. -1.
</event>
<event>
 5   0  0.1878000E-06  0.2914396E+04  0.7818609E-02  0.8268607E-01
       -4   -1    0    0    0  501  0.00000000000E+00  0.00000000000E+00  0.15387695592E+04  0.15387700833E+04  0.12699999809E+01 0.  1.
        4   -1    0    0  501    0  0.00000000000E+00  0.00000000000E+00 -0.13799492616E+04  0.13799498461E+04  0.12699999809E+01 0. -1.
    10030    2    1    2    0    0  0.00000000000E+00  0.00000000000E+00  0.15882029758E+03  0.29187199294E+04  0.29143956731E+04 0.  0.
        4    1    3    3  502    0  0.12185688371E+04  0.75916882821E+03  0.32913249123E+03  0.14729484479E+04  0.12699999809E+01 0.  1.
       -4    1    3    3    0  502 -0.12185688371E+04 -0.75916882821E+03 -0.17031219365E+03  0.14457714815E+04  0.12699999809E+01 0. -1.
</event>
<event>
 5   0  0.5300268E-06  0.3310132E+04  0.7818609E-02  0.8160322E-01
       -2   -1    0    0    0  501  0.00000000000E+00  0.00000000000E+00  0.23132980871E+04  0.23132980871E+04  0.25500000920E-02 0. -1.
        2   -1    0    0  501    0  0.00000000000E+00  0.00000000000E+00 -0.11841288997E+04  0.11841288997E+04  0.25500000920E-02 0.  1.
    10030    2    1    2    0    0  0.00000000000E+00  0.00000000000E+00  0.11291691873E+04  0.34974269868E+04  0.33101317911E+04 0.  0.
        4    1    3    3  502    0 -0.45876190465E+02 -0.16527060060E+04  0.48481620248E+03  0.17229597007E+04  0.12699999809E+01 0.  1.
       -4    1    3    3    0  502  0.45876190465E+02  0.16527060060E+04  0.64435298485E+03  0.17744672860E+04  0.12699999809E+01 0. -1.
</event>
<event>
 5   0  0.5637538E-06  0.3235112E+04  0.7818609E-02  0.8179605E-01
        2   -1    0    0  501    0  0.00000000000E+00  0.00000000000E+00  0.18474087655E+04  0.18474087655E+04  0.25500000920E-02 0.  1.
       -2   -1    0    0    0  501  0.00000000000E+00  0.00000000000E+00 -0.14163014987E+04  0.14163014987E+04  0.25500000920E-02 0. -1.
    10030    2    1    2    0    0  0.00000000000E+00  0.00000000000E+00  0.43110726682E+03  0.32637102642E+04  0.32351122412E+04 0.  0.
        2    1    3    3  502    0  0.12798411225E+04 -0.25535856234E+03 -0.74855454187E+03  0.15045049672E+04  0.25500000920E-02 0. -1.
       -2    1    3    3    0  502 -0.12798411225E+04  0.25535856234E+03  0.11796618087E+04  0.17592052970E+04  0.25500000920E-02 0.  1.
</event>
<event>
 5   0  0.2037109E-06  0.3341261E+04  0.7818609E-02  0.8152475E-01
        1   -1    0    0  501    0  0.00000000000E+00  0.00000000000E+00  0.21693096726E+04  0.21693096726E+04  0.50400001928E-02 0. -1.
       -1   -1    0    0    0  501  0.00000000000E+00  0.00000000000E+00 -0.12865874747E+04  0.12865874747E+04  0.50400001928E-02 0.  1.
    10030    2    1    2    0    0  0.00000000000E+00  0.00000000000E+00  0.88272219794E+03  0.34558971473E+04  0.33412612310E+04 0.  0.
        2    1    3    3  502    0  0.13956917756E+04 -0.69674473355E+03  0.10598727079E+04  0.18859318421E+04  0.25500000920E-02 0.  1.
       -2    1    3    3    0  502 -0.13956917756E+04  0.69674473355E+03 -0.17715050997E+03  0.15699653052E+04  0.25500000920E-02 0. -1.
</event>
<event>
 5   0  0.5637538E-06  0.3405177E+04  0.7818609E-02  0.8136637E-01
       -2   -1    0    0    0  501  0.00000000000E+00  0.00000000000E+00  0.10706981595E+04  0.10706981595E+04  0.25500000920E-02 0.  1.
        2   -1    0    0  501    0  0.00000000000E+00  0.00000000000E+00 -0.27073999506E+04  0.27073999506E+04  0.25500000920E-02 0. -1.
    10030    2    1    2    0    0  0.00000000000E+00  0.00000000000E+00 -0.16367017911E+04  0.37780981101E+04  0.34051773194E+04 0.  0.
        2    1    3    3  502    0 -0.42385825378E+03 -0.10067496070E+04  0.63066468366E+03  0.12613241192E+04  0.25500000920E-02 0.  1.
       -2    1    3    3    0  502  0.42385825378E+03  0.10067496070E+04 -0.22673664748E+04  0.25167739909E+04  0.25500000920E-02 0. -1.
</event>
<event>
 5   0  0.5755250E-06  0.3248967E+04  0.7818609E-02  0.8176003E-01
       -2   -1    0    0    0  501  0.00000000000E+00  0.00000000000E+00  0.16726039558E+04  0.16726039558E+04  0.25500000920E-02 0.  1.
        2   -1    0    0  501    0  0.00000000000E+00  0.00000000000E+00 -0.15777476396E+04  0.15777476396E+04  0.25500000920E-02 0. -1.
    10030    2    1    2    0    0  0.00000000000E+00  0.00000000000E+00  0.94856316252E+02  0.32503515954E+04  0.32489671856E+04 0.  0.
        5    1    3    3  502    0 -0.48568079136E+03  0.11474375669E+04 -0.99533361638E+03  0.15947444620E+04  0.46999998093E+01 0. -1.
       -5    1    3    3    0  502  0.48568079136E+03 -0.11474375669E+04  0.10901899326E+04  0.16556071334E+04  0.46999998093E+01 0.  1.
</event>
<event>
 5   0  0.5300268E-06  0.1904260E+04  0.7818609E-02  0.8652739E-01
       -2   -1    0    0    0  501  0.00000000000E+00  0.00000000000E+00  0.66905204295E+03  0.66905204295E+03  0.25500000920E-02 0.  1.
        2   -1    0    0  501    0  0.00000000000E+00  0.00000000000E+00 -0.13549784297E+04  0.13549784297E+04  0.25500000920E-02 0. -1.
    10030    2    1    2    0    0  0.00000000000E+00  0.00000000000E+00 -0.68592638674E+03  0.20240304726E+04  0.19042595270E+04 0.  0.
        4    1    3    3  502    0 -0.24584491052E+03 -0.72074443279E+03  0.26450527832E+03  0.80614943565E+03  0.12699999809E+01 0.  1.
       -4    1    3    3    0  502  0.24584491052E+03  0.72074443279E+03 -0.95043166506E+03  0.12178810370E+04  0.12699999809E+01 0. -1.
</event>
<event>
 5   0  0.5637538E-06  0.1864315E+04  0.7818609E-02  0.8672826E-01
        2   -1    0    0  501    0  0.00000000000E+00  0.00000000000E+00  0.89267308345E+03  0.89267308345E+03  0.25500000920E-02 0. -1.
       -2   -1    0    0    0  501  0.00000000000E+00  0.00000000000E+00 -0.97338867796E+03  0.97338867796E+03  0.25500000920E-02 0.  1.
    10030    2    1    2    0    0  0.00000000000E+00  0.00000000000E+00 -0.80715594513E+02  0.18660617614E+04  0.18643152872E+04 0.  0.
        2    1    3    3  502    0  0.82065994591E+03 -0.35620879013E+03  0.22170883279E+03  0.92169531600E+03  0.25500000920E-02 0. -1.
       -2    1    3    3    0  502 -0.82065994591E+03  0.35620879013E+03 -0.30242442731E+03  0.94436644542E+03  0.25500000920E-02 0.  1.
</event>
<event>
 5   0  0.5755250E-06  0.3150029E+04  0.7818609E-02  0.8202140E-01
       -2   -1    0    0    0  501  0.00000000000E+00  0.00000000000E+00  0.25088405692E+04  0.25088405692E+04  0.25500000920E-02 0.  1.
        2   -1    0    0  501    0  0.00000000000E+00  0.00000000000E+00 -0.98877204796E+03  0.98877204796E+03  0.25500000920E-02 0. -1.
    10030    2    1    2    0    0  0.00000000000E+00  0.00000000000E+00  0.15200685212E+04  0.34976126172E+04  0.31500294777E+04 0.  0.
        5    1    3    3  502    0 -0.41945100033E+03  0.14373330631E+04  0.13026090053E+04  0.19846102355E+04  0.46999998093E+01 0.  1.
       -5    1    3    3    0  502  0.41945100033E+03 -0.14373330631E+04  0.21745951593E+03  0.15130023817E+04  0.46999998093E+01 0. -1.
</event>
<event>
 5   0  0.1925906E-06  0.3078669E+04  0.7818609E-02  0.8221616E-01
       -1   -1    0    0    0  501  0.00000000000E+00  0.00000000000E+00  0.24125354347E+04  0.24125354347E+04  0.50400001928E-02 0.  1.
        1   -1    0    0  501    0  0.00000000000E+00  0.00000000000E+00 -0.98218278256E+03  0.98218278257E+03  0.50400001928E-02 0. -1.
    10030    2    1    2    0    0  0.00000000000E+00  0.00000000000E+00  0.14303526521E+04  0.33947182173E+04  0.30786690412E+04 0.  0.
        1    1    3    3  502    0 -0.50340647880E+03  0.14483876415E+04  0.86436523833E+03  0.17602193352E+04  0.50400001928E-02 0.  1.
       -1    1    3    3    0  502  0.50340647880E+03 -0.14483876415E+04  0.56598741382E+03  0.16344988821E+04  0.50400001928E-02 0. -1.
</event>
<event>
 5   0  0.5855568E-06  0.2535749E+04  0.7818609E-02  0.8390359E-01
        2   -1    0    0  501    0  0.00000000000E+00  0.00000000000E+00  0.25587980742E+04  0.25587980742E+04  0.25500000920E-02 0.  1.
       -2   -1    0    0    0  501  0.00000000000E+00  0.00000000000E+00 -0.62822673978E+03  0.62822673979E+03  0.25500000920E-02 0. -1.
    10030    2    1    2    0    0  0.00000000000E+00  0.00000000000E+00  0.19305713344E+04  0.31870248140E+04  0.25357487036E+04 0.  0.
        3    1    3    3  502    0 -0.47886592212E+03 -0.47285357021E+03 -0.38521698152E+03  0.77543226866E+03  0.10100000352E+00 0. -1.
       -3    1    3    3    0  502  0.47886592212E+03  0.47285357021E+03  0.23157883160E+04  0.24115925453E+04  0.10100000352E+00 0.  1.
</event>
<event>
 5   0  0.1925906E-06  0.3271934E+04  0.7818609E-02  0.8170074E-01
        1   -1    0    0  501    0  0.00000000000E+00  0.00000000000E+00  0.13199222789E+04  0.13199222789E+04  0.50400001928E-02 0.  1.
       -1   -1    0    0    0  501  0.00000000000E+00  0.00000000000E+00 -0.20276854596E+04  0.20276854596E+04  0.50400001928E-02 0. -1.
    10030    2    1    2    0    0  0.00000000000E+00  0.00000000000E+00 -0.70776318072E+03  0.33476077385E+04  0.32719335035E+04 0.  0.
        1    1    3    3  502    0 -0.12844332979E+04 -0.91435404686E+03 -0.80052718051E+03  0.17682352747E+04  0.50400001928E-02 0. -1.
       -1    1    3    3    0  502  0.12844332979E+04  0.91435404686E+03  0.92763999786E+02  0.15793724638E+04  0.50400001928E-02 0.  1.
</event>
<event>
 5   0  0.5637538E-06  0.3206044E+04  0.7818609E-02  0.8187223E-01
        2   -1    0    0  501    0  0.00000000000E+00  0.00000000000E+00  0.14517400444E+04  0.14517400444E+04  0.25500000920E-02 0. -1.
       -2   -1    0    0    0  501  0.00000000000E+00  0.00000000000E+00 -0.17700683739E+04  0.17700683739E+04  0.25500000920E-02 0.  1.
    10030    2    1    2    0    0  0.00000000000E+00  0.00000000000E+00 -0.31832832947E+03  0.32218084183E+04  0.32060437550E+04 0.  0.
        2    1    3    3  502    0  0.10123937599E+04  0.11953882685E+04  0.18278081610E+03  0.15771185955E+04  0.25500000920E-02 0. -1.
       -2    1    3    3    0  502 -0.10123937599E+04 -0.11953882685E+04 -0.50110914558E+03  0.16446898228E+04  0.25500000920E-02 0.  1.
</event>
<event>
 5   0  0.6472509E-06  0.1715299E+04  0.7818609E-02  0.8752686E-01
       -2   -1    0    0    0  501  0.00000000000E+00  0.00000000000E+00  0.84287957466E+03  0.84287957467E+03  0.25500000920E-02 0. -1.
        2   -1    0    0  501    0  0.00000000000E+00  0.00000000000E+00 -0.87267850871E+03  0.87267850871E+03  0.25500000920E-02 0.  1.
    10030    2    1    2    0    0  0.00000000000E+00  0.00000000000E+00 -0.29798934048E+02  0.17155580834E+04  0.17152992628E+04 0.  0.
        5    1    3    3  502    0 -0.64094544184E+03  0.29071822926E+03 -0.50508835775E+03  0.86629353419E+03  0.46999998093E+01 0.  1.
       -5    1    3    3    0  502  0.64094544184E+03 -0.29071822926E+03  0.47528942370E+03  0.84926454920E+03  0.46999998093E+01 0. -1.
</event>
<event>
 5   0  0.1925906E-06  0.3333200E+04  0.7818609E-02  0.8154499E-01
       -1   -1    0    0    0  501  0.00000000000E+00  0.00000000000E+00  0.11662648762E+04  0.11662648762E+04  0.50400001928E-02 0.  1.
        1   -1    0    0  501    0  0.00000000000E+00  0.00000000000E+00 -0.23815824161E+04  0.23815824161E+04  0.50400001928E-02 0. -1.
    10030    2    1    2    0    0  0.00000000000E+00  0.00000000000E+00 -0.12153175399E+04  0.35478472924E+04  0.33332002171E+04 0.  0.
        1    1    3    3  502    0 -0.12264884587E+04  0.10796567642E+04 -0.95684457138E+03  0.18935374836E+04  0.50400001928E-02 0.  1.
       -1    1    3    3    0  502  0.12264884587E+04 -0.10796567642E+04 -0.25847296854E+03  0.16543098088E+04  0.50400001928E-02 0. -1.
</event>
<event>
 5   0  0.2097842E-06  0.3198715E+04  0.7818609E-02  0.8189157E-01
        1   -1    0    0  501    0  0.00000000000E+00  0.00000000000E+00  0.16185101232E+04  0.16185101232E+04  0.50400001928E-02 0. -1.
       -1   -1    0    0    0  501  0.00000000000E+00  0.00000000000E+00 -0.15804310841E+04  0.15804310841E+04  0.50400001928E-02 0.  1.
    10030    2    1    2    0    0  0.00000000000E+00  0.00000000000E+00  0.38079039163E+02  0.31989412073E+04  0.31987145597E+04 0.  0.
        4    1    3    3  502    0  0.35598874677E+03  0.14032493991E+04  0.69887091028E+03  0.16075630707E+04  0.12699999809E+01 0. -1.
       -4    1    3    3    0  502 -0.35598874677E+03 -0.14032493991E+04 -0.66079187111E+03  0.15913781367E+04  0.12699999809E+01 0.  1.
</event>
<event>
 5   0  0.1999849E-06  0.3202701E+04  0.7818609E-02  0.8188104E-01
        1   -1    0    0  501    0  0.00000000000E+00  0.00000000000E+00  0.15231830722E+04  0.15231830722E+04  0.50400001928E-02 0.  1.
       -1   -1    0    0    0  501  0.00000000000E+00  0.00000000000E+00 -0.16835289393E+04  0.16835289393E+04  0.50400001928E-02 0. -1.
    10030    2    1    2    0    0  0.00000000000E+00  0.00000000000E+00 -0.16034586709E+03  0.32067120115E+04  0.32027005991E+04 0.  0.
        5    1    3    3  502    0 -0.82443087610E+03 -0.31277810413E+03  0.12582078086E+04  0.15364326837E+04  0.46999998093E+01 0.  1.
       -5    1    3    3    0  502  0.82443087610E+03  0.31277810413E+03 -0.14185536757E+04  0.16702793278E+04  0.46999998093E+01 0. -1.
</event>
<event>
 5   0  0.1878000E-06  0.3344221E+04  0.7818609E-02  0.8151734E-01
        3   -1    0    0  501    0  0.00000000000E+00  0.00000000000E+00  0.22900577379E+04  0.22900577402E+04  0.10100000352E+00 0.  1.
       -3   -1    0    0    0  501  0.00000000000E+00  0.00000000000E+00 -0.12209097071E+04  0.12209097113E+04  0.10100000352E+00 0. -1.
    10030    2    1    2    0    0  0.00000000000E+00  0.00000000000E+00  0.10691480308E+04  0.35109674515E+04  0.33442211251E+04 0.  0.
        3    1    3    3  502    0 -0.24136806249E+03  0.51212145759E+03 -0.11172237001E+04  0.12524838263E+04  0.10100000352E+00 0. -1.
       -3    1    3    3    0  502  0.24136806249E+03 -0.51212145759E+03  0.21863717309E+04  0.22584836251E+04  0.10100000352E+00 0.  1.
</event>
<event>
 5   0  0.2730981E-06  0.3346211E+04  0.7818609E-02  0.8151236E-01
        1   -1    0    0  501    0  0.00000000000E+00  0.00000000000E+00  0.14927602814E+04  0.14927602815E+04  0.50400001928E-02 0.  1.
       -1   -1    0    0    0  501  0.00000000000E+00  0.00000000000E+00 -0.18752389443E+04  0.18752389443E+04  0.50400001928E-02 0. -1.
    10030    2    1    2    0    0  0.00000000000E+00  0.00000000000E+00 -0.38247866282E+03  0.33679992257E+04  0.33462111196E+04 0.  0.
        3    1    3    3  502    0 -0.15915769421E+04 -0.12880056769E+03  0.31158881609E+03  0.16268971539E+04  0.10100000352E+00 0.  1.
       -3    1    3    3    0  502  0.15915769421E+04  0.12880056769E+03 -0.69406747891E+03  0.17411020718E+04  0.10100000352E+00 0. -1.
</event>
<event>
 5   0  0.5755250E-06  0.3202614E+04  0.7818609E-02  0.8188127E-01
        2   -1    0    0  501    0  0.00000000000E+00  0.00000000000E+00  0.19628740924E+04  0.19628740924E+04  0.25500000920E-02 0.  1.
       -2   -1    0    0    0  501  0.00000000000E+00  0.00000000000E+00 -0.13063416290E+04  0.13063416290E+04  0.25500000920E-02 0. -1.
    10030    2    1    2    0    0  0.00000000000E+00  0.00000000000E+00  0.65653246339E+03  0.32692157214E+04  0.32026140194E+04 0.  0.
        5    1    3    3  502    0 -0.19758495984E+03 -0.13159509936E+04  0.12375171887E+04  0.18172060192E+04  0.46999998093E+01 0.  1.
       -5    1    3    3    0  502  0.19758495984E+03  0.13159509936E+04 -0.58098472532E+03  0.14520097021E+04  0.46999998093E+01 0. -1.
</event>
<event>
 5   0  0.1878000E-06  0.3308823E+04  0.7818609E-02  0.8160654E-01
       -3   -1    0    0    0  501  0.00000000000E+00  0.00000000000E+00  0.12101003062E+04  0.12101003104E+04  0.10100000352E+00 0.  1.
        3   -1    0    0  501    0  0.00000000000E+00  0.00000000000E+00 -0.22618602288E+04  0.22618602310E+04  0.10100000352E+00 0. -1.
    10030    2    1    2    0    0  0.00000000000E+00  0.00000000000E+00 -0.10517599226E+04  0.34719605415E+04  0.33088232148E+04 0.  0.
        3    1    3    3  502    0 -0.96433589456E+03  0.17098863344E+03 -0.19249984842E+04  0.21598148080E+04  0.10100000352E+00 0. -1.
       -3    1    3    3    0  502  0.96433589456E+03 -0.17098863344E+03  0.87323856163E+03  0.13121457335E+04  0.10100000352E+00 0.  1.
</event>
<event>
 5   0  0.5755250E-06  0.3320410E+04  0.7818609E-02  0.8157721E-01
       -2   -1    0    0    0  501  0.00000000000E+00  0.00000000000E+00  0.11816816053E+04  0.11816816053E+04  0.25500000920E-02 0.  1.
        2   -1    0    0  501    0  0.00000000000E+00  0.00000000000E+00 -0.23325066153E+04  0.23325066153E+04  0.25500000920E-02 0. -1.
    10030    2    1    2    0    0  0.00000000000E+00  0.00000000000E+00 -0.11508250099E+04  0.35141882206E+04  0.33204097106E+04 0.  0.
        5    1    3    3  502    0 -0.12383362149E+04 -0.30277660964E+03 -0.17010157719E+04  0.21257062362E+04  0.46999998093E+01 0. -1.
       -5    1    3    3    0  502  0.12383362149E+04  0.30277660964E+03  0.55019076198E+03  0.13884819844E+04  0.46999998093E+01 0.  1.
</event>
<event>
 5   0  0.2097842E-06  0.1895066E+04  0.7818609E-02  0.8657316E-01
       -1   -1    0    0    0  501  0.00000000000E+00  0.00000000000E+00  0.65709790569E+03  0.65709790571E+03  0.50400001928E-02 0.  1.
        1   -1    0    0  501    0  0.00000000000E+00  0.00000000000E+00 -0.13663396986E+04  0.13663396986E+04  0.50400001928E-02 0. -1.
    10030    2    1    2    0    0  0.00000000000E+00  0.00000000000E+00 -0.70924179295E+03  0.20234376044E+04  0.18950661777E+04 0.  0.
        4    1    3    3  502    0  0.16885639146E+03 -0.67267088325E+03  0.33472795486E+03  0.77009286113E+03  0.12699999809E+01 0.  1.
       -4    1    3    3    0  502 -0.16885639146E+03  0.67267088325E+03 -0.10439697478E+04  0.12533447432E+04  0.12699999809E+01 0. -1.
</event>
<event>
 5   0  0.1999849E-06  0.1802127E+04  0.7818609E-02  0.8705169E-01
        1   -1    0    0  501    0  0.00000000000E+00  0.00000000000E+00  0.23626124363E+04  0.23626124363E+04  0.50400001928E-02 0. -1.
       -1   -1    0    0    0  501  0.00000000000E+00  0.00000000000E+00 -0.34365141382E+03  0.34365141386E+03  0.50400001928E-02 0.  1.
    10030    2    1    2    0    0  0.00000000000E+00  0.00000000000E+00  0.20189610225E+04  0.27062638501E+04  0.18021266372E+04 0.  0.
        5    1    3    3  502    0  0.70107288279E+03  0.74060316473E+01  0.15954297124E+03  0.71905082293E+03  0.46999998093E+01 0.  1.
       -5    1    3    3    0  502 -0.70107288279E+03 -0.74060316473E+01  0.18594180512E+04  0.19872130272E+04  0.46999998093E+01 0. -1.
</event>
<event>
 5   0  0.5855568E-06  0.3178844E+04  0.7818609E-02  0.8194427E-01
        2   -1    0    0  501    0  0.00000000000E+00  0.00000000000E+00  0.19104522635E+04  0.19104522635E+04  0.25500000920E-02 0.  1.
       -2   -1    0    0    0  501  0.00000000000E+00  0.00000000000E+00 -0.13223371087E+04  0.13223371088E+04  0.25500000920E-02 0. -1.
    10030    2    1    2    0    0  0.00000000000E+00  0.00000000000E+00  0.58811515477E+03  0.32327893723E+04  0.31788437662E+04 0.  0.
        3    1    3    3  502    0  0.61426367190E+03 -0.37879781346E+03 -0.11461152337E+04  0.13543957254E+04  0.10100000352E+00 0. -1.
       -3    1    3    3    0  502 -0.61426367190E+03  0.37879781346E+03  0.17342303884E+04  0.18783936468E+04  0.10100000352E+00 0.  1.
</event>
<event>
 5   0  0.5755250E-06  0.2306699E+04  0.7818609E-02  0.8475284E-01
        2   -1    0    0  501    0  0.00000000000E+00  0.00000000000E+00  0.15017989454E+04  0.15017989454E+04  0.25500000920E-02 0.  1.
       -2   -1    0    0    0  501  0.00000000000E+00  0.00000000000E+00 -0.88574781712E+03  0.88574781713E+03  0.25500000920E-02 0. -1.
    10030    2    1    2    0    0  0.00000000000E+00  0.00000000000E+00  0.61605112828E+03  0.23875467625E+04  0.23066990594E+04 0.  0.
        5    1    3    3  502    0  0.90255676323E+03 -0.26967203741E+03  0.99682824292E+03  0.13715029546E+04  0.46999998093E+01 0.  1.
       -5    1    3    3    0  502 -0.90255676323E+03  0.26967203741E+03 -0.38077711464E+03  0.10160438079E+04  0.46999998093E+01 0. -1.
</event>
<event>
 5   0  0.1878000E-06  0.2625723E+04  0.7818609E-02  0.8359516E-01
       -3   -1    0    0    0  501  0.00000000000E+00  0.00000000000E+00  0.13136348189E+04  0.13136348227E+04  0.10100000352E+00 0. -1.
        3   -1    0    0  501    0  0.00000000000E+00  0.00000000000E+00 -0.13120886276E+04  0.13120886315E+04  0.10100000352E+00 0.  1.
    10030    2    1    2    0    0  0.00000000000E+00  0.00000000000E+00  0.15461912603E+01  0.26257234542E+04  0.26257229990E+04 0.  0.
        5    1    3    3  502    0 -0.34617063374E+03  0.88426285973E+03  0.90732072209E+03  0.13133955594E+04  0.46999998093E+01 0.  1.
       -5    1    3    3    0  502  0.34617063374E+03 -0.88426285973E+03 -0.90577453083E+03  0.13123278948E+04  0.46999998093E+01 0. -1.
</event>
<event>
 5   0  0.5300268E-06  0.3291541E+04  0.7818609E-02  0.8165051E-01
        2   -1    0    0  501    0  0.00000000000E+00  0.00000000000E+00  0.24214094534E+04  0.24214094534E+04  0.25500000920E-02 0. -1.
       -2   -1    0    0    0  501  0.00000000000E+00  0.00000000000E+00 -0.11185885825E+04  0.11185885825E+04  0.25500000920E-02 0.  1.
    10030    2    1    2    0    0  0.00000000000E+00  0.00000000000E+00  0.13028208708E+04  0.35399980359E+04  0.32915412610E+04 0.  0.
        4    1    3    3  502    0 -0.92114214280E+03  0.10954975513E+04  0.15250986508E+04  0.20915413550E+04  0.12699999809E+01 0. -1.
       -4    1    3    3    0  502  0.92114214280E+03 -0.10954975513E+04 -0.22227777998E+03  0.14484566809E+04  0.12699999809E+01 0.  1.
</event>
<event>
 5   0  0.1925906E-06  0.3279545E+04  0.7818609E-02  0.8168120E-01
       -1   -1    0    0    0  501  0.00000000000E+00  0.00000000000E+00  0.11840970152E+04  0.11840970152E+04  0.50400001928E-02 0. -1.
        1   -1    0    0  501    0  0.00000000000E+00  0.00000000000E+00 -0.22708049003E+04  0.22708049003E+04  0.50400001928E-02 0.  1.
    10030    2    1    2    0    0  0.00000000000E+00  0.00000000000E+00 -0.10867078851E+04  0.34549019156E+04  0.32795446664E+04 0.  0.
        1    1    3    3  502    0 -0.12641441835E+04 -0.24872098584E+03 -0.16119540810E+04  0.20635693846E+04  0.50400001928E-02 0.  1.
       -1    1    3    3    0  502  0.12641441835E+04  0.24872098584E+03  0.52524619594E+03  0.13913325310E+04  0.50400001928E-02 0. -1.
</event>
<event>
 5   0  0.2097842E-06  0.1914023E+04  0.7818609E-02  0.8647908E-01
       -1   -1    0    0    0  501  0.00000000000E+00  0.00000000000E+00  0.35351505062E+03  0.35351505065E+03  0.50400001928E-02 0.  1.
        1   -1    0    0  501    0  0.00000000000E+00  0.00000000000E+00 -0.25907549232E+04  0.25907549232E+04  0.50400001928E-02 0. -1.
    10030    2    1    2    0    0  0.00000000000E+00  0.00000000000E+00 -0.22372398726E+04  0.29442699739E+04  0.19140228399E+04 0.  0.
        4    1    3    3  502    0  0.86062433050E+03 -0.39367505113E+03 -0.89991077944E+03  0.13059461352E+04  0.12699999809E+01 0.  1.
       -4    1    3    3    0  502 -0.86062433050E+03  0.39367505113E+03 -0.13373290931E+04  0.16383238387E+04  0.12699999809E+01 0. -1.
</event>
<event>
 5   0  0.2097842E-06  0.3313819E+04  0.7818609E-02  0.8159388E-01
       -1   -1    0    0    0  501  0.00000000000E+00  0.00000000000E+00  0.13337726968E+04  0.13337726968E+04  0.50400001928E-02 0. -1.
        1   -1    0    0  501    0  0.00000000000E+00  0.00000000000E+00 -0.20583331120E+04  0.20583331120E+04  0.50400001928E-02 0.  1.
    10030    2    1    2    0    0  0.00000000000E+00  0.00000000000E+00 -0.72456041517E+03  0.33921058088E+04  0.33138186466E+04 0.  0.
        4    1    3    3  502    0  0.10997558327E+04  0.26640013658E+02 -0.16305729301E+04  0.19669627030E+04  0.12699999809E+01 0.  1.
       -4    1    3    3    0  502 -0.10997558327E+04 -0.26640013658E+02  0.90601251493E+03  0.14251431058E+04  0.12699999809E+01 0. -1.
</event>
<event>
 5   0  0.2097842E-06  0.1786818E+04  0.7818609E-02  0.8713341E-01
       -1   -1    0    0    0  501  0.00000000000E+00  0.00000000000E+00  0.74352031255E+03  0.74352031256E+03  0.50400001928E-02 0.  1.
        1   -1    0    0  501    0  0.00000000000E+00  0.00000000000E+00 -0.10735139142E+04  0.10735139142E+04  0.50400001928E-02 0. -1.
    10030    2    1    2    0    0  0.00000000000E+00  0.00000000000E+00 -0.32999360168E+03  0.18170342268E+04  0.17868177311E+04 0.  0.
        4    1    3    3  502    0 -0.28375147940E+03  0.10091711453E+03 -0.10203382443E+04  0.10638566218E+04  0.12699999809E+01 0. -1.
       -4    1    3    3    0  502  0.28375147940E+03 -0.10091711453E+03  0.69034464266E+03  0.75317760496E+03  0.12699999809E+01 0.  1.
</event>
<event>
 5   0  0.1925906E-06  0.3232775E+04  0.7818609E-02  0.8180215E-01
       -1   -1    0    0    0  501  0.00000000000E+00  0.00000000000E+00  0.18237801077E+04  0.18237801077E+04  0.50400001928E-02 0.  1.
        1   -1    0    0  501    0  0.00000000000E+00  0.00000000000E+00 -0.14325786551E+04  0.14325786552E+04  0.50400001928E-02 0. -1.
    10030    2    1    2    0    0  0.00000000000E+00  0.00000000000E+00  0.39120145259E+03  0.32563587629E+04  0.32327749405E+04 0.  0.
        1    1    3    3  502    0 -0.19770689618E+02 -0.10890279749E+04  0.13986063099E+04  0.17727020112E+04  0.50400001928E-02 0.  1.
       -1    1    3    3    0  502  0.19770689618E+02  0.10890279749E+04 -0.10074048573E+04  0.14836567517E+04  0.50400001928E-02 0. -1.
</event>
<event>
 5   0  0.1999849E-06  0.3269435E+04  0.7818609E-02  0.8170717E-01
       -1   -1    0    0    0  501  0.00000000000E+00  0.00000000000E+00  0.14910065260E+04  0.14910065260E+04  0.50400001928E-02 0.  1.
        1   -1    0    0  501    0  0.00000000000E+00  0.00000000000E+00 -0.17922795627E+04  0.17922795628E+04  0.50400001928E-02 0. -1.
    10030    2    1    2    0    0  0.00000000000E+00  0.00000000000E+00 -0.30127303675E+03  0.32832860888E+04  0.32694345227E+04 0.  0.
        5    1    3    3  502    0 -0.11946298912E+04  0.87399859122E+03 -0.84730781082E+03  0.17055693274E+04  0.46999998093E+01 0. -1.
       -5    1    3    3    0  502  0.11946298912E+04 -0.87399859122E+03  0.54603477407E+03  0.15777167613E+04  0.46999998093E+01 0.  1.
</event>
<event>
 5   0  0.5300268E-06  0.3245013E+04  0.7818609E-02  0.8177030E-01
        2   -1    0    0  501    0  0.00000000000E+00  0.00000000000E+00  0.18978406165E+04  0.18978406165E+04  0.25500000920E-02 0.  1.
       -2   -1    0    0    0  501  0.00000000000E+00  0.00000000000E+00 -0.13871170287E+04  0.13871170287E+04  0.25500000920E-02 0. -1.
    10030    2    1    2    0    0  0.00000000000E+00  0.00000000000E+00  0.51072358777E+03  0.32849576453E+04  0.32450128117E+04 0.  0.
        4    1    3    3  502    0  0.12532097661E+04  0.91029478244E+03 -0.23365197856E+03  0.15664501808E+04  0.12699999809E+01 0. -1.
       -4    1    3    3    0  502 -0.12532097661E+04 -0.91029478244E+03  0.74437556633E+03  0.17185074645E+04  0.12699999809E+01 0.  1.
</event>
<event>
 5   0  0.1999849E-06  0.3295204E+04  0.7818609E-02  0.8164117E-01
       -1   -1    0    0    0  501  0.00000000000E+00  0.00000000000E+00  0.16400839938E+04  0.16400839939E+04  0.50400001928E-02 0.  1.
        1   -1    0    0  501    0  0.00000000000E+00  0.00000000000E+00 -0.16551542502E+04  0.16551542502E+04  0.50400001928E-02 0. -1.
    10030    2    1    2    0    0  0.00000000000E+00  0.00000000000E+00 -0.15070256346E+02  0.32952382441E+04  0.32952037831E+04 0.  0.
        5    1    3    3  502    0 -0.24937985811E+03  0.11035956009E+04  0.11901653110E+04  0.16421416265E+04  0.46999998093E+01 0.  1.
       -5    1    3    3    0  502  0.24937985811E+03 -0.11035956009E+04 -0.12052355674E+04  0.16530966175E+04  0.46999998093E+01 0. -1.
</event>
<event>
 5   0  0.5300268E-06  0.3178865E+04  0.7818609E-02  0.8194421E-01
        2   -1    0    0  501    0  0.00000000000E+00  0.00000000000E+00  0.22726344982E+04  0.22726344982E+04  0.25500000920E-02 0. -1.
       -2   -1    0    0    0  501  0.00000000000E+00  0.00000000000E+00 -0.11116153287E+04  0.11116153287E+04  0.25500000920E-02 0.  1.
    10030    2    1    2    0    0  0.00000000000E+00  0.00000000000E+00  0.11610191696E+04  0.33842498269E+04  0.31788647940E+04 0.  0.
        4    1    3    3  502    0 -0.23710193279E+03  0.84863481879E+03 -0.82779436498E+03  0.12089844936E+04  0.12699999809E+01 0.  1.
       -4    1    3    3    0  502  0.23710193279E+03 -0.84863481879E+03  0.19888135345E+04  0.21752653333E+04  0.12699999809E+01 0. -1.
</event>
<event>
 5   0  0.1925906E-06  0.1711837E+04  0.7818609E-02  0.8754642E-01
        1   -1    0    0  501    0  0.00000000000E+00  0.00000000000E+00  0.14038800929E+04  0.14038800930E+04  0.50400001928E-02 0. -1.
       -1   -1    0    0    0  501  0.00000000000E+00  0.00000000000E+00 -0.52183693600E+03  0.52183693603E+03  0.50400001928E-02 0.  1.
    10030    2    1    2    0    0  0.00000000000E+00  0.00000000000E+00  0.88204315694E+03  0.19257170290E+04  0.17118370089E+04 0.  0.
        1    1    3    3  502    0 -0.34027607269E+03  0.32392125784E+03 -0.36382983197E+03  0.59420950311E+03  0.50400001928E-02 0.  1.
       -1    1    3    3    0  502  0.34027607269E+03 -0.32392125784E+03  0.12458729889E+04  0.13315075259E+04  0.50400001928E-02 0. -1.
</event>
<event>
 5   0  0.5622811E-06  0.3313885E+04  0.7818609E-02  0.8159371E-01
        2   -1    0    0  501    0  0.00000000000E+00  0.00000000000E+00  0.17735127487E+04  0.17735127487E+04  0.25500000920E-02 0.  1.
       -2   -1    0    0    0  501  0.00000000000E+00  0.00000000000E+00 -0.15480340847E+04  0.15480340847E+04  0.25500000920E-02 0. -1.
    10030    2    1    2    0    0  0.00000000000E+00  0.00000000000E+00  0.22547866398E+03  0.33215468334E+04  0.33138848409E+04 0.  0.
        1    1    3    3  502    0 -0.48973117984E+02  0.13165139685E+04  0.11199761039E+04  0.17291483074E+04  0.50400001928E-02 0.  1.
       -1    1    3    3    0  502  0.48973117984E+02 -0.13165139685E+04 -0.89449743992E+03  0.15923985260E+04  0.50400001928E-02 0. -1.
</event>
<event>
 5   0  0.3073344E-06  0.1649847E+04  0.7818609E-02  0.8790497E-01
       -1   -1    0    0    0  501  0.00000000000E+00  0.00000000000E+00  0.64608982578E+03  0.64608982580E+03  0.50400001928E-02 0.  1.
        1   -1    0    0  501    0  0.00000000000E+00  0.00000000000E+00 -0.10532567844E+04  0.10532567844E+04  0.50400001928E-02 0. -1.
    10030    2    1    2    0    0  0.00000000000E+00  0.00000000000E+00 -0.40716695866E+03  0.16993466102E+04  0.16498466503E+04 0.  0.
        3    1    3    3  502    0  0.81709287692E+03 -0.27267311776E+02 -0.90216682976E+02  0.82251038650E+03  0.10100000352E+00 0.  1.
       -3    1    3    3    0  502 -0.81709287692E+03  0.27267311776E+02 -0.31695027568E+03  0.87683622374E+03  0.10100000352E+00 0. -1.
</event>
<event>
 5   0  0.5637538E-06  0.3244245E+04  0.7818609E-02  0.8177229E-01
        2   -1    0    0  501    0  0.00000000000E+00  0.00000000000E+00  0.22315673028E+04  0.22315673028E+04  0.25500000920E-02 0.  1.
       -2   -1    0    0    0  501  0.00000000000E+00  0.00000000000E+00 -0.11791181975E+04  0.11791181975E+04  0.25500000920E-02 0. -1.
    10030    2    1    2    0    0  0.00000000000E+00  0.00000000000E+00  0.10524491053E+04  0.34106855003E+04  0.32442451299E+04 0.  0.
        2    1    3    3  502    0 -0.11562967848E+04  0.92237960150E+03 -0.17387967189E+03  0.14893087404E+04  0.25500000920E-02 0. -1.
       -2    1    3    3    0  502  0.11562967848E+04 -0.92237960150E+03  0.12263287772E+04  0.19213767599E+04  0.25500000920E-02 0.  1.
</event>
<event>
 5   0  0.1925906E-06  0.4075874E+04  0.7818609E-02  0.7989413E-01
        1   -1    0    0  501    0  0.00000000000E+00  0.00000000000E+00  0.29639059701E+04  0.29639059701E+04  0.50400001928E-02 0. -1.
       -1   -1    0    0    0  501  0.00000000000E+00  0.00000000000E+00 -0.14012549155E+04  0.14012549155E+04  0.50400001928E-02 0.  1.
    10030    2    1    2    0    0  0.00000000000E+00  0.00000000000E+00  0.15626510546E+04  0.43651608855E+04  0.40758742913E+04 0.  0.
        1    1    3    3  502    0  0.10526360592E+04 -0.55696452363E+02 -0.10866111572E+04  0.15138918637E+04  0.50400001928E-02 0.  1.
       -1    1    3    3    0  502 -0.10526360592E+04  0.55696452363E+02  0.26492622118E+04  0.28512690218E+04  0.50400001928E-02 0. -1.
</event>
<event>
 5   0  0.2730981E-06  0.3233666E+04  0.7818609E-02  0.8179982E-01
       -1   -1    0    0    0  501  0.00000000000E+00  0.00000000000E+00  0.14997457149E+04  0.14997457149E+04  0.50400001928E-02 0.  1.
        1   -1    0    0  501    0  0.00000000000E+00  0.00000000000E+00 -0.17430613362E+04  0.17430613362E+04  0.50400001928E-02 0. -1.
    10030    2    1    2    0    0  0.00000000000E+00  0.00000000000E+00 -0.24331562134E+03  0.32428070511E+04  0.32336658886E+04 0.  0.
        3    1    3    3  502    0 -0.55923250944E+03 -0.63511606717E+03 -0.15032444052E+04  0.17250672944E+04  0.10100000352E+00 0. -1.
       -3    1    3    3    0  502  0.55923250944E+03  0.63511606717E+03  0.12599287838E+04  0.15177397567E+04  0.10100000352E+00 0.  1.
</event>
<event>
 5   0  0.1925906E-06  0.3243232E+04  0.7818609E-02  0.8177492E-01
       -1   -1    0    0    0  501  0.00000000000E+00  0.00000000000E+00  0.19567065377E+04  0.19567065377E+04  0.50400001928E-02 0.  1.
        1   -1    0    0  501    0  0.00000000000E+00  0.00000000000E+00 -0.13439106044E+04  0.13439106044E+04  0.50400001928E-02 0. -1.
    10030    2    1    2    0    0  0.00000000000E+00  0.00000000000E+00  0.61279593329E+03  0.33006171421E+04  0.32432321322E+04 0.  0.
        1    1    3    3  502    0 -0.69024933176E+03 -0.47489812177E+03 -0.11065723690E+04  0.13879750624E+04  0.50400001928E-02 0. -1.
       -1    1    3    3    0  502  0.69024933176E+03  0.47489812177E+03  0.17193683023E+04  0.19126420797E+04  0.50400001928E-02 0.  1.
</event>
<event>
 5   0  0.5755250E-06  0.3331654E+04  0.7818609E-02  0.8154887E-01
       -2   -1    0    0    0  501  0.00000000000E+00  0.00000000000E+00  0.12140540162E+04  0.12140540162E+04  0.25500000920E-02 0. -1.
        2   -1    0    0  501    0  0.00000000000E+00  0.00000000000E+00 -0.22857135936E+04  0.22857135936E+04  0.25500000920E-02 0.  1.
    10030    2    1    2    0    0  0.00000000000E+00  0.00000000000E+00 -0.10716595774E+04  0.34997676098E+04  0.33316541046E+04 0.  0.
        5    1    3    3  502    0 -0.10804920905E+03  0.10694256404E+04 -0.18726862319E+04  0.21592409882E+04  0.46999998093E+01 0.  1.
       -5    1    3    3    0  502  0.10804920905E+03 -0.10694256404E+04  0.80102665451E+03  0.13405266216E+04  0.46999998093E+01 0. -1.
</event>
<event>
 5   0  0.5855568E-06  0.3161066E+04  0.7818609E-02  0.8199176E-01
        2   -1    0    0  501    0  0.00000000000E+00  0.00000000000E+00  0.14726364376E+04  0.14726364376E+04  0.25500000920E-02 0.  1.
       -2   -1    0    0    0  501  0.00000000000E+00  0.00000000000E+00 -0.16963353319E+04  0.16963353319E+04  0.25500000920E-02 0. -1.
    10030    2    1    2    0    0  0.00000000000E+00  0.00000000000E+00 -0.22369889430E+03  0.31689717696E+04  0.31610664152E+04 0.  0.
        3    1    3    3  502    0 -0.11350881677E+04  0.10040748082E+04  0.33815378970E+03  0.15527199891E+04  0.10100000352E+00 0.  1.
       -3    1    3    3    0  502  0.11350881677E+04 -0.10040748082E+04 -0.56185268399E+03  0.16162517804E+04  0.10100000352E+00 0. -1.
</event>
<event>
 5   0  0.5622811E-06  0.3267931E+04  0.7818609E-02  0.8171104E-01
        2   -1    0    0  501    0  0.00000000000E+00  0.00000000000E+00  0.15082708786E+04  0.15082708786E+04  0.25500000920E-02 0. -1.
       -2   -1    0    0    0  501  0.00000000000E+00  0.00000000000E+00 -0.17701346868E+04  0.17701346868E+04  0.25500000920E-02 0.  1.
    10030    2    1    2    0    0  0.00000000000E+00  0.00000000000E+00 -0.26186380816E+03  0.32784055654E+04  0.32679305986E+04 0.  0.
        1    1    3    3  502    0  0.33570467985E+03  0.10021498782E+04  0.11191926652E+04  0.15393486390E+04  0.50400001928E-02 0. -1.
       -1    1    3    3    0  502 -0.33570467985E+03 -0.10021498782E+04 -0.13810564734E+04  0.17390569264E+04  0.50400001928E-02 0.  1.
</event>
<event>
 5   0  0.2037109E-06  0.3300403E+04  0.7818609E-02  0.8162793E-01
       -1   -1    0    0    0  501  0.00000000000E+00  0.00000000000E+00  0.10185904789E+04  0.10185904789E+04  0.50400001928E-02 0. -1.
        1   -1    0    0  501    0  0.00000000000E+00  0.00000000000E+00 -0.26734637358E+04  0.26734637358E+04  0.50400001928E-02 0.  1.
    10030    2    1    2    0    0  0.00000000000E+00  0.00000000000E+00 -0.16548732569E+04  0.36920542148E+04  0.33004028282E+04 0.  0.
        2    1    3    3  502    0  0.52686092804E+03 -0.13756306269E+04  0.46165704618E+01  0.14730795538E+04  0.25500000920E-02 0. -1.
       -2    1    3    3    0  502 -0.52686092804E+03  0.13756306269E+04 -0.16594898274E+04  0.22189746610E+04  0.25500000920E-02 0.  1.
</event>
<event>
 5   0  0.1925906E-06  0.3255937E+04  0.7818609E-02  0.8174199E-01
        1   -1    0    0  501    0  0.00000000000E+00  0.00000000000E+00  0.27232120562E+04  0.27232120562E+04  0.50400001928E-02 0.  1.
       -1   -1    0    0    0  501  0.00000000000E+00  0.00000000000E+00 -0.97321895286E+03  0.97321895288E+03  0.50400001928E-02 0. -1.
    10030    2    1    2    0    0  0.00000000000E+00  0.00000000000E+00  0.17499931033E+04  0.36964310090E+04  0.32559370914E+04 0.  0.
        1    1    3    3  502    0 -0.92603269704E+03 -0.53106285591E+03  0.22703948757E+04  0.25088358265E+04  0.50400001928E-02 0.  1.
       -1    1    3    3    0  502  0.92603269704E+03  0.53106285591E+03 -0.52040177236E+03  0.11875951825E+04  0.50400001928E-02 0. -1.
</event>
<event>
 5   0  0.5755250E-06  0.3300084E+04  0.7818609E-02  0.8162874E-01
       -2   -1    0    0    0  501  0.00000000000E+00  0.00000000000E+00  0.15688066906E+04  0.15688066906E+04  0.25500000920E-02 0.  1.
        2   -1    0    0  501    0  0.00000000000E+00  0.00000000000E+00 -0.17354835127E+04  0.17354835127E+04  0.25500000920E-02 0. -1.
    10030    2    1    2    0    0  0.00000000000E+00  0.00000000000E+00 -0.16667682216E+03  0.33042902033E+04  0.33000837238E+04 0.  0.
        5    1    3    3  502    0  0.25730567338E+03 -0.10660998466E+04  0.11510513123E+04  0.15898793369E+04  0.46999998093E+01 0.  1.
       -5    1    3    3    0  502 -0.25730567338E+03  0.10660998466E+04 -0.13177281344E+04  0.17144108664E+04  0.46999998093E+01 0. -1.
</event>
<event>
 5   0  0.1999849E-06  0.3427274E+04  0.7818609E-02  0.8131245E-01
        1   -1    0    0  501    0  0.00000000000E+00  0.00000000000E+00  0.28224266314E+04  0.28224266314E+04  0.50400001928E-02 0. -1.
       -1   -1    0    0    0  501  0.00000000000E+00  0.00000000000E+00 -0.10404353475E+04  0.10404353475E+04  0.50400001928E-02 0.  1.
    10030    2    1    2    0    0  0.00000000000E+00  0.00000000000E+00  0.17819912840E+04  0.38628619789E+04  0.34272743882E+04 0.  0.
        5    1    3    3  502    0  0.99355273126E+03  0.13766970017E+04  0.11531236951E+04  0.20523542605E+04  0.46999998093E+01 0. -1.
       -5    1    3    3    0  502 -0.99355273126E+03 -0.13766970017E+04  0.62886758884E+03  0.18105077184E+04  0.46999998093E+01 0.  1.
</event>
<event>
 5   0  0.2097842E-06  0.3245298E+04  0.7818609E-02  0.8176956E-01
       -1   -1    0    0    0  501  0.00000000000E+00  0.00000000000E+00  0.16420171327E+04  0.16420171327E+04  0.50400001928E-02 0. -1.
        1   -1    0    0  501    0  0.00000000000E+00  0.00000000000E+00 -0.16035089693E+04  0.16035089693E+04  0.50400001928E-02 0.  1.
    10030    2    1    2    0    0  0.00000000000E+00  0.00000000000E+00  0.38508163415E+02  0.32455261020E+04  0.32452976443E+04 0.  0.
        4    1    3    3  502    0 -0.70551176664E+03  0.29137325286E+03  0.14512565419E+04  0.16397537585E+04  0.12699999809E+01 0. -1.
       -4    1    3    3    0  502  0.70551176664E+03 -0.29137325286E+03 -0.14127483784E+04  0.16057723435E+04  0.12699999809E+01 0.  1.
</event>
<event>
 5   0  0.5855568E-06  0.3259075E+04  0.7818609E-02  0.8173388E-01
       -2   -1    0    0    0  501  0.00000000000E+00  0.00000000000E+00  0.14440440735E+04  0.14440440735E+04  0.25500000920E-02 0.  1.
        2   -1    0    0  501    0  0.00000000000E+00  0.00000000000E+00 -0.18388581789E+04  0.18388581789E+04  0.25500000920E-02 0. -1.
    10030    2    1    2    0    0  0.00000000000E+00  0.00000000000E+00 -0.39481410535E+03  0.32829022524E+04  0.32590748720E+04 0.  0.
        3    1    3    3  502    0 -0.19340341212E+03  0.11815954406E+04  0.91603380685E+03  0.15075445634E+04  0.10100000352E+00 0.  1.
       -3    1    3    3    0  502  0.19340341212E+03 -0.11815954406E+04 -0.13108479122E+04  0.17753576891E+04  0.10100000352E+00 0. -1.
</event>
<event>
 5   0  0.1878000E-06  0.3481694E+04  0.7818609E-02  0.8118142E-01
        3   -1    0    0  501    0  0.00000000000E+00  0.00000000000E+00  0.27716678481E+04  0.27716678499E+04  0.10100000352E+00 0. -1.
       -3   -1    0    0    0  501  0.00000000000E+00  0.00000000000E+00 -0.10934026595E+04  0.10934026642E+04  0.10100000352E+00 0.  1.
    10030    2    1    2    0    0  0.00000000000E+00  0.00000000000E+00  0.16782651886E+04  0.38650705141E+04  0.34816944202E+04 0.  0.
        4    1    3    3  502    0 -0.33437551435E+03 -0.16853918610E+04  0.52870852263E+03  0.17977449832E+04  0.12699999809E+01 0. -1.
       -4    1    3    3    0  502  0.33437551435E+03  0.16853918610E+04  0.11495566660E+04  0.20673255309E+04  0.12699999809E+01 0.  1.
</event>
<event>
 5   0  0.5755250E-06  0.3310811E+04  0.7818609E-02  0.8160150E-01
        2   -1    0    0  501    0  0.00000000000E+00  0.00000000000E+00  0.16449473651E+04  0.16449473651E+04  0.25500000920E-02 0. -1.
       -2   -1    0    0    0  501  0.00000000000E+00  0.00000000000E+00 -0.16659301422E+04  0.16659301422E+04  0.25500000920E-02 0.  1.
    10030    2    1    2    0    0  0.00000000000E+00  0.00000000000E+00 -0.20982777139E+02  0.33108775073E+04  0.33108110172E+04 0.  0.
        5    1    3    3  502    0  0.50028797882E+03  0.15217474640E+04 -0.42804246869E+03  0.16580849951E+04  0.46999998093E+01 0.  1.
       -5    1    3    3    0  502 -0.50028797882E+03 -0.15217474640E+04  0.40705969156E+03  0.16527925122E+04  0.46999998093E+01 0. -1.
</event>
<event>
 5   0  0.5300268E-06  0.2532575E+04  0.7818609E-02  0.8391472E-01
        2   -1    0    0  501    0  0.00000000000E+00  0.00000000000E+00  0.20999329244E+04  0.20999329244E+04  0.25500000920E-02 0.  1.
       -2   -1    0    0    0  501  0.00000000000E+00  0.00000000000E+00 -0.76358805295E+03  0.76358805296E+03  0.25500000920E-02 0. -1.
    10030    2    1    2    0    0  0.00000000000E+00  0.00000000000E+00  0.13363448714E+04  0.28635209774E+04  0.25325747318E+04 0.  0.
        4    1    3    3  502    0 -0.67560327952E+03  0.97415351920E+03  0.11713767912E+04  0.16665953528E+04  0.12699999809E+01 0.  1.
       -4    1    3    3    0  502  0.67560327952E+03 -0.97415351920E+03  0.16496808028E+03  0.11969256245E+04  0.12699999809E+01 0. -1.
</event>
<event>
 5   0  0.5622811E-06  0.3411860E+04  0.7818609E-02  0.8135002E-01
        2   -1    0    0  501    0  0.00000000000E+00  0.00000000000E+00  0.19846677043E+04  0.19846677043E+04  0.25500000920E-02 0. -1.
       -2   -1    0    0    0  501  0.00000000000E+00  0.00000000000E+00 -0.14663393934E+04  0.14663393934E+04  0.25500000920E-02 0.  1.
    10030    2    1    2    0    0  0.00000000000E+00  0.00000000000E+00  0.51832831093E+03  0.34510070978E+04  0.34118595737E+04 0.  0.
        1    1    3    3  502    0 -0.14735018323E+02  0.15622702347E+04  0.95207256368E+03  0.18295757906E+04  0.50400001928E-02 0.  1.
       -1    1    3    3    0  502  0.14735018323E+02 -0.15622702347E+04 -0.43374425275E+03  0.16214313072E+04  0.50400001928E-02 0. -1.
</event>
<event>
 5   0  0.5622811E-06  0.2179202E+04  0.7818609E-02  0.8527135E-01
        2   -1    0    0  501    0  0.00000000000E+00  0.00000000000E+00  0.16433241637E+04  0.16433241637E+04  0.25500000920E-02 0.  1.
       -2   -1    0    0    0  501  0.00000000000E+00  0.00000000000E+00 -0.72245681258E+03  0.72245681258E+03  0.25500000920E-02 0. -1.
    10030    2    1    2    0    0  0.00000000000E+00  0.00000000000E+00  0.92086735110E+03  0.23657809763E+04  0.21792023654E+04 0.  0.
        1    1    3    3  502    0 -0.81468309784E+03  0.68366656363E+03  0.20324941678E+03  0.10827829171E+04  0.50400001928E-02 0.  1.
       -1    1    3    3    0  502  0.81468309784E+03 -0.68366656363E+03  0.71761793432E+03  0.12829980592E+04  0.50400001928E-02 0. -1.
</event>
<event>
 5   0  0.2037109E-06  0.2071648E+04  0.7818609E-02  0.8573836E-01
       -1   -1    0    0    0  501  0.00000000000E+00  0.00000000000E+00  0.90961618550E+03  0.90961618552E+03  0.50400001928E-02 0.  1.
        1   -1    0    0  501    0  0.00000000000E+00  0.00000000000E+00 -0.11795430443E+04  0.11795430444E+04  0.50400001928E-02 0. -1.
    10030    2    1    2    0    0  0.00000000000E+00  0.00000000000E+00 -0.26992685884E+03  0.20891592299E+04  0.20716480827E+04 0.  0.
        2    1    3    3  502    0  0.40871242161E+03  0.41994830261E+03  0.72638099539E+03  0.93329082869E+03  0.25500000920E-02 0.  1.
       -2    1    3    3    0  502 -0.40871242161E+03 -0.41994830261E+03 -0.99630785423E+03  0.11558684012E+04  0.25500000920E-02 0. -1.
</event>
<event>
 5   0  0.5622811E-06  0.3321113E+04  0.7818609E-02  0.8157544E-01
       -2   -1    0    0    0  501  0.00000000000E+00  0.00000000000E+00  0.97784532513E+03  0.97784532513E+03  0.25500000920E-02 0. -1.
        2   -1    0    0  501    0  0.00000000000E+00  0.00000000000E+00 -0.28199226848E+04  0.28199226848E+04  0.25500000920E-02 0.  1.
    10030    2    1    2    0    0  0.00000000000E+00  0.00000000000E+00 -0.18420773597E+04  0.37977680100E+04  0.33211131957E+04 0.  0.
        1    1    3    3  502    0  0.98568548308E+03  0.62085122145E+03  0.43219656952E+03  0.12425079418E+04  0.50400001928E-02 0. -1.
       -1    1    3    3    0  502 -0.98568548308E+03 -0.62085122145E+03 -0.22742739292E+04  0.25552600682E+04  0.50400001928E-02 0.  1.
</event>
<event>
 5   0  0.1999849E-06  0.3237743E+04  0.7818609E-02  0.8178920E-01
       -1   -1    0    0    0  501  0.00000000000E+00  0.00000000000E+00  0.11610687791E+04  0.11610687791E+04  0.50400001928E-02 0.  1.
        1   -1    0    0  501    0  0.00000000000E+00  0.00000000000E+00 -0.22571827860E+04  0.22571827860E+04  0.50400001928E-02 0. -1.
    10030    2    1    2    0    0  0.00000000000E+00  0.00000000000E+00 -0.10961140069E+04  0.34182515651E+04  0.32377427085E+04 0.  0.
        5    1    3    3  502    0 -0.37844329741E+03 -0.14999180929E+04 -0.10518935829E+04  0.18706885937E+04  0.46999998093E+01 0. -1.
       -5    1    3    3    0  502  0.37844329741E+03  0.14999180929E+04 -0.44220423996E+02  0.15475629715E+04  0.46999998093E+01 0.  1.
</event>
<event>
 5   0  0.2730981E-06  0.3222319E+04  0.7818609E-02  0.8182948E-01
       -1   -1    0    0    0  501  0.00000000000E+00  0.00000000000E+00  0.77136758765E+03  0.77136758767E+03  0.50400001928E-02 0. -1.
        1   -1    0    0  501    0  0.00000000000E+00  0.00000000000E+00 -0.33652369083E+04  0.33652369083E+04  0.50400001928E-02 0.  1.
    10030    2    1    2    0    0  0.00000000000E+00  0.00000000000E+00 -0.25938693207E+04  0.41366044960E+04  0.32223188395E+04 0.  0.
        3    1    3    3  502    0  0.75243531428E+03 -0.13363148175E+04 -0.66289614713E+03  0.16707266400E+04  0.10100000352E+00 0. -1.
       -3    1    3    3    0  502 -0.75243531428E+03  0.13363148175E+04 -0.19309731736E+04  0.24658778560E+04  0.10100000352E+00 0.  1.
</event>
<event>
 5   0  0.5300268E-06  0.2087898E+04  0.7818609E-02  0.8566593E-01
       -2   -1    0    0    0  501  0.00000000000E+00  0.00000000000E+00  0.58380261913E+03  0.58380261913E+03  0.25500000920E-02 0.  1.
        2   -1    0    0  501    0  0.00000000000E+00  0.00000000000E+00 -0.18667767022E+04  0.18667767022E+04  0.25500000920E-02 0. -1.
    10030    2    1    2    0    0  0.00000000000E+00  0.00000000000E+00 -0.12829740830E+04  0.24505793213E+04  0.20878976297E+04 0.  0.
        4    1    3    3  502    0 -0.29700865777E+03 -0.26882190800E+03  0.48999791328E+03  0.63291305005E+03  0.12699999809E+01 0.  1.
       -4    1    3    3    0  502  0.29700865777E+03  0.26882190800E+03 -0.17729719963E+04  0.18176662713E+04  0.12699999809E+01 0. -1.
</event>
<event>
 5   0  0.2097842E-06  0.3318786E+04  0.7818609E-02  0.8158132E-01
        1   -1    0    0  501    0  0.00000000000E+00  0.00000000000E+00  0.14359052037E+04  0.14359052037E+04  0.50400001928E-02 0.  1.
       -1   -1    0    0    0  501  0.00000000000E+00  0.00000000000E+00 -0.19176648330E+04  0.19176648330E+04  0.50400001928E-02 0. -1.
    10030    2    1    2    0    0  0.00000000000E+00  0.00000000000E+00 -0.48175962938E+03  0.33535700367E+04  0.33187858700E+04 0.  0.
        4    1    3    3  502    0 -0.62561667020E+03 -0.15350819095E+04 -0.16451918296E+03  0.16658153743E+04  0.12699999809E+01 0.  1.
       -4    1    3    3    0  502  0.62561667020E+03  0.15350819095E+04 -0.31724044642E+03  0.16877546624E+04  0.12699999809E+01 0. -1.
</event>
<event>
 5   0  0.5622811E-06  0.2061977E+04  0.7818609E-02  0.8578180E-01
        2   -1    0    0  501    0  0.00000000000E+00  0.00000000000E+00  0.11499472790E+04  0.11499472790E+04  0.25500000920E-02 0. -1.
       -2   -1    0    0    0  501  0.00000000000E+00  0.00000000000E+00 -0.92433560070E+03  0.92433560071E+03  0.25500000920E-02 0.  1.
    10030    2    1    2    0    0  0.00000000000E+00  0.00000000000E+00  0.22561167831E+03  0.20742828797E+04  0.20619769241E+04 0.  0.
        1    1    3    3  502    0 -0.17414921270E+03  0.87357790663E+03 -0.40939807162E+03  0.98034335225E+03  0.50400001928E-02 0.  1.
       -1    1    3    3    0  502  0.17414921270E+03 -0.87357790663E+03  0.63500974992E+03  0.10939395275E+04  0.50400001928E-02 0. -1.
</event>
<event>
 5   0  0.5855568E-06  0.3358864E+04  0.7818609E-02  0.8148077E-01
       -2   -1    0    0    0  501  0.00000000000E+00  0.00000000000E+00  0.11180600746E+04  0.11180600746E+04  0.25500000920E-02 0.  1.
        2   -1    0    0  501    0  0.00000000000E+00  0.00000000000E+00 -0.25226662445E+04  0.25226662445E+04  0.25500000920E-02 0. -1.
    10030    2    1    2    0    0  0.00000000000E+00  0.00000000000E+00 -0.14046061699E+04  0.36407263191E+04  0.33588643375E+04 0.  0.
        3    1    3    3  502    0  0.57755364910E+03  0.12013926618E+04 -0.18095855266E+04  0.22475569701E+04  0.10100000352E+00 0. -1.
       -3    1    3    3    0  502 -0.57755364910E+03 -0.12013926618E+04  0.40497935675E+03  0.13931693490E+04  0.10100000352E+00 0.  1.
</event>
<event>
 5   0  0.5855568E-06  0.3281644E+04  0.7818609E-02  0.8167582E-01
        2   -1    0    0  501    0  0.00000000000E+00  0.00000000000E+00  0.12643087154E+04  0.12643087154E+04  0.25500000920E-02 0. -1.
       -2   -1    0    0    0  501  0.00000000000E+00  0.00000000000E+00 -0.21294618781E+04  0.21294618781E+04  0.25500000920E-02 0.  1.
    10030    2    1    2    0    0  0.00000000000E+00  0.00000000000E+00 -0.86515316270E+03  0.33937705934E+04  0.32816442290E+04 0.  0.
        3    1    3    3  502    0 -0.45256744319E+03 -0.11095188515E+04 -0.15917895095E+04  0.19923963525E+04  0.10100000352E+00 0.  1.
       -3    1    3    3    0  502  0.45256744319E+03  0.11095188515E+04  0.72663634682E+03  0.14013742410E+04  0.10100000352E+00 0. -1.
</event>
<event>
 5   0  0.2037109E-06  0.3331600E+04  0.7818609E-02  0.8154901E-01
       -1   -1    0    0    0  501  0.00000000000E+00  0.00000000000E+00  0.21225196136E+04  0.21225196136E+04  0.50400001928E-02 0. -1.
        1   -1    0    0  501    0  0.00000000000E+00  0.00000000000E+00 -0.13073566592E+04  0.13073566592E+04  0.50400001928E-02 0.  1.
    10030    2    1    2    0    0  0.00000000000E+00  0.00000000000E+00  0.81516295445E+03  0.34298762728E+04  0.33316003068E+04 0.  0.
        2    1    3    3  502    0  0.18222941536E+03 -0.34047335006E+03 -0.12606377215E+04  0.13184601347E+04  0.25500000920E-02 0.  1.
       -2    1    3    3    0  502 -0.18222941536E+03  0.34047335006E+03  0.20758006760E+04  0.21114161381E+04  0.25500000920E-02 0. -1.
</event>
<event>
 5   0  0.5755250E-06  0.2864533E+04  0.7818609E-02  0.8283509E-01
        2   -1    0    0  501    0  0.00000000000E+00  0.00000000000E+00  0.18402507695E+04  0.18402507695E+04  0.25500000920E-02 0.  1.
       -2   -1    0    0    0  501  0.00000000000E+00  0.00000000000E+00 -0.11147327342E+04  0.11147327342E+04  0.25500000920E-02 0. -1.
    10030    2    1    2    0    0  0.00000000000E+00  0.00000000000E+00  0.72551803530E+03  0.29549835038E+04  0.28645333107E+04 0.  0.
        5    1    3    3  502    0 -0.39676768243E+03 -0.14872377302E+03  0.17741050139E+04  0.18240104289E+04  0.46999998093E+01 0.  1.
       -5    1    3    3    0  502  0.39676768243E+03  0.14872377302E+03 -0.10485869786E+04  0.11309730749E+04  0.46999998093E+01 0. -1.
</event>
<event>
 5   0  0.5755250E-06  0.2330050E+04  0.7818609E-02  0.8466166E-01
       -2   -1    0    0    0  501  0.00000000000E+00  0.00000000000E+00  0.12420798034E+04  0.12420798034E+04  0.25500000920E-02 0. -1.
        2   -1    0    0  501    0  0.00000000000E+00  0.00000000000E+00 -0.10927505795E+04  0.10927505795E+04  0.25500000920E-02 0.  1.
    10030    2    1    2    0    0  0.00000000000E+00  0.00000000000E+00  0.14932922392E+03  0.23348303829E+04  0.23300501496E+04 0.  0.
        5    1    3    3  502    0 -0.75220702411E+02  0.16943504203E+02  0.12395106933E+04  0.12419154903E+04  0.46999998093E+01 0. -1.
       -5    1    3    3    0  502  0.75220702411E+02 -0.16943504203E+02 -0.10901814693E+04  0.10929148926E+04  0.46999998093E+01 0.  1.
</event>
<event>
 5   0  0.5300268E-06  0.3344185E+04  0.7818609E-02  0.8151743E-01
        2   -1    0    0  501    0  0.00000000000E+00  0.00000000000E+00  0.20371224371E+04  0.20371224371E+04  0.25500000920E-02 0.  1.
       -2   -1    0    0    0  501  0.00000000000E+00  0.00000000000E+00 -0.13724718507E+04  0.13724718507E+04  0.25500000920E-02 0. -1.
    10030    2    1    2    0    0  0.00000000000E+00  0.00000000000E+00  0.66465058648E+03  0.34095942878E+04  0.33441849239E+04 0.  0.
        4    1    3    3  502    0  0.10590466443E+03 -0.38212646799E+03  0.19884908104E+04  0.20276424121E+04  0.12699999809E+01 0.  1.
       -4    1    3    3    0  502 -0.10590466443E+03  0.38212646799E+03 -0.13238402239E+04  0.13819518757E+04  0.12699999809E+01 0. -1.
</event>
<event>
 5   0  0.5300268E-06  0.3245393E+04  0.7818609E-02  0.8176931E-01
       -2   -1    0    0    0  501  0.00000000000E+00  0.00000000000E+00  0.16052223840E+04  0.16052223840E+04  0.25500000920E-02 0. -1.
        2   -1    0    0  501    0  0.00000000000E+00  0.00000000000E+00 -0.16403605994E+04  0.16403605994E+04  0.25500000920E-02 0.  1.
    10030    2    1    2    0    0  0.00000000000E+00  0.00000000000E+00 -0.35138215386E+02  0.32455829833E+04  0.32453927663E+04 0.  0.
        4    1    3    3  502    0  0.67877275307E+03  0.14040593559E+04 -0.46595552532E+03  0.16276459350E+04  0.12699999809E+01 0.  1.
       -4    1    3    3    0  502 -0.67877275307E+03 -0.14040593559E+04  0.43081730994E+03  0.16179370484E+04  0.12699999809E+01 0. -1.
</event>
<event>
 5   0  0.2037109E-06  0.2074296E+04  0.7818609E-02  0.8572651E-01
        1   -1    0    0  501    0  0.00000000000E+00  0.00000000000E+00  0.10498001951E+04  0.10498001951E+04  0.50400001928E-02 0.  1.
       -1   -1    0    0    0  501  0.00000000000E+00  0.00000000000E+00 -0.10246482789E+04  0.10246482789E+04  0.50400001928E-02 0. -1.
    10030    2    1    2    0    0  0.00000000000E+00  0.00000000000E+00  0.25151916179E+02  0.20744484740E+04  0.20742959896E+04 0.  0.
        2    1    3    3  502    0 -0.39691220886E+03 -0.60107191942E+03  0.75885411117E+03  0.10462725820E+04  0.25500000920E-02 0.  1.
       -2    1    3    3    0  502  0.39691220886E+03  0.60107191942E+03 -0.73370219499E+03  0.10281758920E+04  0.25500000920E-02 0. -1.
</event>
<event>
 5   0  0.5855568E-06  0.3495594E+04  0.7818609E-02  0.8114835E-01
       -2   -1    0    0    0  501  0.00000000000E+00  0.00000000000E+00  0.28766909837E+04  0.28766909837E+04  0.25500000920E-02 0.  1.
        2   -1    0    0  501    0  0.00000000000E+00  0.00000000000E+00 -0.10619125633E+04  0.10619125633E+04  0.25500000920E-02 0. -1.
    10030    2    1    2    0    0  0.00000000000E+00  0.00000000000E+00  0.18147784203E+04  0.39386035470E+04  0.34955939675E+04 0.  0.
        3    1    3    3  502    0 -0.12032853054E+04 -0.78901453486E+03  0.20252741965E+04  0.24843862509E+04  0.10100000352E+00 0.  1.
       -3    1    3    3    0  502  0.12032853054E+04  0.78901453486E+03 -0.21049577613E+03  0.14542172961E+04  0.10100000352E+00 0. -1.
</event>
<event>
 5   0  0.2097842E-06  0.3341844E+04  0.7818609E-02  0.8152329E-01
        1   -1    0    0  501    0  0.00000000000E+00  0.00000000000E+00  0.17698657995E+04  0.17698657995E+04  0.50400001928E-02 0. -1.
       -1   -1    0    0    0  501  0.00000000000E+00  0.00000000000E+00 -0.15775093498E+04  0.15775093498E+04  0.50400001928E-02 0.  1.
    10030    2    1    2    0    0  0.00000000000E+00  0.00000000000E+00  0.19235644973E+03  0.33473751493E+04  0.33418437106E+04 0.  0.
        4    1    3    3  502    0  0.76085213912E+03 -0.11071546773E+04  0.10914479471E+04  0.17308806115E+04  0.12699999809E+01 0. -1.
       -4    1    3    3    0  502 -0.76085213912E+03  0.11071546773E+04 -0.89909149734E+03  0.16164945378E+04  0.12699999809E+01 0.  1.
</event>
<event>
 5   0  0.5622811E-06  0.3235240E+04  0.7818609E-02  0.8179572E-01
       -2   -1    0    0    0  501  0.00000000000E+00  0.00000000000E+00  0.27367414487E+04  0.27367414487E+04  0.25500000920E-02 0.  1.
        2   -1    0    0  501    0  0.00000000000E+00  0.00000000000E+00 -0.95613478311E+03  0.95613478312E+03  0.25500000920E-02 0. -1.
    10030    2    1    2    0    0  0.00000000000E+00  0.00000000000E+00  0.17806066656E+04  0.36928762319E+04  0.32352395222E+04 0.  0.
        1    1    3    3  502    0  0.15862791017E+04  0.24554551199E+03  0.66167124793E+03  0.17361978076E+04  0.50400001928E-02 0. -1.
       -1    1    3    3    0  502 -0.15862791017E+04 -0.24554551199E+03  0.11189354177E+04  0.19566784242E+04  0.50400001928E-02 0.  1.
</event>
<event>
 5   0  0.5637538E-06  0.3243609E+04  0.7818609E-02  0.8177394E-01
       -2   -1    0    0    0  501  0.00000000000E+00  0.00000000000E+00  0.25322911210E+04  0.25322911210E+04  0.25500000920E-02 0. -1.
        2   -1    0    0  501    0  0.00000000000E+00  0.00000000000E+00 -0.10386837429E+04  0.10386837429E+04  0.25500000920E-02 0.  1.
    10030    2    1    2    0    0  0.00000000000E+00  0.00000000000E+00  0.14936073781E+04  0.35709748639E+04  0.32436088665E+04 0.  0.
        2    1    3    3  502    0 -0.58748213919E+03  0.44581193469E+03  0.23370103580E+04  0.24506123639E+04  0.25500000920E-02 0. -1.
       -2    1    3    3    0  502  0.58748213919E+03 -0.44581193469E+03 -0.84340297984E+03  0.11203625000E+04  0.25500000920E-02 0.  1.
</event>
<event>
 5   0  0.2097842E-06  0.2126123E+04  0.7818609E-02  0.8549823E-01
       -1   -1    0    0    0  501  0.00000000000E+00  0.00000000000E+00  0.11189246492E+04  0.11189246492E+04  0.50400001928E-02 0. -1.
        1   -1    0    0  501    0  0.00000000000E+00  0.00000000000E+00 -0.10099870678E+04  0.10099870679E+04  0.50400001928E-02 0.  1.
    10030    2    1    2    0    0  0.00000000000E+00  0.00000000000E+00  0.10893758132E+03  0.21289117170E+04  0.21261226922E+04 0.  0.
        4    1    3    3  502    0 -0.14718821993E+03  0.13271733352E+03 -0.99132434266E+03  0.10109420497E+04  0.12699999809E+01 0.  1.
       -4    1    3    3    0  502  0.14718821993E+03 -0.13271733352E+03  0.11002619240E+04  0.11179696673E+04  0.12699999809E+01 0. -1.
</event>
<event>
 5   0  0.2037109E-06  0.1742292E+04  0.7818609E-02  0.8737605E-01
        1   -1    0    0  501    0  0.00000000000E+00  0.00000000000E+00  0.73868630688E+03  0.73868630690E+03  0.50400001928E-02 0.  1.
       -1   -1    0    0    0  501  0.00000000000E+00  0.00000000000E+00 -0.10273581740E+04  0.10273581740E+04  0.50400001928E-02 0. -1.
    10030    2    1    2    0    0  0.00000000000E+00  0.00000000000E+00 -0.28867186714E+03  0.17660444809E+04  0.17422920713E+04 0.  0.
        2    1    3    3  502    0 -0.23770596400E+02 -0.65441350112E+02  0.73586153922E+03  0.73914803420E+03  0.25500000920E-02 0.  1.
       -2    1    3    3    0  502  0.23770596400E+02  0.65441350112E+02 -0.10245334064E+04  0.10268964467E+04  0.25500000920E-02 0. -1.
</event>
<event>
 5   0  0.5300268E-06  0.3480703E+04  0.7818609E-02  0.8118378E-01
       -2   -1    0    0    0  501  0.00000000000E+00  0.00000000000E+00  0.19303157311E+04  0.19303157311E+04  0.25500000920E-02 0. -1.
        2   -1    0    0  501    0  0.00000000000E+00  0.00000000000E+00 -0.15690816385E+04  0.15690816385E+04  0.25500000920E-02 0.  1.
    10030    2    1    2    0    0  0.00000000000E+00  0.00000000000E+00  0.36123409261E+03  0.34993973697E+04  0.34807027855E+04 0.  0.
        4    1    3    3  502    0  0.14749486719E+03  0.81524788597E+03  0.17193396260E+04  0.19085371922E+04  0.12699999809E+01 0. -1.
       -4    1    3    3    0  502 -0.14749486719E+03 -0.81524788597E+03 -0.13581055334E+04  0.15908601775E+04  0.12699999809E+01 0.  1.
</event>
<event>
 5   0  0.5300268E-06  0.2747065E+04  0.7818609E-02  0.8319894E-01
       -2   -1    0    0    0  501  0.00000000000E+00  0.00000000000E+00  0.80091662838E+03  0.80091662838E+03  0.25500000920E-02 0.  1.
        2   -1    0    0  501    0  0.00000000000E+00  0.00000000000E+00 -0.23555402417E+04  0.23555402417E+04  0.25500000920E-02 0. -1.
    10030    2    1    2    0    0  0.00000000000E+00  0.00000000000E+00 -0.15546236133E+04  0.31564568701E+04  0.27470648688E+04 0.  0.
        4    1    3    3  502    0 -0.50690511112E+03  0.44365278361E+03 -0.21526994489E+04  0.22556367425E+04  0.12699999809E+01 0. -1.
       -4    1    3    3    0  502  0.50690511112E+03 -0.44365278361E+03  0.59807583561E+03  0.90082012751E+03  0.12699999809E+01 0.  1.
</event>
<event>
 5   0  0.2097842E-06  0.3232552E+04  0.7818609E-02  0.8180273E-01
       -1   -1    0    0    0  501  0.00000000000E+00  0.00000000000E+00  0.15575825722E+04  0.15575825722E+04  0.50400001928E-02 0.  1.
        1   -1    0    0  501    0  0.00000000000E+00  0.00000000000E+00 -0.16771806839E+04  0.16771806839E+04  0.50400001928E-02 0. -1.
    10030    2    1    2    0    0  0.00000000000E+00  0.00000000000E+00 -0.11959811164E+03  0.32347632561E+04  0.32325515642E+04 0.  0.
        4    1    3    3  502    0  0.76501428868E+03 -0.12786507017E+03 -0.14787782237E+04  0.16698451982E+04  0.12699999809E+01 0. -1.
       -4    1    3    3    0  502 -0.76501428868E+03  0.12786507017E+03  0.13591801121E+04  0.15649180579E+04  0.12699999809E+01 0.  1.
</event>
<event>
 5   0  0.2037109E-06  0.3330351E+04  0.7818609E-02  0.8155215E-01
       -1   -1    0    0    0  501  0.00000000000E+00  0.00000000000E+00  0.17236761784E+04  0.17236761784E+04  0.50400001928E-02 0. -1.
        1   -1    0    0  501    0  0.00000000000E+00  0.00000000000E+00 -0.16086607262E+04  0.16086607262E+04  0.50400001928E-02 0.  1.
    10030    2    1    2    0    0  0.00000000000E+00  0.00000000000E+00  0.11501545224E+03  0.33323369046E+04  0.33303514366E+04 0.  0.
        2    1    3    3  502    0 -0.12469395001E+04 -0.72182497803E+03  0.89282322118E+03  0.16949993275E+04  0.25500000920E-02 0. -1.
       -2    1    3    3    0  502  0.12469395001E+04  0.72182497803E+03 -0.77780776893E+03  0.16373375771E+04  0.25500000920E-02 0.  1.
</event>
<event>
 5   0  0.5755250E-06  0.3149127E+04  0.7818609E-02  0.8202383E-01
       -2   -1    0    0    0  501  0.00000000000E+00  0.00000000000E+00  0.15115354109E+04  0.15115354109E+04  0.25500000920E-02 0.  1.
        2   -1    0    0  501    0  0.00000000000E+00  0.00000000000E+00 -0.16402192685E+04  0.16402192685E+04  0.25500000920E-02 0. -1.
    10030    2    1    2    0    0  0.00000000000E+00  0.00000000000E+00 -0.12868385767E+03  0.31517546794E+04  0.31491265493E+04 0.  0.
        5    1    3    3  502    0  0.15486714656E+04  0.25471643506E+03 -0.19079469301E+03  0.15810403143E+04  0.46999998093E+01 0. -1.
       -5    1    3    3    0  502 -0.15486714656E+04 -0.25471643506E+03  0.62110835347E+02  0.15707143650E+04  0.46999998093E+01 0.  1.
</event>
<event>
 5   0  0.5755250E-06  0.3379855E+04  0.7818609E-02  0.8142868E-01
        2   -1    0    0  501    0  0.00000000000E+00  0.00000000000E+00  0.25852303887E+04  0.25852303887E+04  0.25500000920E-02 0. -1.
       -2   -1    0    0    0  501  0.00000000000E+00  0.00000000000E+00 -0.11046808241E+04  0.11046808241E+04  0.25500000920E-02 0.  1.
    10030    2    1    2    0    0  0.00000000000E+00  0.00000000000E+00  0.14805495647E+04  0.36899112128E+04  0.33798546929E+04 0.  0.
        5    1    3    3  502    0  0.37928219646E+03  0.92088480875E+03 -0.75023504838E+03  0.12468995683E+04  0.46999998093E+01 0.  1.
       -5    1    3    3    0  502 -0.37928219646E+03 -0.92088480875E+03  0.22307846130E+04  0.24430116445E+04  0.46999998093E+01 0. -1.
</event>
<event>
 5   0  0.1999849E-06  0.3265544E+04  0.7818609E-02  0.8171719E-01
       -1   -1    0    0    0  501  0.00000000000E+00  0.00000000000E+00  0.97302853780E+03  0.97302853781E+03  0.50400001928E-02 0. -1.
        1   -1    0    0  501    0  0.00000000000E+00  0.00000000000E+00 -0.27398413528E+04  0.27398413528E+04  0.50400001928E-02 0.  1.
    10030    2    1    2    0    0  0.00000000000E+00  0.00000000000E+00 -0.17668128150E+04  0.37128698907E+04  0.32655436456E+04 0.  0.
        5    1    3    3  502    0 -0.67734222387E+03  0.10602769753E+04 -0.20666027899E+04  0.24194728628E+04  0.46999998093E+01 0.  1.
       -5    1    3    3    0  502  0.67734222387E+03 -0.10602769753E+04  0.29978997485E+03  0.12933970279E+04  0.46999998093E+01 0. -1.
</event>
<event>
 5   0  0.5637538E-06  0.3229738E+04  0.7818609E-02  0.8181007E-01
       -2   -1    0    0    0  501  0.00000000000E+00  0.00000000000E+00  0.18623538944E+04  0.18623538944E+04  0.25500000920E-02 0. -1.
        2   -1    0    0  501    0  0.00000000000E+00  0.00000000000E+00 -0.14002721517E+04  0.14002721517E+04  0.25500000920E-02 0.  1.
    10030    2    1    2    0    0  0.00000000000E+00  0.00000000000E+00  0.46208174269E+03  0.32626260462E+04  0.32297382526E+04 0.  0.
        2    1    3    3  502    0  0.56821331562E+03 -0.75669791462E+03 -0.10908496967E+04  0.14440952762E+04  0.25500000920E-02 0.  1.
       -2    1    3    3    0  502 -0.56821331562E+03  0.75669791462E+03  0.15529314393E+04  0.18185307700E+04  0.25500000920E-02 0. -1.
</event>
<event>
 5   0  0.2097842E-06  0.2200652E+04  0.7818609E-02  0.8518157E-01
       -1   -1    0    0    0  501  0.00000000000E+00  0.00000000000E+00  0.79316116451E+03  0.79316116453E+03  0.50400001928E-02 0.  1.
        1   -1    0    0  501    0  0.00000000000E+00  0.00000000000E+00 -0.15264459128E+04  0.15264459128E+04  0.50400001928E-02 0. -1.
    10030    2    1    2    0    0  0.00000000000E+00  0.00000000000E+00 -0.73328474825E+03  0.23196070773E+04  0.22006522831E+04 0.  0.
        4    1    3    3  502    0 -0.34481671091E+03  0.33408243230E+03  0.67692804101E+03  0.82990530863E+03  0.12699999809E+01 0.  1.
       -4    1    3    3    0  502  0.34481671091E+03 -0.33408243230E+03 -0.14102127893E+04  0.14897017687E+04  0.12699999809E+01 0. -1.
</event>
<event>
 5   0  0.5855568E-06  0.2253540E+04  0.7818609E-02  0.8496468E-01
        2   -1    0    0  501    0  0.00000000000E+00  0.00000000000E+00  0.12098262002E+04  0.12098262002E+04  0.25500000920E-02 0.  1.
       -2   -1    0    0    0  501  0.00000000000E+00  0.00000000000E+00 -0.10494161465E+04  0.10494161465E+04  0.25500000920E-02 0. -1.
    10030    2    1    2    0    0  0.00000000000E+00  0.00000000000E+00  0.16041005372E+03  0.22592423466E+04  0.22535404579E+04 0.  0.
        3    1    3    3  502    0 -0.26362782292E+02 -0.21915234539E+02 -0.10488931780E+04  0.10494532781E+04  0.10100000352E+00 0. -1.
       -3    1    3    3    0  502  0.26362782292E+02  0.21915234539E+02  0.12093032318E+04  0.12097890685E+04  0.10100000352E+00 0.  1.
</event>
<event>
 5   0  0.5755250E-06  0.3292553E+04  0.7818609E-02  0.8164793E-01
       -2   -1    0    0    0  501  0.00000000000E+00  0.00000000000E+00  0.16398266568E+04  0.16398266568E+04  0.25500000920E-02 0.  1.
        2   -1    0    0  501    0  0.00000000000E+00  0.00000000000E+00 -0.16527521737E+04  0.16527521737E+04  0.25500000920E-02 0. -1.
    10030    2    1    2    0    0  0.00000000000E+00  0.00000000000E+00 -0.12925516870E+02  0.32925788304E+04  0.32925534598E+04 0.  0.
        5    1    3    3  502    0  0.99768985079E+03 -0.53161622474E+03  0.11902937767E+04  0.16415913662E+04  0.46999998093E+01 0.  1.
       -5    1    3    3    0  502 -0.99768985079E+03  0.53161622474E+03 -0.12032192935E+04  0.16509874643E+04  0.46999998093E+01 0. -1.
</event>
<event>
 5   0  0.5637538E-06  0.1712249E+04  0.7818609E-02  0.8754409E-01
       -2   -1    0    0    0  501  0.00000000000E+00  0.00000000000E+00  0.78336049197E+03  0.78336049198E+03  0.25500000920E-02 0.  1.
        2   -1    0    0  501    0  0.00000000000E+00  0.00000000000E+00 -0.93564748672E+03  0.93564748673E+03  0.25500000920E-02 0. -1.
    10030    2    1    2    0    0  0.00000000000E+00  0.00000000000E+00 -0.15228699475E+03  0.17190079787E+04  0.17122491355E+04 0.  0.
        2    1    3    3  502    0  0.30168269552E+03  0.80082901862E+03 -0.10093326644E+03  0.86170011612E+03  0.25500000920E-02 0.  1.
       -2    1    3    3    0  502 -0.30168269552E+03 -0.80082901862E+03 -0.51353728312E+02  0.85730786259E+03  0.25500000920E-02 0. -1.
</event>
<event>
 5   0  0.2730981E-06  0.3341303E+04  0.7818609E-02  0.8152465E-01
       -1   -1    0    0    0  501  0.00000000000E+00  0.00000000000E+00  0.13579688829E+04  0.13579688829E+04  0.50400001928E-02 0. -1.
        1   -1    0    0  501    0  0.00000000000E+00  0.00000000000E+00 -0.20553314439E+04  0.20553314439E+04  0.50400001928E-02 0.  1.
    10030    2    1    2    0    0  0.00000000000E+00  0.00000000000E+00 -0.69736256100E+03  0.34133003269E+04  0.33413028267E+04 0.  0.
        3    1    3    3  502    0 -0.47656235888E+03 -0.45810823833E+03  0.12186876634E+04  0.13864250686E+04  0.10100000352E+00 0. -1.
       -3    1    3    3    0  502  0.47656235888E+03  0.45810823833E+03 -0.19160502244E+04  0.20268752582E+04  0.10100000352E+00 0.  1.
</event>
<event>
 5   0  0.5637538E-06  0.3259160E+04  0.7818609E-02  0.8173366E-01
        2   -1    0    0  501    0  0.00000000000E+00  0.00000000000E+00  0.20791922485E+04  0.20791922485E+04  0.25500000920E-02 0. -1.
       -2   -1    0    0    0  501  0.00000000000E+00  0.00000000000E+00 -0.12771935096E+04  0.12771935096E+04  0.25500000920E-02 0.  1.
    10030    2    1    2    0    0  0.00000000000E+00  0.00000000000E+00  0.80199873890E+03  0.33563857581E+04  0.32591599193E+04 0.  0.
        2    1    3    3  502    0 -0.74201219642E+03 -0.11994105763E+04  0.12416618037E+04  0.18790667537E+04  0.25500000920E-02 0. -1.
       -2    1    3    3    0  502  0.74201219642E+03  0.11994105763E+04 -0.43966306481E+03  0.14773190044E+04  0.25500000920E-02 0.  1.
</event>
<event>
 5   0  0.1999849E-06  0.3576515E+04  0.7818609E-02  0.8095893E-01
       -1   -1    0    0    0  501  0.00000000000E+00  0.00000000000E+00  0.23513718341E+04  0.23513718341E+04  0.50400001928E-02 0. -1.
        1   -1    0    0  501    0  0.00000000000E+00  0.00000000000E+00 -0.13599995243E+04  0.13599995243E+04  0.50400001928E-02 0.  1.
    10030    2    1    2    0    0  0.00000000000E+00  0.00000000000E+00  0.99137230973E+03  0.37113713584E+04  0.35765148264E+04 0.  0.
        5    1    3    3  502    0 -0.40249400689E+03  0.12207190255E+04  0.17858207938E+04  0.22003032433E+04  0.46999998093E+01 0. -1.
       -5    1    3    3    0  502  0.40249400689E+03 -0.12207190255E+04 -0.79444848411E+03  0.15110681151E+04  0.46999998093E+01 0.  1.
</event>
<event>
 5   0  0.2097842E-06  0.3047049E+04  0.7818609E-02  0.8230422E-01
       -1   -1    0    0    0  501  0.00000000000E+00  0.00000000000E+00  0.11559960127E+04  0.11559960127E+04  0.50400001928E-02 0.  1.
        1   -1    0    0  501    0  0.00000000000E+00  0.00000000000E+00 -0.20079027211E+04  0.20079027211E+04  0.50400001928E-02 0. -1.
    10030    2    1    2    0    0  0.00000000000E+00  0.00000000000E+00 -0.85190670840E+03  0.31638987337E+04  0.30470494183E+04 0.  0.
        4    1    3    3  502    0 -0.10469539347E+03  0.21640048788E+03 -0.19880847356E+04  0.20025665595E+04  0.12699999809E+01 0. -1.
       -4    1    3    3    0  502  0.10469539347E+03 -0.21640048788E+03  0.11361780272E+04  0.11613321742E+04  0.12699999809E+01 0.  1.
</event>
<event>
 5   0  0.5855568E-06  0.2401601E+04  0.7818609E-02  0.8438905E-01
       -2   -1    0    0    0  501  0.00000000000E+00  0.00000000000E+00  0.76465526871E+03  0.76465526872E+03  0.25500000920E-02 0. -1.
        2   -1    0    0  501    0  0.00000000000E+00  0.00000000000E+00 -0.18857143266E+04  0.18857143266E+04  0.25500000920E-02 0.  1.
    10030    2    1    2    0    0  0.00000000000E+00  0.00000000000E+00 -0.11210590579E+04  0.26503695953E+04  0.24016006289E+04 0.  0.
        3    1    3    3  502    0 -0.16379041575E+03 -0.51948290226E+03  0.62047704028E+03  0.82564008729E+03  0.10100000352E+00 0. -1.
       -3    1    3    3    0  502  0.16379041575E+03  0.51948290226E+03 -0.17415360982E+04  0.18247295080E+04  0.10100000352E+00 0.  1.
</event>
<event>
 5   0  0.2730981E-06  0.3342322E+04  0.7818609E-02  0.8152209E-01
        1   -1    0    0  501    0  0.00000000000E+00  0.00000000000E+00  0.20638465060E+04  0.20638465060E+04  0.50400001928E-02 0. -1.
       -1   -1    0    0    0  501  0.00000000000E+00  0.00000000000E+00 -0.13531915418E+04  0.13531915418E+04  0.50400001928E-02 0.  1.
    10030    2    1    2    0    0  0.00000000000E+00  0.00000000000E+00  0.71065496425E+03  0.34170380478E+04  0.33423223277E+04 0.  0.
        3    1    3    3  502    0 -0.15824236900E+04 -0.22345468242E+03  0.85490523653E+03  0.18124181922E+04  0.10100000352E+00 0. -1.
       -3    1    3    3    0  502  0.15824236900E+04  0.22345468242E+03 -0.14425027228E+03  0.16046198556E+04  0.10100000352E+00 0.  1.
</event>
<event>
 5   0  0.2037109E-06  0.3305598E+04  0.7818609E-02  0.8161473E-01
       -1   -1    0    0    0  501  0.00000000000E+00  0.00000000000E+00  0.20155725019E+04  0.20155725019E+04  0.50400001928E-02 0.  1.
        1   -1    0    0  501    0  0.00000000000E+00  0.00000000000E+00 -0.13553190768E+04  0.13553190768E+04  0.50400001928E-02 0. -1.
    10030    2    1    2    0    0  0.00000000000E+00  0.00000000000E+00  0.66025342514E+03  0.33708915787E+04  0.33055975935E+04 0.  0.
        2    1    3    3  502    0  0.51121753296E+03  0.11124905164E+04 -0.80210420383E+03  0.14636767638E+04  0.25500000920E-02 0. -1.
       -2    1    3    3    0  502 -0.51121753296E+03 -0.11124905164E+04  0.14623576290E+04  0.19072148149E+04  0.25500000920E-02 0.  1.
</event>
<event>
 5   0  0.2037109E-06  0.3289192E+04  0.7818609E-02  0.8165651E-01
       -1   -1    0    0    0  501  0.00000000000E+00  0.00000000000E+00  0.10455277684E+04  0.10455277685E+04  0.50400001928E-02 0.  1.
        1   -1    0    0  501    0  0.00000000000E+00  0.00000000000E+00 -0.25869187434E+04  0.25869187434E+04  0.50400001928E-02 0. -1.
    10030    2    1    2    0    0  0.00000000000E+00  0.00000000000E+00 -0.15413909750E+04  0.36324465119E+04  0.32891916217E+04 0.  0.
        2    1    3    3  502    0  0.77447841130E+03 -0.14419210956E+04 -0.94788264998E+03  0.18914107893E+04  0.25500000920E-02 0.  1.
       -2    1    3    3    0  502 -0.77447841130E+03  0.14419210956E+04 -0.59350832501E+03  0.17410357226E+04  0.25500000920E-02 0. -1.
</event>
<event>
 5   0  0.5300268E-06  0.3221675E+04  0.7818609E-02  0.8183116E-01
        2   -1    0    0  501    0  0.00000000000E+00  0.00000000000E+00  0.12364808825E+04  0.12364808825E+04  0.25500000920E-02 0.  1.
       -2   -1    0    0    0  501  0.00000000000E+00  0.00000000000E+00 -0.20985348165E+04  0.20985348165E+04  0.25500000920E-02 0. -1.
    10030    2    1    2    0    0  0.00000000000E+00  0.00000000000E+00 -0.86205393396E+03  0.33350156990E+04  0.32216754535E+04 0.  0.
        4    1    3    3  502    0  0.18667017285E+03 -0.74760505042E+03 -0.18953729787E+04  0.20460203826E+04  0.12699999809E+01 0. -1.
       -4    1    3    3    0  502 -0.18667017285E+03  0.74760505042E+03  0.10333190447E+04  0.12889953165E+04  0.12699999809E+01 0.  1.
</event>
<event>
 5   0  0.1925906E-06  0.2828546E+04  0.7818609E-02  0.8294460E-01
       -1   -1    0    0    0  501  0.00000000000E+00  0.00000000000E+00  0.17405797536E+04  0.17405797537E+04  0.50400001928E-02 0.  1.
        1   -1    0    0  501    0  0.00000000000E+00  0.00000000000E+00 -0.11491392079E+04  0.11491392079E+04  0.50400001928E-02 0. -1.
    10030    2    1    2    0    0  0.00000000000E+00  0.00000000000E+00  0.59144054571E+03  0.28897189616E+04  0.28285462269E+04 0.  0.
        1    1    3    3  502    0  0.51254714790E+03  0.64343791881E+02  0.16407508862E+04  0.17201477183E+04  0.50400001928E-02 0.  1.
       -1    1    3    3    0  502 -0.51254714790E+03 -0.64343791881E+02 -0.10493103405E+04  0.11695712433E+04  0.50400001928E-02 0. -1.
</event>
<event>
 5   0  0.1925906E-06  0.2008996E+04  0.7818609E-02  0.8602426E-01
        1   -1    0    0  501    0  0.00000000000E+00  0.00000000000E+00  0.10057463109E+04  0.10057463109E+04  0.50400001928E-02 0.  1.
       -1   -1    0    0    0  501  0.00000000000E+00  0.00000000000E+00 -0.10032508172E+04  0.10032508172E+04  0.50400001928E-02 0. -1.
    10030    2    1    2    0    0  0.00000000000E+00  0.00000000000E+00  0.24954937246E+01  0.20089971281E+04  0.20089955782E+04 0.  0.
        1    1    3    3  502    0 -0.13961646610E+03  0.46576029952E+03 -0.87772414467E+03  0.10034067412E+04  0.50400001928E-02 0. -1.
       -1    1    3    3    0  502  0.13961646610E+03 -0.46576029952E+03  0.88021963839E+03  0.10055903868E+04  0.50400001928E-02 0.  1.
</event>
<event>
 5   0  0.5755250E-06  0.2993003E+04  0.7818609E-02  0.8245732E-01
        2   -1    0    0  501    0  0.00000000000E+00  0.00000000000E+00  0.15397543344E+04  0.15397543344E+04  0.25500000920E-02 0.  1.
       -2   -1    0    0    0  501  0.00000000000E+00  0.00000000000E+00 -0.14544634197E+04  0.14544634197E+04  0.25500000920E-02 0. -1.
    10030    2    1    2    0    0  0.00000000000E+00  0.00000000000E+00  0.85290914720E+02  0.29942177541E+04  0.29930027429E+04 0.  0.
        5    1    3    3  502    0  0.52421827297E+03 -0.11870847656E+04  0.78827964690E+03  0.15183484218E+04  0.46999998093E+01 0.  1.
       -5    1    3    3    0  502 -0.52421827297E+03  0.11870847656E+04 -0.70298873218E+03  0.14758693323E+04  0.46999998093E+01 0. -1.
</event>
<event>
 5   0  0.5622811E-06  0.3217215E+04  0.7818609E-02  0.8184285E-01
       -2   -1    0    0    0  501  0.00000000000E+00  0.00000000000E+00  0.10827185191E+04  0.10827185191E+04  0.25500000920E-02 0.  1.
        2   -1    0    0  501    0  0.00000000000E+00  0.00000000000E+00 -0.23899275266E+04  0.23899275266E+04  0.25500000920E-02 0. -1.
    10030    2    1    2    0    0  0.00000000000E+00  0.00000000000E+00 -0.13072090075E+04  0.34726460457E+04  0.32172154371E+04 0.  0.
        1    1    3    3  502    0 -0.11642231792E+04 -0.10402266222E+04 -0.10718359245E+04  0.18937579797E+04  0.50400001928E-02 0.  1.
       -1    1    3    3    0  502  0.11642231792E+04  0.10402266222E+04 -0.23537308305E+03  0.15788880660E+04  0.50400001928E-02 0. -1.
</event>
<event>
 5   0  0.5622811E-06  0.1843605E+04  0.7818609E-02  0.8683449E-01
       -2   -1    0    0    0  501  0.00000000000E+00  0.00000000000E+00  0.85092476206E+03  0.85092476207E+03  0.25500000920E-02 0. -1.
        2   -1    0    0  501    0  0.00000000000E+00  0.00000000000E+00 -0.99858376957E+03  0.99858376957E+03  0.25500000920E-02 0.  1.
    10030    2    1    2    0    0  0.00000000000E+00  0.00000000000E+00 -0.14765900750E+03  0.18495085316E+04  0.18436047912E+04 0.  0.
        1    1    3    3  502    0 -0.81061627116E+03  0.28838662634E+03  0.25806837054E+03  0.89825657204E+03  0.50400001928E-02 0. -1.
       -1    1    3    3    0  502  0.81061627116E+03 -0.28838662634E+03 -0.40572737804E+03  0.95125195960E+03  0.50400001928E-02 0.  1.
</event>
<event>
 5   0  0.2730981E-06  0.2915381E+04  0.7818609E-02  0.8268316E-01
       -1   -1    0    0    0  501  0.00000000000E+00  0.00000000000E+00  0.81837800315E+03  0.81837800317E+03  0.50400001928E-02 0. -1.
        1   -1    0    0  501    0  0.00000000000E+00  0.00000000000E+00 -0.25964304289E+04  0.25964304289E+04  0.50400001928E-02 0.  1.
    10030    2    1    2    0    0  0.00000000000E+00  0.00000000000E+00 -0.17780524257E+04  0.34148084320E+04  0.29153809698E+04 0.  0.
        3    1    3    3  502    0  0.14257863082E+03 -0.36167819298E+03 -0.25345872469E+04  0.25642293781E+04  0.10100000352E+00 0.  1.
       -3    1    3    3    0  502 -0.14257863082E+03  0.36167819298E+03  0.75653482114E+03  0.85057905397E+03  0.10100000352E+00 0. -1.
</event>
<event>
 5   0  0.5755250E-06  0.3272900E+04  0.7818609E-02  0.8169825E-01
        2   -1    0    0  501    0  0.00000000000E+00  0.00000000000E+00  0.18426516660E+04  0.18426516660E+04  0.25500000920E-02 0.  1.
       -2   -1    0    0    0  501  0.00000000000E+00  0.00000000000E+00 -0.14533235326E+04  0.14533235326E+04  0.25500000920E-02 0. -1.
    10030    2    1    2    0    0  0.00000000000E+00  0.00000000000E+00  0.38932813341E+03  0.32959751986E+04  0.32729002604E+04 0.  0.
        5    1    3    3  502    0 -0.34616859744E+03  0.60864060430E+02 -0.14148562047E+04  0.14578673814E+04  0.46999998093E+01 0. -1.
       -5    1    3    3    0  502  0.34616859744E+03 -0.60864060430E+02  0.18041843382E+04  0.18381078172E+04  0.46999998093E+01 0.  1.
</event>
<event>
 5   0  0.5637538E-06  0.3312732E+04  0.7818609E-02  0.8159663E-01
       -2   -1    0    0    0  501  0.00000000000E+00  0.00000000000E+00  0.14476217017E+04  0.14476217017E+04  0.25500000920E-02 0.  1.
        2   -1    0    0  501    0  0.00000000000E+00  0.00000000000E+00 -0.18952106543E+04  0.18952106544E+04  0.25500000920E-02 0. -1.
    10030    2    1    2    0    0  0.00000000000E+00  0.00000000000E+00 -0.44758895269E+03  0.33428323560E+04  0.33127318470E+04 0.  0.
        2    1    3    3  502    0  0.70646266015E+03  0.12431641636E+04 -0.10674542673E+04  0.17843781103E+04  0.25500000920E-02 0. -1.
       -2    1    3    3    0  502 -0.70646266015E+03 -0.12431641636E+04  0.61986531460E+03  0.15584542457E+04  0.25500000920E-02 0.  1.
</event>
<event>
 5   0  0.1999849E-06  0.3287572E+04  0.7818609E-02  0.8166065E-01
        1   -1    0    0  501    0  0.00000000000E+00  0.00000000000E+00  0.16530513784E+04  0.16530513784E+04  0.50400001928E-02 0. -1.
       -1   -1    0    0    0  501  0.00000000000E+00  0.00000000000E+00 -0.16345721273E+04  0.16345721273E+04  0.50400001928E-02 0.  1.
    10030    2    1    2    0    0  0.00000000000E+00  0.00000000000E+00  0.18479251096E+02  0.32876235057E+04  0.32875715707E+04 0.  0.
        5    1    3    3  502    0  0.15565406334E+04 -0.16676497988E+03 -0.49214671119E+03  0.16409935336E+04  0.46999998093E+01 0.  1.
       -5    1    3    3    0  502 -0.15565406334E+04  0.16676497988E+03  0.51062596229E+03  0.16466299722E+04  0.46999998093E+01 0. -1.
</event>
<event>
 5   0  0.5622811E-06  0.3360335E+04  0.7818609E-02  0.8147711E-01
        2   -1    0    0  501    0  0.00000000000E+00  0.00000000000E+00  0.18759038283E+04  0.18759038283E+04  0.25500000920E-02 0. -1.
       -2   -1    0    0    0  501  0.00000000000E+00  0.00000000000E+00 -0.15048546636E+04  0.15048546636E+04  0.25500000920E-02 0.  1.
    10030    2    1    2    0    0  0.00000000000E+00  0.00000000000E+00  0.37104916477E+03  0.33807584919E+04  0.33603348789E+04 0.  0.
        1    1    3    3  502    0  0.60988064704E+02 -0.12230236458E+04  0.13429323193E+04  0.18174084837E+04  0.50400001928E-02 0. -1.
       -1    1    3    3    0  502 -0.60988064704E+02  0.12230236458E+04 -0.97188315452E+03  0.15633500083E+04  0.50400001928E-02 0.  1.
</event>
<event>
 5   0  0.5300268E-06  0.3218660E+04  0.7818609E-02  0.8183907E-01
        2   -1    0    0  501    0  0.00000000000E+00  0.00000000000E+00  0.13796212330E+04  0.13796212330E+04  0.25500000920E-02 0. -1.
       -2   -1    0    0    0  501  0.00000000000E+00  0.00000000000E+00 -0.18772851598E+04  0.18772851598E+04  0.25500000920E-02 0.  1.
    10030    2    1    2    0    0  0.00000000000E+00  0.00000000000E+00 -0.49766392683E+03  0.32569063928E+04  0.32186596384E+04 0.  0.
        4    1    3    3  502    0  0.57711294360E+03  0.72725187565E+03  0.10813172416E+04  0.14252028733E+04  0.12699999809E+01 0. -1.
       -4    1    3    3    0  502 -0.57711294360E+03 -0.72725187565E+03 -0.15789811684E+04  0.18317035195E+04  0.12699999809E+01 0.  1.
</event>
<event>
 5   0  0.5622811E-06  0.3298921E+04  0.7818609E-02  0.8163170E-01
        2   -1    0    0  501    0  0.00000000000E+00  0.00000000000E+00  0.19387317412E+04  0.19387317412E+04  0.25500000920E-02 0. -1.
       -2   -1    0    0    0  501  0.00000000000E+00  0.00000000000E+00 -0.14033505885E+04  0.14033505885E+04  0.25500000920E-02 0.  1.
    10030    2    1    2    0    0  0.00000000000E+00  0.00000000000E+00  0.53538115272E+03  0.33420823298E+04  0.32989212358E+04 0.  0.
        1    1    3    3  502    0  0.34807731275E+03 -0.25202399794E+03 -0.13456416052E+04  0.14125952148E+04  0.50400001928E-02 0.  1.
       -1    1    3    3    0  502 -0.34807731275E+03  0.25202399794E+03  0.18810227579E+04  0.19294871150E+04  0.50400001928E-02 0. -1.
</event>
<event>
 5   0  0.5637538E-06  0.3287203E+04  0.7818609E-02  0.8166159E-01
       -2   -1    0    0    0  501  0.00000000000E+00  0.00000000000E+00  0.15302915610E+04  0.15302915610E+04  0.25500000920E-02 0.  1.
        2   -1    0    0  501    0  0.00000000000E+00  0.00000000000E+00 -0.17653015558E+04  0.17653015558E+04  0.25500000920E-02 0. -1.
    10030    2    1    2    0    0  0.00000000000E+00  0.00000000000E+00 -0.23500999484E+03  0.32955931168E+04  0.32872031112E+04 0.  0.
        2    1    3    3  502    0 -0.10060475597E+04  0.30255500381E+03  0.11497444782E+04  0.15574285178E+04  0.25500000920E-02 0.  1.
       -2    1    3    3    0  502  0.10060475597E+04 -0.30255500381E+03 -0.13847544731E+04  0.17381645991E+04  0.25500000920E-02 0. -1.
</event>
<event>
 5   0  0.2037109E-06  0.3272787E+04  0.7818609E-02  0.8169855E-01
        1   -1    0    0  501    0  0.00000000000E+00  0.00000000000E+00  0.29511133548E+04  0.29511133548E+04  0.50400001928E-02 0.  1.
       -1   -1    0    0    0  501  0.00000000000E+00  0.00000000000E+00 -0.90738058160E+03  0.90738058162E+03  0.50400001928E-02 0. -1.
    10030    2    1    2    0    0  0.00000000000E+00  0.00000000000E+00  0.20437327732E+04  0.38584939365E+04  0.32727865511E+04 0.  0.
        2    1    3    3  502    0 -0.84864664731E+03  0.26025587075E+03  0.26426075358E+04  0.27877067347E+04  0.25500000920E-02 0.  1.
       -2    1    3    3    0  502  0.84864664731E+03 -0.26025587075E+03 -0.59887476257E+03  0.10707872018E+04  0.25500000920E-02 0. -1.
</event>
<event>
 5   0  0.2037109E-06  0.2449384E+04  0.7818609E-02  0.8421243E-01
       -1   -1    0    0    0  501  0.00000000000E+00  0.00000000000E+00  0.96928447818E+03  0.96928447819E+03  0.50400001928E-02 0. -1.
        1   -1    0    0  501    0  0.00000000000E+00  0.00000000000E+00 -0.15473990788E+04  0.15473990788E+04  0.50400001928E-02 0.  1.
    10030    2    1    2    0    0  0.00000000000E+00  0.00000000000E+00 -0.57811460060E+03  0.25166835570E+04  0.24493835213E+04 0.  0.
        2    1    3    3  502    0 -0.97317635709E+03  0.71185174150E+03 -0.50958154487E+03  0.13089990354E+04  0.25500000920E-02 0.  1.
       -2    1    3    3    0  502  0.97317635709E+03 -0.71185174150E+03 -0.68533055733E+02  0.12076845216E+04  0.25500000920E-02 0. -1.
</event>
<event>
 5   0  0.5622811E-06  0.2856044E+04  0.7818609E-02  0.8286077E-01
       -2   -1    0    0    0  501  0.00000000000E+00  0.00000000000E+00  0.17686637947E+04  0.17686637947E+04  0.25500000920E-02 0.  1.
        2   -1    0    0  501    0  0.00000000000E+00  0.00000000000E+00 -0.11529872610E+04  0.11529872610E+04  0.25500000920E-02 0. -1.
    10030    2    1    2    0    0  0.00000000000E+00  0.00000000000E+00  0.61567653366E+03  0.29216510557E+04  0.28560439943E+04 0.  0.
        1    1    3    3  502    0 -0.12272041151E+04  0.41076170144E+03  0.92543825510E+03  0.15909717406E+04  0.50400001928E-02 0.  1.
       -1    1    3    3    0  502  0.12272041151E+04 -0.41076170144E+03 -0.30976172144E+03  0.13306793151E+04  0.50400001928E-02 0. -1.
</event>
<event>
 5   0  0.1925906E-06  0.3093624E+04  0.7818609E-02  0.8217490E-01
        1   -1    0    0  501    0  0.00000000000E+00  0.00000000000E+00  0.18893189467E+04  0.18893189467E+04  0.50400001928E-02 0. -1.
       -1   -1    0    0    0  501  0.00000000000E+00  0.00000000000E+00 -0.12663968853E+04  0.12663968853E+04  0.50400001928E-02 0.  1.
    10030    2    1    2    0    0  0.00000000000E+00  0.00000000000E+00  0.62292206133E+03  0.31557158320E+04  0.30936241720E+04 0.  0.
        1    1    3    3  502    0 -0.13483541308E+04 -0.73187899818E+03  0.51270707305E+03  0.16175828489E+04  0.50400001928E-02 0. -1.
       -1    1    3    3    0  502  0.13483541308E+04  0.73187899818E+03  0.11021498828E+03  0.15381329831E+04  0.50400001928E-02 0.  1.
</event>
<event>
 5   0  0.1999849E-06  0.2532515E+04  0.7818609E-02  0.8391493E-01
        1   -1    0    0  501    0  0.00000000000E+00  0.00000000000E+00  0.13276268274E+04  0.13276268274E+04  0.50400001928E-02 0. -1.
       -1   -1    0    0    0  501  0.00000000000E+00  0.00000000000E+00 -0.12077245841E+04  0.12077245841E+04  0.50400001928E-02 0.  1.
    10030    2    1    2    0    0  0.00000000000E+00  0.00000000000E+00  0.11990224329E+03  0.25353514115E+04  0.25325146064E+04 0.  0.
        5    1    3    3  502    0 -0.57787140751E+03 -0.44127648166E+03 -0.97789965466E+03  0.12185935013E+04  0.46999998093E+01 0.  1.
       -5    1    3    3    0  502  0.57787140751E+03  0.44127648166E+03  0.10978018979E+04  0.13167579102E+04  0.46999998093E+01 0. -1.
</event>
<event>
 5   0  0.5622811E-06  0.3293582E+04  0.7818609E-02  0.8164530E-01
       -2   -1    0    0    0  501  0.00000000000E+00  0.00000000000E+00  0.12416857353E+04  0.12416857353E+04  0.25500000920E-02 0. -1.
        2   -1    0    0  501    0  0.00000000000E+00  0.00000000000E+00 -0.21840641644E+04  0.21840641644E+04  0.25500000920E-02 0.  1.
    10030    2    1    2    0    0  0.00000000000E+00  0.00000000000E+00 -0.94237842909E+03  0.34257498996E+04  0.32935824373E+04 0.  0.
        1    1    3    3  502    0 -0.11588085054E+04 -0.19590430727E+03  0.72866399864E+03  0.13828112209E+04  0.50400001928E-02 0. -1.
       -1    1    3    3    0  502  0.11588085054E+04  0.19590430727E+03 -0.16710424277E+04  0.20429386787E+04  0.50400001928E-02 0.  1.
</event>
<event>
 5   0  0.2097842E-06  0.3273862E+04  0.7818609E-02  0.8169578E-01
        1   -1    0    0  501    0  0.00000000000E+00  0.00000000000E+00  0.22277833977E+04  0.22277833977E+04  0.50400001928E-02 0. -1.
       -1   -1    0    0    0  501  0.00000000000E+00  0.00000000000E+00 -0.12027844344E+04  0.12027844344E+04  0.50400001928E-02 0.  1.
    10030    2    1    2    0    0  0.00000000000E+00  0.00000000000E+00  0.10249989633E+04  0.34305678321E+04  0.32738620582E+04 0.  0.
        4    1    3    3  502    0  0.18303962455E+03 -0.14276613924E+04  0.13294457506E+04  0.19593744339E+04  0.12699999809E+01 0. -1.
       -4    1    3    3    0  502 -0.18303962455E+03  0.14276613924E+04 -0.30444678731E+03  0.14711933982E+04  0.12699999809E+01 0.  1.
</event>
<event>
 5   0  0.5637538E-06  0.2998848E+04  0.7818609E-02  0.8244060E-01
       -2   -1    0    0    0  501  0.00000000000E+00  0.00000000000E+00  0.12832259548E+04  0.12832259548E+04  0.25500000920E-02 0.  1.
        2   -1    0    0  501    0  0.00000000000E+00  0.00000000000E+00 -0.17520472436E+04  0.17520472436E+04  0.25500000920E-02 0. -1.
    10030    2    1    2    0    0  0.00000000000E+00  0.00000000000E+00 -0.46882128888E+03  0.30352731984E+04  0.29988481102E+04 0.  0.
        2    1    3    3  502    0 -0.13095011588E+04  0.72215870629E+03 -0.34512860775E+03  0.15347378401E+04  0.25500000920E-02 0.  1.
       -2    1    3    3    0  502  0.13095011588E+04 -0.72215870629E+03 -0.12369268114E+03  0.15005353583E+04  0.25500000920E-02 0. -1.
</event>
<event>
 5   0  0.2097842E-06  0.2813358E+04  0.7818609E-02  0.8299133E-01
       -1   -1    0    0    0  501  0.00000000000E+00  0.00000000000E+00  0.13245297365E+04  0.13245297365E+04  0.50400001928E-02 0. -1.
        1   -1    0    0  501    0  0.00000000000E+00  0.00000000000E+00 -0.14939232886E+04  0.14939232886E+04  0.50400001928E-02 0.  1.
    10030    2    1    2    0    0  0.00000000000E+00  0.00000000000E+00 -0.16939355208E+03  0.28184530251E+04  0.28133580076E+04 0.  0.
        4    1    3    3  502    0  0.11706986614E+04  0.49309082625E+03  0.52060792154E+03  0.13728467283E+04  0.12699999809E+01 0.  1.
       -4    1    3    3    0  502 -0.11706986614E+04 -0.49309082625E+03 -0.69000147362E+03  0.14456062967E+04  0.12699999809E+01 0. -1.
</event>
<event>
 5   0  0.1925906E-06  0.3113143E+04  0.7818609E-02  0.8212140E-01
       -1   -1    0    0    0  501  0.00000000000E+00  0.00000000000E+00  0.12093512897E+04  0.12093512897E+04  0.50400001928E-02 0. -1.
        1   -1    0    0  501    0  0.00000000000E+00  0.00000000000E+00 -0.20034831141E+04  0.20034831141E+04  0.50400001928E-02 0.  1.
    10030    2    1    2    0    0  0.00000000000E+00  0.00000000000E+00 -0.79413182447E+03  0.32128344038E+04  0.31131430343E+04 0.  0.
        1    1    3    3  502    0  0.14228338437E+04 -0.35479122956E+03 -0.93587857503E+03  0.17395981348E+04  0.50400001928E-02 0.  1.
       -1    1    3    3    0  502 -0.14228338437E+04  0.35479122956E+03  0.14174675056E+03  0.14732362691E+04  0.50400001928E-02 0. -1.
</event>
<event>
 5   0  0.5755250E-06  0.3323355E+04  0.7818609E-02  0.8156978E-01
       -2   -1    0    0    0  501  0.00000000000E+00  0.00000000000E+00  0.16397376136E+04  0.16397376136E+04  0.25500000920E-02 0. -1.
        2   -1    0    0  501    0  0.00000000000E+00  0.00000000000E+00 -0.16839114088E+04  0.16839114088E+04  0.25500000920E-02 0.  1.
    10030    2    1    2    0    0  0.00000000000E+00  0.00000000000E+00 -0.44173795210E+02  0.33236490225E+04  0.33233554580E+04 0.  0.
        5    1    3    3  502    0 -0.82525209335E+03  0.14120473295E+04 -0.31576587527E+03  0.16657277257E+04  0.46999998093E+01 0.  1.
       -5    1    3    3    0  502  0.82525209335E+03 -0.14120473295E+04  0.27159208007E+03  0.16579212968E+04  0.46999998093E+01 0. -1.
</event>
<event>
 5   0  0.2730981E-06  0.3284273E+04  0.7818609E-02  0.8166909E-01
       -1   -1    0    0    0  501  0.00000000000E+00  0.00000000000E+00  0.11586876388E+04  0.11586876388E+04  0.50400001928E-02 0.  1.
        1   -1    0    0  501    0  0.00000000000E+00  0.00000000000E+00 -0.23272993314E+04  0.23272993314E+04  0.50400001928E-02 0. -1.
    10030    2    1    2    0    0  0.00000000000E+00  0.00000000000E+00 -0.11686116926E+04  0.34859869701E+04  0.32842734155E+04 0.  0.
        3    1    3    3  502    0  0.56475820569E+03  0.15377894209E+04 -0.46391641595E+03  0.17026351885E+04  0.10100000352E+00 0. -1.
       -3    1    3    3    0  502 -0.56475820569E+03 -0.15377894209E+04 -0.70469527664E+03  0.17833517816E+04  0.10100000352E+00 0.  1.
</event>
<event>
 5   0  0.1999849E-06  0.2087052E+04  0.7818609E-02  0.8566969E-01
       -1   -1    0    0    0  501  0.00000000000E+00  0.00000000000E+00  0.69500663881E+03  0.69500663883E+03  0.50400001928E-02 0.  1.
        1   -1    0    0  501    0  0.00000000000E+00  0.00000000000E+00 -0.15668147516E+04  0.15668147516E+04  0.50400001928E-02 0. -1.
    10030    2    1    2    0    0  0.00000000000E+00  0.00000000000E+00 -0.87180811276E+03  0.22618213904E+04  0.20870521356E+04 0.  0.
        5    1    3    3  502    0  0.80222723052E+03 -0.21687890863E+03  0.24807189649E+03  0.86727547309E+03  0.46999998093E+01 0.  1.
       -5    1    3    3    0  502 -0.80222723052E+03  0.21687890863E+03 -0.11198800093E+04  0.13945459173E+04  0.46999998093E+01 0. -1.
</event>
<event>
 5   0  0.5637538E-06  0.2639230E+04  0.7818609E-02  0.8354997E-01
        2   -1    0    0  501    0  0.00000000000E+00  0.00000000000E+00  0.13019594659E+04  0.13019594659E+04  0.25500000920E-02 0.  1.
       -2   -1    0    0    0  501  0.00000000000E+00  0.00000000000E+00 -0.13375095155E+04  0.13375095155E+04  0.25500000920E-02 0. -1.
    10030    2    1    2    0    0  0.00000000000E+00  0.00000000000E+00 -0.35550049594E+02  0.26394689814E+04  0.26392295652E+04 0.  0.
        2    1    3    3  502    0 -0.85675703169E+03  0.50995801337E+03  0.84676472237E+03  0.13080903187E+04  0.25500000920E-02 0.  1.
       -2    1    3    3    0  502  0.85675703169E+03 -0.50995801337E+03 -0.88231477196E+03  0.13313786627E+04  0.25500000920E-02 0. -1.
</event>
<event>
 5   0  0.5300268E-06  0.3121600E+04  0.7818609E-02  0.8209835E-01
        2   -1    0    0  501    0  0.00000000000E+00  0.00000000000E+00  0.19469891206E+04  0.19469891206E+04  0.25500000920E-02 0.  1.
       -2   -1    0    0    0  501  0.00000000000E+00  0.00000000000E+00 -0.12512122704E+04  0.12512122704E+04  0.25500000920E-02 0. -1.
    10030    2    1    2    0    0  0.00000000000E+00  0.00000000000E+00  0.69577685022E+03  0.31982013911E+04  0.31216000244E+04 0.  0.
        4    1    3    3  502    0 -0.11820658130E+04  0.76491999512E+03 -0.34222282374E+03  0.14489652374E+04  0.12699999809E+01 0. -1.
       -4    1    3    3    0  502  0.11820658130E+04 -0.76491999512E+03  0.10379996740E+04  0.17492361537E+04  0.12699999809E+01 0.  1.
</event>
<event>
 5   0  0.2730981E-06  0.3240724E+04  0.7818609E-02  0.8178144E-01
        1   -1    0    0  501    0  0.00000000000E+00  0.00000000000E+00  0.20310286848E+04  0.20310286848E+04  0.50400001928E-02 0.  1.
       -1   -1    0    0    0  501  0.00000000000E+00  0.00000000000E+00 -0.12927307499E+04  0.12927307499E+04  0.50400001928E-02 0. -1.
    10030    2    1    2    0    0  0.00000000000E+00  0.00000000000E+00  0.73829793489E+03  0.33237594347E+04  0.32407241380E+04 0.  0.
        3    1    3    3  502    0  0.82633403360E+01 -0.93751300894E+03  0.17245913209E+04  0.19629605597E+04  0.10100000352E+00 0.  1.
       -3    1    3    3    0  502 -0.82633403360E+01  0.93751300894E+03 -0.98629338596E+03  0.13607988750E+04  0.10100000352E+00 0. -1.
</event>
<event>
 5   0  0.5637538E-06  0.3255696E+04  0.7818609E-02  0.8174261E-01
        2   -1    0    0  501    0  0.00000000000E+00  0.00000000000E+00  0.24682378441E+04  0.24682378441E+04  0.25500000920E-02 0.  1.
       -2   -1    0    0    0  501  0.00000000000E+00  0.00000000000E+00 -0.10735955103E+04  0.10735955103E+04  0.25500000920E-02 0. -1.
    10030    2    1    2    0    0  0.00000000000E+00  0.00000000000E+00  0.13946423339E+04  0.35418333544E+04  0.32556959734E+04 0.  0.
        2    1    3    3  502    0  0.25569270349E+03  0.68581852897E+03 -0.88448600831E+03  0.11480598034E+04  0.25500000920E-02 0. -1.
       -2    1    3    3    0  502 -0.25569270349E+03 -0.68581852897E+03  0.22791283422E+04  0.23937735510E+04  0.25500000920E-02 0.  1.
</event>
<event>
 5   0  0.5300268E-06  0.2674476E+04  0.7818609E-02  0.8343334E-01
        2   -1    0    0  501    0  0.00000000000E+00  0.00000000000E+00  0.13848621297E+04  0.13848621297E+04  0.25500000920E-02 0.  1.
       -2   -1    0    0    0  501  0.00000000000E+00  0.00000000000E+00 -0.12912513544E+04  0.12912513544E+04  0.25500000920E-02 0. -1.
    10030    2    1    2    0    0  0.00000000000E+00  0.00000000000E+00  0.93610775303E+02  0.26761134841E+04  0.26744757248E+04 0.  0.
        4    1    3    3  502    0  0.10787655704E+04 -0.61628046719E+03 -0.44813547833E+03  0.13207436503E+04  0.12699999809E+01 0. -1.
       -4    1    3    3    0  502 -0.10787655704E+04  0.61628046719E+03  0.54174625363E+03  0.13553698338E+04  0.12699999809E+01 0.  1.
</event>
<event>
 5   0  0.5855568E-06  0.2765223E+04  0.7818609E-02  0.8314147E-01
        2   -1    0    0  501    0  0.00000000000E+00  0.00000000000E+00  0.23621292088E+04  0.23621292088E+04  0.25500000920E-02 0.  1.
       -2   -1    0    0    0  501  0.00000000000E+00  0.00000000000E+00 -0.80927619458E+03  0.80927619459E+03  0.25500000920E-02 0. -1.
    10030    2    1    2    0    0  0.00000000000E+00  0.00000000000E+00  0.15528530143E+04  0.31714054034E+04  0.27652232729E+04 0.  0.
        3    1    3    3  502    0 -0.37914995976E+02 -0.52351507100E+01 -0.80866847741E+03  0.80957375839E+03  0.10100000352E+00 0. -1.
       -3    1    3    3    0  502  0.37914995976E+02  0.52351507100E+01  0.23615214917E+04  0.23618316450E+04  0.10100000352E+00 0.  1.
</event>
<event>
 5   0  0.1999849E-06  0.3327410E+04  0.7818609E-02  0.8155956E-01
       -1   -1    0    0    0  501  0.00000000000E+00  0.00000000000E+00  0.12155654673E+04  0.12155654674E+04  0.50400001928E-02 0. -1.
        1   -1    0    0  501    0  0.00000000000E+00  0.00000000000E+00 -0.22770594490E+04  0.22770594490E+04  0.50400001928E-02 0.  1.
    10030    2    1    2    0    0  0.00000000000E+00  0.00000000000E+00 -0.10614939817E+04  0.34926249164E+04  0.33274103043E+04 0.  0.
        5    1    3    3  502    0  0.10348156261E+04 -0.10025385391E+04  0.34240112006E+03  0.14809414301E+04  0.46999998093E+01 0. -1.
       -5    1    3    3    0  502 -0.10348156261E+04  0.10025385391E+04 -0.14038951018E+04  0.20116834863E+04  0.46999998093E+01 0.  1.
</event>
<event>
 5   0  0.5637538E-06  0.2923291E+04  0.7818609E-02  0.8265981E-01
        2   -1    0    0  501    0  0.00000000000E+00  0.00000000000E+00  0.29525128768E+04  0.29525128768E+04  0.25500000920E-02 0. -1.
       -2   -1    0    0    0  501  0.00000000000E+00  0.00000000000E+00 -0.72358952178E+03  0.72358952179E+03  0.25500000920E-02 0.  1.
    10030    2    1    2    0    0  0.00000000000E+00  0.00000000000E+00  0.22289233550E+04  0.36761023986E+04  0.29232908720E+04 0.  0.
        2    1    3    3  502    0  0.41255767633E+03  0.13511522633E+04  0.15859755697E+04  0.21239432155E+04  0.25500000920E-02 0.  1.
       -2    1    3    3    0  502 -0.41255767633E+03 -0.13511522633E+04  0.64294778529E+03  0.15521591831E+04  0.25500000920E-02 0. -1.
</event>
<event>
 5   0  0.1878000E-06  0.3305247E+04  0.7818609E-02  0.8161562E-01
        3   -1    0    0  501    0  0.00000000000E+00  0.00000000000E+00  0.14944849451E+04  0.14944849485E+04  0.10100000352E+00 0. -1.
       -3   -1    0    0    0  501  0.00000000000E+00  0.00000000000E+00 -0.18274951864E+04  0.18274951892E+04  0.10100000352E+00 0.  1.
    10030    2    1    2    0    0  0.00000000000E+00  0.00000000000E+00 -0.33301024128E+03  0.33219801377E+04  0.33052467706E+04 0.  0.
        1    1    3    3  502    0 -0.38341036293E+03 -0.12749472674E+04  0.81756877903E+03  0.15623420718E+04  0.50400001928E-02 0. -1.
       -1    1    3    3    0  502  0.38341036293E+03  0.12749472674E+04 -0.11505790203E+04  0.17596380659E+04  0.50400001928E-02 0.  1.
</event>
<event>
 5   0  0.2097842E-06  0.3319155E+04  0.7818609E-02  0.8158038E-01
        1   -1    0    0  501    0  0.00000000000E+00  0.00000000000E+00  0.87285285667E+03  0.87285285668E+03  0.50400001928E-02 0.  1.
       -1   -1    0    0    0  501  0.00000000000E+00  0.00000000000E+00 -0.31553969910E+04  0.31553969910E+04  0.50400001928E-02 0. -1.
    10030    2    1    2    0    0  0.00000000000E+00  0.00000000000E+00 -0.22825441343E+04  0.40282498477E+04  0.33191548789E+04 0.  0.
        4    1    3    3  502    0  0.12193077222E+04 -0.11102811894E+04 -0.13675430763E+04  0.21423378163E+04  0.12699999809E+01 0. -1.
       -4    1    3    3    0  502 -0.12193077222E+04  0.11102811894E+04 -0.91500105804E+03  0.18859120314E+04  0.12699999809E+01 0.  1.
</event>
<event>
 5   0  0.5637538E-06  0.2369243E+04  0.7818609E-02  0.8451109E-01
       -2   -1    0    0    0  501  0.00000000000E+00  0.00000000000E+00  0.96779599257E+03  0.96779599257E+03  0.25500000920E-02 0.  1.
        2   -1    0    0  501    0  0.00000000000E+00  0.00000000000E+00 -0.14500242616E+04  0.14500242616E+04  0.25500000920E-02 0. -1.
    10030    2    1    2    0    0  0.00000000000E+00  0.00000000000E+00 -0.48222826908E+03  0.24178202542E+04  0.23692426381E+04 0.  0.
        2    1    3    3  502    0 -0.10412638122E+04  0.31480184149E+03 -0.71976956734E+03  0.13043767692E+04  0.25500000920E-02 0. -1.
       -2    1    3    3    0  502  0.10412638122E+04 -0.31480184149E+03  0.23754129827E+03  0.11134434850E+04  0.25500000920E-02 0.  1.
</event>
<event>
 5   0  0.1999849E-06  0.2131818E+04  0.7818609E-02  0.8547356E-01
        1   -1    0    0  501    0  0.00000000000E+00  0.00000000000E+00  0.54898805694E+03  0.54898805697E+03  0.50400001928E-02 0.  1.
       -1   -1    0    0    0  501  0.00000000000E+00  0.00000000000E+00 -0.20695559617E+04  0.20695559617E+04  0.50400001928E-02 0. -1.
    10030    2    1    2    0    0  0.00000000000E+00  0.00000000000E+00 -0.15205679047E+04  0.26185440187E+04  0.21318175402E+04 0.  0.
        5    1    3    3  502    0 -0.63351695698E+03  0.85096558170E+03 -0.63350384529E+03  0.12356517989E+04  0.46999998093E+01 0. -1.
       -5    1    3    3    0  502  0.63351695698E+03 -0.85096558170E+03 -0.88706405946E+03  0.13828922198E+04  0.46999998093E+01 0.  1.
</event>
<event>
 5   0  0.1999849E-06  0.3273457E+04  0.7818609E-02  0.8169682E-01
       -1   -1    0    0    0  501  0.00000000000E+00  0.00000000000E+00  0.16017380871E+04  0.16017380871E+04  0.50400001928E-02 0. -1.
        1   -1    0    0  501    0  0.00000000000E+00  0.00000000000E+00 -0.16724836507E+04  0.16724836507E+04  0.50400001928E-02 0.  1.
    10030    2    1    2    0    0  0.00000000000E+00  0.00000000000E+00 -0.70745563646E+02  0.32742217378E+04  0.32734573548E+04 0.  0.
        5    1    3    3  502    0 -0.10250314462E+04  0.67174431469E+03  0.10497440301E+04  0.16136649307E+04  0.46999998093E+01 0. -1.
       -5    1    3    3    0  502  0.10250314462E+04 -0.67174431469E+03 -0.11204895937E+04  0.16605568071E+04  0.46999998093E+01 0.  1.
</event>
<event>
 5   0  0.2730981E-06  0.2382233E+04  0.7818609E-02  0.8446185E-01
       -1   -1    0    0    0  501  0.00000000000E+00  0.00000000000E+00  0.18496617406E+04  0.18496617406E+04  0.50400001928E-02 0.  1.
        1   -1    0    0  501    0  0.00000000000E+00  0.00000000000E+00 -0.76703646864E+03  0.76703646865E+03  0.50400001928E-02 0. -1.
    10030    2    1    2    0    0  0.00000000000E+00  0.00000000000E+00  0.10826252720E+04  0.26166982093E+04  0.23822325745E+04 0.  0.
        3    1    3    3  502    0 -0.64272836118E+02  0.11865652223E+04  0.63115511738E+03  0.13455202773E+04  0.10100000352E+00 0.  1.
       -3    1    3    3    0  502  0.64272836118E+02 -0.11865652223E+04  0.45147015459E+03  0.12711779320E+04  0.10100000352E+00 0. -1.
</event>
<event>
 5   0  0.2037109E-06  0.3352543E+04  0.7818609E-02  0.8149653E-01
       -1   -1    0    0    0  501  0.00000000000E+00  0.00000000000E+00  0.20264082035E+04  0.20264082035E+04  0.50400001928E-02 0. -1.
        1   -1    0    0  501    0  0.00000000000E+00  0.00000000000E+00 -0.13866341592E+04  0.13866341592E+04  0.50400001928E-02 0.  1.
    10030    2    1    2    0    0  0.00000000000E+00  0.00000000000E+00  0.63977404433E+03  0.34130423627E+04  0.33525434139E+04 0.  0.
        2    1    3    3  502    0  0.69160207921E+03 -0.23487143538E+01 -0.12346150328E+04  0.14151301112E+04  0.25500000920E-02 0.  1.
       -2    1    3    3    0  502 -0.69160207921E+03  0.23487143538E+01  0.18743890771E+04  0.19979122515E+04  0.25500000920E-02 0. -1.
</event>
<event>
 5   0  0.5755250E-06  0.3339717E+04  0.7818609E-02  0.8152862E-01
       -2   -1    0    0    0  501  0.00000000000E+00  0.00000000000E+00  0.13291578060E+04  0.13291578060E+04  0.25500000920E-02 0.  1.
        2   -1    0    0  501    0  0.00000000000E+00  0.00000000000E+00 -0.20978900052E+04  0.20978900052E+04  0.25500000920E-02 0. -1.
    10030    2    1    2    0    0  0.00000000000E+00  0.00000000000E+00 -0.76873219911E+03  0.34270478112E+04  0.33397166805E+04 0.  0.
        5    1    3    3  502    0 -0.77364552968E+02  0.36296476977E+03  0.12862969520E+04  0.13387720631E+04  0.46999998093E+01 0.  1.
       -5    1    3    3    0  502  0.77364552968E+02 -0.36296476977E+03 -0.20550291511E+04  0.20882757481E+04  0.46999998093E+01 0. -1.
</event>
<event>
 5   0  0.2097842E-06  0.2348494E+04  0.7818609E-02  0.8459042E-01
        1   -1    0    0  501    0  0.00000000000E+00  0.00000000000E+00  0.14917466218E+04  0.14917466218E+04  0.50400001928E-02 0.  1.
       -1   -1    0    0    0  501  0.00000000000E+00  0.00000000000E+00 -0.92432316976E+03  0.92432316977E+03  0.50400001928E-02 0. -1.
    10030    2    1    2    0    0  0.00000000000E+00  0.00000000000E+00  0.56742345206E+03  0.24160697916E+04  0.23484939565E+04 0.  0.
        4    1    3    3  502    0 -0.10793033132E+04 -0.25948465085E+03  0.67764816470E+03  0.13005524111E+04  0.12699999809E+01 0.  1.
       -4    1    3    3    0  502  0.10793033132E+04  0.25948465085E+03 -0.11022471265E+03  0.11155173805E+04  0.12699999809E+01 0. -1.
</event>
<event>
 5   0  0.1999849E-06  0.3150825E+04  0.7818609E-02  0.8201926E-01
        1   -1    0    0  501    0  0.00000000000E+00  0.00000000000E+00  0.15549173005E+04  0.15549173005E+04  0.50400001928E-02 0. -1.
       -1   -1    0    0    0  501  0.00000000000E+00  0.00000000000E+00 -0.15961773456E+04  0.15961773456E+04  0.50400001928E-02 0.  1.
    10030    2    1    2    0    0  0.00000000000E+00  0.00000000000E+00 -0.41260045184E+02  0.31510946461E+04  0.31508245076E+04 0.  0.
        5    1    3    3  502    0  0.13683930556E+03 -0.15611547590E+04 -0.18180370502E+03  0.15776577114E+04  0.46999998093E+01 0. -1.
       -5    1    3    3    0  502 -0.13683930556E+03  0.15611547590E+04  0.14054365983E+03  0.15734369347E+04  0.46999998093E+01 0.  1.
</event>
<event>
 5   0  0.5637538E-06  0.3103417E+04  0.7818609E-02  0.8214801E-01
       -2   -1    0    0    0  501  0.00000000000E+00  0.00000000000E+00  0.95125162671E+03  0.95125162671E+03  0.25500000920E-02 0.  1.
        2   -1    0    0  501    0  0.00000000000E+00  0.00000000000E+00 -0.25311908747E+04  0.25311908747E+04  0.25500000920E-02 0. -1.
    10030    2    1    2    0    0  0.00000000000E+00  0.00000000000E+00 -0.15799392479E+04  0.34824425014E+04  0.31034171083E+04 0.  0.
        2    1    3    3  502    0  0.94212202309E+03 -0.39126336297E+03  0.52206980501E+03  0.11459658838E+04  0.25500000920E-02 0.  1.
       -2    1    3    3    0  502 -0.94212202309E+03  0.39126336297E+03 -0.21020090529E+04  0.23364766175E+04  0.25500000920E-02 0. -1.
</event>
<event>
 5   0  0.2037109E-06  0.1630471E+04  0.7818609E-02  0.8802044E-01
        1   -1    0    0  501    0  0.00000000000E+00  0.00000000000E+00  0.17184142953E+04  0.17184142953E+04  0.50400001928E-02 0.  1.
       -1   -1    0    0    0  501  0.00000000000E+00  0.00000000000E+00 -0.38675716546E+03  0.38675716549E+03  0.50400001928E-02 0. -1.
    10030    2    1    2    0    0  0.00000000000E+00  0.00000000000E+00  0.13316571299E+04  0.21051714608E+04  0.16304711491E+04 0.  0.
        2    1    3    3  502    0 -0.17170747928E+02 -0.15307632231E+03  0.16994543636E+04  0.17064209120E+04  0.25500000920E-02 0.  1.
       -2    1    3    3    0  502  0.17170747928E+02  0.15307632231E+03 -0.36779723372E+03  0.39875054881E+03  0.25500000920E-02 0. -1.
</event>
<event>
 5   0  0.5755250E-06  0.3449803E+04  0.7818609E-02  0.8125790E-01
        2   -1    0    0  501    0  0.00000000000E+00  0.00000000000E+00  0.21738250925E+04  0.21738250925E+04  0.25500000920E-02 0. -1.
       -2   -1    0    0    0  501  0.00000000000E+00  0.00000000000E+00 -0.13686861873E+04  0.13686861873E+04  0.25500000920E-02 0.  1.
    10030    2    1    2    0    0  0.00000000000E+00  0.00000000000E+00  0.80513890518E+03  0.35425112798E+04  0.34498025321E+04 0.  0.
        5    1    3    3  502    0 -0.61710498371E+03 -0.12904116135E+04  0.13924679680E+04  0.19962389198E+04  0.46999998093E+01 0. -1.
       -5    1    3    3    0  502  0.61710498371E+03  0.12904116135E+04 -0.58732906286E+03  0.15462723599E+04  0.46999998093E+01 0.  1.
</event>
<event>
 5   0  0.1925906E-06  0.3289069E+04  0.7818609E-02  0.8165682E-01
        1   -1    0    0  501    0  0.00000000000E+00  0.00000000000E+00  0.23526687035E+04  0.23526687035E+04  0.50400001928E-02 0.  1.
       -1   -1    0    0    0  501  0.00000000000E+00  0.00000000000E+00 -0.11495428778E+04  0.11495428778E+04  0.50400001928E-02 0. -1.
    10030    2    1    2    0    0  0.00000000000E+00  0.00000000000E+00  0.12031258258E+04  0.35022115813E+04  0.32890688968E+04 0.  0.
        1    1    3    3  502    0 -0.27764951011E+03 -0.16150082309E+04  0.45420122420E+03  0.17004821635E+04  0.50400001928E-02 0. -1.
       -1    1    3    3    0  502  0.27764951011E+03  0.16150082309E+04  0.74892460156E+03  0.18017294178E+04  0.50400001928E-02 0.  1.
</event>
<event>
 5   0  0.5855568E-06  0.3337704E+04  0.7818609E-02  0.8153367E-01
        2   -1    0    0  501    0  0.00000000000E+00  0.00000000000E+00  0.22124399639E+04  0.22124399639E+04  0.25500000920E-02 0. -1.
       -2   -1    0    0    0  501  0.00000000000E+00  0.00000000000E+00 -0.12588218637E+04  0.12588218637E+04  0.25500000920E-02 0.  1.
    10030    2    1    2    0    0  0.00000000000E+00  0.00000000000E+00  0.95361810022E+03  0.34712618276E+04  0.33377044799E+04 0.  0.
        3    1    3    3  502    0  0.12743386957E+04  0.10501039978E+04  0.22545603405E+03  0.16665797164E+04  0.10100000352E+00 0. -1.
       -3    1    3    3    0  502 -0.12743386957E+04 -0.10501039978E+04  0.72816206617E+03  0.18046821112E+04  0.10100000352E+00 0.  1.
</event>
<event>
 5   0  0.5755250E-06  0.3275734E+04  0.7818609E-02  0.8169097E-01
        2   -1    0    0  501    0  0.00000000000E+00  0.00000000000E+00  0.17630190791E+04  0.17630190791E+04  0.25500000920E-02 0.  1.
       -2   -1    0    0    0  501  0.00000000000E+00  0.00000000000E+00 -0.15215995306E+04  0.15215995306E+04  0.25500000920E-02 0. -1.
    10030    2    1    2    0    0  0.00000000000E+00  0.00000000000E+00  0.24141954848E+03  0.32846186096E+04  0.32757344234E+04 0.  0.
        5    1    3    3  502    0  0.46668835474E+03 -0.57496277067E+03 -0.13441447764E+04  0.15346424594E+04  0.46999998093E+01 0. -1.
       -5    1    3    3    0  502 -0.46668835474E+03  0.57496277067E+03  0.15855643249E+04  0.17499761503E+04  0.46999998093E+01 0.  1.
</event>
<event>
 5   0  0.1925906E-06  0.3349636E+04  0.7818609E-02  0.8150379E-01
        1   -1    0    0  501    0  0.00000000000E+00  0.00000000000E+00  0.27610862171E+04  0.27610862171E+04  0.50400001928E-02 0. -1.
       -1   -1    0    0    0  501  0.00000000000E+00  0.00000000000E+00 -0.10159101193E+04  0.10159101193E+04  0.50400001928E-02 0.  1.
    10030    2    1    2    0    0  0.00000000000E+00  0.00000000000E+00  0.17451760978E+04  0.37769963364E+04  0.33496360568E+04 0.  0.
        1    1    3    3  502    0 -0.19442439629E+03 -0.11735987823E+04  0.22019329333E+04  0.25027272305E+04  0.50400001928E-02 0. -1.
       -1    1    3    3    0  502  0.19442439629E+03  0.11735987823E+04 -0.45675683544E+03  0.12742691059E+04  0.50400001928E-02 0.  1.
</event>
<event>
 5   0  0.5637538E-06  0.2782514E+04  0.7818609E-02  0.8308718E-01
        2   -1    0    0  501    0  0.00000000000E+00  0.00000000000E+00  0.27193510837E+04  0.27193510837E+04  0.25500000920E-02 0.  1.
       -2   -1    0    0    0  501  0.00000000000E+00  0.00000000000E+00 -0.71178585449E+03  0.71178585450E+03  0.25500000920E-02 0. -1.
    10030    2    1    2    0    0  0.00000000000E+00  0.00000000000E+00  0.20075652292E+04  0.34311369382E+04  0.27825137087E+04 0.  0.
        2    1    3    3  502    0 -0.85419448481E+03  0.57531081177E+03  0.21572253842E+04  0.23904501890E+04  0.25500000920E-02 0.  1.
       -2    1    3    3    0  502  0.85419448481E+03 -0.57531081177E+03 -0.14966015493E+03  0.10406867492E+04  0.25500000920E-02 0. -1.
</event>
<event>
 5   0  0.8635971E-06  0.1636662E+04  0.7818609E-02  0.8798336E-01
       -2   -1    0    0    0  501  0.00000000000E+00  0.00000000000E+00  0.53327713114E+03  0.53327713114E+03  0.25500000920E-02 0.  1.
        2   -1    0    0  501    0  0.00000000000E+00  0.00000000000E+00 -0.12557560130E+04  0.12557560130E+04  0.25500000920E-02 0. -1.
    10030    2    1    2    0    0  0.00000000000E+00  0.00000000000E+00 -0.72247888182E+03  0.17890331441E+04  0.16366624136E+04 0.  0.
        5    1    3    3  502    0  0.32188949685E+03 -0.60723340328E+03 -0.84677529004E+03  0.10905942124E+04  0.46999998093E+01 0. -1.
       -5    1    3    3    0  502 -0.32188949685E+03  0.60723340328E+03  0.12429640823E+03  0.69843893172E+03  0.46999998093E+01 0.  1.
</event>
<event>
 5   0  0.2037109E-06  0.1814698E+04  0.7818609E-02  0.8698522E-01
       -1   -1    0    0    0  501  0.00000000000E+00  0.00000000000E+00  0.11618052479E+04  0.11618052479E+04  0.50400001928E-02 0.  1.
        1   -1    0    0  501    0  0.00000000000E+00  0.00000000000E+00 -0.70862300441E+03  0.70862300443E+03  0.50400001928E-02 0. -1.
    10030    2    1    2    0    0  0.00000000000E+00  0.00000000000E+00  0.45318224345E+03  0.18704282523E+04  0.18146976887E+04 0.  0.
        2    1    3    3  502    0  0.31596510188E+03  0.44752302012E+03  0.97211001036E+03  0.11158443760E+04  0.25500000920E-02 0.  1.
       -2    1    3    3    0  502 -0.31596510188E+03 -0.44752302012E+03 -0.51892776691E+03  0.75458387633E+03  0.25500000920E-02 0. -1.
</event>
<event>
 5   0  0.5755250E-06  0.3404031E+04  0.7818609E-02  0.8136918E-01
        2   -1    0    0  501    0  0.00000000000E+00  0.00000000000E+00  0.16782902939E+04  0.16782902939E+04  0.25500000920E-02 0. -1.
       -2   -1    0    0    0  501  0.00000000000E+00  0.00000000000E+00 -0.17260762656E+04  0.17260762656E+04  0.25500000920E-02 0.  1.
    10030    2    1    2    0    0  0.00000000000E+00  0.00000000000E+00 -0.47785971752E+02  0.34043665595E+04  0.34040311650E+04 0.  0.
        5    1    3    3  502    0  0.11502762562E+04 -0.18037118775E+03  0.12176662898E+04  0.16847559212E+04  0.46999998093E+01 0. -1.
       -5    1    3    3    0  502 -0.11502762562E+04  0.18037118775E+03 -0.12654522615E+04  0.17196106382E+04  0.46999998093E+01 0.  1.
</event>
<event>
 5   0  0.2097842E-06  0.3309723E+04  0.7818609E-02  0.8160426E-01
       -1   -1    0    0    0  501  0.00000000000E+00  0.00000000000E+00  0.14215163780E+04  0.14215163780E+04  0.50400001928E-02 0.  1.
        1   -1    0    0  501    0  0.00000000000E+00  0.00000000000E+00 -0.19265111785E+04  0.19265111785E+04  0.50400001928E-02 0. -1.
    10030    2    1    2    0    0  0.00000000000E+00  0.00000000000E+00 -0.50499480047E+03  0.33480275565E+04  0.33097233677E+04 0.  0.
        4    1    3    3  502    0  0.96993937929E+03  0.11674433808E+04 -0.91956773165E+03  0.17746303482E+04  0.12699999809E+01 0. -1.
       -4    1    3    3    0  502 -0.96993937929E+03 -0.11674433808E+04  0.41457293117E+03  0.15733972083E+04  0.12699999809E+01 0.  1.
</event>
<event>
 5   0  0.1999849E-06  0.3304626E+04  0.7818609E-02  0.8161719E-01
       -1   -1    0    0    0  501  0.00000000000E+00  0.00000000000E+00  0.12335712099E+04  0.12335712099E+04  0.50400001928E-02 0. -1.
        1   -1    0    0  501    0  0.00000000000E+00  0.00000000000E+00 -0.22131986075E+04  0.22131986075E+04  0.50400001928E-02 0.  1.
    10030    2    1    2    0    0  0.00000000000E+00  0.00000000000E+00 -0.97962739757E+03  0.34467698174E+04  0.33046258996E+04 0.  0.
        5    1    3    3  502    0  0.11972339774E+04  0.31371306008E+03 -0.16315829961E+04  0.20478940998E+04  0.46999998093E+01 0.  1.
       -5    1    3    3    0  502 -0.11972339774E+04 -0.31371306008E+03  0.65195559853E+03  0.13988757176E+04  0.46999998093E+01 0. -1.
</event>
<event>
 5   0  0.1999849E-06  0.3580904E+04  0.7818609E-02  0.8094880E-01
       -1   -1    0    0    0  501  0.00000000000E+00  0.00000000000E+00  0.17091133718E+04  0.17091133718E+04  0.50400001928E-02 0.  1.
        1   -1    0    0  501    0  0.00000000000E+00  0.00000000000E+00 -0.18756616379E+04  0.18756616379E+04  0.50400001928E-02 0. -1.
    10030    2    1    2    0    0  0.00000000000E+00  0.00000000000E+00 -0.16654826609E+03  0.35847750097E+04  0.35809040123E+04 0.  0.
        5    1    3    3  502    0 -0.77221246532E+02  0.14061547801E+04  0.10235710812E+04  0.17409635938E+04  0.46999998093E+01 0.  1.
       -5    1    3    3    0  502  0.77221246532E+02 -0.14061547801E+04 -0.11901193473E+04  0.18438114159E+04  0.46999998093E+01 0. -1.
</event>
<event>
 5   0  0.1878000E-06  0.3325285E+04  0.7818609E-02  0.8156491E-01
       -3   -1    0    0    0  501  0.00000000000E+00  0.00000000000E+00  0.12744993798E+04  0.12744993838E+04  0.10100000352E+00 0.  1.
        3   -1    0    0  501    0  0.00000000000E+00  0.00000000000E+00 -0.21689933477E+04  0.21689933501E+04  0.10100000352E+00 0. -1.
    10030    2    1    2    0    0  0.00000000000E+00  0.00000000000E+00 -0.89449396798E+03  0.34434927339E+04  0.33252853636E+04 0.  0.
        3    1    3    3  502    0  0.63381335983E+03  0.76219346035E+03 -0.18295086817E+04  0.20808076011E+04  0.10100000352E+00 0. -1.
       -3    1    3    3    0  502 -0.63381335983E+03 -0.76219346035E+03  0.93501471370E+03  0.13626851328E+04  0.10100000352E+00 0.  1.
</event>
<event>
 5   0  0.5855568E-06  0.3371743E+04  0.7818609E-02  0.8144877E-01
       -2   -1    0    0    0  501  0.00000000000E+00  0.00000000000E+00  0.12321562439E+04  0.12321562439E+04  0.25500000920E-02 0.  1.
        2   -1    0    0  501    0  0.00000000000E+00  0.00000000000E+00 -0.23066572195E+04  0.23066572195E+04  0.25500000920E-02 0. -1.
    10030    2    1    2    0    0  0.00000000000E+00  0.00000000000E+00 -0.10745009757E+04  0.35388134634E+04  0.33717426329E+04 0.  0.
        3    1    3    3  502    0 -0.14129433048E+04  0.80263435994E+03 -0.10084172006E+04  0.19124685511E+04  0.10100000352E+00 0. -1.
       -3    1    3    3    0  502  0.14129433048E+04 -0.80263435994E+03 -0.66083775104E+02  0.16263449123E+04  0.10100000352E+00 0.  1.
</event>
<event>
 5   0  0.1999849E-06  0.2864664E+04  0.7818609E-02  0.8283469E-01
       -1   -1    0    0    0  501  0.00000000000E+00  0.00000000000E+00  0.10713793158E+04  0.10713793158E+04  0.50400001928E-02 0.  1.
        1   -1    0    0  501    0  0.00000000000E+00  0.00000000000E+00 -0.19148911732E+04  0.19148911732E+04  0.50400001928E-02 0. -1.
    10030    2    1    2    0    0  0.00000000000E+00  0.00000000000E+00 -0.84351185741E+03  0.29862704891E+04  0.28646638861E+04 0.  0.
        5    1    3    3  502    0  0.29838875659E+03 -0.84509015275E+03 -0.15864767085E+04  0.18221261353E+04  0.46999998093E+01 0. -1.
       -5    1    3    3    0  502 -0.29838875659E+03  0.84509015275E+03  0.74296485114E+03  0.11641443537E+04  0.46999998093E+01 0.  1.
</event>
<event>
 5   0  0.1999849E-06  0.2060603E+04  0.7818609E-02  0.8578799E-01
       -1   -1    0    0    0  501  0.00000000000E+00  0.00000000000E+00  0.86383823287E+03  0.86383823289E+03  0.50400001928E-02 0.  1.
        1   -1    0    0  501    0  0.00000000000E+00  0.00000000000E+00 -0.12288431253E+04  0.12288431254E+04  0.50400001928E-02 0. -1.
    10030    2    1    2    0    0  0.00000000000E+00  0.00000000000E+00 -0.36500489247E+03  0.20926813582E+04  0.20606034785E+04 0.  0.
        5    1    3    3  502    0  0.37356217921E+02  0.99954859560E+03  0.68337934079E+02  0.10025891707E+04  0.46999998093E+01 0.  1.
       -5    1    3    3    0  502 -0.37356217921E+02 -0.99954859560E+03 -0.43334282655E+03  0.10900921875E+04  0.46999998093E+01 0. -1.
</event>
<event>
 5   0  0.5855568E-06  0.1983251E+04  0.7818609E-02  0.8614492E-01
       -2   -1    0    0    0  501  0.00000000000E+00  0.00000000000E+00  0.10556372410E+04  0.10556372410E+04  0.25500000920E-02 0. -1.
        2   -1    0    0  501    0  0.00000000000E+00  0.00000000000E+00 -0.93149520350E+03  0.93149520350E+03  0.25500000920E-02 0.  1.
    10030    2    1    2    0    0  0.00000000000E+00  0.00000000000E+00  0.12414203747E+03  0.19871324445E+04  0.19832508935E+04 0.  0.
        3    1    3    3  502    0 -0.85017500268E+03  0.50958614999E+03  0.32937712755E+02  0.99174617850E+03  0.10100000352E+00 0. -1.
       -3    1    3    3    0  502  0.85017500268E+03 -0.50958614999E+03  0.91204324716E+02  0.99538626597E+03  0.10100000352E+00 0.  1.
</event>
<event>
 5   0  0.5622811E-06  0.3327370E+04  0.7818609E-02  0.8155966E-01
        2   -1    0    0  501    0  0.00000000000E+00  0.00000000000E+00  0.19019469798E+04  0.19019469798E+04  0.25500000920E-02 0. -1.
       -2   -1    0    0    0  501  0.00000000000E+00  0.00000000000E+00 -0.14552709766E+04  0.14552709766E+04  0.25500000920E-02 0.  1.
    10030    2    1    2    0    0  0.00000000000E+00  0.00000000000E+00  0.44667600321E+03  0.33572179564E+04  0.33273702762E+04 0.  0.
        1    1    3    3  502    0 -0.15268660004E+04  0.39870141832E+03  0.75490896757E+03  0.17493342030E+04  0.50400001928E-02 0. -1.
       -1    1    3    3    0  502  0.15268660004E+04 -0.39870141832E+03 -0.30823296435E+03  0.16078837535E+04  0.50400001928E-02 0.  1.
</event>
<event>
 5   0  0.5300268E-06  0.2234059E+04  0.7818609E-02  0.8504384E-01
        2   -1    0    0  501    0  0.00000000000E+00  0.00000000000E+00  0.16334891178E+04  0.16334891178E+04  0.25500000920E-02 0.  1.
       -2   -1    0    0    0  501  0.00000000000E+00  0.00000000000E+00 -0.76385844875E+03  0.76385844876E+03  0.25500000920E-02 0. -1.
    10030    2    1    2    0    0  0.00000000000E+00  0.00000000000E+00  0.86963066905E+03  0.23973475666E+04  0.22340586058E+04 0.  0.
        4    1    3    3  502    0 -0.36746650855E+03 -0.98119272583E+03  0.19233951343E+02  0.10479228778E+04  0.12699999809E+01 0. -1.
       -4    1    3    3    0  502  0.36746650855E+03  0.98119272583E+03  0.85039671771E+03  0.13494246887E+04  0.12699999809E+01 0.  1.
</event>
<event>
 5   0  0.2037109E-06  0.3367164E+04  0.7818609E-02  0.8146013E-01
       -1   -1    0    0    0  501  0.00000000000E+00  0.00000000000E+00  0.14651039375E+04  0.14651039375E+04  0.50400001928E-02 0.  1.
        1   -1    0    0  501    0  0.00000000000E+00  0.00000000000E+00 -0.19346398271E+04  0.19346398271E+04  0.50400001928E-02 0. -1.
    10030    2    1    2    0    0  0.00000000000E+00  0.00000000000E+00 -0.46953588963E+03  0.33997437647E+04  0.33671640462E+04 0.  0.
        2    1    3    3  502    0  0.40417592115E+03  0.10421184189E+04  0.10364131601E+04  0.15243100776E+04  0.25500000920E-02 0.  1.
       -2    1    3    3    0  502 -0.40417592115E+03 -0.10421184189E+04 -0.15059490497E+04  0.18754336871E+04  0.25500000920E-02 0. -1.
</event>
<event>
 5   0  0.5755250E-06  0.3265421E+04  0.7818609E-02  0.8171750E-01
       -2   -1    0    0    0  501  0.00000000000E+00  0.00000000000E+00  0.98763605709E+03  0.98763605709E+03  0.25500000920E-02 0. -1.
        2   -1    0    0  501    0  0.00000000000E+00  0.00000000000E+00 -0.26991153521E+04  0.26991153521E+04  0.25500000920E-02 0.  1.
    10030    2    1    2    0    0  0.00000000000E+00  0.00000000000E+00 -0.17114792950E+04  0.36867514092E+04  0.32654210411E+04 0.  0.
        5    1    3    3  502    0 -0.10867228518E+04  0.42529932058E+02  0.51914849391E+03  0.12051193304E+04  0.46999998093E+01 0. -1.
       -5    1    3    3    0  502  0.10867228518E+04 -0.42529932058E+02 -0.22306277889E+04  0.24816320788E+04  0.46999998093E+01 0.  1.
</event>
<event>
 5   0  0.2097842E-06  0.2072191E+04  0.7818609E-02  0.8573593E-01
        1   -1    0    0  501    0  0.00000000000E+00  0.00000000000E+00  0.18597114472E+04  0.18597114472E+04  0.50400001928E-02 0. -1.
       -1   -1    0    0    0  501  0.00000000000E+00  0.00000000000E+00 -0.57723698862E+03  0.57723698864E+03  0.50400001928E-02 0.  1.
    10030    2    1    2    0    0  0.00000000000E+00  0.00000000000E+00  0.12824744585E+04  0.24369484358E+04  0.20721913382E+04 0.  0.
        4    1    3    3  502    0  0.46947685635E+03 -0.17498534493E+03  0.17077719447E+04  0.17797513921E+04  0.12699999809E+01 0. -1.
       -4    1    3    3    0  502 -0.46947685635E+03  0.17498534493E+03 -0.42529748620E+03  0.65719704370E+03  0.12699999809E+01 0.  1.
</event>
<event>
 5   0  0.5622811E-06  0.3329810E+04  0.7818609E-02  0.8155351E-01
       -2   -1    0    0    0  501  0.00000000000E+00  0.00000000000E+00  0.25837799124E+04  0.25837799124E+04  0.25500000920E-02 0.  1.
        2   -1    0    0  501    0  0.00000000000E+00  0.00000000000E+00 -0.10728115979E+04  0.10728115979E+04  0.25500000920E-02 0. -1.
    10030    2    1    2    0    0  0.00000000000E+00  0.00000000000E+00  0.15109683145E+04  0.36565915103E+04  0.33298102387E+04 0.  0.
        1    1    3    3  502    0 -0.82432203253E+03 -0.92879948119E+03 -0.46227810504E+03  0.13250948404E+04  0.50400001928E-02 0. -1.
       -1    1    3    3    0  502  0.82432203253E+03  0.92879948119E+03  0.19732464195E+04  0.23314966699E+04  0.50400001928E-02 0.  1.
</event>
<event>
 5   0  0.5755250E-06  0.3353962E+04  0.7818609E-02  0.8149299E-01
       -2   -1    0    0    0  501  0.00000000000E+00  0.00000000000E+00  0.10274936568E+04  0.10274936568E+04  0.25500000920E-02 0.  1.
        2   -1    0    0  501    0  0.00000000000E+00  0.00000000000E+00 -0.27370146434E+04  0.27370146434E+04  0.25500000920E-02 0. -1.
    10030    2    1    2    0    0  0.00000000000E+00  0.00000000000E+00 -0.17095209866E+04  0.37645083002E+04  0.33539619465E+04 0.  0.
        5    1    3    3  502    0  0.11445682314E+04  0.61022645183E+03  0.33828428382E+03  0.13404742092E+04  0.46999998093E+01 0.  1.
       -5    1    3    3    0  502 -0.11445682314E+04 -0.61022645183E+03 -0.20478052704E+04  0.24240340910E+04  0.46999998093E+01 0. -1.
</event>
<event>
 5   0  0.5637538E-06  0.3335789E+04  0.7818609E-02  0.8153848E-01
       -2   -1    0    0    0  501  0.00000000000E+00  0.00000000000E+00  0.13775725826E+04  0.13775725826E+04  0.25500000920E-02 0. -1.
        2   -1    0    0  501    0  0.00000000000E+00  0.00000000000E+00 -0.20194008444E+04  0.20194008444E+04  0.25500000920E-02 0.  1.
    10030    2    1    2    0    0  0.00000000000E+00  0.00000000000E+00 -0.64182826175E+03  0.33969734270E+04  0.33357885044E+04 0.  0.
        2    1    3    3  502    0  0.14795184408E+03  0.70535094371E+03 -0.18526512751E+04  0.19878949794E+04  0.25500000920E-02 0.  1.
       -2    1    3    3    0  502 -0.14795184408E+03 -0.70535094371E+03  0.12108230133E+04  0.14090784476E+04  0.25500000920E-02 0. -1.
</event>
<event>
 5   0  0.1925906E-06  0.3305984E+04  0.7818609E-02  0.8161374E-01
       -1   -1    0    0    0  501  0.00000000000E+00  0.00000000000E+00  0.17132230929E+04  0.17132230929E+04  0.50400001928E-02 0.  1.
        1   -1    0    0  501    0  0.00000000000E+00  0.00000000000E+00 -0.15948787016E+04  0.15948787016E+04  0.50400001928E-02 0. -1.
    10030    2    1    2    0    0  0.00000000000E+00  0.00000000000E+00  0.11834439127E+03  0.33081017945E+04  0.33059842843E+04 0.  0.
        1    1    3    3  502    0 -0.15278947232E+04 -0.42146138406E+02 -0.57063100363E+03  0.16315202495E+04  0.50400001928E-02 0.  1.
       -1    1    3    3    0  502  0.15278947232E+04  0.42146138406E+02  0.68897539491E+03  0.16765815450E+04  0.50400001928E-02 0. -1.
</event>
<event>
 5   0  0.2097842E-06  0.3193920E+04  0.7818609E-02  0.8190425E-01
        1   -1    0    0  501    0  0.00000000000E+00  0.00000000000E+00  0.14540654544E+04  0.14540654544E+04  0.50400001928E-02 0.  1.
       -1   -1    0    0    0  501  0.00000000000E+00  0.00000000000E+00 -0.17538973703E+04  0.17538973703E+04  0.50400001928E-02 0. -1.
    10030    2    1    2    0    0  0.00000000000E+00  0.00000000000E+00 -0.29983191596E+03  0.32079628247E+04  0.31939202099E+04 0.  0.
        4    1    3    3  502    0  0.64172543230E+02 -0.82082368761E+03  0.12244607226E+04  0.14755254371E+04  0.12699999809E+01 0.  1.
       -4    1    3    3    0  502 -0.64172543230E+02  0.82082368761E+03 -0.15242926385E+04  0.17324373877E+04  0.12699999809E+01 0. -1.
</event>
<event>
 5   0  0.5637538E-06  0.2303073E+04  0.7818609E-02  0.8476711E-01
        2   -1    0    0  501    0  0.00000000000E+00  0.00000000000E+00  0.20723905570E+04  0.20723905570E+04  0.25500000920E-02 0.  1.
       -2   -1    0    0    0  501  0.00000000000E+00  0.00000000000E+00 -0.63985810513E+03  0.63985810513E+03  0.25500000920E-02 0. -1.
    10030    2    1    2    0    0  0.00000000000E+00  0.00000000000E+00  0.14325324519E+04  0.27122486621E+04  0.23030726388E+04 0.  0.
        2    1    3    3  502    0 -0.89409009620E+03 -0.68610310801E+03  0.43782540908E+03  0.12090598264E+04  0.25500000920E-02 0. -1.
       -2    1    3    3    0  502  0.89409009620E+03  0.68610310801E+03  0.99470704280E+03  0.15031888358E+04  0.25500000920E-02 0.  1.
</event>
<event>
 5   0  0.5755250E-06  0.3336427E+04  0.7818609E-02  0.8153688E-01
       -2   -1    0    0    0  501  0.00000000000E+00  0.00000000000E+00  0.29760652300E+04  0.29760652300E+04  0.25500000920E-02 0. -1.
        2   -1    0    0  501    0  0.00000000000E+00  0.00000000000E+00 -0.93510609249E+03  0.93510609249E+03  0.25500000920E-02 0.  1.
    10030    2    1    2    0    0  0.00000000000E+00  0.00000000000E+00  0.20409591375E+04  0.39111713225E+04  0.33364272677E+04 0.  0.
        5    1    3    3  502    0 -0.22059702376E+03  0.85125226367E+03 -0.64133390976E+03  0.10884046753E+04  0.46999998093E+01 0.  1.
       -5    1    3    3    0  502  0.22059702376E+03 -0.85125226367E+03  0.26822930473E+04  0.28227666473E+04  0.46999998093E+01 0. -1.
</event>
<event>
 5   0  0.2097842E-06  0.3312949E+04  0.7818609E-02  0.8159608E-01
        1   -1    0    0  501    0  0.00000000000E+00  0.00000000000E+00  0.10598595296E+04  0.10598595296E+04  0.50400001928E-02 0.  1.
       -1   -1    0    0    0  501  0.00000000000E+00  0.00000000000E+00 -0.25889354747E+04  0.25889354747E+04  0.50400001928E-02 0. -1.
    10030    2    1    2    0    0  0.00000000000E+00  0.00000000000E+00 -0.15290759450E+04  0.36487950043E+04  0.33129490997E+04 0.  0.
        4    1    3    3  502    0  0.97578933682E+02  0.16470182444E+04 -0.60223727928E+03  0.17563832438E+04  0.12699999809E+01 0.  1.
       -4    1    3    3    0  502 -0.97578933682E+02 -0.16470182444E+04 -0.92683866577E+03  0.18924117604E+04  0.12699999809E+01 0. -1.
</event>
<event>
 5   0  0.2037109E-06  0.2240610E+04  0.7818609E-02  0.8501713E-01
       -1   -1    0    0    0  501  0.00000000000E+00  0.00000000000E+00  0.99716692838E+03  0.99716692839E+03  0.50400001928E-02 0.  1.
        1   -1    0    0  501    0  0.00000000000E+00  0.00000000000E+00 -0.12586488655E+04  0.12586488655E+04  0.50400001928E-02 0. -1.
    10030    2    1    2    0    0  0.00000000000E+00  0.00000000000E+00 -0.26148193716E+03  0.22558157939E+04  0.22406097591E+04 0.  0.
        2    1    3    3  502    0 -0.50346808183E+03  0.94950390405E+03  0.18770492032E+03  0.10909953759E+04  0.25500000920E-02 0.  1.
       -2    1    3    3    0  502  0.50346808183E+03 -0.94950390405E+03 -0.44918685748E+03  0.11648204180E+04  0.25500000920E-02 0. -1.
</event>
<event>
 5   0  0.5300268E-06  0.3183604E+04  0.7818609E-02  0.8193161E-01
        2   -1    0    0  501    0  0.00000000000E+00  0.00000000000E+00  0.25410714450E+04  0.25410714450E+04  0.25500000920E-02 0. -1.
       -2   -1    0    0    0  501  0.00000000000E+00  0.00000000000E+00 -0.99715189140E+03  0.99715189140E+03  0.25500000920E-02 0.  1.
    10030    2    1    2    0    0  0.00000000000E+00  0.00000000000E+00  0.15439195536E+04  0.35382233364E+04  0.31836043709E+04 0.  0.
        4    1    3    3  502    0 -0.77874782318E+03 -0.99697858475E+03 -0.30179290763E+03  0.13005748893E+04  0.12699999809E+01 0.  1.
       -4    1    3    3    0  502  0.77874782318E+03  0.99697858475E+03  0.18457124612E+04  0.22376484471E+04  0.12699999809E+01 0. -1.
</event>
<event>
 5   0  0.1878000E-06  0.1927053E+04  0.7818609E-02  0.8641506E-01
        3   -1    0    0  501    0  0.00000000000E+00  0.00000000000E+00  0.14262827925E+04  0.14262827961E+04  0.10100000352E+00 0.  1.
       -3   -1    0    0    0  501  0.00000000000E+00  0.00000000000E+00 -0.65091143583E+03  0.65091144367E+03  0.10100000352E+00 0. -1.
    10030    2    1    2    0    0  0.00000000000E+00  0.00000000000E+00  0.77537135668E+03  0.20771942398E+04  0.19270534940E+04 0.  0.
        4    1    3    3  502    0  0.22373870912E+02  0.63782440176E+03 -0.39040082547E+03  0.74815437912E+03  0.12699999809E+01 0. -1.
       -4    1    3    3    0  502 -0.22373870912E+02 -0.63782440176E+03  0.11657721821E+04  0.13290398606E+04  0.12699999809E+01 0.  1.
</event>
<event>
 5   0  0.5300268E-06  0.3016177E+04  0.7818609E-02  0.8239127E-01
       -2   -1    0    0    0  501  0.00000000000E+00  0.00000000000E+00  0.10417241491E+04  0.10417241491E+04  0.25500000920E-02 0.  1.
        2   -1    0    0  501    0  0.00000000000E+00  0.00000000000E+00 -0.21832367201E+04  0.21832367201E+04  0.25500000920E-02 0. -1.
    10030    2    1    2    0    0  0.00000000000E+00  0.00000000000E+00 -0.11415125710E+04  0.32249608692E+04  0.30161766623E+04 0.  0.
        4    1    3    3  502    0 -0.18563791098E+03  0.14853943846E+04 -0.37514166902E+03  0.15432403561E+04  0.12699999809E+01 0. -1.
       -4    1    3    3    0  502  0.18563791098E+03 -0.14853943846E+04 -0.76637090198E+03  0.16817205131E+04  0.12699999809E+01 0.  1.
</event>
<event>
 5   0  0.5300268E-06  0.3551278E+04  0.7818609E-02  0.8101744E-01
        2   -1    0    0  501    0  0.00000000000E+00  0.00000000000E+00  0.23106437865E+04  0.23106437865E+04  0.25500000920E-02 0.  1.
       -2   -1    0    0    0  501  0.00000000000E+00  0.00000000000E+00 -0.13645088667E+04  0.13645088667E+04  0.25500000920E-02 0. -1.
    10030    2    1    2    0    0  0.00000000000E+00  0.00000000000E+00  0.94613491977E+03  0.36751526532E+04  0.35512780429E+04 0.  0.
        4    1    3    3  502    0 -0.12983803458E+04 -0.52934403062E+03 -0.65438174409E+03  0.15473246928E+04  0.12699999809E+01 0. -1.
       -4    1    3    3    0  502  0.12983803458E+04  0.52934403062E+03  0.16005166639E+04  0.21278279604E+04  0.12699999809E+01 0.  1.
</event>
<event>
 5   0  0.5855568E-06  0.3333197E+04  0.7818609E-02  0.8154500E-01
       -2   -1    0    0    0  501  0.00000000000E+00  0.00000000000E+00  0.13157597439E+04  0.13157597439E+04  0.25500000920E-02 0. -1.
        2   -1    0    0  501    0  0.00000000000E+00  0.00000000000E+00 -0.21109856986E+04  0.21109856986E+04  0.25500000920E-02 0.  1.
    10030    2    1    2    0    0  0.00000000000E+00  0.00000000000E+00 -0.79522595472E+03  0.34267454425E+04  0.33331966651E+04 0.  0.
        3    1    3    3  502    0  0.16502630158E+03  0.14343280814E+04  0.45822895182E+03  0.15147621951E+04  0.10100000352E+00 0. -1.
       -3    1    3    3    0  502 -0.16502630158E+03 -0.14343280814E+04 -0.12534549065E+04  0.19119832474E+04  0.10100000352E+00 0.  1.
</event>
<event>
 5   0  0.2037109E-06  0.3285613E+04  0.7818609E-02  0.8166566E-01
        1   -1    0    0  501    0  0.00000000000E+00  0.00000000000E+00  0.21032125511E+04  0.21032125511E+04  0.50400001928E-02 0.  1.
       -1   -1    0    0    0  501  0.00000000000E+00  0.00000000000E+00 -0.12831863533E+04  0.12831863533E+04  0.50400001928E-02 0. -1.
    10030    2    1    2    0    0  0.00000000000E+00  0.00000000000E+00  0.82002619779E+03  0.33863989044E+04  0.32856132722E+04 0.  0.
        2    1    3    3  502    0 -0.11728847414E+04  0.11463216067E+04  0.31168325675E+03  0.16693885992E+04  0.25500000920E-02 0.  1.
       -2    1    3    3    0  502  0.11728847414E+04 -0.11463216067E+04  0.50834294104E+03  0.17170103052E+04  0.25500000920E-02 0. -1.
</event>
<event>
 5   0  0.1925906E-06  0.2399929E+04  0.7818609E-02  0.8439530E-01
        1   -1    0    0  501    0  0.00000000000E+00  0.00000000000E+00  0.10215847923E+04  0.10215847923E+04  0.50400001928E-02 0. -1.
       -1   -1    0    0    0  501  0.00000000000E+00  0.00000000000E+00 -0.14094911618E+04  0.14094911618E+04  0.50400001928E-02 0.  1.
    10030    2    1    2    0    0  0.00000000000E+00  0.00000000000E+00 -0.38790636950E+03  0.24310759541E+04  0.23999289455E+04 0.  0.
        1    1    3    3  502    0 -0.50379619381E+03  0.63692963732E+03 -0.10888349649E+04  0.13583267459E+04  0.50400001928E-02 0.  1.
       -1    1    3    3    0  502  0.50379619381E+03 -0.63692963732E+03  0.70092859544E+03  0.10727492082E+04  0.50400001928E-02 0. -1.
</event>
<event>
 5   0  0.1999849E-06  0.2940451E+04  0.7818609E-02  0.8260943E-01
        1   -1    0    0  501    0  0.00000000000E+00  0.00000000000E+00  0.38175003617E+04  0.38175003617E+04  0.50400001928E-02 0. -1.
       -1   -1    0    0    0  501  0.00000000000E+00  0.00000000000E+00 -0.56622460643E+03  0.56622460646E+03  0.50400001928E-02 0.  1.
    10030    2    1    2    0    0  0.00000000000E+00  0.00000000000E+00  0.32512757553E+04  0.43837249682E+04  0.29404507409E+04 0.  0.
        5    1    3    3  502    0 -0.86215107608E+03 -0.68092693204E+03  0.30822178168E+04  0.32721636152E+04  0.46999998093E+01 0. -1.
       -5    1    3    3    0  502  0.86215107608E+03  0.68092693204E+03  0.16905793849E+03  0.11115613529E+04  0.46999998093E+01 0.  1.
</event>
<event>
 5   0  0.5622811E-06  0.3303339E+04  0.7818609E-02  0.8162046E-01
       -2   -1    0    0    0  501  0.00000000000E+00  0.00000000000E+00  0.16091697827E+04  0.16091697827E+04  0.25500000920E-02 0.  1.
        2   -1    0    0  501    0  0.00000000000E+00  0.00000000000E+00 -0.16952917267E+04  0.16952917267E+04  0.25500000920E-02 0. -1.
    10030    2    1    2    0    0  0.00000000000E+00  0.00000000000E+00 -0.86121943953E+02  0.33044615094E+04  0.33033390498E+04 0.  0.
        1    1    3    3  502    0  0.12618731997E+04  0.90550423764E+03  0.51904661607E+03  0.16375809251E+04  0.50400001928E-02 0.  1.
       -1    1    3    3    0  502 -0.12618731997E+04 -0.90550423764E+03 -0.60516856002E+03  0.16668805844E+04  0.50400001928E-02 0. -1.
</event>
<event>
 5   0  0.5755250E-06  0.3366811E+04  0.7818609E-02  0.8146100E-01
        2   -1    0    0  501    0  0.00000000000E+00  0.00000000000E+00  0.18030063445E+04  0.18030063445E+04  0.25500000920E-02 0.  1.
       -2   -1    0    0    0  501  0.00000000000E+00  0.00000000000E+00 -0.15717382074E+04  0.15717382074E+04  0.25500000920E-02 0. -1.
    10030    2    1    2    0    0  0.00000000000E+00  0.00000000000E+00  0.23126813718E+03  0.33747445519E+04  0.33668109302E+04 0.  0.
        5    1    3    3  502    0 -0.66638881363E+03 -0.11229869127E+04 -0.94925262320E+03  0.16143965714E+04  0.46999998093E+01 0.  1.
       -5    1    3    3    0  502  0.66638881363E+03  0.11229869127E+04  0.11805207604E+04  0.17603479806E+04  0.46999998093E+01 0. -1.
</event>
<event>
 5   0  0.5300268E-06  0.2401660E+04  0.7818609E-02  0.8438882E-01
        2   -1    0    0  501    0  0.00000000000E+00  0.00000000000E+00  0.12665769897E+04  0.12665769897E+04  0.25500000920E-02 0.  1.
       -2   -1    0    0    0  501  0.00000000000E+00  0.00000000000E+00 -0.11384960023E+04  0.11384960023E+04  0.25500000920E-02 0. -1.
    10030    2    1    2    0    0  0.00000000000E+00  0.00000000000E+00  0.12808098733E+03  0.24050729920E+04  0.24016601253E+04 0.  0.
        4    1    3    3  502    0 -0.80280920796E+03 -0.47415410537E+03 -0.69378218506E+03  0.11621790194E+04  0.12699999809E+01 0. -1.
       -4    1    3    3    0  502  0.80280920796E+03  0.47415410537E+03  0.82186317238E+03  0.12428939726E+04  0.12699999809E+01 0.  1.
</event>
<event>
 5   0  0.1999849E-06  0.3408437E+04  0.7818609E-02  0.8135839E-01
        1   -1    0    0  501    0  0.00000000000E+00  0.00000000000E+00  0.19003972294E+04  0.19003972294E+04  0.50400001928E-02 0.  1.
       -1   -1    0    0    0  501  0.00000000000E+00  0.00000000000E+00 -0.15282910642E+04  0.15282910642E+04  0.50400001928E-02 0. -1.
    10030    2    1    2    0    0  0.00000000000E+00  0.00000000000E+00  0.37210616521E+03  0.34286882936E+04  0.34084366528E+04 0.  0.
        5    1    3    3  502    0 -0.56597349650E+02 -0.11511078973E+04 -0.10768285464E+04  0.15772870568E+04  0.46999998093E+01 0. -1.
       -5    1    3    3    0  502  0.56597349650E+02  0.11511078973E+04  0.14489347116E+04  0.18514012368E+04  0.46999998093E+01 0.  1.
</event>
<event>
 5   0  0.1925906E-06  0.3208302E+04  0.7818609E-02  0.8186628E-01
        1   -1    0    0  501    0  0.00000000000E+00  0.00000000000E+00  0.12291262386E+04  0.12291262386E+04  0.50400001928E-02 0.  1.
       -1   -1    0    0    0  501  0.00000000000E+00  0.00000000000E+00 -0.20936010120E+04  0.20936010120E+04  0.50400001928E-02 0. -1.
    10030    2    1    2    0    0  0.00000000000E+00  0.00000000000E+00 -0.86447477336E+03  0.33227272506E+04  0.32083016922E+04 0.  0.
        1    1    3    3  502    0  0.55315507310E+03 -0.14578099574E+04 -0.82265652158E+03  0.17629390685E+04  0.50400001928E-02 0.  1.
       -1    1    3    3    0  502 -0.55315507310E+03  0.14578099574E+04 -0.41818251781E+02  0.15597881821E+04  0.50400001928E-02 0. -1.
</event>
<event>
 5   0  0.2037109E-06  0.2779403E+04  0.7818609E-02  0.8309691E-01
       -1   -1    0    0    0  501  0.00000000000E+00  0.00000000000E+00  0.10658367694E+04  0.10658367694E+04  0.50400001928E-02 0. -1.
        1   -1    0    0  501    0  0.00000000000E+00  0.00000000000E+00 -0.18119762595E+04  0.18119762595E+04  0.50400001928E-02 0.  1.
    10030    2    1    2    0    0  0.00000000000E+00  0.00000000000E+00 -0.74613949010E+03  0.28778130289E+04  0.27794034775E+04 0.  0.
        2    1    3    3  502    0  0.16963912626E+03  0.26654489535E+03  0.10281562708E+04  0.10756063089E+04  0.25500000920E-02 0. -1.
       -2    1    3    3    0  502 -0.16963912626E+03 -0.26654489535E+03 -0.17742957609E+04  0.18022067200E+04  0.25500000920E-02 0.  1.
</event>
<event>
 5   0  0.2037109E-06  0.3254677E+04  0.7818609E-02  0.8174524E-01
       -1   -1    0    0    0  501  0.00000000000E+00  0.00000000000E+00  0.18526550918E+04  0.18526550918E+04  0.50400001928E-02 0. -1.
        1   -1    0    0  501    0  0.00000000000E+00  0.00000000000E+00 -0.14294247327E+04  0.14294247327E+04  0.50400001928E-02 0.  1.
    10030    2    1    2    0    0  0.00000000000E+00  0.00000000000E+00  0.42323035913E+03  0.32820798245E+04  0.32546772556E+04 0.  0.
        2    1    3    3  502    0  0.11605276879E+04 -0.24691312631E+03 -0.91151258177E+03  0.14962104775E+04  0.25500000920E-02 0.  1.
       -2    1    3    3    0  502 -0.11605276879E+04  0.24691312631E+03  0.13347429409E+04  0.17858693470E+04  0.25500000920E-02 0. -1.
</event>
<event>
 5   0  0.1999849E-06  0.2465801E+04  0.7818609E-02  0.8415271E-01
        1   -1    0    0  501    0  0.00000000000E+00  0.00000000000E+00  0.20468511530E+04  0.20468511530E+04  0.50400001928E-02 0.  1.
       -1   -1    0    0    0  501  0.00000000000E+00  0.00000000000E+00 -0.74262524699E+03  0.74262524701E+03  0.50400001928E-02 0. -1.
    10030    2    1    2    0    0  0.00000000000E+00  0.00000000000E+00  0.13042259060E+04  0.27894764000E+04  0.24658007568E+04 0.  0.
        5    1    3    3  502    0 -0.24167686999E+03 -0.54907768768E+03  0.18705904736E+04  0.19644400796E+04  0.46999998093E+01 0.  1.
       -5    1    3    3    0  502  0.24167686999E+03  0.54907768768E+03 -0.56636456756E+03  0.82503632040E+03  0.46999998093E+01 0. -1.
</event>
<event>
 5   0  0.5622811E-06  0.3282118E+04  0.7818609E-02  0.8167460E-01
       -2   -1    0    0    0  501  0.00000000000E+00  0.00000000000E+00  0.21752675329E+04  0.21752675329E+04  0.25500000920E-02 0.  1.
        2   -1    0    0  501    0  0.00000000000E+00  0.00000000000E+00 -0.12380430683E+04  0.12380430683E+04  0.25500000920E-02 0. -1.
    10030    2    1    2    0    0  0.00000000000E+00  0.00000000000E+00  0.93722446461E+03  0.34133106012E+04  0.32821181520E+04 0.  0.
        1    1    3    3  502    0 -0.75508710780E+03  0.11588925497E+04 -0.44979918589E+03  0.14544785285E+04  0.50400001928E-02 0. -1.
       -1    1    3    3    0  502  0.75508710780E+03 -0.11588925497E+04  0.13870236505E+04  0.19588320728E+04  0.50400001928E-02 0.  1.
</event>
<event>
 5   0  0.2037109E-06  0.1982847E+04  0.7818609E-02  0.8614683E-01
        1   -1    0    0  501    0  0.00000000000E+00  0.00000000000E+00  0.11910965681E+04  0.11910965681E+04  0.50400001928E-02 0.  1.
       -1   -1    0    0    0  501  0.00000000000E+00  0.00000000000E+00 -0.82522317552E+03  0.82522317554E+03  0.50400001928E-02 0. -1.
    10030    2    1    2    0    0  0.00000000000E+00  0.00000000000E+00  0.36587339258E+03  0.20163197436E+04  0.19828469354E+04 0.  0.
        2    1    3    3  502    0  0.75317557238E+03  0.40316020467E+03 -0.32865550976E+03  0.91532837690E+03  0.25500000920E-02 0. -1.
       -2    1    3    3    0  502 -0.75317557238E+03 -0.40316020467E+03  0.69452890234E+03  0.11009913667E+04  0.25500000920E-02 0.  1.
</event>
<event>
 5   0  0.1925906E-06  0.3136927E+04  0.7818609E-02  0.8205676E-01
       -1   -1    0    0    0  501  0.00000000000E+00  0.00000000000E+00  0.11439998248E+04  0.11439998249E+04  0.50400001928E-02 0. -1.
        1   -1    0    0  501    0  0.00000000000E+00  0.00000000000E+00 -0.21504185298E+04  0.21504185298E+04  0.50400001928E-02 0.  1.
    10030    2    1    2    0    0  0.00000000000E+00  0.00000000000E+00 -0.10064187050E+04  0.32944183547E+04  0.31369274276E+04 0.  0.
        1    1    3    3  502    0 -0.11815898422E+03  0.14492464689E+04 -0.11207815614E+04  0.18358725940E+04  0.50400001928E-02 0.  1.
       -1    1    3    3    0  502  0.11815898422E+03 -0.14492464689E+04  0.11436285640E+03  0.14585457607E+04  0.50400001928E-02 0. -1.
</event>
<event>
 5   0  0.5300268E-06  0.3392930E+04  0.7818609E-02  0.8139644E-01
        2   -1    0    0  501    0  0.00000000000E+00  0.00000000000E+00  0.15024598490E+04  0.15024598490E+04  0.25500000920E-02 0.  1.
       -2   -1    0    0    0  501  0.00000000000E+00  0.00000000000E+00 -0.19155213157E+04  0.19155213157E+04  0.25500000920E-02 0. -1.
    10030    2    1    2    0    0  0.00000000000E+00  0.00000000000E+00 -0.41306146664E+03  0.34179811647E+04  0.33929302184E+04 0.  0.
        4    1    3    3  502    0  0.58822960365E+03 -0.65503100449E+03  0.12543183285E+04  0.15324476387E+04  0.12699999809E+01 0.  1.
       -4    1    3    3    0  502 -0.58822960365E+03  0.65503100449E+03 -0.16673797951E+04  0.18855335259E+04  0.12699999809E+01 0. -1.
</event>
<event>
 5   0  0.1999849E-06  0.3391405E+04  0.7818609E-02  0.8140019E-01
       -1   -1    0    0    0  501  0.00000000000E+00  0.00000000000E+00  0.10018640629E+04  0.10018640629E+04  0.50400001928E-02 0.  1.
        1   -1    0    0  501    0  0.00000000000E+00  0.00000000000E+00 -0.28700562249E+04  0.28700562249E+04  0.50400001928E-02 0. -1.
    10030    2    1    2    0    0  0.00000000000E+00  0.00000000000E+00 -0.18681921621E+04  0.38719202878E+04  0.33914045410E+04 0.  0.
        5    1    3    3  502    0 -0.48443235879E+03 -0.33202325250E+03 -0.27502280471E+04  0.28122394193E+04  0.46999998093E+01 0. -1.
       -5    1    3    3    0  502  0.48443235879E+03  0.33202325250E+03  0.88203588506E+03  0.10596808685E+04  0.46999998093E+01 0.  1.
</event>
<event>
 5   0  0.1999849E-06  0.3270781E+04  0.7818609E-02  0.8170370E-01
        1   -1    0    0  501    0  0.00000000000E+00  0.00000000000E+00  0.19463180008E+04  0.19463180008E+04  0.50400001928E-02 0.  1.
       -1   -1    0    0    0  501  0.00000000000E+00  0.00000000000E+00 -0.13741345319E+04  0.13741345319E+04  0.50400001928E-02 0. -1.
    10030    2    1    2    0    0  0.00000000000E+00  0.00000000000E+00  0.57218346884E+03  0.33204525327E+04  0.32707814204E+04 0.  0.
        5    1    3    3  502    0 -0.47915747155E+03 -0.14521111991E+04  0.87477889605E+03  0.17616693856E+04  0.46999998093E+01 0.  1.
       -5    1    3    3    0  502  0.47915747155E+03  0.14521111991E+04 -0.30259542722E+03  0.15587831471E+04  0.46999998093E+01 0. -1.
</event>
<event>
 5   0  0.2037109E-06  0.3185188E+04  0.7818609E-02  0.8192740E-01
        1   -1    0    0  501    0  0.00000000000E+00  0.00000000000E+00  0.23253512348E+04  0.23253512348E+04  0.50400001928E-02 0.  1.
       -1   -1    0    0    0  501  0.00000000000E+00  0.00000000000E+00 -0.10907407818E+04  0.10907407818E+04  0.50400001928E-02 0. -1.
    10030    2    1    2    0    0  0.00000000000E+00  0.00000000000E+00  0.12346104530E+04  0.34160920166E+04  0.31851878587E+04 0.  0.
        2    1    3    3  502    0  0.18690456237E+03  0.15186307754E+04  0.14348331182E+03  0.15368019418E+04  0.25500000920E-02 0. -1.
       -2    1    3    3    0  502 -0.18690456237E+03 -0.15186307754E+04  0.10911271411E+04  0.18792900749E+04  0.25500000920E-02 0.  1.
</event>
<event>
 5   0  0.5622811E-06  0.2343980E+04  0.7818609E-02  0.8460780E-01
       -2   -1    0    0    0  501  0.00000000000E+00  0.00000000000E+00  0.62853071106E+03  0.62853071107E+03  0.25500000920E-02 0.  1.
        2   -1    0    0  501    0  0.00000000000E+00  0.00000000000E+00 -0.21853508946E+04  0.21853508946E+04  0.25500000920E-02 0. -1.
    10030    2    1    2    0    0  0.00000000000E+00  0.00000000000E+00 -0.15568201835E+04  0.28138816056E+04  0.23439796515E+04 0.  0.
        1    1    3    3  502    0  0.21354549634E+03 -0.53195369301E+03  0.44876561674E+03  0.72798831674E+03  0.50400001928E-02 0.  1.
       -1    1    3    3    0  502 -0.21354549634E+03  0.53195369301E+03 -0.20055858003E+04  0.20858932889E+04  0.50400001928E-02 0. -1.
</event>
<event>
 5   0  0.2037109E-06  0.3148214E+04  0.7818609E-02  0.8202629E-01
       -1   -1    0    0    0  501  0.00000000000E+00  0.00000000000E+00  0.15911619814E+04  0.15911619815E+04  0.50400001928E-02 0.  1.
        1   -1    0    0  501    0  0.00000000000E+00  0.00000000000E+00 -0.15572349952E+04  0.15572349952E+04  0.50400001928E-02 0. -1.
    10030    2    1    2    0    0  0.00000000000E+00  0.00000000000E+00  0.33926986272E+02  0.31483969766E+04  0.31482141735E+04 0.  0.
        2    1    3    3  502    0 -0.15893595579E+03 -0.15074607125E+04  0.44138733836E+03  0.15787720609E+04  0.25500000920E-02 0. -1.
       -2    1    3    3    0  502  0.15893595579E+03  0.15074607125E+04 -0.40746035209E+03  0.15696249158E+04  0.25500000920E-02 0.  1.
</event>
<event>
 5   0  0.5622811E-06  0.3391023E+04  0.7818609E-02  0.8140113E-01
       -2   -1    0    0    0  501  0.00000000000E+00  0.00000000000E+00  0.26484884069E+04  0.26484884069E+04  0.25500000920E-02 0.  1.
        2   -1    0    0  501    0  0.00000000000E+00  0.00000000000E+00 -0.10854341996E+04  0.10854341996E+04  0.25500000920E-02 0. -1.
    10030    2    1    2    0    0  0.00000000000E+00  0.00000000000E+00  0.15630542074E+04  0.37339226065E+04  0.33910233818E+04 0.  0.
        1    1    3    3  502    0 -0.16066949344E+04 -0.17344817340E+03  0.21661190953E+03  0.16304826281E+04  0.50400001928E-02 0. -1.
       -1    1    3    3    0  502  0.16066949344E+04  0.17344817340E+03  0.13464422978E+04  0.21034399784E+04  0.50400001928E-02 0.  1.
</event>
<event>
 5   0  0.5855568E-06  0.3350458E+04  0.7818609E-02  0.8150174E-01
        2   -1    0    0  501    0  0.00000000000E+00  0.00000000000E+00  0.20795991679E+04  0.20795991679E+04  0.25500000920E-02 0.  1.
       -2   -1    0    0    0  501  0.00000000000E+00  0.00000000000E+00 -0.13494866907E+04  0.13494866907E+04  0.25500000920E-02 0. -1.
    10030    2    1    2    0    0  0.00000000000E+00  0.00000000000E+00  0.73011247723E+03  0.34290858586E+04  0.33504575204E+04 0.  0.
        3    1    3    3  502    0  0.14855929060E+04  0.36041845586E+03 -0.33622743218E+03  0.15652273451E+04  0.10100000352E+00 0. -1.
       -3    1    3    3    0  502 -0.14855929060E+04 -0.36041845586E+03  0.10663399094E+04  0.18638585135E+04  0.10100000352E+00 0.  1.
</event>
<event>
 5   0  0.5855568E-06  0.3312732E+04  0.7818609E-02  0.8159663E-01
       -2   -1    0    0    0  501  0.00000000000E+00  0.00000000000E+00  0.12240753396E+04  0.12240753396E+04  0.25500000920E-02 0.  1.
        2   -1    0    0  501    0  0.00000000000E+00  0.00000000000E+00 -0.22413226957E+04  0.22413226957E+04  0.25500000920E-02 0. -1.
    10030    2    1    2    0    0  0.00000000000E+00  0.00000000000E+00 -0.10172473561E+04  0.34653980353E+04  0.33127317065E+04 0.  0.
        3    1    3    3  502    0  0.37165131069E+03 -0.63874053403E+03 -0.20593128241E+04  0.21878947608E+04  0.10100000352E+00 0. -1.
       -3    1    3    3    0  502 -0.37165131069E+03  0.63874053403E+03  0.10420654680E+04  0.12775032745E+04  0.10100000352E+00 0.  1.
</event>
<event>
 5   0  0.1925906E-06  0.3296790E+04  0.7818609E-02  0.8163713E-01
        1   -1    0    0  501    0  0.00000000000E+00  0.00000000000E+00  0.11950186108E+04  0.11950186108E+04  0.50400001928E-02 0.  1.
       -1   -1    0    0    0  501  0.00000000000E+00  0.00000000000E+00 -0.22737774667E+04  0.22737774667E+04  0.50400001928E-02 0. -1.
    10030    2    1    2    0    0  0.00000000000E+00  0.00000000000E+00 -0.10787588559E+04  0.34687960776E+04  0.32967901903E+04 0.  0.
        1    1    3    3  502    0  0.61234425195E+03 -0.26856220143E+03  0.10459204031E+04  0.12413865750E+04  0.50400001928E-02 0.  1.
       -1    1    3    3    0  502 -0.61234425195E+03  0.26856220143E+03 -0.21246792589E+04  0.22274095026E+04  0.50400001928E-02 0. -1.
</event>
<event>
 5   0  0.1999849E-06  0.3427718E+04  0.7818609E-02  0.8131137E-01
       -1   -1    0    0    0  501  0.00000000000E+00  0.00000000000E+00  0.31285266507E+04  0.31285266507E+04  0.50400001928E-02 0. -1.
        1   -1    0    0  501    0  0.00000000000E+00  0.00000000000E+00 -0.93888063510E+03  0.93888063511E+03  0.50400001928E-02 0.  1.
    10030    2    1    2    0    0  0.00000000000E+00  0.00000000000E+00  0.21896460156E+04  0.40674072858E+04  0.34277182433E+04 0.  0.
        5    1    3    3  502    0  0.77657086159E+03 -0.10375604897E+04  0.24255854826E+04  0.27501056518E+04  0.46999998093E+01 0. -1.
       -5    1    3    3    0  502 -0.77657086159E+03  0.10375604897E+04 -0.23593946696E+03  0.13173016340E+04  0.46999998093E+01 0.  1.
</event>
<event>
 5   0  0.5855568E-06  0.3238753E+04  0.7818609E-02  0.8178657E-01
       -2   -1    0    0    0  501  0.00000000000E+00  0.00000000000E+00  0.19131546068E+04  0.19131546068E+04  0.25500000920E-02 0. -1.
        2   -1    0    0  501    0  0.00000000000E+00  0.00000000000E+00 -0.13707099668E+04  0.13707099668E+04  0.25500000920E-02 0.  1.
    10030    2    1    2    0    0  0.00000000000E+00  0.00000000000E+00  0.54244464001E+03  0.32838645736E+04  0.32387529004E+04 0.  0.
        3    1    3    3  502    0 -0.44726500077E+03 -0.14082091461E+04 -0.40079223804E+03  0.15309256704E+04  0.10100000352E+00 0.  1.
       -3    1    3    3    0  502  0.44726500077E+03  0.14082091461E+04  0.94323687805E+03  0.17529389032E+04  0.10100000352E+00 0. -1.
</event>
<event>
 5   0  0.1999849E-06  0.2129298E+04  0.7818609E-02  0.8548446E-01
       -1   -1    0    0    0  501  0.00000000000E+00  0.00000000000E+00  0.54572213717E+03  0.54572213720E+03  0.50400001928E-02 0.  1.
        1   -1    0    0  501    0  0.00000000000E+00  0.00000000000E+00 -0.20770229512E+04  0.20770229512E+04  0.50400001928E-02 0. -1.
    10030    2    1    2    0    0  0.00000000000E+00  0.00000000000E+00 -0.15313008140E+04  0.26227450884E+04  0.21292979161E+04 0.  0.
        5    1    3    3  502    0 -0.95457581001E+03 -0.44888128105E+03 -0.94306368997E+03  0.14149560399E+04  0.46999998093E+01 0.  1.
       -5    1    3    3    0  502  0.95457581001E+03  0.44888128105E+03 -0.58823712404E+03  0.12077890485E+04  0.46999998093E+01 0. -1.
</event>
<event>
 5   0  0.5637538E-06  0.3776242E+04  0.7818609E-02  0.8051273E-01
        2   -1    0    0  501    0  0.00000000000E+00  0.00000000000E+00  0.27356035752E+04  0.27356035752E+04  0.25500000920E-02 0. -1.
       -2   -1    0    0    0  501  0.00000000000E+00  0.00000000000E+00 -0.13031861890E+04  0.13031861890E+04  0.25500000920E-02 0.  1.
    10030    2    1    2    0    0  0.00000000000E+00  0.00000000000E+00  0.14324173862E+04  0.40387897642E+04  0.37762419402E+04 0.  0.
        2    1    3    3  502    0 -0.17083820512E+04 -0.16726625713E+03  0.15573035627E+04  0.23177017971E+04  0.25500000920E-02 0. -1.
       -2    1    3    3    0  502  0.17083820512E+04  0.16726625713E+03 -0.12488617652E+03  0.17210879672E+04  0.25500000920E-02 0.  1.
</event>
<event>
 5   0  0.1925906E-06  0.3287166E+04  0.7818609E-02  0.8166169E-01
       -1   -1    0    0    0  501  0.00000000000E+00  0.00000000000E+00  0.16018409592E+04  0.16018409592E+04  0.50400001928E-02 0. -1.
        1   -1    0    0  501    0  0.00000000000E+00  0.00000000000E+00 -0.16864132063E+04  0.16864132063E+04  0.50400001928E-02 0.  1.
    10030    2    1    2    0    0  0.00000000000E+00  0.00000000000E+00 -0.84572247096E+02  0.32882541655E+04  0.32871664077E+04 0.  0.
        1    1    3    3  502    0 -0.26910181446E+03 -0.13199958295E+04 -0.98417136770E+03  0.16683518986E+04  0.50400001928E-02 0.  1.
       -1    1    3    3    0  502  0.26910181446E+03  0.13199958295E+04  0.89959912060E+03  0.16199022669E+04  0.50400001928E-02 0. -1.
</event>
<event>
 5   0  0.1925906E-06  0.2310978E+04  0.7818609E-02  0.8473605E-01
       -1   -1    0    0    0  501  0.00000000000E+00  0.00000000000E+00  0.11285479309E+04  0.11285479309E+04  0.50400001928E-02 0. -1.
        1   -1    0    0  501    0  0.00000000000E+00  0.00000000000E+00 -0.11830730644E+04  0.11830730644E+04  0.50400001928E-02 0.  1.
    10030    2    1    2    0    0  0.00000000000E+00  0.00000000000E+00 -0.54525133543E+02  0.23116209953E+04  0.23109778527E+04 0.  0.
        1    1    3    3  502    0  0.98876396601E+03 -0.39704122108E+03  0.41991749046E+03  0.11452626819E+04  0.50400001928E-02 0. -1.
       -1    1    3    3    0  502 -0.98876396601E+03  0.39704122108E+03 -0.47444262400E+03  0.11663583134E+04  0.50400001928E-02 0.  1.
</event>
<event>
 5   0  0.2097842E-06  0.2640599E+04  0.7818609E-02  0.8354540E-01
       -1   -1    0    0    0  501  0.00000000000E+00  0.00000000000E+00  0.12217031021E+04  0.12217031022E+04  0.50400001928E-02 0. -1.
        1   -1    0    0  501    0  0.00000000000E+00  0.00000000000E+00 -0.14268529068E+04  0.14268529068E+04  0.50400001928E-02 0.  1.
    10030    2    1    2    0    0  0.00000000000E+00  0.00000000000E+00 -0.20514980468E+03  0.26485560090E+04  0.26405988886E+04 0.  0.
        4    1    3    3  502    0 -0.29553444891E+02 -0.12806601240E+04  0.21811539219E+03  0.12994382235E+04  0.12699999809E+01 0. -1.
       -4    1    3    3    0  502  0.29553444891E+02  0.12806601240E+04 -0.42326519687E+03  0.13491177855E+04  0.12699999809E+01 0.  1.
</event>
<event>
 5   0  0.5300268E-06  0.3404783E+04  0.7818609E-02  0.8136733E-01
       -2   -1    0    0    0  501  0.00000000000E+00  0.00000000000E+00  0.16624443753E+04  0.16624443753E+04  0.25500000920E-02 0. -1.
        2   -1    0    0  501    0  0.00000000000E+00  0.00000000000E+00 -0.17432988975E+04  0.17432988975E+04  0.25500000920E-02 0.  1.
    10030    2    1    2    0    0  0.00000000000E+00  0.00000000000E+00 -0.80854522193E+02  0.34057432729E+04  0.34047833686E+04 0.  0.
        4    1    3    3  502    0  0.15777594455E+04 -0.41604399416E+03 -0.52607249274E+03  0.17144011646E+04  0.12699999809E+01 0.  1.
       -4    1    3    3    0  502 -0.15777594455E+04  0.41604399416E+03  0.44521797055E+03  0.16913421082E+04  0.12699999809E+01 0. -1.
</event>
<event>
 5   0  0.2730981E-06  0.3436757E+04  0.7818609E-02  0.8128943E-01
       -1   -1    0    0    0  501  0.00000000000E+00  0.00000000000E+00  0.15135072830E+04  0.15135072830E+04  0.50400001928E-02 0. -1.
        1   -1    0    0  501    0  0.00000000000E+00  0.00000000000E+00 -0.19509816097E+04  0.19509816097E+04  0.50400001928E-02 0.  1.
    10030    2    1    2    0    0  0.00000000000E+00  0.00000000000E+00 -0.43747432670E+03  0.34644888927E+04  0.34367571199E+04 0.  0.
        3    1    3    3  502    0 -0.78382704258E+03 -0.14084177043E+04  0.38171981247E+03  0.16564224364E+04  0.10100000352E+00 0. -1.
       -3    1    3    3    0  502  0.78382704258E+03  0.14084177043E+04 -0.81919413917E+03  0.18080664563E+04  0.10100000352E+00 0.  1.
</event>
<event>
 5   0  0.1999849E-06  0.3335741E+04  0.7818609E-02  0.8153860E-01
       -1   -1    0    0    0  501  0.00000000000E+00  0.00000000000E+00  0.12464829831E+04  0.12464829831E+04  0.50400001928E-02 0. -1.
        1   -1    0    0  501    0  0.00000000000E+00  0.00000000000E+00 -0.22317132078E+04  0.22317132078E+04  0.50400001928E-02 0.  1.
    10030    2    1    2    0    0  0.00000000000E+00  0.00000000000E+00 -0.98523022469E+03  0.34781961908E+04  0.33357413189E+04 0.  0.
        5    1    3    3  502    0 -0.94720819281E+03  0.11752883469E+03  0.93355082258E+03  0.13351238204E+04  0.46999998093E+01 0. -1.
       -5    1    3    3    0  502  0.94720819281E+03 -0.11752883469E+03 -0.19187810473E+04  0.21430723704E+04  0.46999998093E+01 0.  1.
</event>
<event>
 5   0  0.2097842E-06  0.3303434E+04  0.7818609E-02  0.8162022E-01
       -1   -1    0    0    0  501  0.00000000000E+00  0.00000000000E+00  0.80903796927E+03  0.80903796928E+03  0.50400001928E-02 0. -1.
        1   -1    0    0  501    0  0.00000000000E+00  0.00000000000E+00 -0.33721152917E+04  0.33721152917E+04  0.50400001928E-02 0.  1.
    10030    2    1    2    0    0  0.00000000000E+00  0.00000000000E+00 -0.25630773224E+04  0.41811532610E+04  0.33034341572E+04 0.  0.
        4    1    3    3  502    0  0.11657427204E+04  0.59253287506E+03 -0.44261841669E+01  0.13076974046E+04  0.12699999809E+01 0. -1.
       -4    1    3    3    0  502 -0.11657427204E+04 -0.59253287506E+03 -0.25586511383E+04  0.28734558564E+04  0.12699999809E+01 0.  1.
</event>
<event>
 5   0  0.5637538E-06  0.3155427E+04  0.7818609E-02  0.8200689E-01
       -2   -1    0    0    0  501  0.00000000000E+00  0.00000000000E+00  0.14676063434E+04  0.14676063434E+04  0.25500000920E-02 0.  1.
        2   -1    0    0  501    0  0.00000000000E+00  0.00000000000E+00 -0.16960814007E+04  0.16960814007E+04  0.25500000920E-02 0. -1.
    10030    2    1    2    0    0  0.00000000000E+00  0.00000000000E+00 -0.22847505736E+03  0.31636877441E+04  0.31554269585E+04 0.  0.
        2    1    3    3  502    0  0.23697514246E+03 -0.13924899377E+04 -0.81892489190E+03  0.16327349519E+04  0.25500000920E-02 0. -1.
       -2    1    3    3    0  502 -0.23697514246E+03  0.13924899377E+04  0.59044983454E+03  0.15309527922E+04  0.25500000920E-02 0.  1.
</event>
<event>
 5   0  0.5300268E-06  0.3317070E+04  0.7818609E-02  0.8158566E-01
        2   -1    0    0  501    0  0.00000000000E+00  0.00000000000E+00  0.15011393510E+04  0.15011393510E+04  0.25500000920E-02 0.  1.
       -2   -1    0    0    0  501  0.00000000000E+00  0.00000000000E+00 -0.18324335224E+04  0.18324335224E+04  0.25500000920E-02 0. -1.
    10030    2    1    2    0    0  0.00000000000E+00  0.00000000000E+00 -0.33129417143E+03  0.33335728734E+04  0.33170698326E+04 0.  0.
        4    1    3    3  502    0  0.14499542765E+04  0.36322089669E+03  0.55656561289E+03  0.15950121373E+04  0.12699999809E+01 0. -1.
       -4    1    3    3    0  502 -0.14499542765E+04 -0.36322089669E+03 -0.88785978433E+03  0.17385607361E+04  0.12699999809E+01 0.  1.
</event>
<event>
 5   0  0.5300268E-06  0.3250463E+04  0.7818609E-02  0.8175616E-01
        2   -1    0    0  501    0  0.00000000000E+00  0.00000000000E+00  0.16084506391E+04  0.16084506391E+04  0.25500000920E-02 0.  1.
       -2   -1    0    0    0  501  0.00000000000E+00  0.00000000000E+00 -0.16421874917E+04  0.16421874917E+04  0.25500000920E-02 0. -1.
    10030    2    1    2    0    0  0.00000000000E+00  0.00000000000E+00 -0.33736852566E+02  0.32506381308E+04  0.32504630566E+04 0.  0.
        4    1    3    3  502    0 -0.99823386587E+03  0.11512732408E+04  0.54838319681E+03  0.16194525832E+04  0.12699999809E+01 0.  1.
       -4    1    3    3    0  502  0.99823386587E+03 -0.11512732408E+04 -0.58212004938E+03  0.16311855476E+04  0.12699999809E+01 0. -1.
</event>
<event>
 5   0  0.2097842E-06  0.2705824E+04  0.7818609E-02  0.8333118E-01
       -1   -1    0    0    0  501  0.00000000000E+00  0.00000000000E+00  0.12064654731E+04  0.12064654731E+04  0.50400001928E-02 0.  1.
        1   -1    0    0  501    0  0.00000000000E+00  0.00000000000E+00 -0.15171354263E+04  0.15171354263E+04  0.50400001928E-02 0. -1.
    10030    2    1    2    0    0  0.00000000000E+00  0.00000000000E+00 -0.31066995325E+03  0.27236008994E+04  0.27058244658E+04 0.  0.
        4    1    3    3  502    0 -0.37999183362E+03  0.11984671153E+04  0.34760014306E+03  0.13044327090E+04  0.12699999809E+01 0.  1.
       -4    1    3    3    0  502  0.37999183362E+03 -0.11984671153E+04 -0.65827009631E+03  0.14191681904E+04  0.12699999809E+01 0. -1.
</event>
<event>
 5   0  0.5637538E-06  0.3285215E+04  0.7818609E-02  0.8166668E-01
       -2   -1    0    0    0  501  0.00000000000E+00  0.00000000000E+00  0.10223373554E+04  0.10223373554E+04  0.25500000920E-02 0. -1.
        2   -1    0    0  501    0  0.00000000000E+00  0.00000000000E+00 -0.26392060689E+04  0.26392060689E+04  0.25500000920E-02 0.  1.
    10030    2    1    2    0    0  0.00000000000E+00  0.00000000000E+00 -0.16168687135E+04  0.36615434244E+04  0.32852147284E+04 0.  0.
        2    1    3    3  502    0 -0.15072497273E+04 -0.61638670776E+03 -0.56828872293E+03  0.17247279167E+04  0.25500000920E-02 0. -1.
       -2    1    3    3    0  502  0.15072497273E+04  0.61638670776E+03 -0.10485799906E+04  0.19368155077E+04  0.25500000920E-02 0.  1.
</event>
<event>
 5   0  0.5300268E-06  0.3288615E+04  0.7818609E-02  0.8165798E-01
        2   -1    0    0  501    0  0.00000000000E+00  0.00000000000E+00  0.98926495820E+03  0.98926495820E+03  0.25500000920E-02 0. -1.
       -2   -1    0    0    0  501  0.00000000000E+00  0.00000000000E+00 -0.27330864440E+04  0.27330864440E+04  0.25500000920E-02 0.  1.
    10030    2    1    2    0    0  0.00000000000E+00  0.00000000000E+00 -0.17438214858E+04  0.37223514022E+04  0.32886146912E+04 0.  0.
        4    1    3    3  502    0  0.60419091473E+03  0.10019801179E+04 -0.21795916229E+04  0.24737890115E+04  0.12699999809E+01 0.  1.
       -4    1    3    3    0  502 -0.60419091473E+03 -0.10019801179E+04  0.43577013709E+03  0.12485623907E+04  0.12699999809E+01 0. -1.
</event>
<event>
 5   0  0.5755250E-06  0.3346249E+04  0.7818609E-02  0.8151226E-01
        2   -1    0    0  501    0  0.00000000000E+00  0.00000000000E+00  0.20155345806E+04  0.20155345806E+04  0.25500000920E-02 0. -1.
       -2   -1    0    0    0  501  0.00000000000E+00  0.00000000000E+00 -0.13888847912E+04  0.13888847913E+04  0.25500000920E-02 0.  1.
    10030    2    1    2    0    0  0.00000000000E+00  0.00000000000E+00  0.62664978940E+03  0.34044193719E+04  0.33462488403E+04 0.  0.
        5    1    3    3  502    0  0.93932267716E+03 -0.27646304231E+03  0.16935830439E+04  0.19562731206E+04  0.46999998093E+01 0. -1.
       -5    1    3    3    0  502 -0.93932267716E+03  0.27646304231E+03 -0.10669332545E+04  0.14481462513E+04  0.46999998093E+01 0.  1.
</event>
<event>
 5   0  0.1878000E-06  0.3026858E+04  0.7818609E-02  0.8236103E-01
        4   -1    0    0  501    0  0.00000000000E+00  0.00000000000E+00  0.18922155929E+04  0.18922160190E+04  0.12699999809E+01 0. -1.
       -4   -1    0    0    0  501  0.00000000000E+00  0.00000000000E+00 -0.12104676594E+04  0.12104683257E+04  0.12699999809E+01 0.  1.
    10030    2    1    2    0    0  0.00000000000E+00  0.00000000000E+00  0.68174793343E+03  0.31026843447E+04  0.30268580902E+04 0.  0.
        5    1    3    3  502    0 -0.13357357606E+04  0.70718917992E+03  0.42118740188E+03  0.15689893167E+04  0.46999998093E+01 0. -1.
       -5    1    3    3    0  502  0.13357357606E+04 -0.70718917992E+03  0.26056053155E+03  0.15336950280E+04  0.46999998093E+01 0.  1.
</event>
<event>
 5   0  0.5755250E-06  0.3314148E+04  0.7818609E-02  0.8159305E-01
        2   -1    0    0  501    0  0.00000000000E+00  0.00000000000E+00  0.24942741708E+04  0.24942741708E+04  0.25500000920E-02 0.  1.
       -2   -1    0    0    0  501  0.00000000000E+00  0.00000000000E+00 -0.11008788591E+04  0.11008788591E+04  0.25500000920E-02 0. -1.
    10030    2    1    2    0    0  0.00000000000E+00  0.00000000000E+00  0.13933953117E+04  0.35951530299E+04  0.33141476753E+04 0.  0.
        5    1    3    3  502    0 -0.12909496044E+04  0.85467914443E+03  0.55987901730E+02  0.15492527412E+04  0.46999998093E+01 0. -1.
       -5    1    3    3    0  502  0.12909496044E+04 -0.85467914443E+03  0.13374074100E+04  0.20459002887E+04  0.46999998093E+01 0.  1.
</event>
<event>
 5   0  0.1999849E-06  0.1911534E+04  0.7818609E-02  0.8649136E-01
        1   -1    0    0  501    0  0.00000000000E+00  0.00000000000E+00  0.12408580909E+04  0.12408580909E+04  0.50400001928E-02 0. -1.
       -1   -1    0    0    0  501  0.00000000000E+00  0.00000000000E+00 -0.73617662761E+03  0.73617662763E+03  0.50400001928E-02 0.  1.
    10030    2    1    2    0    0  0.00000000000E+00  0.00000000000E+00  0.50468146330E+03  0.19770347185E+04  0.19115341741E+04 0.  0.
        5    1    3    3  502    0 -0.79725095919E+03 -0.55946468952E+02  0.79444759434E+03  0.11269020230E+04  0.46999998093E+01 0. -1.
       -5    1    3    3    0  502  0.79725095919E+03  0.55946468952E+02 -0.28976613104E+03  0.85013269553E+03  0.46999998093E+01 0.  1.
</event>
<event>
 5   0  0.2037109E-06  0.3280515E+04  0.7818609E-02  0.8167871E-01
        1   -1    0    0  501    0  0.00000000000E+00  0.00000000000E+00  0.23514363923E+04  0.23514363923E+04  0.50400001928E-02 0. -1.
       -1   -1    0    0    0  501  0.00000000000E+00  0.00000000000E+00 -0.11441706996E+04  0.11441706996E+04  0.50400001928E-02 0.  1.
    10030    2    1    2    0    0  0.00000000000E+00  0.00000000000E+00  0.12072656927E+04  0.34956070919E+04  0.32805149730E+04 0.  0.
        2    1    3    3  502    0 -0.12984118036E+04  0.68270528699E+03 -0.17829621180E+03  0.14777514202E+04  0.25500000920E-02 0.  1.
       -2    1    3    3    0  502  0.12984118036E+04 -0.68270528699E+03  0.13855619045E+04  0.20178556717E+04  0.25500000920E-02 0. -1.
</event>
<event>
 5   0  0.5622811E-06  0.3295279E+04  0.7818609E-02  0.8164098E-01
        2   -1    0    0  501    0  0.00000000000E+00  0.00000000000E+00  0.19510406557E+04  0.19510406557E+04  0.25500000920E-02 0. -1.
       -2   -1    0    0    0  501  0.00000000000E+00  0.00000000000E+00 -0.13914192161E+04  0.13914192161E+04  0.25500000920E-02 0.  1.
    10030    2    1    2    0    0  0.00000000000E+00  0.00000000000E+00  0.55962143961E+03  0.33424598718E+04  0.32952787195E+04 0.  0.
        1    1    3    3  502    0 -0.11921943654E+04 -0.78549038294E+03  0.11140172258E+04  0.18108994798E+04  0.50400001928E-02 0. -1.
       -1    1    3    3    0  502  0.11921943654E+04  0.78549038294E+03 -0.55439578615E+03  0.15315603920E+04  0.50400001928E-02 0.  1.
</event>
<event>
 5   0  0.2097842E-06  0.2970204E+04  0.7818609E-02  0.8252291E-01
       -1   -1    0    0    0  501  0.00000000000E+00  0.00000000000E+00  0.17726205957E+04  0.17726205957E+04  0.50400001928E-02 0. -1.
        1   -1    0    0  501    0  0.00000000000E+00  0.00000000000E+00 -0.12442190738E+04  0.12442190738E+04  0.50400001928E-02 0.  1.
    10030    2    1    2    0    0  0.00000000000E+00  0.00000000000E+00  0.52840152192E+03  0.30168396695E+04  0.29702042729E+04 0.  0.
        4    1    3    3  502    0  0.70494450376E+03 -0.12370781988E+04 -0.16458574440E+03  0.14333175864E+04  0.12699999809E+01 0. -1.
       -4    1    3    3    0  502 -0.70494450376E+03  0.12370781988E+04  0.69298726631E+03  0.15835220831E+04  0.12699999809E+01 0.  1.
</event>
<event>
 5   0  0.5855568E-06  0.2260300E+04  0.7818609E-02  0.8493741E-01
       -2   -1    0    0    0  501  0.00000000000E+00  0.00000000000E+00  0.15654081245E+04  0.15654081245E+04  0.25500000920E-02 0.  1.
        2   -1    0    0  501    0  0.00000000000E+00  0.00000000000E+00 -0.81591464539E+03  0.81591464539E+03  0.25500000920E-02 0. -1.
    10030    2    1    2    0    0  0.00000000000E+00  0.00000000000E+00  0.74949347911E+03  0.23813227699E+04  0.22603003471E+04 0.  0.
        3    1    3    3  502    0  0.23963794516E+03 -0.48370243934E+02  0.15372169967E+04  0.15565352969E+04  0.10100000352E+00 0.  1.
       -3    1    3    3    0  502 -0.23963794516E+03  0.48370243934E+02 -0.78772351760E+03  0.82478747301E+03  0.10100000352E+00 0. -1.
</event>
<event>
 5   0  0.1999849E-06  0.2311529E+04  0.7818609E-02  0.8473389E-01
        1   -1    0    0  501    0  0.00000000000E+00  0.00000000000E+00  0.18958725073E+04  0.18958725073E+04  0.50400001928E-02 0. -1.
       -1   -1    0    0    0  501  0.00000000000E+00  0.00000000000E+00 -0.70457885172E+03  0.70457885174E+03  0.50400001928E-02 0.  1.
    10030    2    1    2    0    0  0.00000000000E+00  0.00000000000E+00  0.11912936556E+04  0.26004513590E+04  0.23115290820E+04 0.  0.
        5    1    3    3  502    0 -0.11231790907E+04 -0.11097359249E+03  0.31569972013E+03  0.11719790149E+04  0.46999998093E+01 0. -1.
       -5    1    3    3    0  502  0.11231790907E+04  0.11097359249E+03  0.87559393544E+03  0.14284723441E+04  0.46999998093E+01 0.  1.
</event>
<event>
 5   0  0.2730981E-06  0.3275194E+04  0.7818609E-02  0.8169236E-01
        1   -1    0    0  501    0  0.00000000000E+00  0.00000000000E+00  0.10909644578E+04  0.10909644578E+04  0.50400001928E-02 0. -1.
       -1   -1    0    0    0  501  0.00000000000E+00  0.00000000000E+00 -0.24581218341E+04  0.24581218341E+04  0.50400001928E-02 0.  1.
    10030    2    1    2    0    0  0.00000000000E+00  0.00000000000E+00 -0.13671573763E+04  0.35490862919E+04  0.32751937677E+04 0.  0.
        3    1    3    3  502    0 -0.42548826498E+03 -0.15650668305E+04 -0.43826450102E+03  0.16800447109E+04  0.10100000352E+00 0.  1.
       -3    1    3    3    0  502  0.42548826498E+03  0.15650668305E+04 -0.92889287524E+03  0.18690415810E+04  0.10100000352E+00 0. -1.
</event>
<event>
 5   0  0.1878000E-06  0.1683301E+04  0.7818609E-02  0.8770946E-01
       -3   -1    0    0    0  501  0.00000000000E+00  0.00000000000E+00  0.86721448737E+03  0.86721449325E+03  0.10100000352E+00 0.  1.
        3   -1    0    0  501    0  0.00000000000E+00  0.00000000000E+00 -0.81684046127E+03  0.81684046751E+03  0.10100000352E+00 0. -1.
    10030    2    1    2    0    0  0.00000000000E+00  0.00000000000E+00  0.50374026104E+02  0.16840549608E+04  0.16833013896E+04 0.  0.
        3    1    3    3  502    0  0.54187024463E+03  0.49791260298E+02  0.66755961633E+03  0.86124234868E+03  0.10100000352E+00 0.  1.
       -3    1    3    3    0  502 -0.54187024463E+03 -0.49791260298E+02 -0.61718559023E+03  0.82281261208E+03  0.10100000352E+00 0. -1.
</event>
<event>
 5   0  0.5637538E-06  0.3315840E+04  0.7818609E-02  0.8158877E-01
       -2   -1    0    0    0  501  0.00000000000E+00  0.00000000000E+00  0.12220259016E+04  0.12220259016E+04  0.25500000920E-02 0.  1.
        2   -1    0    0  501    0  0.00000000000E+00  0.00000000000E+00 -0.22492960680E+04  0.22492960680E+04  0.25500000920E-02 0. -1.
    10030    2    1    2    0    0  0.00000000000E+00  0.00000000000E+00 -0.10272701664E+04  0.34713219695E+04  0.33158395952E+04 0.  0.
        2    1    3    3  502    0 -0.10820265749E+03  0.15257152733E+04  0.15603400396E+03  0.15374854538E+04  0.25500000920E-02 0.  1.
       -2    1    3    3    0  502  0.10820265749E+03 -0.15257152733E+04 -0.11833041704E+04  0.19338365158E+04  0.25500000920E-02 0. -1.
</event>
<event>
 5   0  0.5755250E-06  0.1938358E+04  0.7818609E-02  0.8635995E-01
       -2   -1    0    0    0  501  0.00000000000E+00  0.00000000000E+00  0.13409435220E+04  0.13409435220E+04  0.25500000920E-02 0.  1.
        2   -1    0    0  501    0  0.00000000000E+00  0.00000000000E+00 -0.70048304129E+03  0.70048304130E+03  0.25500000920E-02 0. -1.
    10030    2    1    2    0    0  0.00000000000E+00  0.00000000000E+00  0.64046048069E+03  0.20414265633E+04  0.19383582708E+04 0.  0.
        5    1    3    3  502    0  0.19025473076E+03 -0.88813714047E+03 -0.35832053704E+02  0.90900520842E+03  0.46999998093E+01 0. -1.
       -5    1    3    3    0  502 -0.19025473076E+03  0.88813714047E+03  0.67629253439E+03  0.11324213549E+04  0.46999998093E+01 0.  1.
</event>
<event>
 5   0  0.2097842E-06  0.2268103E+04  0.7818609E-02  0.8490605E-01
        1   -1    0    0  501    0  0.00000000000E+00  0.00000000000E+00  0.22432192902E+04  0.22432192902E+04  0.50400001928E-02 0. -1.
       -1   -1    0    0    0  501  0.00000000000E+00  0.00000000000E+00 -0.57331579816E+03  0.57331579818E+03  0.50400001928E-02 0.  1.
    10030    2    1    2    0    0  0.00000000000E+00  0.00000000000E+00  0.16699034920E+04  0.28165350884E+04  0.22681032233E+04 0.  0.
        4    1    3    3  502    0 -0.11307247007E+04  0.86657117239E+02  0.82891395995E+03  0.14046877840E+04  0.12699999809E+01 0. -1.
       -4    1    3    3    0  502  0.11307247007E+04 -0.86657117239E+02  0.84098953207E+03  0.14118473043E+04  0.12699999809E+01 0.  1.
</event>
<event>
 5   0  0.5300268E-06  0.3239490E+04  0.7818609E-02  0.8178465E-01
        2   -1    0    0  501    0  0.00000000000E+00  0.00000000000E+00  0.18345815302E+04  0.18345815302E+04  0.25500000920E-02 0.  1.
       -2   -1    0    0    0  501  0.00000000000E+00  0.00000000000E+00 -0.14300666452E+04  0.14300666452E+04  0.25500000920E-02 0. -1.
    10030    2    1    2    0    0  0.00000000000E+00  0.00000000000E+00  0.40451488507E+03  0.32646481754E+04  0.32394899933E+04 0.  0.
        4    1    3    3  502    0 -0.10902646656E+03 -0.12155230843E+03  0.18262657036E+04  0.18335511357E+04  0.12699999809E+01 0.  1.
       -4    1    3    3    0  502  0.10902646656E+03  0.12155230843E+03 -0.14217508185E+04  0.14310970397E+04  0.12699999809E+01 0. -1.
</event>
<event>
 5   0  0.1999849E-06  0.2497643E+04  0.7818609E-02  0.8403826E-01
       -1   -1    0    0    0  501  0.00000000000E+00  0.00000000000E+00  0.34109686217E+04  0.34109686217E+04  0.50400001928E-02 0.  1.
        1   -1    0    0  501    0  0.00000000000E+00  0.00000000000E+00 -0.45721768191E+03  0.45721768194E+03  0.50400001928E-02 0. -1.
    10030    2    1    2    0    0  0.00000000000E+00  0.00000000000E+00  0.29537509398E+04  0.38681863036E+04  0.24976430220E+04 0.  0.
        5    1    3    3  502    0  0.11715161575E+04 -0.43059259273E+03  0.15402220912E+04  0.19824646953E+04  0.46999998093E+01 0.  1.
       -5    1    3    3    0  502 -0.11715161575E+04  0.43059259273E+03  0.14135288486E+04  0.18857216083E+04  0.46999998093E+01 0. -1.
</event>
<event>
 5   0  0.5637538E-06  0.3307403E+04  0.7818609E-02  0.8161014E-01
        2   -1    0    0  501    0  0.00000000000E+00  0.00000000000E+00  0.16123277392E+04  0.16123277392E+04  0.25500000920E-02 0. -1.
       -2   -1    0    0    0  501  0.00000000000E+00  0.00000000000E+00 -0.16961369763E+04  0.16961369763E+04  0.25500000920E-02 0.  1.
    10030    2    1    2    0    0  0.00000000000E+00  0.00000000000E+00 -0.83809237130E+02  0.33084647155E+04  0.33074030273E+04 0.  0.
        2    1    3    3  502    0  0.15968114251E+04  0.11246736957E+03  0.37328651572E+03  0.16437148352E+04  0.25500000920E-02 0.  1.
       -2    1    3    3    0  502 -0.15968114251E+04 -0.11246736957E+03 -0.45709575285E+03  0.16647498803E+04  0.25500000920E-02 0. -1.
</event>
<event>
 5   0  0.5855568E-06  0.3207572E+04  0.7818609E-02  0.8186820E-01
       -2   -1    0    0    0  501  0.00000000000E+00  0.00000000000E+00  0.14058227832E+04  0.14058227832E+04  0.25500000920E-02 0.  1.
        2   -1    0    0  501    0  0.00000000000E+00  0.00000000000E+00 -0.18296260662E+04  0.18296260662E+04  0.25500000920E-02 0. -1.
    10030    2    1    2    0    0  0.00000000000E+00  0.00000000000E+00 -0.42380328300E+03  0.32354488494E+04  0.32075722960E+04 0.  0.
        3    1    3    3  502    0 -0.90243676038E+03  0.22844996903E+03  0.11054148288E+04  0.14451724633E+04  0.10100000352E+00 0.  1.
       -3    1    3    3    0  502  0.90243676038E+03 -0.22844996903E+03 -0.15292181118E+04  0.17902763861E+04  0.10100000352E+00 0. -1.
</event>
<event>
 5   0  0.2037109E-06  0.1949449E+04  0.7818609E-02  0.8630626E-01
        1   -1    0    0  501    0  0.00000000000E+00  0.00000000000E+00  0.12676461320E+04  0.12676461320E+04  0.50400001928E-02 0. -1.
       -1   -1    0    0    0  501  0.00000000000E+00  0.00000000000E+00 -0.74948993551E+03  0.74948993553E+03  0.50400001928E-02 0.  1.
    10030    2    1    2    0    0  0.00000000000E+00  0.00000000000E+00  0.51815619646E+03  0.20171360675E+04  0.19494491712E+04 0.  0.
        2    1    3    3  502    0 -0.71746884590E+03  0.61484558556E+03  0.50674496841E+03  0.10721879975E+04  0.25500000920E-02 0.  1.
       -2    1    3    3    0  502  0.71746884590E+03 -0.61484558556E+03  0.11411228056E+02  0.94494807003E+03  0.25500000920E-02 0. -1.
</event>
<event>
 5   0  0.1999849E-06  0.2789250E+04  0.7818609E-02  0.8306613E-01
        1   -1    0    0  501    0  0.00000000000E+00  0.00000000000E+00  0.17784018868E+04  0.17784018868E+04  0.50400001928E-02 0. -1.
       -1   -1    0    0    0  501  0.00000000000E+00  0.00000000000E+00 -0.10936670427E+04  0.10936670427E+04  0.50400001928E-02 0.  1.
    10030    2    1    2    0    0  0.00000000000E+00  0.00000000000E+00  0.68473484409E+03  0.28720689295E+04  0.27892504601E+04 0.  0.
        5    1    3    3  502    0  0.29128461164E+03 -0.57784680889E+03  0.16144450308E+04  0.17393126536E+04  0.46999998093E+01 0. -1.
       -5    1    3    3    0  502 -0.29128461164E+03  0.57784680889E+03 -0.92971018666E+03  0.11327562759E+04  0.46999998093E+01 0.  1.
</event>
<event>
 5   0  0.5855568E-06  0.3236390E+04  0.7818609E-02  0.8179272E-01
       -2   -1    0    0    0  501  0.00000000000E+00  0.00000000000E+00  0.12458041573E+04  0.12458041573E+04  0.25500000920E-02 0. -1.
        2   -1    0    0  501    0  0.00000000000E+00  0.00000000000E+00 -0.21018994484E+04  0.21018994484E+04  0.25500000920E-02 0.  1.
    10030    2    1    2    0    0  0.00000000000E+00  0.00000000000E+00 -0.85609529113E+03  0.33477036057E+04  0.32363900081E+04 0.  0.
        3    1    3    3  502    0 -0.85239386582E+03  0.51004421226E+03 -0.17494169839E+04  0.20117604715E+04  0.10100000352E+00 0.  1.
       -3    1    3    3    0  502  0.85239386582E+03 -0.51004421226E+03  0.89332169275E+03  0.13359431342E+04  0.10100000352E+00 0. -1.
</event>
<event>
 5   0  0.5855568E-06  0.2993778E+04  0.7818609E-02  0.8245510E-01
        2   -1    0    0  501    0  0.00000000000E+00  0.00000000000E+00  0.11399846618E+04  0.11399846618E+04  0.25500000920E-02 0. -1.
       -2   -1    0    0    0  501  0.00000000000E+00  0.00000000000E+00 -0.19655317986E+04  0.19655317986E+04  0.25500000920E-02 0.  1.
    10030    2    1    2    0    0  0.00000000000E+00  0.00000000000E+00 -0.82554713677E+03  0.31055164604E+04  0.29937776155E+04 0.  0.
        3    1    3    3  502    0 -0.12561458556E+04  0.69073258089E+03 -0.85974115068E+03  0.16715767303E+04  0.10100000352E+00 0.  1.
       -3    1    3    3    0  502  0.12561458556E+04 -0.69073258089E+03  0.34194013907E+02  0.14339397301E+04  0.10100000352E+00 0. -1.
</event>
<event>
 5   0  0.5637538E-06  0.2414504E+04  0.7818609E-02  0.8434093E-01
        2   -1    0    0  501    0  0.00000000000E+00  0.00000000000E+00  0.11203138754E+04  0.11203138754E+04  0.25500000920E-02 0.  1.
       -2   -1    0    0    0  501  0.00000000000E+00  0.00000000000E+00 -0.13009368461E+04  0.13009368461E+04  0.25500000920E-02 0. -1.
    10030    2    1    2    0    0  0.00000000000E+00  0.00000000000E+00 -0.18062297073E+03  0.24212507214E+04  0.24145041724E+04 0.  0.
        2    1    3    3  502    0  0.11030927811E+04  0.42592459880E+03 -0.33436808638E+03  0.12288317480E+04  0.25500000920E-02 0. -1.
       -2    1    3    3    0  502 -0.11030927811E+04 -0.42592459880E+03  0.15374511565E+03  0.11924189735E+04  0.25500000920E-02 0.  1.
</event>
<event>
 5   0  0.1925906E-06  0.3177925E+04  0.7818609E-02  0.8194672E-01
        1   -1    0    0  501    0  0.00000000000E+00  0.00000000000E+00  0.13310156822E+04  0.13310156822E+04  0.50400001928E-02 0.  1.
       -1   -1    0    0    0  501  0.00000000000E+00  0.00000000000E+00 -0.18968984884E+04  0.18968984885E+04  0.50400001928E-02 0. -1.
    10030    2    1    2    0    0  0.00000000000E+00  0.00000000000E+00 -0.56588280623E+03  0.32279141707E+04  0.31779248800E+04 0.  0.
        1    1    3    3  502    0  0.33654472303E+03  0.20576562423E+03  0.12804913081E+04  0.13398730660E+04  0.50400001928E-02 0.  1.
       -1    1    3    3    0  502 -0.33654472303E+03 -0.20576562423E+03 -0.18463741144E+04  0.18880411047E+04  0.50400001928E-02 0. -1.
</event>
<event>
 5   0  0.5300268E-06  0.3357401E+04  0.7818609E-02  0.8148441E-01
       -2   -1    0    0    0  501  0.00000000000E+00  0.00000000000E+00  0.12337154637E+04  0.12337154637E+04  0.25500000920E-02 0.  1.
        2   -1    0    0  501    0  0.00000000000E+00  0.00000000000E+00 -0.22841855643E+04  0.22841855643E+04  0.25500000920E-02 0. -1.
    10030    2    1    2    0    0  0.00000000000E+00  0.00000000000E+00 -0.10504701007E+04  0.35179010280E+04  0.33574008117E+04 0.  0.
        4    1    3    3  502    0  0.92816008930E+02 -0.37137086221E+03  0.11873738746E+04  0.12475533896E+04  0.12699999809E+01 0.  1.
       -4    1    3    3    0  502 -0.92816008930E+02  0.37137086221E+03 -0.22378439753E+04  0.22703476385E+04  0.12699999809E+01 0. -1.
</event>
<event>
 5   0  0.5855568E-06  0.3193121E+04  0.7818609E-02  0.8190636E-01
       -2   -1    0    0    0  501  0.00000000000E+00  0.00000000000E+00  0.16732723791E+04  0.16732723791E+04  0.25500000920E-02 0.  1.
        2   -1    0    0  501    0  0.00000000000E+00  0.00000000000E+00 -0.15233656748E+04  0.15233656748E+04  0.25500000920E-02 0. -1.
    10030    2    1    2    0    0  0.00000000000E+00  0.00000000000E+00  0.14990670432E+03  0.31966380539E+04  0.31931211734E+04 0.  0.
        3    1    3    3  502    0  0.95588220149E+03  0.12743400791E+04  0.18161776450E+03  0.16033210667E+04  0.10100000352E+00 0.  1.
       -3    1    3    3    0  502 -0.95588220149E+03 -0.12743400791E+04 -0.31711060181E+02  0.15933169872E+04  0.10100000352E+00 0. -1.
</event>
<event>
 5   0  0.2037109E-06  0.3323345E+04  0.7818609E-02  0.8156981E-01
        1   -1    0    0  501    0  0.00000000000E+00  0.00000000000E+00  0.17998651773E+04  0.17998651774E+04  0.50400001928E-02 0.  1.
       -1   -1    0    0    0  501  0.00000000000E+00  0.00000000000E+00 -0.15340900305E+04  0.15340900305E+04  0.50400001928E-02 0. -1.
    10030    2    1    2    0    0  0.00000000000E+00  0.00000000000E+00  0.26577514687E+03  0.33339552078E+04  0.33233448360E+04 0.  0.
        2    1    3    3  502    0 -0.44473441286E+03 -0.14702616445E+04  0.76870696473E+03  0.17176636454E+04  0.25500000920E-02 0.  1.
       -2    1    3    3    0  502  0.44473441286E+03  0.14702616445E+04 -0.50293181786E+03  0.16162915624E+04  0.25500000920E-02 0. -1.
</event>
<event>
 5   0  0.1925906E-06  0.3413236E+04  0.7818609E-02  0.8134665E-01
        1   -1    0    0  501    0  0.00000000000E+00  0.00000000000E+00  0.19355356411E+04  0.19355356411E+04  0.50400001928E-02 0. -1.
       -1   -1    0    0    0  501  0.00000000000E+00  0.00000000000E+00 -0.15047743949E+04  0.15047743949E+04  0.50400001928E-02 0.  1.
    10030    2    1    2    0    0  0.00000000000E+00  0.00000000000E+00  0.43076124628E+03  0.34403100360E+04  0.34132356925E+04 0.  0.
        1    1    3    3  502    0 -0.35562472380E+03  0.52067439565E+03  0.18138268399E+04  0.19202964812E+04  0.50400001928E-02 0. -1.
       -1    1    3    3    0  502  0.35562472380E+03 -0.52067439565E+03 -0.13830655936E+04  0.15200135548E+04  0.50400001928E-02 0.  1.
</event>
<event>
 5   0  0.5622811E-06  0.3365877E+04  0.7818609E-02  0.8146332E-01
       -2   -1    0    0    0  501  0.00000000000E+00  0.00000000000E+00  0.12987161303E+04  0.12987161303E+04  0.25500000920E-02 0. -1.
        2   -1    0    0  501    0  0.00000000000E+00  0.00000000000E+00 -0.21808317752E+04  0.21808317752E+04  0.25500000920E-02 0.  1.
    10030    2    1    2    0    0  0.00000000000E+00  0.00000000000E+00 -0.88211564485E+03  0.34795479055E+04  0.33658766489E+04 0.  0.
        1    1    3    3  502    0  0.62243972290E+03  0.16645342629E+03  0.11661640603E+04  0.13323199943E+04  0.50400001928E-02 0. -1.
       -1    1    3    3    0  502 -0.62243972290E+03 -0.16645342629E+03 -0.20482797051E+04  0.21472279111E+04  0.50400001928E-02 0.  1.
</event>
<event>
 5   0  0.1999849E-06  0.3294637E+04  0.7818609E-02  0.8164261E-01
        1   -1    0    0  501    0  0.00000000000E+00  0.00000000000E+00  0.14674134142E+04  0.14674134143E+04  0.50400001928E-02 0.  1.
       -1   -1    0    0    0  501  0.00000000000E+00  0.00000000000E+00 -0.18492804532E+04  0.18492804533E+04  0.50400001928E-02 0. -1.
    10030    2    1    2    0    0  0.00000000000E+00  0.00000000000E+00 -0.38186703901E+03  0.33166938675E+04  0.32946374270E+04 0.  0.
        5    1    3    3  502    0  0.24540512639E+03  0.13937014799E+04  0.65792521131E+03  0.15606137142E+04  0.46999998093E+01 0.  1.
       -5    1    3    3    0  502 -0.24540512639E+03 -0.13937014799E+04 -0.10397922503E+04  0.17560801533E+04  0.46999998093E+01 0. -1.
</event>
<event>
 5   0  0.1925906E-06  0.3286708E+04  0.7818609E-02  0.8166286E-01
        1   -1    0    0  501    0  0.00000000000E+00  0.00000000000E+00  0.11685672862E+04  0.11685672862E+04  0.50400001928E-02 0.  1.
       -1   -1    0    0    0  501  0.00000000000E+00  0.00000000000E+00 -0.23110450416E+04  0.23110450416E+04  0.50400001928E-02 0. -1.
    10030    2    1    2    0    0  0.00000000000E+00  0.00000000000E+00 -0.11424777554E+04  0.34796123278E+04  0.32867075517E+04 0.  0.
        1    1    3    3  502    0 -0.62295853811E+03 -0.84120255782E+03 -0.19124448684E+04  0.21801707406E+04  0.50400001928E-02 0. -1.
       -1    1    3    3    0  502  0.62295853811E+03  0.84120255782E+03  0.76996711300E+03  0.12994415872E+04  0.50400001928E-02 0.  1.
</event>
<event>
 5   0  0.5855568E-06  0.3005509E+04  0.7818609E-02  0.8242159E-01
       -2   -1    0    0    0  501  0.00000000000E+00  0.00000000000E+00  0.15458000860E+04  0.15458000860E+04  0.25500000920E-02 0.  1.
        2   -1    0    0  501    0  0.00000000000E+00  0.00000000000E+00 -0.14609080450E+04  0.14609080450E+04  0.25500000920E-02 0. -1.
    10030    2    1    2    0    0  0.00000000000E+00  0.00000000000E+00  0.84892040997E+02  0.30067081311E+04  0.30055094621E+04 0.  0.
        3    1    3    3  502    0 -0.11119236039E+03 -0.55754411294E+03  0.14340624873E+04  0.15426452628E+04  0.10100000352E+00 0.  1.
       -3    1    3    3    0  502  0.11119236039E+03  0.55754411294E+03 -0.13491704463E+04  0.14640628683E+04  0.10100000352E+00 0. -1.
</event>
<event>
 5   0  0.2097842E-06  0.3300370E+04  0.7818609E-02  0.8162801E-01
        1   -1    0    0  501    0  0.00000000000E+00  0.00000000000E+00  0.10397868450E+04  0.10397868450E+04  0.50400001928E-02 0.  1.
       -1   -1    0    0    0  501  0.00000000000E+00  0.00000000000E+00 -0.26189128423E+04  0.26189128423E+04  0.50400001928E-02 0. -1.
    10030    2    1    2    0    0  0.00000000000E+00  0.00000000000E+00 -0.15791259973E+04  0.36586996873E+04  0.33003703559E+04 0.  0.
        4    1    3    3  502    0  0.62022372032E+03 -0.11780205648E+04 -0.18704635540E+04  0.22958757444E+04  0.12699999809E+01 0. -1.
       -4    1    3    3    0  502 -0.62022372032E+03  0.11780205648E+04  0.29133755669E+03  0.13628239428E+04  0.12699999809E+01 0.  1.
</event>
<event>
 5   0  0.1925906E-06  0.3245554E+04  0.7818609E-02  0.8176889E-01
        1   -1    0    0  501    0  0.00000000000E+00  0.00000000000E+00  0.15439448899E+04  0.15439448899E+04  0.50400001928E-02 0.  1.
       -1   -1    0    0    0  501  0.00000000000E+00  0.00000000000E+00 -0.17056338672E+04  0.17056338672E+04  0.50400001928E-02 0. -1.
    10030    2    1    2    0    0  0.00000000000E+00  0.00000000000E+00 -0.16168897732E+03  0.32495787572E+04  0.32455536929E+04 0.  0.
        1    1    3    3  502    0  0.28811680635E+03  0.53424508955E+03 -0.15876945187E+04  0.16997655704E+04  0.50400001928E-02 0. -1.
       -1    1    3    3    0  502 -0.28811680635E+03 -0.53424508955E+03  0.14260055413E+04  0.15498131867E+04  0.50400001928E-02 0.  1.
</event>
<event>
 5   0  0.2037109E-06  0.3297484E+04  0.7818609E-02  0.8163536E-01
        1   -1    0    0  501    0  0.00000000000E+00  0.00000000000E+00  0.12897129796E+04  0.12897129797E+04  0.50400001928E-02 0.  1.
       -1   -1    0    0    0  501  0.00000000000E+00  0.00000000000E+00 -0.21077170977E+04  0.21077170977E+04  0.50400001928E-02 0. -1.
    10030    2    1    2    0    0  0.00000000000E+00  0.00000000000E+00 -0.81800411808E+03  0.33974300774E+04  0.32974839490E+04 0.  0.
        2    1    3    3  502    0 -0.15820865159E+04 -0.32975942779E+03 -0.72591981375E+02  0.16177171012E+04  0.25500000920E-02 0. -1.
       -2    1    3    3    0  502  0.15820865159E+04  0.32975942779E+03 -0.74541213671E+03  0.17797129761E+04  0.25500000920E-02 0.  1.
</event>
<event>
 5   0  0.5622811E-06  0.3164116E+04  0.7818609E-02  0.8198359E-01
        2   -1    0    0  501    0  0.00000000000E+00  0.00000000000E+00  0.91391260820E+03  0.91391260821E+03  0.25500000920E-02 0.  1.
       -2   -1    0    0    0  501  0.00000000000E+00  0.00000000000E+00 -0.27386722872E+04  0.27386722872E+04  0.25500000920E-02 0. -1.
    10030    2    1    2    0    0  0.00000000000E+00  0.00000000000E+00 -0.18247596790E+04  0.36525848954E+04  0.31641157583E+04 0.  0.
        1    1    3    3  502    0 -0.14870079174E+04  0.18226374721E+03 -0.32546698748E+03  0.15330823135E+04  0.50400001928E-02 0.  1.
       -1    1    3    3    0  502  0.14870079174E+04 -0.18226374721E+03 -0.14992926916E+04  0.21195025820E+04  0.50400001928E-02 0. -1.
</event>
<event>
 5   0  0.1878000E-06  0.3247144E+04  0.7818609E-02  0.8176476E-01
        3   -1    0    0  501    0  0.00000000000E+00  0.00000000000E+00  0.24326696326E+04  0.24326696347E+04  0.10100000352E+00 0. -1.
       -3   -1    0    0    0  501  0.00000000000E+00  0.00000000000E+00 -0.10835778068E+04  0.10835778115E+04  0.10100000352E+00 0.  1.
    10030    2    1    2    0    0  0.00000000000E+00  0.00000000000E+00  0.13490918258E+04  0.35162474463E+04  0.32471444915E+04 0.  0.
        3    1    3    3  502    0  0.66255751988E+03  0.10982402962E+04  0.17524664035E+04  0.21716935145E+04  0.10100000352E+00 0.  1.
       -3    1    3    3    0  502 -0.66255751988E+03 -0.10982402962E+04 -0.40337457767E+03  0.13445539318E+04  0.10100000352E+00 0. -1.
</event>
<event>
 5   0  0.5855568E-06  0.3427255E+04  0.7818609E-02  0.8131249E-01
       -2   -1    0    0    0  501  0.00000000000E+00  0.00000000000E+00  0.10287135277E+04  0.10287135277E+04  0.25500000920E-02 0. -1.
        2   -1    0    0  501    0  0.00000000000E+00  0.00000000000E+00 -0.28545543521E+04  0.28545543521E+04  0.25500000920E-02 0.  1.
    10030    2    1    2    0    0  0.00000000000E+00  0.00000000000E+00 -0.18258408244E+04  0.38832678798E+04  0.34272546901E+04 0.  0.
        3    1    3    3  502    0  0.14251268930E+04  0.89083262541E+02  0.16055343588E+03  0.14369063660E+04  0.10100000352E+00 0. -1.
       -3    1    3    3    0  502 -0.14251268930E+04 -0.89083262541E+02 -0.19863942603E+04  0.24463615138E+04  0.10100000352E+00 0.  1.
</event>
<event>
 5   0  0.5637538E-06  0.3176512E+04  0.7818609E-02  0.8195048E-01
        2   -1    0    0  501    0  0.00000000000E+00  0.00000000000E+00  0.15296947615E+04  0.15296947615E+04  0.25500000920E-02 0.  1.
       -2   -1    0    0    0  501  0.00000000000E+00  0.00000000000E+00 -0.16490588061E+04  0.16490588061E+04  0.25500000920E-02 0. -1.
    10030    2    1    2    0    0  0.00000000000E+00  0.00000000000E+00 -0.11936404458E+03  0.31787535676E+04  0.31765116824E+04 0.  0.
        2    1    3    3  502    0  0.43583797891E+03  0.68184953990E+03  0.13079145250E+04  0.15380227383E+04  0.25500000920E-02 0.  1.
       -2    1    3    3    0  502 -0.43583797891E+03 -0.68184953990E+03 -0.14272785696E+04  0.16407308293E+04  0.25500000920E-02 0. -1.
</event>
<event>
 5   0  0.5300268E-06  0.3391079E+04  0.7818609E-02  0.8140099E-01
       -2   -1    0    0    0  501  0.00000000000E+00  0.00000000000E+00  0.90933005482E+03  0.90933005483E+03  0.25500000920E-02 0.  1.
        2   -1    0    0  501    0  0.00000000000E+00  0.00000000000E+00 -0.31615084579E+04  0.31615084579E+04  0.25500000920E-02 0. -1.
    10030    2    1    2    0    0  0.00000000000E+00  0.00000000000E+00 -0.22521784031E+04  0.40708385127E+04  0.33910792732E+04 0.  0.
        4    1    3    3  502    0 -0.90758121967E+03 -0.12888891944E+04 -0.18756905484E+04  0.24501338069E+04  0.12699999809E+01 0. -1.
       -4    1    3    3    0  502  0.90758121967E+03  0.12888891944E+04 -0.37648785468E+03  0.16207047058E+04  0.12699999809E+01 0.  1.
</event>
<event>
 5   0  0.5855568E-06  0.1648322E+04  0.7818609E-02  0.8791400E-01
       -2   -1    0    0    0  501  0.00000000000E+00  0.00000000000E+00  0.48303784783E+03  0.48303784784E+03  0.25500000920E-02 0.  1.
        2   -1    0    0  501    0  0.00000000000E+00  0.00000000000E+00 -0.14061872951E+04  0.14061872951E+04  0.25500000920E-02 0. -1.
    10030    2    1    2    0    0  0.00000000000E+00  0.00000000000E+00 -0.92314944729E+03  0.18892251430E+04  0.16483224013E+04 0.  0.
        3    1    3    3  502    0 -0.48708036398E+03  0.54464457197E+03 -0.24597240463E+02  0.73108824720E+03  0.10100000352E+00 0. -1.
       -3    1    3    3    0  502  0.48708036398E+03 -0.54464457197E+03 -0.89855220683E+03  0.11581368958E+04  0.10100000352E+00 0.  1.
</event>
<event>
 5   0  0.1925906E-06  0.3285021E+04  0.7818609E-02  0.8166717E-01
        1   -1    0    0  501    0  0.00000000000E+00  0.00000000000E+00  0.21912295231E+04  0.21912295231E+04  0.50400001928E-02 0.  1.
       -1   -1    0    0    0  501  0.00000000000E+00  0.00000000000E+00 -0.12311994400E+04  0.12311994400E+04  0.50400001928E-02 0. -1.
    10030    2    1    2    0    0  0.00000000000E+00  0.00000000000E+00  0.96003008312E+03  0.34224289631E+04  0.32850208899E+04 0.  0.
        1    1    3    3  502    0  0.97502504624E+03 -0.44799728444E+03 -0.81557134574E+03  0.13477878274E+04  0.50400001928E-02 0. -1.
       -1    1    3    3    0  502 -0.97502504624E+03  0.44799728444E+03  0.17756014289E+04  0.20746411357E+04  0.50400001928E-02 0.  1.
</event>
<event>
 5   0  0.1878000E-06  0.3129528E+04  0.7818609E-02  0.8207681E-01
        3   -1    0    0  501    0  0.00000000000E+00  0.00000000000E+00  0.15116773730E+04  0.15116773764E+04  0.10100000352E+00 0. -1.
       -3   -1    0    0    0  501  0.00000000000E+00  0.00000000000E+00 -0.16197145320E+04  0.16197145351E+04  0.10100000352E+00 0.  1.
    10030    2    1    2    0    0  0.00000000000E+00  0.00000000000E+00 -0.10803715902E+03  0.31313919115E+04  0.31295276442E+04 0.  0.
        1    1    3    3  502    0  0.13209560536E+04 -0.70672883679E+03 -0.50605674948E+03  0.15812918700E+04  0.50400001928E-02 0.  1.
       -1    1    3    3    0  502 -0.13209560536E+04  0.70672883679E+03  0.39801959046E+03  0.15501000415E+04  0.50400001928E-02 0. -1.
</event>
<event>
 5   0  0.5300268E-06  0.2618598E+04  0.7818609E-02  0.8361911E-01
       -2   -1    0    0    0  501  0.00000000000E+00  0.00000000000E+00  0.16162328301E+04  0.16162328301E+04  0.25500000920E-02 0. -1.
        2   -1    0    0  501    0  0.00000000000E+00  0.00000000000E+00 -0.10606538525E+04  0.10606538525E+04  0.25500000920E-02 0.  1.
    10030    2    1    2    0    0  0.00000000000E+00  0.00000000000E+00  0.55557897757E+03  0.26768866825E+04  0.26185977757E+04 0.  0.
        4    1    3    3  502    0  0.10294914044E+04 -0.27815775209E+03  0.10543284998E+04  0.14996114447E+04  0.12699999809E+01 0. -1.
       -4    1    3    3    0  502 -0.10294914044E+04  0.27815775209E+03 -0.49874952227E+03  0.11772752378E+04  0.12699999809E+01 0.  1.
</event>
<event>
 5   0  0.5637538E-06  0.3296209E+04  0.7818609E-02  0.8163861E-01
        2   -1    0    0  501    0  0.00000000000E+00  0.00000000000E+00  0.27801325925E+04  0.27801325926E+04  0.25500000920E-02 0.  1.
       -2   -1    0    0    0  501  0.00000000000E+00  0.00000000000E+00 -0.97702109670E+03  0.97702109670E+03  0.25500000920E-02 0. -1.
    10030    2    1    2    0    0  0.00000000000E+00  0.00000000000E+00  0.18031114959E+04  0.37571536893E+04  0.32962088493E+04 0.  0.
        2    1    3    3  502    0  0.21610081641E+03 -0.97146107742E+03 -0.59585512625E+03  0.11599480675E+04  0.25500000920E-02 0. -1.
       -2    1    3    3    0  502 -0.21610081641E+03  0.97146107742E+03  0.23989666221E+04  0.25972056218E+04  0.25500000920E-02 0.  1.
</event>
<event>
 5   0  0.2037109E-06  0.2865162E+04  0.7818609E-02  0.8283319E-01
       -1   -1    0    0    0  501  0.00000000000E+00  0.00000000000E+00  0.12636420960E+04  0.12636420960E+04  0.50400001928E-02 0. -1.
        1   -1    0    0  501    0  0.00000000000E+00  0.00000000000E+00 -0.16241062419E+04  0.16241062419E+04  0.50400001928E-02 0.  1.
    10030    2    1    2    0    0  0.00000000000E+00  0.00000000000E+00 -0.36046414584E+03  0.28877483379E+04  0.28651624845E+04 0.  0.
        2    1    3    3  502    0  0.28709208503E+03  0.64650404735E+03 -0.14358048952E+04  0.16006014637E+04  0.25500000920E-02 0.  1.
       -2    1    3    3    0  502 -0.28709208503E+03 -0.64650404735E+03  0.10753407494E+04  0.12871468742E+04  0.25500000920E-02 0. -1.
</event>
<event>
 5   0  0.2037109E-06  0.3089568E+04  0.7818609E-02  0.8218607E-01
       -1   -1    0    0    0  501  0.00000000000E+00  0.00000000000E+00  0.11995667265E+04  0.11995667265E+04  0.50400001928E-02 0.  1.
        1   -1    0    0  501    0  0.00000000000E+00  0.00000000000E+00 -0.19893501895E+04  0.19893501895E+04  0.50400001928E-02 0. -1.
    10030    2    1    2    0    0  0.00000000000E+00  0.00000000000E+00 -0.78978346293E+03  0.31889169160E+04  0.30895684454E+04 0.  0.
        2    1    3    3  502    0 -0.10635137846E+04  0.46784957225E+03  0.65588855044E+03  0.13342168425E+04  0.25500000920E-02 0.  1.
       -2    1    3    3    0  502  0.10635137846E+04 -0.46784957225E+03 -0.14456720134E+04  0.18547000735E+04  0.25500000920E-02 0. -1.
</event>
<event>
 5   0  0.5622811E-06  0.3248630E+04  0.7818609E-02  0.8176091E-01
       -2   -1    0    0    0  501  0.00000000000E+00  0.00000000000E+00  0.12711655382E+04  0.12711655382E+04  0.25500000920E-02 0. -1.
        2   -1    0    0  501    0  0.00000000000E+00  0.00000000000E+00 -0.20755745473E+04  0.20755745473E+04  0.25500000920E-02 0.  1.
    10030    2    1    2    0    0  0.00000000000E+00  0.00000000000E+00 -0.80440900908E+03  0.33467400855E+04  0.32486297643E+04 0.  0.
        1    1    3    3  502    0 -0.12714235826E+04 -0.68110959333E+03  0.36732882944E+03  0.14884081004E+04  0.50400001928E-02 0. -1.
       -1    1    3    3    0  502  0.12714235826E+04  0.68110959333E+03 -0.11717378385E+04  0.18583319851E+04  0.50400001928E-02 0.  1.
</event>
<event>
 5   0  0.1925906E-06  0.3318991E+04  0.7818609E-02  0.8158080E-01
       -1   -1    0    0    0  501  0.00000000000E+00  0.00000000000E+00  0.16120053354E+04  0.16120053354E+04  0.50400001928E-02 0.  1.
        1   -1    0    0  501    0  0.00000000000E+00  0.00000000000E+00 -0.17083850104E+04  0.17083850105E+04  0.50400001928E-02 0. -1.
    10030    2    1    2    0    0  0.00000000000E+00  0.00000000000E+00 -0.96379675009E+02  0.33203903459E+04  0.33189912635E+04 0.  0.
        1    1    3    3  502    0  0.19361891551E+03  0.83217014098E+03  0.13750589153E+04  0.16188830867E+04  0.50400001928E-02 0.  1.
       -1    1    3    3    0  502 -0.19361891551E+03 -0.83217014098E+03 -0.14714385903E+04  0.17015072592E+04  0.50400001928E-02 0. -1.
</event>
<event>
 5   0  0.1999849E-06  0.3399179E+04  0.7818609E-02  0.8138108E-01
        1   -1    0    0  501    0  0.00000000000E+00  0.00000000000E+00  0.22218905369E+04  0.22218905369E+04  0.50400001928E-02 0.  1.
       -1   -1    0    0    0  501  0.00000000000E+00  0.00000000000E+00 -0.13000658622E+04  0.13000658622E+04  0.50400001928E-02 0. -1.
    10030    2    1    2    0    0  0.00000000000E+00  0.00000000000E+00  0.92182467475E+03  0.35219563991E+04  0.33991787459E+04 0.  0.
        5    1    3    3  502    0 -0.10656532126E+04 -0.11490369520E+03  0.18275548700E+04  0.21186784847E+04  0.46999998093E+01 0.  1.
       -5    1    3    3    0  502  0.10656532126E+04  0.11490369520E+03 -0.90573019522E+03  0.14032779145E+04  0.46999998093E+01 0. -1.
</event>
<event>
 5   0  0.3070046E-06  0.1646927E+04  0.7818609E-02  0.8792226E-01
        1   -1    0    0  501    0  0.00000000000E+00  0.00000000000E+00  0.93763243261E+03  0.93763243263E+03  0.50400001928E-02 0. -1.
       -1   -1    0    0    0  501  0.00000000000E+00  0.00000000000E+00 -0.72319620008E+03  0.72319620010E+03  0.50400001928E-02 0.  1.
    10030    2    1    2    0    0  0.00000000000E+00  0.00000000000E+00  0.21443623253E+03  0.16608286327E+04  0.16469270929E+04 0.  0.
        1    1    3    3  502    0 -0.63878723465E+03  0.36024015810E+03 -0.27046973695E+03  0.78164952587E+03  0.50400001928E-02 0.  1.
       -1    1    3    3    0  502  0.63878723465E+03 -0.36024015810E+03  0.48490596949E+03  0.87917910685E+03  0.50400001928E-02 0. -1.
</event>
<event>
 5   0  0.2730981E-06  0.2912332E+04  0.7818609E-02  0.8269218E-01
       -1   -1    0    0    0  501  0.00000000000E+00  0.00000000000E+00  0.11017696983E+04  0.11017696983E+04  0.50400001928E-02 0. -1.
        1   -1    0    0  501    0  0.00000000000E+00  0.00000000000E+00 -0.19245577086E+04  0.19245577086E+04  0.50400001928E-02 0.  1.
    10030    2    1    2    0    0  0.00000000000E+00  0.00000000000E+00 -0.82278801024E+03  0.30263274069E+04  0.29123319632E+04 0.  0.
        3    1    3    3  502    0  0.38413601389E+03 -0.13985681625E+04 -0.27644156511E+03  0.14764732749E+04  0.10100000352E+00 0. -1.
       -3    1    3    3    0  502 -0.38413601389E+03  0.13985681625E+04 -0.54634644513E+03  0.15498541320E+04  0.10100000352E+00 0.  1.
</event>
<event>
 5   0  0.5622811E-06  0.3327943E+04  0.7818609E-02  0.8155821E-01
        2   -1    0    0  501    0  0.00000000000E+00  0.00000000000E+00  0.25324129511E+04  0.25324129511E+04  0.25500000920E-02 0. -1.
       -2   -1    0    0    0  501  0.00000000000E+00  0.00000000000E+00 -0.10933453729E+04  0.10933453729E+04  0.25500000920E-02 0.  1.
    10030    2    1    2    0    0  0.00000000000E+00  0.00000000000E+00  0.14390675782E+04  0.36257583239E+04  0.33279434984E+04 0.  0.
        1    1    3    3  502    0  0.35143078606E+03 -0.16211473383E+04  0.86233457529E+03  0.18695569555E+04  0.50400001928E-02 0.  1.
       -1    1    3    3    0  502 -0.35143078606E+03  0.16211473383E+04  0.57673300292E+03  0.17562013685E+04  0.50400001928E-02 0. -1.
</event>
<event>
 5   0  0.5622811E-06  0.3279207E+04  0.7818609E-02  0.8168206E-01
       -2   -1    0    0    0  501  0.00000000000E+00  0.00000000000E+00  0.20535699406E+04  0.20535699406E+04  0.25500000920E-02 0.  1.
        2   -1    0    0  501    0  0.00000000000E+00  0.00000000000E+00 -0.13090856873E+04  0.13090856873E+04  0.25500000920E-02 0. -1.
    10030    2    1    2    0    0  0.00000000000E+00  0.00000000000E+00  0.74448425328E+03  0.33626556279E+04  0.32792066218E+04 0.  0.
        1    1    3    3  502    0 -0.70885415864E+03  0.82522860407E+03  0.16301714939E+04  0.19598304944E+04  0.50400001928E-02 0.  1.
       -1    1    3    3    0  502  0.70885415864E+03 -0.82522860407E+03 -0.88568724058E+03  0.14028251336E+04  0.50400001928E-02 0. -1.
</event>
<event>
 5   0  0.1878000E-06  0.1641651E+04  0.7818609E-02  0.8795361E-01
       -3   -1    0    0    0  501  0.00000000000E+00  0.00000000000E+00  0.15622065435E+04  0.15622065467E+04  0.10100000352E+00 0.  1.
        3   -1    0    0  501    0  0.00000000000E+00  0.00000000000E+00 -0.43128387250E+03  0.43128388433E+03  0.10100000352E+00 0. -1.
    10030    2    1    2    0    0  0.00000000000E+00  0.00000000000E+00  0.11309226710E+04  0.19934904311E+04  0.16416510016E+04 0.  0.
        5    1    3    3  502    0  0.69912877745E+03  0.42928342719E+03  0.59682524815E+03  0.10145382078E+04  0.46999998093E+01 0.  1.
       -5    1    3    3    0  502 -0.69912877745E+03 -0.42928342719E+03  0.53409742282E+03  0.97895222324E+03  0.46999998093E+01 0. -1.
</event>
<event>
 5   0  0.5300268E-06  0.1935673E+04  0.7818609E-02  0.8637301E-01
        2   -1    0    0  501    0  0.00000000000E+00  0.00000000000E+00  0.11573683430E+04  0.11573683430E+04  0.25500000920E-02 0.  1.
       -2   -1    0    0    0  501  0.00000000000E+00  0.00000000000E+00 -0.80934237920E+03  0.80934237921E+03  0.25500000920E-02 0. -1.
    10030    2    1    2    0    0  0.00000000000E+00  0.00000000000E+00  0.34802596380E+03  0.19667107222E+04  0.19356727496E+04 0.  0.
        4    1    3    3  502    0 -0.51701827704E+03 -0.69195624897E+03  0.61758433212E+03  0.10618490333E+04  0.12699999809E+01 0.  1.
       -4    1    3    3    0  502  0.51701827704E+03  0.69195624897E+03 -0.26955836832E+03  0.90486168894E+03  0.12699999809E+01 0. -1.
</event>
<event>
 5   0  0.2037109E-06  0.3297462E+04  0.7818609E-02  0.8163542E-01
        1   -1    0    0  501    0  0.00000000000E+00  0.00000000000E+00  0.16127939277E+04  0.16127939277E+04  0.50400001928E-02 0.  1.
       -1   -1    0    0    0  501  0.00000000000E+00  0.00000000000E+00 -0.16854686907E+04  0.16854686907E+04  0.50400001928E-02 0. -1.
    10030    2    1    2    0    0  0.00000000000E+00  0.00000000000E+00 -0.72674762986E+02  0.32982626184E+04  0.32974618541E+04 0.  0.
        2    1    3    3  502    0  0.12464878991E+03 -0.35338711339E+03 -0.16423093907E+04  0.16845177076E+04  0.25500000920E-02 0. -1.
       -2    1    3    3    0  502 -0.12464878991E+03  0.35338711339E+03  0.15696346277E+04  0.16137449108E+04  0.25500000920E-02 0.  1.
</event>
<event>
 5   0  0.5755250E-06  0.1853390E+04  0.7818609E-02  0.8678411E-01
       -2   -1    0    0    0  501  0.00000000000E+00  0.00000000000E+00  0.11495216604E+04  0.11495216604E+04  0.25500000920E-02 0.  1.
        2   -1    0    0  501    0  0.00000000000E+00  0.00000000000E+00 -0.74706180224E+03  0.74706180225E+03  0.25500000920E-02 0. -1.
    10030    2    1    2    0    0  0.00000000000E+00  0.00000000000E+00  0.40245985820E+03  0.18965834627E+04  0.18533901083E+04 0.  0.
        5    1    3    3  502    0 -0.81237275418E+03  0.18527556865E+03  0.61622410547E+03  0.10363545562E+04  0.46999998093E+01 0.  1.
       -5    1    3    3    0  502  0.81237275418E+03 -0.18527556865E+03 -0.21376424727E+03  0.86022890645E+03  0.46999998093E+01 0. -1.
</event>
<event>
 5   0  0.5755250E-06  0.2821610E+04  0.7818609E-02  0.8296591E-01
        2   -1    0    0  501    0  0.00000000000E+00  0.00000000000E+00  0.21712961629E+04  0.21712961629E+04  0.25500000920E-02 0. -1.
       -2   -1    0    0    0  501  0.00000000000E+00  0.00000000000E+00 -0.91667402234E+03  0.91667402235E+03  0.25500000920E-02 0.  1.
    10030    2    1    2    0    0  0.00000000000E+00  0.00000000000E+00  0.12546221405E+04  0.30879701852E+04  0.28216100279E+04 0.  0.
        5    1    3    3  502    0 -0.10433402008E+04  0.94949821009E+03  0.64437359845E+03  0.15509174865E+04  0.46999998093E+01 0. -1.
       -5    1    3    3    0  502  0.10433402008E+04 -0.94949821009E+03  0.61024854209E+03  0.15370526987E+04  0.46999998093E+01 0.  1.
</event>
<event>
 5   0  0.5855568E-06  0.3161832E+04  0.7818609E-02  0.8198971E-01
        2   -1    0    0  501    0  0.00000000000E+00  0.00000000000E+00  0.17526535477E+04  0.17526535477E+04  0.25500000920E-02 0.  1.
       -2   -1    0    0    0  501  0.00000000000E+00  0.00000000000E+00 -0.14260065313E+04  0.14260065313E+04  0.25500000920E-02 0. -1.
    10030    2    1    2    0    0  0.00000000000E+00  0.00000000000E+00  0.32664701639E+03  0.31786600791E+04  0.31618320046E+04 0.  0.
        3    1    3    3  502    0  0.66829449184E+03 -0.11566662529E+04  0.10132823316E+04  0.16766739224E+04  0.10100000352E+00 0.  1.
       -3    1    3    3    0  502 -0.66829449184E+03  0.11566662529E+04 -0.68663531526E+03  0.15019861566E+04  0.10100000352E+00 0. -1.
</event>
<event>
 5   0  0.5755250E-06  0.3323683E+04  0.7818609E-02  0.8156895E-01
        2   -1    0    0  501    0  0.00000000000E+00  0.00000000000E+00  0.12356321897E+04  0.12356321897E+04  0.25500000920E-02 0. -1.
       -2   -1    0    0    0  501  0.00000000000E+00  0.00000000000E+00 -0.22350646162E+04  0.22350646162E+04  0.25500000920E-02 0.  1.
    10030    2    1    2    0    0  0.00000000000E+00  0.00000000000E+00 -0.99943242652E+03  0.34706968059E+04  0.33236833699E+04 0.  0.
        5    1    3    3  502    0  0.70253158211E+03  0.12654945177E+04  0.35289701034E+03  0.14898273014E+04  0.46999998093E+01 0. -1.
       -5    1    3    3    0  502 -0.70253158211E+03 -0.12654945177E+04 -0.13523294369E+04  0.19808695045E+04  0.46999998093E+01 0.  1.
</event>
<event>
 5   0  0.5637538E-06  0.3241656E+04  0.7818609E-02  0.8177902E-01
       -2   -1    0    0    0  501  0.00000000000E+00  0.00000000000E+00  0.31602923009E+04  0.31602923009E+04  0.25500000920E-02 0. -1.
        2   -1    0    0  501    0  0.00000000000E+00  0.00000000000E+00 -0.83127857374E+03  0.83127857374E+03  0.25500000920E-02 0.  1.
    10030    2    1    2    0    0  0.00000000000E+00  0.00000000000E+00  0.23290137271E+04  0.39915708746E+04  0.32416559203E+04 0.  0.
        2    1    3    3  502    0  0.12514795521E+04 -0.26745222301E+03 -0.60256653265E+02  0.12811567528E+04  0.25500000920E-02 0.  1.
       -2    1    3    3    0  502 -0.12514795521E+04  0.26745222301E+03  0.23892703804E+04  0.27104141218E+04  0.25500000920E-02 0. -1.
</event>
<event>
 5   0  0.5755250E-06  0.3332298E+04  0.7818609E-02  0.8154725E-01
        2   -1    0    0  501    0  0.00000000000E+00  0.00000000000E+00  0.16176400793E+04  0.16176400793E+04  0.25500000920E-02 0. -1.
       -2   -1    0    0    0  501  0.00000000000E+00  0.00000000000E+00 -0.17161128627E+04  0.17161128627E+04  0.25500000920E-02 0.  1.
    10030    2    1    2    0    0  0.00000000000E+00  0.00000000000E+00 -0.98472783484E+02  0.33337529420E+04  0.33322982744E+04 0.  0.
        5    1    3    3  502    0  0.45482425350E+03  0.36973716268E+03  0.15110790770E+04  0.16207876906E+04  0.46999998093E+01 0. -1.
       -5    1    3    3    0  502 -0.45482425350E+03 -0.36973716268E+03 -0.16095518605E+04  0.17129652514E+04  0.46999998093E+01 0.  1.
</event>
<event>
 5   0  0.5637538E-06  0.2072186E+04  0.7818609E-02  0.8573596E-01
        2   -1    0    0  501    0  0.00000000000E+00  0.00000000000E+00  0.17708153813E+04  0.17708153813E+04  0.25500000920E-02 0.  1.
       -2   -1    0    0    0  501  0.00000000000E+00  0.00000000000E+00 -0.60621164090E+03  0.60621164091E+03  0.25500000920E-02 0. -1.
    10030    2    1    2    0    0  0.00000000000E+00  0.00000000000E+00  0.11646037404E+04  0.23770270222E+04  0.20721861867E+04 0.  0.
        2    1    3    3  502    0 -0.63069081663E+03 -0.61920698068E+03  0.12024854698E+04  0.14923670782E+04  0.25500000920E-02 0.  1.
       -2    1    3    3    0  502  0.63069081663E+03  0.61920698068E+03 -0.37881729376E+02  0.88465994401E+03  0.25500000920E-02 0. -1.
</event>
<event>
 5   0  0.5300268E-06  0.3312511E+04  0.7818609E-02  0.8159719E-01
        2   -1    0    0  501    0  0.00000000000E+00  0.00000000000E+00  0.21519148109E+04  0.21519148109E+04  0.25500000920E-02 0.  1.
       -2   -1    0    0    0  501  0.00000000000E+00  0.00000000000E+00 -0.12747635323E+04  0.12747635323E+04  0.25500000920E-02 0. -1.
    10030    2    1    2    0    0  0.00000000000E+00  0.00000000000E+00  0.87715127859E+03  0.34266783431E+04  0.33125111474E+04 0.  0.
        4    1    3    3  502    0  0.79946262201E+03 -0.10429628895E+04  0.14814219190E+04  0.19802839665E+04  0.12699999809E+01 0.  1.
       -4    1    3    3    0  502 -0.79946262201E+03  0.10429628895E+04 -0.60427064046E+03  0.14463943766E+04  0.12699999809E+01 0. -1.
</event>
<event>
 5   0  0.5622811E-06  0.3306479E+04  0.7818609E-02  0.8161249E-01
       -2   -1    0    0    0  501  0.00000000000E+00  0.00000000000E+00  0.18698139525E+04  0.18698139525E+04  0.25500000920E-02 0. -1.
        2   -1    0    0  501    0  0.00000000000E+00  0.00000000000E+00 -0.14617503178E+04  0.14617503178E+04  0.25500000920E-02 0.  1.
    10030    2    1    2    0    0  0.00000000000E+00  0.00000000000E+00  0.40806363477E+03  0.33315642703E+04  0.33064791784E+04 0.  0.
        1    1    3    3  502    0  0.64188385345E+03 -0.13179622737E+03  0.17333797482E+04  0.18531029325E+04  0.50400001928E-02 0. -1.
       -1    1    3    3    0  502 -0.64188385345E+03  0.13179622737E+03 -0.13253161134E+04  0.14784613378E+04  0.50400001928E-02 0.  1.
</event>
<event>
 5   0  0.1925906E-06  0.3273336E+04  0.7818609E-02  0.8169713E-01
        1   -1    0    0  501    0  0.00000000000E+00  0.00000000000E+00  0.99342300614E+03  0.99342300616E+03  0.50400001928E-02 0. -1.
       -1   -1    0    0    0  501  0.00000000000E+00  0.00000000000E+00 -0.26964163428E+04  0.26964163428E+04  0.50400001928E-02 0.  1.
    10030    2    1    2    0    0  0.00000000000E+00  0.00000000000E+00 -0.17029933367E+04  0.36898393490E+04  0.32733359309E+04 0.  0.
        1    1    3    3  502    0 -0.13582794977E+04  0.27348324184E+03 -0.18335339367E+04  0.22981651321E+04  0.50400001928E-02 0.  1.
       -1    1    3    3    0  502  0.13582794977E+04 -0.27348324184E+03  0.13054060001E+03  0.13916742168E+04  0.50400001928E-02 0. -1.
</event>
<event>
 5   0  0.1999849E-06  0.3363272E+04  0.7818609E-02  0.8146980E-01
       -1   -1    0    0    0  501  0.00000000000E+00  0.00000000000E+00  0.17105541429E+04  0.17105541429E+04  0.50400001928E-02 0.  1.
        1   -1    0    0  501    0  0.00000000000E+00  0.00000000000E+00 -0.16532063487E+04  0.16532063487E+04  0.50400001928E-02 0. -1.
    10030    2    1    2    0    0  0.00000000000E+00  0.00000000000E+00  0.57347794138E+02  0.33637604916E+04  0.33632716030E+04 0.  0.
        5    1    3    3  502    0  0.98160433581E+03 -0.88783897698E+03 -0.10088156780E+04  0.16641923817E+04  0.46999998093E+01 0. -1.
       -5    1    3    3    0  502 -0.98160433581E+03  0.88783897698E+03  0.10661634721E+04  0.16995681100E+04  0.46999998093E+01 0.  1.
</event>
<event>
 5   0  0.2037109E-06  0.3254053E+04  0.7818609E-02  0.8174686E-01
       -1   -1    0    0    0  501  0.00000000000E+00  0.00000000000E+00  0.14853935225E+04  0.14853935225E+04  0.50400001928E-02 0. -1.
        1   -1    0    0  501    0  0.00000000000E+00  0.00000000000E+00 -0.17821639812E+04  0.17821639812E+04  0.50400001928E-02 0.  1.
    10030    2    1    2    0    0  0.00000000000E+00  0.00000000000E+00 -0.29677045875E+03  0.32675575037E+04  0.32540527554E+04 0.  0.
        2    1    3    3  502    0  0.26581842270E+03 -0.12840166158E+04 -0.11156360588E+04  0.17216276947E+04  0.25500000920E-02 0.  1.
       -2    1    3    3    0  502 -0.26581842270E+03  0.12840166158E+04  0.81886560009E+03  0.15459298090E+04  0.25500000920E-02 0. -1.
</event>
<event>
 5   0  0.1999849E-06  0.2294945E+04  0.7818609E-02  0.8479917E-01
        1   -1    0    0  501    0  0.00000000000E+00  0.00000000000E+00  0.10891342362E+04  0.10891342362E+04  0.50400001928E-02 0. -1.
       -1   -1    0    0    0  501  0.00000000000E+00  0.00000000000E+00 -0.12089353764E+04  0.12089353764E+04  0.50400001928E-02 0.  1.
    10030    2    1    2    0    0  0.00000000000E+00  0.00000000000E+00 -0.11980114021E+03  0.22980696126E+04  0.22949447991E+04 0.  0.
        5    1    3    3  502    0  0.16675094376E+03 -0.27045538247E+03  0.10441971355E+04  0.10914768614E+04  0.46999998093E+01 0. -1.
       -5    1    3    3    0  502 -0.16675094376E+03  0.27045538247E+03 -0.11639982758E+04  0.12065927511E+04  0.46999998093E+01 0.  1.
</event>
<event>
 5   0  0.5622811E-06  0.2507145E+04  0.7818609E-02  0.8400444E-01
        2   -1    0    0  501    0  0.00000000000E+00  0.00000000000E+00  0.14392461325E+04  0.14392461325E+04  0.25500000920E-02 0.  1.
       -2   -1    0    0    0  501  0.00000000000E+00  0.00000000000E+00 -0.10918525734E+04  0.10918525734E+04  0.25500000920E-02 0. -1.
    10030    2    1    2    0    0  0.00000000000E+00  0.00000000000E+00  0.34739355908E+03  0.25310987059E+04  0.25071454633E+04 0.  0.
        1    1    3    3  502    0  0.94374579353E+03 -0.19598296529E+03  0.98283975293E+03  0.13766043097E+04  0.50400001928E-02 0.  1.
       -1    1    3    3    0  502 -0.94374579353E+03  0.19598296529E+03 -0.63544619385E+03  0.11544943962E+04  0.50400001928E-02 0. -1.
</event>
<event>
 5   0  0.5300268E-06  0.3033335E+04  0.7818609E-02  0.8234276E-01
       -2   -1    0    0    0  501  0.00000000000E+00  0.00000000000E+00  0.90253224644E+03  0.90253224644E+03  0.25500000920E-02 0.  1.
        2   -1    0    0  501    0  0.00000000000E+00  0.00000000000E+00 -0.25486952670E+04  0.25486952670E+04  0.25500000920E-02 0. -1.
    10030    2    1    2    0    0  0.00000000000E+00  0.00000000000E+00 -0.16461630205E+04  0.34512275134E+04  0.30333345775E+04 0.  0.
        4    1    3    3  502    0 -0.12019601328E+03 -0.96979992191E+03  0.49659025623E+03  0.10961580477E+04  0.12699999809E+01 0.  1.
       -4    1    3    3    0  502  0.12019601328E+03  0.96979992191E+03 -0.21427532768E+04  0.23550694657E+04  0.12699999809E+01 0. -1.
</event>
<event>
 5   0  0.2097842E-06  0.3358221E+04  0.7818609E-02  0.8148237E-01
        1   -1    0    0  501    0  0.00000000000E+00  0.00000000000E+00  0.17478823898E+04  0.17478823898E+04  0.50400001928E-02 0. -1.
       -1   -1    0    0    0  501  0.00000000000E+00  0.00000000000E+00 -0.16130446696E+04  0.16130446697E+04  0.50400001928E-02 0.  1.
    10030    2    1    2    0    0  0.00000000000E+00  0.00000000000E+00  0.13483772016E+03  0.33609270595E+04  0.33582211792E+04 0.  0.
        4    1    3    3  502    0  0.15701990887E+04  0.36283655919E+03 -0.40437928283E+03  0.16615353635E+04  0.12699999809E+01 0.  1.
       -4    1    3    3    0  502 -0.15701990887E+04 -0.36283655919E+03  0.53921700300E+03  0.16993916959E+04  0.12699999809E+01 0. -1.
</event>
<event>
 5   0  0.2037109E-06  0.3273405E+04  0.7818609E-02  0.8169696E-01
       -1   -1    0    0    0  501  0.00000000000E+00  0.00000000000E+00  0.15843793060E+04  0.15843793060E+04  0.50400001928E-02 0.  1.
        1   -1    0    0  501    0  0.00000000000E+00  0.00000000000E+00 -0.16907533996E+04  0.16907533997E+04  0.50400001928E-02 0. -1.
    10030    2    1    2    0    0  0.00000000000E+00  0.00000000000E+00 -0.10637409368E+03  0.32751327056E+04  0.32734047705E+04 0.  0.
        2    1    3    3  502    0 -0.50513091012E+03  0.78966429663E+03 -0.13955613123E+04  0.16811657604E+04  0.25500000920E-02 0. -1.
       -2    1    3    3    0  502  0.50513091012E+03 -0.78966429663E+03  0.12891872186E+04  0.15939669452E+04  0.25500000920E-02 0.  1.
</event>
<event>
 5   0  0.2037109E-06  0.3222174E+04  0.7818609E-02  0.8182986E-01
       -1   -1    0    0    0  501  0.00000000000E+00  0.00000000000E+00  0.19320106636E+04  0.19320106636E+04  0.50400001928E-02 0.  1.
        1   -1    0    0  501    0  0.00000000000E+00  0.00000000000E+00 -0.13434711815E+04  0.13434711815E+04  0.50400001928E-02 0. -1.
    10030    2    1    2    0    0  0.00000000000E+00  0.00000000000E+00  0.58853948210E+03  0.32754818451E+04  0.32221735825E+04 0.  0.
        2    1    3    3  502    0 -0.14126092560E+04  0.26991524687E+03 -0.44388519843E+03  0.15051090393E+04  0.25500000920E-02 0. -1.
       -2    1    3    3    0  502  0.14126092560E+04 -0.26991524687E+03  0.10324246805E+04  0.17703728058E+04  0.25500000920E-02 0.  1.
</event>
<event>
 5   0  0.5637538E-06  0.3037555E+04  0.7818609E-02  0.8233087E-01
       -2   -1    0    0    0  501  0.00000000000E+00  0.00000000000E+00  0.14655009011E+04  0.14655009011E+04  0.25500000920E-02 0. -1.
        2   -1    0    0  501    0  0.00000000000E+00  0.00000000000E+00 -0.15739911935E+04  0.15739911935E+04  0.25500000920E-02 0.  1.
    10030    2    1    2    0    0  0.00000000000E+00  0.00000000000E+00 -0.10849029238E+03  0.30394920946E+04  0.30375552752E+04 0.  0.
        2    1    3    3  502    0 -0.10371857458E+04  0.90248481926E+03 -0.69998785180E+03  0.15427949031E+04  0.25500000920E-02 0.  1.
       -2    1    3    3    0  502  0.10371857458E+04 -0.90248481926E+03  0.59149755942E+03  0.14966971915E+04  0.25500000920E-02 0. -1.
</event>
<event>
 5   0  0.1925906E-06  0.2158437E+04  0.7818609E-02  0.8535930E-01
        1   -1    0    0  501    0  0.00000000000E+00  0.00000000000E+00  0.20802846448E+04  0.20802846448E+04  0.50400001928E-02 0.  1.
       -1   -1    0    0    0  501  0.00000000000E+00  0.00000000000E+00 -0.55988110245E+03  0.55988110248E+03  0.50400001928E-02 0. -1.
    10030    2    1    2    0    0  0.00000000000E+00  0.00000000000E+00  0.15204035424E+04  0.26401657473E+04  0.21584365271E+04 0.  0.
        1    1    3    3  502    0 -0.99433224503E+03 -0.22478927424E+02  0.24776177116E+03  0.10249818588E+04  0.50400001928E-02 0. -1.
       -1    1    3    3    0  502  0.99433224503E+03  0.22478927424E+02  0.12726417712E+04  0.16151838885E+04  0.50400001928E-02 0.  1.
</event>
<event>
 5   0  0.2037109E-06  0.3334903E+04  0.7818609E-02  0.8154071E-01
       -1   -1    0    0    0  501  0.00000000000E+00  0.00000000000E+00  0.18067200798E+04  0.18067200798E+04  0.50400001928E-02 0.  1.
        1   -1    0    0  501    0  0.00000000000E+00  0.00000000000E+00 -0.15389178041E+04  0.15389178041E+04  0.50400001928E-02 0. -1.
    10030    2    1    2    0    0  0.00000000000E+00  0.00000000000E+00  0.26780227578E+03  0.33456378839E+04  0.33349025160E+04 0.  0.
        2    1    3    3  502    0  0.12502239194E+04 -0.16895642926E+03 -0.95992404617E+03  0.15852634791E+04  0.25500000920E-02 0. -1.
       -2    1    3    3    0  502 -0.12502239194E+04  0.16895642926E+03  0.12277263220E+04  0.17603744048E+04  0.25500000920E-02 0.  1.
</event>
<event>
 5   0  0.2730981E-06  0.3052350E+04  0.7818609E-02  0.8228938E-01
       -1   -1    0    0    0  501  0.00000000000E+00  0.00000000000E+00  0.11234395941E+04  0.11234395941E+04  0.50400001928E-02 0.  1.
        1   -1    0    0  501    0  0.00000000000E+00  0.00000000000E+00 -0.20732844620E+04  0.20732844620E+04  0.50400001928E-02 0. -1.
    10030    2    1    2    0    0  0.00000000000E+00  0.00000000000E+00 -0.94984486785E+03  0.31967240561E+04  0.30523498191E+04 0.  0.
        3    1    3    3  502    0 -0.33056304964E+03  0.30406995901E+03  0.10526560171E+04  0.11444715682E+04  0.10100000352E+00 0.  1.
       -3    1    3    3    0  502  0.33056304964E+03 -0.30406995901E+03 -0.20025008850E+04  0.20522524879E+04  0.10100000352E+00 0. -1.
</event>
<event>
 5   0  0.2097842E-06  0.1956599E+04  0.7818609E-02  0.8627185E-01
        1   -1    0    0  501    0  0.00000000000E+00  0.00000000000E+00  0.14031043349E+04  0.14031043349E+04  0.50400001928E-02 0.  1.
       -1   -1    0    0    0  501  0.00000000000E+00  0.00000000000E+00 -0.68210912603E+03  0.68210912605E+03  0.50400001928E-02 0. -1.
    10030    2    1    2    0    0  0.00000000000E+00  0.00000000000E+00  0.72099520883E+03  0.20852134609E+04  0.19565993679E+04 0.  0.
        4    1    3    3  502    0  0.84745089223E+03  0.48201819509E+03  0.44677663577E+03  0.10724390567E+04  0.12699999809E+01 0.  1.
       -4    1    3    3    0  502 -0.84745089223E+03 -0.48201819509E+03  0.27421857306E+03  0.10127744042E+04  0.12699999809E+01 0. -1.
</event>
<event>
 5   0  0.5300268E-06  0.3216379E+04  0.7818609E-02  0.8184505E-01
       -2   -1    0    0    0  501  0.00000000000E+00  0.00000000000E+00  0.12934126765E+04  0.12934126765E+04  0.25500000920E-02 0.  1.
        2   -1    0    0  501    0  0.00000000000E+00  0.00000000000E+00 -0.19995736488E+04  0.19995736488E+04  0.25500000920E-02 0. -1.
    10030    2    1    2    0    0  0.00000000000E+00  0.00000000000E+00 -0.70616097222E+03  0.32929863253E+04  0.32163792718E+04 0.  0.
        4    1    3    3  502    0  0.74600632960E+02 -0.12906931617E+04 -0.13323225728E+04  0.18564856970E+04  0.12699999809E+01 0. -1.
       -4    1    3    3    0  502 -0.74600632960E+02  0.12906931617E+04  0.62616160063E+03  0.14365006283E+04  0.12699999809E+01 0.  1.
</event>
<event>
 5   0  0.5637538E-06  0.3320759E+04  0.7818609E-02  0.8157633E-01
       -2   -1    0    0    0  501  0.00000000000E+00  0.00000000000E+00  0.13802091303E+04  0.13802091303E+04  0.25500000920E-02 0.  1.
        2   -1    0    0  501    0  0.00000000000E+00  0.00000000000E+00 -0.19974220405E+04  0.19974220405E+04  0.25500000920E-02 0. -1.
    10030    2    1    2    0    0  0.00000000000E+00  0.00000000000E+00 -0.61721291020E+03  0.33776311707E+04  0.33207590321E+04 0.  0.
        2    1    3    3  502    0  0.15887223931E+04  0.46528797968E+03 -0.17863542700E+03  0.16650652727E+04  0.25500000920E-02 0.  1.
       -2    1    3    3    0  502 -0.15887223931E+04 -0.46528797968E+03 -0.43857748320E+03  0.17125658981E+04  0.25500000920E-02 0. -1.
</event>
<event>
 5   0  0.5755250E-06  0.3191701E+04  0.7818609E-02  0.8191012E-01
       -2   -1    0    0    0  501  0.00000000000E+00  0.00000000000E+00  0.11662441618E+04  0.11662441618E+04  0.25500000920E-02 0. -1.
        2   -1    0    0  501    0  0.00000000000E+00  0.00000000000E+00 -0.21837092795E+04  0.21837092795E+04  0.25500000920E-02 0.  1.
    10030    2    1    2    0    0  0.00000000000E+00  0.00000000000E+00 -0.10174651177E+04  0.33499534413E+04  0.31917006115E+04 0.  0.
        5    1    3    3  502    0  0.50010519184E+03  0.76403133573E+03  0.86492489932E+03  0.12577624006E+04  0.46999998093E+01 0. -1.
       -5    1    3    3    0  502 -0.50010519184E+03 -0.76403133573E+03 -0.18823900170E+04  0.20921910407E+04  0.46999998093E+01 0.  1.
</event>
<event>
 5   0  0.5855568E-06  0.3338793E+04  0.7818609E-02  0.8153094E-01
        2   -1    0    0  501    0  0.00000000000E+00  0.00000000000E+00  0.21788205601E+04  0.21788205601E+04  0.25500000920E-02 0.  1.
       -2   -1    0    0    0  501  0.00000000000E+00  0.00000000000E+00 -0.12790797493E+04  0.12790797493E+04  0.25500000920E-02 0. -1.
    10030    2    1    2    0    0  0.00000000000E+00  0.00000000000E+00  0.89974081079E+03  0.34579003094E+04  0.33387933484E+04 0.  0.
        3    1    3    3  502    0 -0.70456111011E+03 -0.13556044859E+04 -0.24705052327E+03  0.15476123065E+04  0.10100000352E+00 0. -1.
       -3    1    3    3    0  502  0.70456111011E+03  0.13556044859E+04  0.11467913341E+04  0.19102880029E+04  0.10100000352E+00 0.  1.
</event>
<event>
 5   0  0.5622811E-06  0.2659352E+04  0.7818609E-02  0.8348316E-01
       -2   -1    0    0    0  501  0.00000000000E+00  0.00000000000E+00  0.97377049729E+03  0.97377049729E+03  0.25500000920E-02 0. -1.
        2   -1    0    0  501    0  0.00000000000E+00  0.00000000000E+00 -0.18156624454E+04  0.18156624454E+04  0.25500000920E-02 0.  1.
    10030    2    1    2    0    0  0.00000000000E+00  0.00000000000E+00 -0.84189194808E+03  0.27894329427E+04  0.26593521936E+04 0.  0.
        1    1    3    3  502    0 -0.92598349937E+03 -0.94869405174E+03 -0.52879905567E+03  0.14272681199E+04  0.50400001928E-02 0.  1.
       -1    1    3    3    0  502  0.92598349937E+03  0.94869405174E+03 -0.31309289241E+03  0.13621648227E+04  0.50400001928E-02 0. -1.
</event>
<event>
 5   0  0.2730981E-06  0.3319149E+04  0.7818609E-02  0.8158040E-01
       -1   -1    0    0    0  501  0.00000000000E+00  0.00000000000E+00  0.14677446232E+04  0.14677446232E+04  0.50400001928E-02 0. -1.
        1   -1    0    0  501    0  0.00000000000E+00  0.00000000000E+00 -0.18764758125E+04  0.18764758125E+04  0.50400001928E-02 0.  1.
    10030    2    1    2    0    0  0.00000000000E+00  0.00000000000E+00 -0.40873118930E+03  0.33442204357E+04  0.33191488573E+04 0.  0.
        3    1    3    3  502    0  0.36249741707E+03 -0.60713534478E+03 -0.17170957266E+04  0.18569963513E+04  0.10100000352E+00 0.  1.
       -3    1    3    3    0  502 -0.36249741707E+03  0.60713534478E+03  0.13083645373E+04  0.14872240843E+04  0.10100000352E+00 0. -1.
</event>
<event>
 5   0  0.2730981E-06  0.3039097E+04  0.7818609E-02  0.8232654E-01
        1   -1    0    0  501    0  0.00000000000E+00  0.00000000000E+00  0.12626487912E+04  0.12626487912E+04  0.50400001928E-02 0. -1.
       -1   -1    0    0    0  501  0.00000000000E+00  0.00000000000E+00 -0.18287167092E+04  0.18287167092E+04  0.50400001928E-02 0.  1.
    10030    2    1    2    0    0  0.00000000000E+00  0.00000000000E+00 -0.56606791797E+03  0.30913655004E+04  0.30390965383E+04 0.  0.
        3    1    3    3  502    0  0.12994511545E+04 -0.55079936538E+03 -0.85581147582E+03  0.16505655201E+04  0.10100000352E+00 0.  1.
       -3    1    3    3    0  502 -0.12994511545E+04  0.55079936538E+03  0.28974355785E+03  0.14407999803E+04  0.10100000352E+00 0. -1.
</event>
<event>
 5   0  0.5755250E-06  0.2309133E+04  0.7818609E-02  0.8474329E-01
        2   -1    0    0  501    0  0.00000000000E+00  0.00000000000E+00  0.14853755507E+04  0.14853755507E+04  0.25500000920E-02 0.  1.
       -2   -1    0    0    0  501  0.00000000000E+00  0.00000000000E+00 -0.89743185555E+03  0.89743185555E+03  0.25500000920E-02 0. -1.
    10030    2    1    2    0    0  0.00000000000E+00  0.00000000000E+00  0.58794369514E+03  0.23828074062E+04  0.23091325961E+04 0.  0.
        5    1    3    3  502    0 -0.10793806708E+03  0.26088773740E+03 -0.86125040589E+03  0.90635941518E+03  0.46999998093E+01 0. -1.
       -5    1    3    3    0  502  0.10793806708E+03 -0.26088773740E+03  0.14491941010E+04  0.14764479911E+04  0.46999998093E+01 0.  1.
</event>
<event>
 5   0  0.2097842E-06  0.3217633E+04  0.7818609E-02  0.8184176E-01
       -1   -1    0    0    0  501  0.00000000000E+00  0.00000000000E+00  0.16725130452E+04  0.16725130452E+04  0.50400001928E-02 0. -1.
        1   -1    0    0  501    0  0.00000000000E+00  0.00000000000E+00 -0.15475455799E+04  0.15475455799E+04  0.50400001928E-02 0.  1.
    10030    2    1    2    0    0  0.00000000000E+00  0.00000000000E+00  0.12496746528E+03  0.32200586252E+04  0.32176327761E+04 0.  0.
        4    1    3    3  502    0 -0.55382602265E+03  0.79421099249E+03 -0.12233172928E+04  0.15601285767E+04  0.12699999809E+01 0.  1.
       -4    1    3    3    0  502  0.55382602265E+03 -0.79421099249E+03  0.13482847581E+04  0.16599300485E+04  0.12699999809E+01 0. -1.
</event>
<event>
 5   0  0.5622811E-06  0.3280136E+04  0.7818609E-02  0.8167968E-01
       -2   -1    0    0    0  501  0.00000000000E+00  0.00000000000E+00  0.18886246280E+04  0.18886246280E+04  0.25500000920E-02 0. -1.
        2   -1    0    0  501    0  0.00000000000E+00  0.00000000000E+00 -0.14242228350E+04  0.14242228350E+04  0.25500000920E-02 0.  1.
    10030    2    1    2    0    0  0.00000000000E+00  0.00000000000E+00  0.46440179301E+03  0.33128474630E+04  0.32801355594E+04 0.  0.
        1    1    3    3  502    0  0.10076313918E+04 -0.10468703240E+03 -0.10704454407E+04  0.14738160801E+04  0.50400001928E-02 0.  1.
       -1    1    3    3    0  502 -0.10076313918E+04  0.10468703240E+03  0.15348472337E+04  0.18390313829E+04  0.50400001928E-02 0. -1.
</event>
<event>
 5   0  0.5855568E-06  0.3211221E+04  0.7818609E-02  0.8185860E-01
       -2   -1    0    0    0  501  0.00000000000E+00  0.00000000000E+00  0.10570478708E+04  0.10570478709E+04  0.25500000920E-02 0.  1.
        2   -1    0    0  501    0  0.00000000000E+00  0.00000000000E+00 -0.24388532494E+04  0.24388532494E+04  0.25500000920E-02 0. -1.
    10030    2    1    2    0    0  0.00000000000E+00  0.00000000000E+00 -0.13818053786E+04  0.34959011203E+04  0.32112207241E+04 0.  0.
        3    1    3    3  502    0 -0.73116866373E+03 -0.12350299007E+03 -0.22412758335E+04  0.23607579239E+04  0.10100000352E+00 0. -1.
       -3    1    3    3    0  502  0.73116866373E+03  0.12350299007E+03  0.85947045486E+03  0.11351431964E+04  0.10100000352E+00 0.  1.
</event>
<event>
 5   0  0.1925906E-06  0.4216530E+04  0.7818609E-02  0.7962235E-01
        1   -1    0    0  501    0  0.00000000000E+00  0.00000000000E+00  0.23779553596E+04  0.23779553596E+04  0.50400001928E-02 0.  1.
       -1   -1    0    0    0  501  0.00000000000E+00  0.00000000000E+00 -0.18691608771E+04  0.18691608771E+04  0.50400001928E-02 0. -1.
    10030    2    1    2    0    0  0.00000000000E+00  0.00000000000E+00  0.50879448255E+03  0.42471162367E+04  0.42165299124E+04 0.  0.
        1    1    3    3  502    0  0.18706366382E+04 -0.94183119372E+03  0.10871457278E+02  0.20943843053E+04  0.50400001928E-02 0. -1.
       -1    1    3    3    0  502 -0.18706366382E+04  0.94183119372E+03  0.49792302527E+03  0.21527319314E+04  0.50400001928E-02 0.  1.
</event>
<event>
 5   0  0.5855568E-06  0.3139827E+04  0.7818609E-02  0.8204892E-01
        2   -1    0    0  501    0  0.00000000000E+00  0.00000000000E+00  0.18588563492E+04  0.18588563492E+04  0.25500000920E-02 0.  1.
       -2   -1    0    0    0  501  0.00000000000E+00  0.00000000000E+00 -0.13258840790E+04  0.13258840790E+04  0.25500000920E-02 0. -1.
    10030    2    1    2    0    0  0.00000000000E+00  0.00000000000E+00  0.53297227014E+03  0.31847404282E+04  0.31398267713E+04 0.  0.
        3    1    3    3  502    0  0.87832298327E+03 -0.69943524665E+03  0.13794361581E+04  0.17786244831E+04  0.10100000352E+00 0.  1.
       -3    1    3    3    0  502 -0.87832298327E+03  0.69943524665E+03 -0.84646388799E+03  0.14061159451E+04  0.10100000352E+00 0. -1.
</event>
<event>
 5   0  0.5622811E-06  0.3113698E+04  0.7818609E-02  0.8211989E-01
        2   -1    0    0  501    0  0.00000000000E+00  0.00000000000E+00  0.25827337316E+04  0.25827337316E+04  0.25500000920E-02 0.  1.
       -2   -1    0    0    0  501  0.00000000000E+00  0.00000000000E+00 -0.93845460845E+03  0.93845460846E+03  0.25500000920E-02 0. -1.
    10030    2    1    2    0    0  0.00000000000E+00  0.00000000000E+00  0.16442791231E+04  0.35211883400E+04  0.31136977199E+04 0.  0.
        1    1    3    3  502    0  0.54796276715E+03  0.12765055411E+04  0.16170125207E+04  0.21317736941E+04  0.50400001928E-02 0.  1.
       -1    1    3    3    0  502 -0.54796276715E+03 -0.12765055411E+04  0.27266602408E+02  0.13894146459E+04  0.50400001928E-02 0. -1.
</event>
<event>
 5   0  0.2037109E-06  0.3293984E+04  0.7818609E-02  0.8164428E-01
        1   -1    0    0  501    0  0.00000000000E+00  0.00000000000E+00  0.14594594922E+04  0.14594594923E+04  0.50400001928E-02 0.  1.
       -1   -1    0    0    0  501  0.00000000000E+00  0.00000000000E+00 -0.18586218604E+04  0.18586218605E+04  0.50400001928E-02 0. -1.
    10030    2    1    2    0    0  0.00000000000E+00  0.00000000000E+00 -0.39916236820E+03  0.33180813527E+04  0.32939844060E+04 0.  0.
        2    1    3    3  502    0 -0.51102798749E+03 -0.15635284836E+04 -0.28272220649E+03  0.16690424707E+04  0.25500000920E-02 0. -1.
       -2    1    3    3    0  502  0.51102798749E+03  0.15635284836E+04 -0.11644016170E+03  0.16490388820E+04  0.25500000920E-02 0.  1.
</event>
<event>
 5   0  0.5300268E-06  0.3303089E+04  0.7818609E-02  0.8162110E-01
       -2   -1    0    0    0  501  0.00000000000E+00  0.00000000000E+00  0.20003737493E+04  0.20003737493E+04  0.25500000920E-02 0. -1.
        2   -1    0    0  501    0  0.00000000000E+00  0.00000000000E+00 -0.13635448588E+04  0.13635448588E+04  0.25500000920E-02 0.  1.
    10030    2    1    2    0    0  0.00000000000E+00  0.00000000000E+00  0.63682889052E+03  0.33639186081E+04  0.33030890642E+04 0.  0.
        4    1    3    3  502    0  0.30626225005E+03 -0.57144543718E+03 -0.12285226093E+04  0.13891061399E+04  0.12699999809E+01 0.  1.
       -4    1    3    3    0  502 -0.30626225005E+03  0.57144543718E+03  0.18653514999E+04  0.19748124682E+04  0.12699999809E+01 0. -1.
</event>
<event>
 5   0  0.5637538E-06  0.3298619E+04  0.7818609E-02  0.8163247E-01
        2   -1    0    0  501    0  0.00000000000E+00  0.00000000000E+00  0.25705125045E+04  0.25705125045E+04  0.25500000920E-02 0.  1.
       -2   -1    0    0    0  501  0.00000000000E+00  0.00000000000E+00 -0.10582409283E+04  0.10582409283E+04  0.25500000920E-02 0. -1.
    10030    2    1    2    0    0  0.00000000000E+00  0.00000000000E+00  0.15122715762E+04  0.36287534328E+04  0.32986188254E+04 0.  0.
        2    1    3    3  502    0 -0.30768793413E+03  0.12851175548E+04 -0.32956419477E+03  0.13619146644E+04  0.25500000920E-02 0. -1.
       -2    1    3    3    0  502  0.30768793413E+03 -0.12851175548E+04  0.18418357710E+04  0.22668387684E+04  0.25500000920E-02 0.  1.
</event>
<event>
 5   0  0.2730981E-06  0.3119703E+04  0.7818609E-02  0.8210351E-01
       -1   -1    0    0    0  501  0.00000000000E+00  0.00000000000E+00  0.13552639343E+04  0.13552639343E+04  0.50400001928E-02 0. -1.
        1   -1    0    0  501    0  0.00000000000E+00  0.00000000000E+00 -0.17953234631E+04  0.17953234631E+04  0.50400001928E-02 0.  1.
    10030    2    1    2    0    0  0.00000000000E+00  0.00000000000E+00 -0.44005952873E+03  0.31505873974E+04  0.31197032807E+04 0.  0.
        3    1    3    3  502    0  0.43661685249E+01 -0.45645590180E+03  0.12863012522E+04  0.13648963240E+04  0.10100000352E+00 0. -1.
       -3    1    3    3    0  502 -0.43661685249E+01  0.45645590180E+03 -0.17263607809E+04  0.17856910734E+04  0.10100000352E+00 0.  1.
</event>
<event>
 5   0  0.2097842E-06  0.3184210E+04  0.7818609E-02  0.8193000E-01
       -1   -1    0    0    0  501  0.00000000000E+00  0.00000000000E+00  0.19904550330E+04  0.19904550330E+04  0.50400001928E-02 0. -1.
        1   -1    0    0  501    0  0.00000000000E+00  0.00000000000E+00 -0.12734766063E+04  0.12734766063E+04  0.50400001928E-02 0.  1.
    10030    2    1    2    0    0  0.00000000000E+00  0.00000000000E+00  0.71697842669E+03  0.32639316392E+04  0.31842097420E+04 0.  0.
        4    1    3    3  502    0  0.87032895304E+03 -0.11129196885E+04 -0.39387202728E+03  0.14666968011E+04  0.12699999809E+01 0.  1.
       -4    1    3    3    0  502 -0.87032895304E+03  0.11129196885E+04  0.11108504540E+04  0.17972348382E+04  0.12699999809E+01 0. -1.
</event>
<event>
 5   0  0.1999849E-06  0.3106891E+04  0.7818609E-02  0.8213849E-01
       -1   -1    0    0    0  501  0.00000000000E+00  0.00000000000E+00  0.99999400470E+03  0.99999400471E+03  0.50400001928E-02 0. -1.
        1   -1    0    0  501    0  0.00000000000E+00  0.00000000000E+00 -0.24132067264E+04  0.24132067264E+04  0.50400001928E-02 0.  1.
    10030    2    1    2    0    0  0.00000000000E+00  0.00000000000E+00 -0.14132127217E+04  0.34132007311E+04  0.31068905733E+04 0.  0.
        5    1    3    3  502    0 -0.10057653802E+04 -0.89338509062E+03  0.14681487381E+03  0.13532470644E+04  0.46999998093E+01 0. -1.
       -5    1    3    3    0  502  0.10057653802E+04  0.89338509062E+03 -0.15600275955E+04  0.20599536667E+04  0.46999998093E+01 0.  1.
</event>
<event>
 5   0  0.2097842E-06  0.3045053E+04  0.7818609E-02  0.8230981E-01
        1   -1    0    0  501    0  0.00000000000E+00  0.00000000000E+00  0.27332149168E+04  0.27332149168E+04  0.50400001928E-02 0. -1.
       -1   -1    0    0    0  501  0.00000000000E+00  0.00000000000E+00 -0.84811759972E+03  0.84811759974E+03  0.50400001928E-02 0.  1.
    10030    2    1    2    0    0  0.00000000000E+00  0.00000000000E+00  0.18850973171E+04  0.35813325166E+04  0.30450534805E+04 0.  0.
        4    1    3    3  502    0 -0.15212321349E+04 -0.49529595634E+02  0.98788133137E+03  0.18145279074E+04  0.12699999809E+01 0. -1.
       -4    1    3    3    0  502  0.15212321349E+04  0.49529595634E+02  0.89721598572E+03  0.17668046092E+04  0.12699999809E+01 0.  1.
</event>
<event>
 5   0  0.1925906E-06  0.3375668E+04  0.7818609E-02  0.8143904E-01
        1   -1    0    0  501    0  0.00000000000E+00  0.00000000000E+00  0.22993479294E+04  0.22993479294E+04  0.50400001928E-02 0.  1.
       -1   -1    0    0    0  501  0.00000000000E+00  0.00000000000E+00 -0.12389531338E+04  0.12389531338E+04  0.50400001928E-02 0. -1.
    10030    2    1    2    0    0  0.00000000000E+00  0.00000000000E+00  0.10603947957E+04  0.35383010632E+04  0.33756684214E+04 0.  0.
        1    1    3    3  502    0  0.68770438714E+03  0.73386515861E+03  0.19509672426E+04  0.21949415885E+04  0.50400001928E-02 0.  1.
       -1    1    3    3    0  502 -0.68770438714E+03 -0.73386515861E+03 -0.89057244692E+03  0.13433594747E+04  0.50400001928E-02 0. -1.
</event>
<event>
 5   0  0.5755250E-06  0.3374373E+04  0.7818609E-02  0.8144225E-01
        2   -1    0    0  501    0  0.00000000000E+00  0.00000000000E+00  0.14736924695E+04  0.14736924695E+04  0.25500000920E-02 0.  1.
       -2   -1    0    0    0  501  0.00000000000E+00  0.00000000000E+00 -0.19316098645E+04  0.19316098645E+04  0.25500000920E-02 0. -1.
    10030    2    1    2    0    0  0.00000000000E+00  0.00000000000E+00 -0.45791739500E+03  0.34053023341E+04  0.33743733708E+04 0.  0.
        5    1    3    3  502    0 -0.27478870127E+03  0.94269315078E+03 -0.16135392357E+04  0.18888383102E+04  0.46999998093E+01 0. -1.
       -5    1    3    3    0  502  0.27478870127E+03 -0.94269315078E+03  0.11556218407E+04  0.15164640239E+04  0.46999998093E+01 0.  1.
</event>
<event>
 5   0  0.2097842E-06  0.3329694E+04  0.7818609E-02  0.8155380E-01
       -1   -1    0    0    0  501  0.00000000000E+00  0.00000000000E+00  0.94216493794E+03  0.94216493795E+03  0.50400001928E-02 0.  1.
        1   -1    0    0  501    0  0.00000000000E+00  0.00000000000E+00 -0.29418587376E+04  0.29418587376E+04  0.50400001928E-02 0. -1.
    10030    2    1    2    0    0  0.00000000000E+00  0.00000000000E+00 -0.19996937996E+04  0.38840236755E+04  0.33296943733E+04 0.  0.
        4    1    3    3  502    0 -0.61625681242E+03  0.15013950325E+04 -0.14327904204E+04  0.21649132787E+04  0.12699999809E+01 0. -1.
       -4    1    3    3    0  502  0.61625681242E+03 -0.15013950325E+04 -0.56690337922E+03  0.17191103969E+04  0.12699999809E+01 0.  1.
</event>
<event>
 5   0  0.5755250E-06  0.3304581E+04  0.7818609E-02  0.8161731E-01
       -2   -1    0    0    0  501  0.00000000000E+00  0.00000000000E+00  0.13334026711E+04  0.13334026711E+04  0.25500000920E-02 0.  1.
        2   -1    0    0  501    0  0.00000000000E+00  0.00000000000E+00 -0.20474410837E+04  0.20474410837E+04  0.25500000920E-02 0. -1.
    10030    2    1    2    0    0  0.00000000000E+00  0.00000000000E+00 -0.71403841259E+03  0.33808437548E+04  0.33045807056E+04 0.  0.
        5    1    3    3  502    0 -0.93557479710E+03 -0.70699208719E+03  0.83384677448E+03  0.14389094988E+04  0.46999998093E+01 0.  1.
       -5    1    3    3    0  502  0.93557479710E+03  0.70699208719E+03 -0.15478851871E+04  0.19419342560E+04  0.46999998093E+01 0. -1.
</event>
<event>
 5   0  0.5855568E-06  0.2426885E+04  0.7818609E-02  0.8429506E-01
        2   -1    0    0  501    0  0.00000000000E+00  0.00000000000E+00  0.75818634639E+03  0.75818634639E+03  0.25500000920E-02 0.  1.
       -2   -1    0    0    0  501  0.00000000000E+00  0.00000000000E+00 -0.19420596829E+04  0.19420596829E+04  0.25500000920E-02 0. -1.
    10030    2    1    2    0    0  0.00000000000E+00  0.00000000000E+00 -0.11838733365E+04  0.27002460293E+04  0.24268853582E+04 0.  0.
        3    1    3    3  502    0  0.85879474932E+03 -0.17713346721E+03 -0.15251866495E+04  0.17592893488E+04  0.10100000352E+00 0. -1.
       -3    1    3    3    0  502 -0.85879474932E+03  0.17713346721E+03  0.34131331304E+03  0.94095668047E+03  0.10100000352E+00 0.  1.
</event>
<event>
 5   0  0.5855568E-06  0.3224095E+04  0.7818609E-02  0.8182483E-01
        2   -1    0    0  501    0  0.00000000000E+00  0.00000000000E+00  0.23012771576E+04  0.23012771576E+04  0.25500000920E-02 0. -1.
       -2   -1    0    0    0  501  0.00000000000E+00  0.00000000000E+00 -0.11292413610E+04  0.11292413610E+04  0.25500000920E-02 0.  1.
    10030    2    1    2    0    0  0.00000000000E+00  0.00000000000E+00  0.11720357965E+04  0.34305185186E+04  0.32240951286E+04 0.  0.
        3    1    3    3  502    0  0.57683636243E+03  0.12523640482E+04 -0.30264475259E+03  0.14116478862E+04  0.10100000352E+00 0.  1.
       -3    1    3    3    0  502 -0.57683636243E+03 -0.12523640482E+04  0.14746805491E+04  0.20188706324E+04  0.10100000352E+00 0. -1.
</event>
<event>
 5   0  0.1999849E-06  0.3290032E+04  0.7818609E-02  0.8165436E-01
       -1   -1    0    0    0  501  0.00000000000E+00  0.00000000000E+00  0.18965393236E+04  0.18965393236E+04  0.50400001928E-02 0. -1.
        1   -1    0    0  501    0  0.00000000000E+00  0.00000000000E+00 -0.14268504172E+04  0.14268504173E+04  0.50400001928E-02 0.  1.
    10030    2    1    2    0    0  0.00000000000E+00  0.00000000000E+00  0.46968890635E+03  0.33233897409E+04  0.32900321732E+04 0.  0.
        5    1    3    3  502    0  0.16252736324E+04 -0.93162375652E+02  0.47359273321E+03  0.16954367506E+04  0.46999998093E+01 0. -1.
       -5    1    3    3    0  502 -0.16252736324E+04  0.93162375652E+02 -0.39038268655E+01  0.16279529902E+04  0.46999998093E+01 0.  1.
</event>
<event>
 5   0  0.5755250E-06  0.3180534E+04  0.7818609E-02  0.8193977E-01
        2   -1    0    0  501    0  0.00000000000E+00  0.00000000000E+00  0.15844867707E+04  0.15844867707E+04  0.25500000920E-02 0. -1.
       -2   -1    0    0    0  501  0.00000000000E+00  0.00000000000E+00 -0.15960679275E+04  0.15960679275E+04  0.25500000920E-02 0.  1.
    10030    2    1    2    0    0  0.00000000000E+00  0.00000000000E+00 -0.11581156852E+02  0.31805546982E+04  0.31805336133E+04 0.  0.
        5    1    3    3  502    0 -0.32523165851E+03  0.21043598736E+03 -0.15481585730E+04  0.15958934782E+04  0.46999998093E+01 0.  1.
       -5    1    3    3    0  502  0.32523165851E+03 -0.21043598736E+03  0.15365774162E+04  0.15846612200E+04  0.46999998093E+01 0. -1.
</event>
<event>
 5   0  0.5855568E-06  0.3238657E+04  0.7818609E-02  0.8178682E-01
        2   -1    0    0  501    0  0.00000000000E+00  0.00000000000E+00  0.14456273252E+04  0.14456273252E+04  0.25500000920E-02 0.  1.
       -2   -1    0    0    0  501  0.00000000000E+00  0.00000000000E+00 -0.18139012303E+04  0.18139012303E+04  0.25500000920E-02 0. -1.
    10030    2    1    2    0    0  0.00000000000E+00  0.00000000000E+00 -0.36827390517E+03  0.32595285555E+04  0.32386572426E+04 0.  0.
        3    1    3    3  502    0 -0.69746833555E+03 -0.20013563796E+03  0.12728486931E+04  0.14651485107E+04  0.10100000352E+00 0.  1.
       -3    1    3    3    0  502  0.69746833555E+03  0.20013563796E+03 -0.16411225982E+04  0.17943800448E+04  0.10100000352E+00 0. -1.
</event>
<event>
 5   0  0.2730981E-06  0.3323010E+04  0.7818609E-02  0.8157065E-01
       -1   -1    0    0    0  501  0.00000000000E+00  0.00000000000E+00  0.17433590118E+04  0.17433590118E+04  0.50400001928E-02 0. -1.
        1   -1    0    0  501    0  0.00000000000E+00  0.00000000000E+00 -0.15834938093E+04  0.15834938093E+04  0.50400001928E-02 0.  1.
    10030    2    1    2    0    0  0.00000000000E+00  0.00000000000E+00  0.15986520245E+03  0.33268528211E+04  0.33230096013E+04 0.  0.
        3    1    3    3  502    0  0.15839651523E+04 -0.18915039158E+03 -0.38522795784E+03  0.16410740580E+04  0.10100000352E+00 0.  1.
       -3    1    3    3    0  502 -0.15839651523E+04  0.18915039158E+03  0.54509316030E+03  0.16857787630E+04  0.10100000352E+00 0. -1.
</event>
<event>
 5   0  0.2730981E-06  0.3396186E+04  0.7818609E-02  0.8138843E-01
       -1   -1    0    0    0  501  0.00000000000E+00  0.00000000000E+00  0.97002390310E+03  0.97002390311E+03  0.50400001928E-02 0. -1.
        1   -1    0    0  501    0  0.00000000000E+00  0.00000000000E+00 -0.29726279431E+04  0.29726279431E+04  0.50400001928E-02 0.  1.
    10030    2    1    2    0    0  0.00000000000E+00  0.00000000000E+00 -0.20026040400E+04  0.39426518463E+04  0.33961861904E+04 0.  0.
        3    1    3    3  502    0  0.45217903789E+03 -0.13473066228E+04  0.77665437282E+02  0.14232824556E+04  0.10100000352E+00 0.  1.
       -3    1    3    3    0  502 -0.45217903789E+03  0.13473066228E+04 -0.20802694773E+04  0.25193693907E+04  0.10100000352E+00 0. -1.
</event>
<event>
 5   0  0.2097842E-06  0.3408088E+04  0.7818609E-02  0.8135924E-01
       -1   -1    0    0    0  501  0.00000000000E+00  0.00000000000E+00  0.11817668545E+04  0.11817668545E+04  0.50400001928E-02 0. -1.
        1   -1    0    0  501    0  0.00000000000E+00  0.00000000000E+00 -0.24571400782E+04  0.24571400782E+04  0.50400001928E-02 0.  1.
    10030    2    1    2    0    0  0.00000000000E+00  0.00000000000E+00 -0.12753732237E+04  0.36389069327E+04  0.34080884386E+04 0.  0.
        4    1    3    3  502    0  0.13522750732E+04 -0.91158373205E+03 -0.11012555892E+03  0.16345525461E+04  0.12699999809E+01 0. -1.
       -4    1    3    3    0  502 -0.13522750732E+04  0.91158373205E+03 -0.11652476647E+04  0.20043543866E+04  0.12699999809E+01 0.  1.
</event>
<event>
 5   0  0.5622811E-06  0.3428260E+04  0.7818609E-02  0.8131005E-01
       -2   -1    0    0    0  501  0.00000000000E+00  0.00000000000E+00  0.18596375411E+04  0.18596375411E+04  0.25500000920E-02 0. -1.
        2   -1    0    0  501    0  0.00000000000E+00  0.00000000000E+00 -0.15800075453E+04  0.15800075453E+04  0.25500000920E-02 0.  1.
    10030    2    1    2    0    0  0.00000000000E+00  0.00000000000E+00  0.27962999582E+03  0.34396450864E+04  0.34282598189E+04 0.  0.
        1    1    3    3  502    0 -0.15591248093E+04 -0.19358742538E+03  0.82758044807E+03  0.17757352450E+04  0.50400001928E-02 0. -1.
       -1    1    3    3    0  502  0.15591248093E+04  0.19358742538E+03 -0.54795045225E+03  0.16639098414E+04  0.50400001928E-02 0.  1.
</event>
<event>
 5   0  0.5755250E-06  0.3123519E+04  0.7818609E-02  0.8209313E-01
       -2   -1    0    0    0  501  0.00000000000E+00  0.00000000000E+00  0.10450098733E+04  0.10450098734E+04  0.25500000920E-02 0.  1.
        2   -1    0    0  501    0  0.00000000000E+00  0.00000000000E+00 -0.23340376236E+04  0.23340376236E+04  0.25500000920E-02 0. -1.
    10030    2    1    2    0    0  0.00000000000E+00  0.00000000000E+00 -0.12890277503E+04  0.33790474970E+04  0.31235187603E+04 0.  0.
        5    1    3    3  502    0  0.18898548996E+03  0.15499057940E+04 -0.60787928703E+03  0.16755485082E+04  0.46999998093E+01 0. -1.
       -5    1    3    3    0  502 -0.18898548996E+03 -0.15499057940E+04 -0.68114846323E+03  0.17034989888E+04  0.46999998093E+01 0.  1.
</event>
<event>
 5   0  0.5637538E-06  0.3266195E+04  0.7818609E-02  0.8171551E-01
       -2   -1    0    0    0  501  0.00000000000E+00  0.00000000000E+00  0.17548970002E+04  0.17548970002E+04  0.25500000920E-02 0.  1.
        2   -1    0    0  501    0  0.00000000000E+00  0.00000000000E+00 -0.15197513345E+04  0.15197513345E+04  0.25500000920E-02 0. -1.
    10030    2    1    2    0    0  0.00000000000E+00  0.00000000000E+00  0.23514566567E+03  0.32746483347E+04  0.32661947633E+04 0.  0.
        2    1    3    3  502    0  0.65742437877E+03  0.12078145591E+03 -0.13763212969E+04  0.15300507463E+04  0.25500000920E-02 0. -1.
       -2    1    3    3    0  502 -0.65742437877E+03 -0.12078145591E+03  0.16114669626E+04  0.17445975884E+04  0.25500000920E-02 0.  1.
</event>
<event>
 5   0  0.5855568E-06  0.3260250E+04  0.7818609E-02  0.8173084E-01
        2   -1    0    0  501    0  0.00000000000E+00  0.00000000000E+00  0.27150098652E+04  0.27150098652E+04  0.25500000920E-02 0.  1.
       -2   -1    0    0    0  501  0.00000000000E+00  0.00000000000E+00 -0.97874690450E+03  0.97874690450E+03  0.25500000920E-02 0. -1.
    10030    2    1    2    0    0  0.00000000000E+00  0.00000000000E+00  0.17362629607E+04  0.36937567697E+04  0.32602499912E+04 0.  0.
        3    1    3    3  502    0  0.18402322245E+03  0.15519653422E+04  0.13932792857E+04  0.20937259009E+04  0.10100000352E+00 0.  1.
       -3    1    3    3    0  502 -0.18402322245E+03 -0.15519653422E+04  0.34298367495E+03  0.16000308688E+04  0.10100000352E+00 0. -1.
</event>
<event>
 5   0  0.2037109E-06  0.3225150E+04  0.7818609E-02  0.8182207E-01
       -1   -1    0    0    0  501  0.00000000000E+00  0.00000000000E+00  0.19054172937E+04  0.19054172937E+04  0.50400001928E-02 0.  1.
        1   -1    0    0  501    0  0.00000000000E+00  0.00000000000E+00 -0.13647390380E+04  0.13647390380E+04  0.50400001928E-02 0. -1.
    10030    2    1    2    0    0  0.00000000000E+00  0.00000000000E+00  0.54067825568E+03  0.32701563317E+04  0.32251495249E+04 0.  0.
        2    1    3    3  502    0 -0.40615405711E+03  0.96076095354E+03 -0.97660890166E+03  0.14289113600E+04  0.25500000920E-02 0. -1.
       -2    1    3    3    0  502  0.40615405711E+03 -0.96076095354E+03  0.15172871573E+04  0.18412449717E+04  0.25500000920E-02 0.  1.
</event>
<event>
 5   0  0.1925906E-06  0.1833310E+04  0.7818609E-02  0.8688783E-01
        1   -1    0    0  501    0  0.00000000000E+00  0.00000000000E+00  0.15703894329E+04  0.15703894329E+04  0.50400001928E-02 0.  1.
       -1   -1    0    0    0  501  0.00000000000E+00  0.00000000000E+00 -0.53506253341E+03  0.53506253343E+03  0.50400001928E-02 0. -1.
    10030    2    1    2    0    0  0.00000000000E+00  0.00000000000E+00  0.10353268995E+04  0.21054519664E+04  0.18333101739E+04 0.  0.
        1    1    3    3  502    0 -0.50493934373E+03  0.43484451282E+03 -0.20522003122E+03  0.69725802428E+03  0.50400001928E-02 0. -1.
       -1    1    3    3    0  502  0.50493934373E+03 -0.43484451282E+03  0.12405469307E+04  0.14081939421E+04  0.50400001928E-02 0.  1.
</event>
<event>
 5   0  0.5855568E-06  0.3139743E+04  0.7818609E-02  0.8204915E-01
        2   -1    0    0  501    0  0.00000000000E+00  0.00000000000E+00  0.13742263228E+04  0.13742263228E+04  0.25500000920E-02 0. -1.
       -2   -1    0    0    0  501  0.00000000000E+00  0.00000000000E+00 -0.17933706838E+04  0.17933706838E+04  0.25500000920E-02 0.  1.
    10030    2    1    2    0    0  0.00000000000E+00  0.00000000000E+00 -0.41914436096E+03  0.31675970066E+04  0.31397434292E+04 0.  0.
        3    1    3    3  502    0  0.46324995297E+03 -0.73502093325E+03 -0.15287040506E+04  0.17583493327E+04  0.10100000352E+00 0.  1.
       -3    1    3    3    0  502 -0.46324995297E+03  0.73502093325E+03  0.11095596897E+04  0.14092476739E+04  0.10100000352E+00 0. -1.
</event>
<event>
 5   0  0.5755250E-06  0.2076021E+04  0.7818609E-02  0.8571881E-01
       -2   -1    0    0    0  501  0.00000000000E+00  0.00000000000E+00  0.77827811097E+03  0.77827811097E+03  0.25500000920E-02 0. -1.
        2   -1    0    0  501    0  0.00000000000E+00  0.00000000000E+00 -0.13844220919E+04  0.13844220919E+04  0.25500000920E-02 0.  1.
    10030    2    1    2    0    0  0.00000000000E+00  0.00000000000E+00 -0.60614398090E+03  0.21627002028E+04  0.20760206265E+04 0.  0.
        5    1    3    3  502    0  0.91052146894E+03 -0.16773692114E+03  0.18584012409E+03  0.94432179993E+03  0.46999998093E+01 0. -1.
       -5    1    3    3    0  502 -0.91052146894E+03  0.16773692114E+03 -0.79198410499E+03  0.12183784029E+04  0.46999998093E+01 0.  1.
</event>
<event>
 5   0  0.2730981E-06  0.3340640E+04  0.7818609E-02  0.8152631E-01
        1   -1    0    0  501    0  0.00000000000E+00  0.00000000000E+00  0.15915667932E+04  0.15915667932E+04  0.50400001928E-02 0. -1.
       -1   -1    0    0    0  501  0.00000000000E+00  0.00000000000E+00 -0.17529702987E+04  0.17529702988E+04  0.50400001928E-02 0.  1.
    10030    2    1    2    0    0  0.00000000000E+00  0.00000000000E+00 -0.16140350552E+03  0.33445370920E+04  0.33406402482E+04 0.  0.
        3    1    3    3  502    0 -0.13727903939E+04 -0.37186115356E+03  0.79618244011E+03  0.16299511254E+04  0.10100000352E+00 0. -1.
       -3    1    3    3    0  502  0.13727903939E+04  0.37186115356E+03 -0.95758594563E+03  0.17145859665E+04  0.10100000352E+00 0.  1.
</event>
<event>
 5   0  0.2037109E-06  0.3467173E+04  0.7818609E-02  0.8121614E-01
        1   -1    0    0  501    0  0.00000000000E+00  0.00000000000E+00  0.21417564650E+04  0.21417564650E+04  0.50400001928E-02 0. -1.
       -1   -1    0    0    0  501  0.00000000000E+00  0.00000000000E+00 -0.14032044506E+04  0.14032044507E+04  0.50400001928E-02 0.  1.
    10030    2    1    2    0    0  0.00000000000E+00  0.00000000000E+00  0.73855201437E+03  0.35449609157E+04  0.34671730294E+04 0.  0.
        2    1    3    3  502    0 -0.42034411965E+03 -0.93308608909E+02 -0.13476628606E+04  0.14147759049E+04  0.25500000920E-02 0.  1.
       -2    1    3    3    0  502  0.42034411965E+03  0.93308608909E+02  0.20862148749E+04  0.21301850107E+04  0.25500000920E-02 0. -1.
</event>
<event>
 5   0  0.2037109E-06  0.3249439E+04  0.7818609E-02  0.8175881E-01
       -1   -1    0    0    0  501  0.00000000000E+00  0.00000000000E+00  0.12298912927E+04  0.12298912927E+04  0.50400001928E-02 0.  1.
        1   -1    0    0  501    0  0.00000000000E+00  0.00000000000E+00 -0.21462982455E+04  0.21462982455E+04  0.50400001928E-02 0. -1.
    10030    2    1    2    0    0  0.00000000000E+00  0.00000000000E+00 -0.91640695276E+03  0.33761895382E+04  0.32494390431E+04 0.  0.
        2    1    3    3  502    0  0.11603480947E+04  0.53752403138E+03 -0.14994800546E+04  0.19707308845E+04  0.25500000920E-02 0. -1.
       -2    1    3    3    0  502 -0.11603480947E+04 -0.53752403138E+03  0.58307310179E+03  0.14054586537E+04  0.25500000920E-02 0.  1.
</event>
<event>
 5   0  0.5300268E-06  0.3118211E+04  0.7818609E-02  0.8210758E-01
       -2   -1    0    0    0  501  0.00000000000E+00  0.00000000000E+00  0.11677401343E+04  0.11677401343E+04  0.25500000920E-02 0. -1.
        2   -1    0    0  501    0  0.00000000000E+00  0.00000000000E+00 -0.20816363625E+04  0.20816363625E+04  0.25500000920E-02 0.  1.
    10030    2    1    2    0    0  0.00000000000E+00  0.00000000000E+00 -0.91389622819E+03  0.32493764967E+04  0.31182112343E+04 0.  0.
        4    1    3    3  502    0  0.36621565767E+03 -0.14690882861E+04 -0.69173594969E+02  0.15156255802E+04  0.12699999809E+01 0. -1.
       -4    1    3    3    0  502 -0.36621565767E+03  0.14690882861E+04 -0.84472263322E+03  0.17337509165E+04  0.12699999809E+01 0.  1.
</event>
<event>
 5   0  0.1999849E-06  0.2071037E+04  0.7818609E-02  0.8574110E-01
       -1   -1    0    0    0  501  0.00000000000E+00  0.00000000000E+00  0.10977448636E+04  0.10977448636E+04  0.50400001928E-02 0. -1.
        1   -1    0    0  501    0  0.00000000000E+00  0.00000000000E+00 -0.97681946538E+03  0.97681946539E+03  0.50400001928E-02 0.  1.
    10030    2    1    2    0    0  0.00000000000E+00  0.00000000000E+00  0.12092539819E+03  0.20745643290E+04  0.20710369874E+04 0.  0.
        5    1    3    3  502    0 -0.26841597978E+03  0.83943015017E+03  0.60506721106E+03  0.10690269104E+04  0.46999998093E+01 0. -1.
       -5    1    3    3    0  502  0.26841597978E+03 -0.83943015017E+03 -0.48414181287E+03  0.10055374186E+04  0.46999998093E+01 0.  1.
</event>
<event>
 5   0  0.5755250E-06  0.2767452E+04  0.7818609E-02  0.8313445E-01
       -2   -1    0    0    0  501  0.00000000000E+00  0.00000000000E+00  0.90945694024E+03  0.90945694024E+03  0.25500000920E-02 0.  1.
        2   -1    0    0  501    0  0.00000000000E+00  0.00000000000E+00 -0.21053193557E+04  0.21053193557E+04  0.25500000920E-02 0. -1.
    10030    2    1    2    0    0  0.00000000000E+00  0.00000000000E+00 -0.11958624155E+04  0.30147762960E+04  0.27674517517E+04 0.  0.
        5    1    3    3  502    0 -0.56405548070E+03 -0.12403007565E+04 -0.33519070838E+03  0.14031676496E+04  0.46999998093E+01 0.  1.
       -5    1    3    3    0  502  0.56405548070E+03  0.12403007565E+04 -0.86067170712E+03  0.16116086464E+04  0.46999998093E+01 0. -1.
</event>
<event>
 5   0  0.2037109E-06  0.3365661E+04  0.7818609E-02  0.8146386E-01
       -1   -1    0    0    0  501  0.00000000000E+00  0.00000000000E+00  0.18597807864E+04  0.18597807864E+04  0.50400001928E-02 0. -1.
        1   -1    0    0  501    0  0.00000000000E+00  0.00000000000E+00 -0.15227162559E+04  0.15227162559E+04  0.50400001928E-02 0.  1.
    10030    2    1    2    0    0  0.00000000000E+00  0.00000000000E+00  0.33706453047E+03  0.33824970423E+04  0.33656609668E+04 0.  0.
        2    1    3    3  502    0  0.99325906023E+03  0.43282677953E+03  0.14626130809E+04  0.18202031772E+04  0.25500000920E-02 0. -1.
       -2    1    3    3    0  502 -0.99325906023E+03 -0.43282677953E+03 -0.11255485504E+04  0.15622938652E+04  0.25500000920E-02 0.  1.
</event>
<event>
 5   0  0.5622811E-06  0.2477918E+04  0.7818609E-02  0.8410895E-01
        2   -1    0    0  501    0  0.00000000000E+00  0.00000000000E+00  0.19668303070E+04  0.19668303070E+04  0.25500000920E-02 0. -1.
       -2   -1    0    0    0  501  0.00000000000E+00  0.00000000000E+00 -0.78045316871E+03  0.78045316872E+03  0.25500000920E-02 0.  1.
    10030    2    1    2    0    0  0.00000000000E+00  0.00000000000E+00  0.11863771383E+04  0.27472834757E+04  0.24779176301E+04 0.  0.
        1    1    3    3  502    0  0.12188403223E+04  0.20442020801E+03  0.49615557197E+03  0.13317393530E+04  0.50400001928E-02 0. -1.
       -1    1    3    3    0  502 -0.12188403223E+04 -0.20442020801E+03  0.69022156630E+03  0.14155441227E+04  0.50400001928E-02 0.  1.
</event>
<event>
 5   0  0.1999849E-06  0.3094857E+04  0.7818609E-02  0.8217151E-01
        1   -1    0    0  501    0  0.00000000000E+00  0.00000000000E+00  0.14582381804E+04  0.14582381804E+04  0.50400001928E-02 0.  1.
       -1   -1    0    0    0  501  0.00000000000E+00  0.00000000000E+00 -0.16420740660E+04  0.16420740660E+04  0.50400001928E-02 0. -1.
    10030    2    1    2    0    0  0.00000000000E+00  0.00000000000E+00 -0.18383588560E+03  0.31003122465E+04  0.30948570876E+04 0.  0.
        5    1    3    3  502    0 -0.26236881215E+03 -0.15187190887E+04  0.46774438070E+02  0.15419322301E+04  0.46999998093E+01 0.  1.
       -5    1    3    3    0  502  0.26236881215E+03  0.15187190887E+04 -0.23061032367E+03  0.15583800164E+04  0.46999998093E+01 0. -1.
</event>
<event>
 5   0  0.2037109E-06  0.1740401E+04  0.7818609E-02  0.8738652E-01
        1   -1    0    0  501    0  0.00000000000E+00  0.00000000000E+00  0.17747313052E+04  0.17747313053E+04  0.50400001928E-02 0.  1.
       -1   -1    0    0    0  501  0.00000000000E+00  0.00000000000E+00 -0.42668374565E+03  0.42668374568E+03  0.50400001928E-02 0. -1.
    10030    2    1    2    0    0  0.00000000000E+00  0.00000000000E+00  0.13480475596E+04  0.22014150509E+04  0.17404011042E+04 0.  0.
        2    1    3    3  502    0  0.49711108767E+03 -0.61290557453E+03  0.11378715742E+04  0.13847470513E+04  0.25500000920E-02 0.  1.
       -2    1    3    3    0  502 -0.49711108767E+03  0.61290557453E+03  0.21017598544E+03  0.81666799964E+03  0.25500000920E-02 0. -1.
</event>
<event>
 5   0  0.5637538E-06  0.3366598E+04  0.7818609E-02  0.8146153E-01
       -2   -1    0    0    0  501  0.00000000000E+00  0.00000000000E+00  0.25530964548E+04  0.25530964548E+04  0.25500000920E-02 0. -1.
        2   -1    0    0  501    0  0.00000000000E+00  0.00000000000E+00 -0.11098270998E+04  0.11098270998E+04  0.25500000920E-02 0.  1.
    10030    2    1    2    0    0  0.00000000000E+00  0.00000000000E+00  0.14432693550E+04  0.36629235547E+04  0.33665980657E+04 0.  0.
        2    1    3    3  502    0 -0.39229631316E+03  0.89288924411E+03  0.22143828490E+04  0.24196361300E+04  0.25500000920E-02 0. -1.
       -2    1    3    3    0  502  0.39229631316E+03 -0.89288924411E+03 -0.77111349402E+03  0.12432874246E+04  0.25500000920E-02 0.  1.
</event>
<event>
 5   0  0.5637538E-06  0.3186227E+04  0.7818609E-02  0.8192464E-01
       -2   -1    0    0    0  501  0.00000000000E+00  0.00000000000E+00  0.15422959951E+04  0.15422959951E+04  0.25500000920E-02 0. -1.
        2   -1    0    0  501    0  0.00000000000E+00  0.00000000000E+00 -0.16456055622E+04  0.16456055622E+04  0.25500000920E-02 0.  1.
    10030    2    1    2    0    0  0.00000000000E+00  0.00000000000E+00 -0.10330956705E+03  0.31879015573E+04  0.31862271533E+04 0.  0.
        2    1    3    3  502    0 -0.36798756766E+03 -0.10349030389E+04  0.11028891102E+04  0.15565357495E+04  0.25500000920E-02 0. -1.
       -2    1    3    3    0  502  0.36798756766E+03  0.10349030389E+04 -0.12061986773E+04  0.16313658078E+04  0.25500000920E-02 0.  1.
</event>
<event>
 5   0  0.5300268E-06  0.2622404E+04  0.7818609E-02  0.8360631E-01
        2   -1    0    0  501    0  0.00000000000E+00  0.00000000000E+00  0.11257376960E+04  0.11257376960E+04  0.25500000920E-02 0.  1.
       -2   -1    0    0    0  501  0.00000000000E+00  0.00000000000E+00 -0.15272210840E+04  0.15272210840E+04  0.25500000920E-02 0. -1.
    10030    2    1    2    0    0  0.00000000000E+00  0.00000000000E+00 -0.40148338802E+03  0.26529587800E+04  0.26224037403E+04 0.  0.
        4    1    3    3  502    0  0.99233143592E+03  0.83439724454E+03 -0.39874723131E+03  0.13564443991E+04  0.12699999809E+01 0.  1.
       -4    1    3    3    0  502 -0.99233143592E+03 -0.83439724454E+03 -0.27361567104E+01  0.12965143809E+04  0.12699999809E+01 0. -1.
</event>
<event>
 5   0  0.5637538E-06  0.1959460E+04  0.7818609E-02  0.8625813E-01
       -2   -1    0    0    0  501  0.00000000000E+00  0.00000000000E+00  0.71539924630E+03  0.71539924631E+03  0.25500000920E-02 0.  1.
        2   -1    0    0  501    0  0.00000000000E+00  0.00000000000E+00 -0.13417270670E+04  0.13417270670E+04  0.25500000920E-02 0. -1.
    10030    2    1    2    0    0  0.00000000000E+00  0.00000000000E+00 -0.62632782070E+03  0.20571263133E+04  0.19594596525E+04 0.  0.
        2    1    3    3  502    0  0.14249750512E+03  0.53365818798E+03 -0.11626774880E+04  0.12872123141E+04  0.25500000920E-02 0. -1.
       -2    1    3    3    0  502 -0.14249750512E+03 -0.53365818798E+03  0.53634966728E+03  0.76991399919E+03  0.25500000920E-02 0.  1.
</event>
<event>
 5   0  0.5637538E-06  0.3225361E+04  0.7818609E-02  0.8182151E-01
       -2   -1    0    0    0  501  0.00000000000E+00  0.00000000000E+00  0.19651978620E+04  0.19651978620E+04  0.25500000920E-02 0.  1.
        2   -1    0    0  501    0  0.00000000000E+00  0.00000000000E+00 -0.13233980509E+04  0.13233980509E+04  0.25500000920E-02 0. -1.
    10030    2    1    2    0    0  0.00000000000E+00  0.00000000000E+00  0.64179981112E+03  0.32885959129E+04  0.32253613877E+04 0.  0.
        2    1    3    3  502    0  0.94327683608E+03 -0.12684948625E+04  0.64635791117E+03  0.17078140868E+04  0.25500000920E-02 0. -1.
       -2    1    3    3    0  502 -0.94327683608E+03  0.12684948625E+04 -0.45581000464E+01  0.15807818262E+04  0.25500000920E-02 0.  1.
</event>
<event>
 5   0  0.5855568E-06  0.2146288E+04  0.7818609E-02  0.8541123E-01
        2   -1    0    0  501    0  0.00000000000E+00  0.00000000000E+00  0.12446794041E+04  0.12446794041E+04  0.25500000920E-02 0. -1.
       -2   -1    0    0    0  501  0.00000000000E+00  0.00000000000E+00 -0.92524912997E+03  0.92524912997E+03  0.25500000920E-02 0.  1.
    10030    2    1    2    0    0  0.00000000000E+00  0.00000000000E+00  0.31943027416E+03  0.21699285341E+04  0.21462884576E+04 0.  0.
        3    1    3    3  502    0 -0.38833984355E+03  0.15852203685E+03 -0.83894063640E+03  0.93795440820E+03  0.10100000352E+00 0.  1.
       -3    1    3    3    0  502  0.38833984355E+03 -0.15852203685E+03  0.11583709106E+04  0.12319741259E+04  0.10100000352E+00 0. -1.
</event>
<event>
 5   0  0.2097842E-06  0.3318403E+04  0.7818609E-02  0.8158228E-01
       -1   -1    0    0    0  501  0.00000000000E+00  0.00000000000E+00  0.14417109532E+04  0.14417109532E+04  0.50400001928E-02 0.  1.
        1   -1    0    0  501    0  0.00000000000E+00  0.00000000000E+00 -0.19095022239E+04  0.19095022240E+04  0.50400001928E-02 0. -1.
    10030    2    1    2    0    0  0.00000000000E+00  0.00000000000E+00 -0.46779127079E+03  0.33512131771E+04  0.33184033940E+04 0.  0.
        4    1    3    3  502    0 -0.15703826081E+03  0.73578060925E+03 -0.17273390837E+04  0.18840743200E+04  0.12699999809E+01 0. -1.
       -4    1    3    3    0  502  0.15703826081E+03 -0.73578060925E+03  0.12595478129E+04  0.14671388571E+04  0.12699999809E+01 0.  1.
</event>
<event>
 5   0  0.1925906E-06  0.2974727E+04  0.7818609E-02  0.8250985E-01
       -1   -1    0    0    0  501  0.00000000000E+00  0.00000000000E+00  0.15058069779E+04  0.15058069779E+04  0.50400001928E-02 0. -1.
        1   -1    0    0  501    0  0.00000000000E+00  0.00000000000E+00 -0.14691457145E+04  0.14691457145E+04  0.50400001928E-02 0.  1.
    10030    2    1    2    0    0  0.00000000000E+00  0.00000000000E+00  0.36661263433E+02  0.29749526924E+04  0.29747267898E+04 0.  0.
        1    1    3    3  502    0 -0.53708465330E+03  0.13822970003E+04  0.13255378190E+03  0.14888839535E+04  0.50400001928E-02 0. -1.
       -1    1    3    3    0  502  0.53708465330E+03 -0.13822970003E+04 -0.95892518463E+02  0.14860687390E+04  0.50400001928E-02 0.  1.
</event>
<event>
 5   0  0.2830952E-06  0.1802502E+04  0.7818609E-02  0.8704970E-01
       -1   -1    0    0    0  501  0.00000000000E+00  0.00000000000E+00  0.11863035563E+04  0.11863035563E+04  0.50400001928E-02 0. -1.
        1   -1    0    0  501    0  0.00000000000E+00  0.00000000000E+00 -0.68469245276E+03  0.68469245278E+03  0.50400001928E-02 0.  1.
    10030    2    1    2    0    0  0.00000000000E+00  0.00000000000E+00  0.50161110351E+03  0.18709960091E+04  0.18025016967E+04 0.  0.
        3    1    3    3  502    0  0.41907064111E+03  0.21789109084E+03  0.10475379196E+04  0.11491007061E+04  0.10100000352E+00 0. -1.
       -3    1    3    3    0  502 -0.41907064111E+03 -0.21789109084E+03 -0.54592681605E+03  0.72189530293E+03  0.10100000352E+00 0.  1.
</event>
<event>
 5   0  0.2037109E-06  0.2775998E+04  0.7818609E-02  0.8310759E-01
       -1   -1    0    0    0  501  0.00000000000E+00  0.00000000000E+00  0.16930506164E+04  0.16930506164E+04  0.50400001928E-02 0.  1.
        1   -1    0    0  501    0  0.00000000000E+00  0.00000000000E+00 -0.11379114208E+04  0.11379114208E+04  0.50400001928E-02 0. -1.
    10030    2    1    2    0    0  0.00000000000E+00  0.00000000000E+00  0.55513919564E+03  0.28309620372E+04  0.27759982942E+04 0.  0.
        2    1    3    3  502    0  0.44061477102E+03 -0.12186023645E+04  0.78481975221E+03  0.15149505413E+04  0.25500000920E-02 0.  1.
       -2    1    3    3    0  502 -0.44061477102E+03  0.12186023645E+04 -0.22968055657E+03  0.13160114959E+04  0.25500000920E-02 0. -1.
</event>
<event>
 5   0  0.1925906E-06  0.2447566E+04  0.7818609E-02  0.8421907E-01
       -1   -1    0    0    0  501  0.00000000000E+00  0.00000000000E+00  0.10338851985E+04  0.10338851985E+04  0.50400001928E-02 0. -1.
        1   -1    0    0  501    0  0.00000000000E+00  0.00000000000E+00 -0.14485601729E+04  0.14485601729E+04  0.50400001928E-02 0.  1.
    10030    2    1    2    0    0  0.00000000000E+00  0.00000000000E+00 -0.41467497437E+03  0.24824453714E+04  0.24475660742E+04 0.  0.
        1    1    3    3  502    0  0.24458249181E+03  0.23768148051E+02  0.10086044982E+04  0.10381081610E+04  0.50400001928E-02 0. -1.
       -1    1    3    3    0  502 -0.24458249181E+03 -0.23768148051E+02 -0.14232794726E+04  0.14443372104E+04  0.50400001928E-02 0.  1.
</event>
<event>
 5   0  0.5300268E-06  0.3284020E+04  0.7818609E-02  0.8166973E-01
        2   -1    0    0  501    0  0.00000000000E+00  0.00000000000E+00  0.14961462537E+04  0.14961462537E+04  0.25500000920E-02 0. -1.
       -2   -1    0    0    0  501  0.00000000000E+00  0.00000000000E+00 -0.18020947714E+04  0.18020947714E+04  0.25500000920E-02 0.  1.
    10030    2    1    2    0    0  0.00000000000E+00  0.00000000000E+00 -0.30594851764E+03  0.32982410251E+04  0.32840203051E+04 0.  0.
        4    1    3    3  502    0 -0.10018364868E+04  0.42555621275E+03 -0.13876966490E+04  0.17636547391E+04  0.12699999809E+01 0.  1.
       -4    1    3    3    0  502  0.10018364868E+04 -0.42555621275E+03  0.10817481313E+04  0.15345862859E+04  0.12699999809E+01 0. -1.
</event>
<event>
 5   0  0.5300268E-06  0.2990818E+04  0.7818609E-02  0.8246358E-01
        2   -1    0    0  501    0  0.00000000000E+00  0.00000000000E+00  0.15644884116E+04  0.15644884116E+04  0.25500000920E-02 0. -1.
       -2   -1    0    0    0  501  0.00000000000E+00  0.00000000000E+00 -0.14293796437E+04  0.14293796437E+04  0.25500000920E-02 0.  1.
    10030    2    1    2    0    0  0.00000000000E+00  0.00000000000E+00  0.13510876792E+03  0.29938680553E+04  0.29908178736E+04 0.  0.
        4    1    3    3  502    0 -0.51559609747E+03 -0.89230943011E+03 -0.10171515835E+04  0.14479828768E+04  0.12699999809E+01 0.  1.
       -4    1    3    3    0  502  0.51559609747E+03  0.89230943011E+03  0.11522603514E+04  0.15458851785E+04  0.12699999809E+01 0. -1.
</event>
<event>
 5   0  0.5637538E-06  0.2153751E+04  0.7818609E-02  0.8537928E-01
       -2   -1    0    0    0  501  0.00000000000E+00  0.00000000000E+00  0.76543162878E+03  0.76543162879E+03  0.25500000920E-02 0. -1.
        2   -1    0    0  501    0  0.00000000000E+00  0.00000000000E+00 -0.15150424096E+04  0.15150424096E+04  0.25500000920E-02 0.  1.
    10030    2    1    2    0    0  0.00000000000E+00  0.00000000000E+00 -0.74961078081E+03  0.22804740384E+04  0.21537514984E+04 0.  0.
        2    1    3    3  502    0  0.20968621927E+03 -0.16697182412E+03 -0.14791554468E+04  0.15032460665E+04  0.25500000920E-02 0.  1.
       -2    1    3    3    0  502 -0.20968621927E+03  0.16697182412E+03  0.72954466600E+03  0.77722797189E+03  0.25500000920E-02 0. -1.
</event>
<event>
 5   0  0.1878000E-06  0.3288730E+04  0.7818609E-02  0.8165769E-01
       -3   -1    0    0    0  501  0.00000000000E+00  0.00000000000E+00  0.22498081125E+04  0.22498081148E+04  0.10100000352E+00 0. -1.
        3   -1    0    0  501    0  0.00000000000E+00  0.00000000000E+00 -0.12018517404E+04  0.12018517446E+04  0.10100000352E+00 0.  1.
    10030    2    1    2    0    0  0.00000000000E+00  0.00000000000E+00  0.10479563721E+04  0.34516598594E+04  0.32887297285E+04 0.  0.
        1    1    3    3  502    0 -0.10150233067E+04  0.90374340122E+02 -0.83049870932E+03  0.13145980148E+04  0.50400001928E-02 0.  1.
       -1    1    3    3    0  502  0.10150233067E+04 -0.90374340122E+02  0.18784550815E+04  0.21370618446E+04  0.50400001928E-02 0. -1.
</event>
<event>
 5   0  0.2097842E-06  0.2932624E+04  0.7818609E-02  0.8263236E-01
       -1   -1    0    0    0  501  0.00000000000E+00  0.00000000000E+00  0.74905660459E+03  0.74905660461E+03  0.50400001928E-02 0. -1.
        1   -1    0    0  501    0  0.00000000000E+00  0.00000000000E+00 -0.28703720882E+04  0.28703720882E+04  0.50400001928E-02 0.  1.
    10030    2    1    2    0    0  0.00000000000E+00  0.00000000000E+00 -0.21213154836E+04  0.36194286928E+04  0.29326241971E+04 0.  0.
        4    1    3    3  502    0 -0.74932812120E+03  0.23571965926E+03 -0.25887745537E+04  0.27053302375E+04  0.12699999809E+01 0.  1.
       -4    1    3    3    0  502  0.74932812120E+03 -0.23571965926E+03  0.46745907008E+03  0.91409845535E+03  0.12699999809E+01 0. -1.
</event>
<event>
 5   0  0.2730981E-06  0.3314533E+04  0.7818609E-02  0.8159207E-01
       -1   -1    0    0    0  501  0.00000000000E+00  0.00000000000E+00  0.97691962390E+03  0.97691962391E+03  0.50400001928E-02 0.  1.
        1   -1    0    0  501    0  0.00000000000E+00  0.00000000000E+00 -0.28114208287E+04  0.28114208287E+04  0.50400001928E-02 0. -1.
    10030    2    1    2    0    0  0.00000000000E+00  0.00000000000E+00 -0.18345012048E+04  0.37883404526E+04  0.33145329557E+04 0.  0.
        3    1    3    3  502    0  0.10235153339E+04  0.56077265601E+03  0.42758873625E+03  0.12429327206E+04  0.10100000352E+00 0.  1.
       -3    1    3    3    0  502 -0.10235153339E+04 -0.56077265601E+03 -0.22620899411E+04  0.25454077320E+04  0.10100000352E+00 0. -1.
</event>
<event>
 5   0  0.2097842E-06  0.1767951E+04  0.7818609E-02  0.8723531E-01
        1   -1    0    0  501    0  0.00000000000E+00  0.00000000000E+00  0.13379404422E+04  0.13379404422E+04  0.50400001928E-02 0.  1.
       -1   -1    0    0    0  501  0.00000000000E+00  0.00000000000E+00 -0.58404159102E+03  0.58404159104E+03  0.50400001928E-02 0. -1.
    10030    2    1    2    0    0  0.00000000000E+00  0.00000000000E+00  0.75389885115E+03  0.19219820332E+04  0.17679512036E+04 0.  0.
        4    1    3    3  502    0 -0.47939380326E+03 -0.12090828844E+03 -0.41967879280E+03  0.64851301825E+03  0.12699999809E+01 0. -1.
       -4    1    3    3    0  502  0.47939380326E+03  0.12090828844E+03  0.11735776439E+04  0.12734690150E+04  0.12699999809E+01 0.  1.
</event>
<event>
 5   0  0.2097842E-06  0.3234474E+04  0.7818609E-02  0.8179772E-01
       -1   -1    0    0    0  501  0.00000000000E+00  0.00000000000E+00  0.12623556914E+04  0.12623556914E+04  0.50400001928E-02 0. -1.
        1   -1    0    0  501    0  0.00000000000E+00  0.00000000000E+00 -0.20718850384E+04  0.20718850385E+04  0.50400001928E-02 0.  1.
    10030    2    1    2    0    0  0.00000000000E+00  0.00000000000E+00 -0.80952934707E+03  0.33342407298E+04  0.32344742201E+04 0.  0.
        4    1    3    3  502    0  0.43766584527E+03  0.62641097919E+03 -0.18740392723E+04  0.20238495285E+04  0.12699999809E+01 0.  1.
       -4    1    3    3    0  502 -0.43766584527E+03 -0.62641097919E+03  0.10645099252E+04  0.13103912014E+04  0.12699999809E+01 0. -1.
</event>
<event>
 5   0  0.5622811E-06  0.2192581E+04  0.7818609E-02  0.8521523E-01
        2   -1    0    0  501    0  0.00000000000E+00  0.00000000000E+00  0.19842645483E+04  0.19842645483E+04  0.25500000920E-02 0.  1.
       -2   -1    0    0    0  501  0.00000000000E+00  0.00000000000E+00 -0.60569164829E+03  0.60569164830E+03  0.25500000920E-02 0. -1.
    10030    2    1    2    0    0  0.00000000000E+00  0.00000000000E+00  0.13785729000E+04  0.25899561966E+04  0.21925806393E+04 0.  0.
        1    1    3    3  502    0 -0.27245739686E+03  0.30766094240E+02 -0.56453519889E+03  0.62759826041E+03  0.50400001928E-02 0. -1.
       -1    1    3    3    0  502  0.27245739686E+03 -0.30766094240E+02  0.19431080989E+04  0.19623579362E+04  0.50400001928E-02 0.  1.
</event>
<event>
 5   0  0.5637538E-06  0.2082755E+04  0.7818609E-02  0.8568878E-01
        2   -1    0    0  501    0  0.00000000000E+00  0.00000000000E+00  0.18043333943E+04  0.18043333943E+04  0.25500000920E-02 0.  1.
       -2   -1    0    0    0  501  0.00000000000E+00  0.00000000000E+00 -0.60103462036E+03  0.60103462036E+03  0.25500000920E-02 0. -1.
    10030    2    1    2    0    0  0.00000000000E+00  0.00000000000E+00  0.12032987739E+04  0.24053680146E+04  0.20827547495E+04 0.  0.
        2    1    3    3  502    0 -0.91583260051E+03 -0.29116398293E+03  0.13833394815E+03  0.97090787324E+03  0.25500000920E-02 0. -1.
       -2    1    3    3    0  502  0.91583260051E+03  0.29116398293E+03  0.10649648258E+04  0.14344601414E+04  0.25500000920E-02 0.  1.
</event>
<event>
 5   0  0.5855568E-06  0.2566239E+04  0.7818609E-02  0.8379760E-01
       -2   -1    0    0    0  501  0.00000000000E+00  0.00000000000E+00  0.13183614345E+04  0.13183614345E+04  0.25500000920E-02 0. -1.
        2   -1    0    0  501    0  0.00000000000E+00  0.00000000000E+00 -0.12488193017E+04  0.12488193017E+04  0.25500000920E-02 0.  1.
    10030    2    1    2    0    0  0.00000000000E+00  0.00000000000E+00  0.69542132828E+02  0.25671807362E+04  0.25662386530E+04 0.  0.
        3    1    3    3  502    0  0.98604722782E+03 -0.70246173895E+03 -0.39041857163E+03  0.12720724435E+04  0.10100000352E+00 0.  1.
       -3    1    3    3    0  502 -0.98604722782E+03  0.70246173895E+03  0.45996070446E+03  0.12951082928E+04  0.10100000352E+00 0. -1.
</event>
<event>
 5   0  0.5755250E-06  0.3311380E+04  0.7818609E-02  0.8160006E-01
        2   -1    0    0  501    0  0.00000000000E+00  0.00000000000E+00  0.23325323408E+04  0.23325323408E+04  0.25500000920E-02 0. -1.
       -2   -1    0    0    0  501  0.00000000000E+00  0.00000000000E+00 -0.11752506205E+04  0.11752506205E+04  0.25500000920E-02 0.  1.
    10030    2    1    2    0    0  0.00000000000E+00  0.00000000000E+00  0.11572817204E+04  0.35077829613E+04  0.33113804256E+04 0.  0.
        5    1    3    3  502    0  0.71166755465E+03 -0.14751091708E+04  0.32161817635E+03  0.16690949989E+04  0.46999998093E+01 0. -1.
       -5    1    3    3    0  502 -0.71166755465E+03  0.14751091708E+04  0.83566354400E+03  0.18386879623E+04  0.46999998093E+01 0.  1.
</event>
<event>
 5   0  0.1999849E-06  0.3285963E+04  0.7818609E-02  0.8166476E-01
       -1   -1    0    0    0  501  0.00000000000E+00  0.00000000000E+00  0.16833028701E+04  0.16833028701E+04  0.50400001928E-02 0.  1.
        1   -1    0    0  501    0  0.00000000000E+00  0.00000000000E+00 -0.16036257882E+04  0.16036257882E+04  0.50400001928E-02 0. -1.
    10030    2    1    2    0    0  0.00000000000E+00  0.00000000000E+00  0.79677081939E+02  0.32869286583E+04  0.32859628067E+04 0.  0.
        5    1    3    3  502    0 -0.13181342408E+03  0.13420243886E+04  0.97870995185E+03  0.16662231238E+04  0.46999998093E+01 0.  1.
       -5    1    3    3    0  502  0.13181342408E+03 -0.13420243886E+04 -0.89903286991E+03  0.16207055345E+04  0.46999998093E+01 0. -1.
</event>
<event>
 5   0  0.2037109E-06  0.3220813E+04  0.7818609E-02  0.8183342E-01
       -1   -1    0    0    0  501  0.00000000000E+00  0.00000000000E+00  0.14307052791E+04  0.14307052791E+04  0.50400001928E-02 0.  1.
        1   -1    0    0  501    0  0.00000000000E+00  0.00000000000E+00 -0.18126785675E+04  0.18126785675E+04  0.50400001928E-02 0. -1.
    10030    2    1    2    0    0  0.00000000000E+00  0.00000000000E+00 -0.38197328837E+03  0.32433838466E+04  0.32208128140E+04 0.  0.
        2    1    3    3  502    0  0.46539657842E+03 -0.39919311966E+03 -0.16905358782E+04  0.17982938240E+04  0.25500000920E-02 0. -1.
       -2    1    3    3    0  502 -0.46539657842E+03  0.39919311966E+03  0.13085625898E+04  0.14450900226E+04  0.25500000920E-02 0.  1.
</event>
<event>
 5   0  0.1999849E-06  0.3225094E+04  0.7818609E-02  0.8182221E-01
       -1   -1    0    0    0  501  0.00000000000E+00  0.00000000000E+00  0.12285639827E+04  0.12285639827E+04  0.50400001928E-02 0. -1.
        1   -1    0    0  501    0  0.00000000000E+00  0.00000000000E+00 -0.21165429871E+04  0.21165429871E+04  0.50400001928E-02 0.  1.
    10030    2    1    2    0    0  0.00000000000E+00  0.00000000000E+00 -0.88797900436E+03  0.33451069698E+04  0.32250944059E+04 0.  0.
        5    1    3    3  502    0  0.11265903797E+04 -0.12055378192E+03 -0.16340959566E+04  0.19884744865E+04  0.46999998093E+01 0.  1.
       -5    1    3    3    0  502 -0.11265903797E+04  0.12055378192E+03  0.74611695228E+03  0.13566324832E+04  0.46999998093E+01 0. -1.
</event>
<event>
 5   0  0.5637538E-06  0.2492996E+04  0.7818609E-02  0.8405485E-01
        2   -1    0    0  501    0  0.00000000000E+00  0.00000000000E+00  0.12537265253E+04  0.12537265253E+04  0.25500000920E-02 0.  1.
       -2   -1    0    0    0  501  0.00000000000E+00  0.00000000000E+00 -0.12393114925E+04  0.12393114925E+04  0.25500000920E-02 0. -1.
    10030    2    1    2    0    0  0.00000000000E+00  0.00000000000E+00  0.14415032807E+02  0.24930380177E+04  0.24929963427E+04 0.  0.
        2    1    3    3  502    0 -0.11559815058E+04  0.31604462748E+03 -0.33569797203E+03  0.12445362899E+04  0.25500000920E-02 0. -1.
       -2    1    3    3    0  502  0.11559815058E+04 -0.31604462748E+03  0.35011300484E+03  0.12485017279E+04  0.25500000920E-02 0.  1.
</event>
<event>
 5   0  0.5622811E-06  0.3157418E+04  0.7818609E-02  0.8200154E-01
       -2   -1    0    0    0  501  0.00000000000E+00  0.00000000000E+00  0.14815220559E+04  0.14815220559E+04  0.25500000920E-02 0. -1.
        2   -1    0    0  501    0  0.00000000000E+00  0.00000000000E+00 -0.16822713868E+04  0.16822713868E+04  0.25500000920E-02 0.  1.
    10030    2    1    2    0    0  0.00000000000E+00  0.00000000000E+00 -0.20074933087E+03  0.31637934427E+04  0.31574180361E+04 0.  0.
        1    1    3    3  502    0  0.13006287336E+04  0.58575809832E+03  0.57743373717E+03  0.15388883563E+04  0.50400001928E-02 0. -1.
       -1    1    3    3    0  502 -0.13006287336E+04 -0.58575809832E+03 -0.77818306803E+03  0.16249050864E+04  0.50400001928E-02 0.  1.
</event>
<event>
 5   0  0.5622811E-06  0.3301223E+04  0.7818609E-02  0.8162584E-01
       -2   -1    0    0    0  501  0.00000000000E+00  0.00000000000E+00  0.14942310214E+04  0.14942310214E+04  0.25500000920E-02 0. -1.
        2   -1    0    0  501    0  0.00000000000E+00  0.00000000000E+00 -0.18233577552E+04  0.18233577552E+04  0.25500000920E-02 0.  1.
    10030    2    1    2    0    0  0.00000000000E+00  0.00000000000E+00 -0.32912673381E+03  0.33175887767E+04  0.33012226347E+04 0.  0.
        1    1    3    3  502    0 -0.10654086783E+04 -0.10214692934E+04  0.57803335727E+03  0.15851238852E+04  0.50400001928E-02 0. -1.
       -1    1    3    3    0  502  0.10654086783E+04  0.10214692934E+04 -0.90716009108E+03  0.17324648915E+04  0.50400001928E-02 0.  1.
</event>
<event>
 5   0  0.5855568E-06  0.3179341E+04  0.7818609E-02  0.8194295E-01
       -2   -1    0    0    0  501  0.00000000000E+00  0.00000000000E+00  0.19090732797E+04  0.19090732797E+04  0.25500000920E-02 0.  1.
        2   -1    0    0  501    0  0.00000000000E+00  0.00000000000E+00 -0.13237062358E+04  0.13237062359E+04  0.25500000920E-02 0. -1.
    10030    2    1    2    0    0  0.00000000000E+00  0.00000000000E+00  0.58536704389E+03  0.32327795156E+04  0.31793409412E+04 0.  0.
        3    1    3    3  502    0  0.11967281033E+04  0.30534519002E+03 -0.72496731062E+03  0.14321213112E+04  0.10100000352E+00 0. -1.
       -3    1    3    3    0  502 -0.11967281033E+04 -0.30534519002E+03  0.13103343545E+04  0.18006582044E+04  0.10100000352E+00 0.  1.
</event>
<event>
 5   0  0.2097842E-06  0.3282114E+04  0.7818609E-02  0.8167462E-01
       -1   -1    0    0    0  501  0.00000000000E+00  0.00000000000E+00  0.20248905947E+04  0.20248905947E+04  0.50400001928E-02 0.  1.
        1   -1    0    0  501    0  0.00000000000E+00  0.00000000000E+00 -0.13299818024E+04  0.13299818024E+04  0.50400001928E-02 0. -1.
    10030    2    1    2    0    0  0.00000000000E+00  0.00000000000E+00  0.69490879230E+03  0.33548723970E+04  0.32821137352E+04 0.  0.
        4    1    3    3  502    0  0.99546374406E+03  0.12944931446E+04  0.18135453477E+03  0.16430312375E+04  0.12699999809E+01 0.  1.
       -4    1    3    3    0  502 -0.99546374406E+03 -0.12944931446E+04  0.51355425753E+03  0.17118411595E+04  0.12699999809E+01 0. -1.
</event>
<event>
 5   0  0.5622811E-06  0.2504712E+04  0.7818609E-02  0.8401309E-01
        2   -1    0    0  501    0  0.00000000000E+00  0.00000000000E+00  0.10595093194E+04  0.10595093194E+04  0.25500000920E-02 0. -1.
       -2   -1    0    0    0  501  0.00000000000E+00  0.00000000000E+00 -0.14803036379E+04  0.14803036379E+04  0.25500000920E-02 0.  1.
    10030    2    1    2    0    0  0.00000000000E+00  0.00000000000E+00 -0.42079431846E+03  0.25398129573E+04  0.25047119594E+04 0.  0.
        1    1    3    3  502    0  0.29801977347E+03 -0.11823238363E+04 -0.50021729401E+03  0.13179236627E+04  0.50400001928E-02 0.  1.
       -1    1    3    3    0  502 -0.29801977347E+03  0.11823238363E+04  0.79422975544E+02  0.12218892947E+04  0.50400001928E-02 0. -1.
</event>
<event>
 5   0  0.2037109E-06  0.3193882E+04  0.7818609E-02  0.8190435E-01
        1   -1    0    0  501    0  0.00000000000E+00  0.00000000000E+00  0.22058019355E+04  0.22058019355E+04  0.50400001928E-02 0.  1.
       -1   -1    0    0    0  501  0.00000000000E+00  0.00000000000E+00 -0.11561424038E+04  0.11561424038E+04  0.50400001928E-02 0. -1.
    10030    2    1    2    0    0  0.00000000000E+00  0.00000000000E+00  0.10496595316E+04  0.33619443393E+04  0.31938823723E+04 0.  0.
        2    1    3    3  502    0  0.13156681010E+03  0.33349985065E+03 -0.11132339927E+04  0.11695391821E+04  0.25500000920E-02 0. -1.
       -2    1    3    3    0  502 -0.13156681010E+03 -0.33349985065E+03  0.21628935243E+04  0.21924051573E+04  0.25500000920E-02 0.  1.
</event>
<event>
 5   0  0.5755250E-06  0.3121243E+04  0.7818609E-02  0.8209932E-01
        2   -1    0    0  501    0  0.00000000000E+00  0.00000000000E+00  0.19497428586E+04  0.19497428586E+04  0.25500000920E-02 0.  1.
       -2   -1    0    0    0  501  0.00000000000E+00  0.00000000000E+00 -0.12491596008E+04  0.12491596008E+04  0.25500000920E-02 0. -1.
    10030    2    1    2    0    0  0.00000000000E+00  0.00000000000E+00  0.70058325773E+03  0.31989024594E+04  0.31212433490E+04 0.  0.
        5    1    3    3  502    0  0.14283570723E+04 -0.28930483181E+03  0.92240715830E+03  0.17247487549E+04  0.46999998093E+01 0.  1.
       -5    1    3    3    0  502 -0.14283570723E+04  0.28930483181E+03 -0.22182390058E+03  0.14741537045E+04  0.46999998093E+01 0. -1.
</event>
<event>
 5   0  0.5855568E-06  0.3284705E+04  0.7818609E-02  0.8166798E-01
        2   -1    0    0  501    0  0.00000000000E+00  0.00000000000E+00  0.30901128775E+04  0.30901128775E+04  0.25500000920E-02 0.  1.
       -2   -1    0    0    0  501  0.00000000000E+00  0.00000000000E+00 -0.87288774893E+03  0.87288774893E+03  0.25500000920E-02 0. -1.
    10030    2    1    2    0    0  0.00000000000E+00  0.00000000000E+00  0.22172251286E+04  0.39630006265E+04  0.32847049631E+04 0.  0.
        3    1    3    3  502    0  0.85250770956E+03 -0.47905763236E+03  0.27005798945E+04  0.28721764198E+04  0.10100000352E+00 0.  1.
       -3    1    3    3    0  502 -0.85250770956E+03  0.47905763236E+03 -0.48335476584E+03  0.10908242067E+04  0.10100000352E+00 0. -1.
</event>
<event>
 5   0  0.2037109E-06  0.3387550E+04  0.7818609E-02  0.8140969E-01
        1   -1    0    0  501    0  0.00000000000E+00  0.00000000000E+00  0.20973497971E+04  0.20973497972E+04  0.50400001928E-02 0. -1.
       -1   -1    0    0    0  501  0.00000000000E+00  0.00000000000E+00 -0.13678561953E+04  0.13678561953E+04  0.50400001928E-02 0.  1.
    10030    2    1    2    0    0  0.00000000000E+00  0.00000000000E+00  0.72949360185E+03  0.34652059925E+04  0.33875495059E+04 0.  0.
        2    1    3    3  502    0  0.15755035191E+04  0.53499851395E+03  0.40561894438E+02  0.16643557360E+04  0.25500000920E-02 0.  1.
       -2    1    3    3    0  502 -0.15755035191E+04 -0.53499851395E+03  0.68893170742E+03  0.18008502565E+04  0.25500000920E-02 0. -1.
</event>
<event>
 5   0  0.2037109E-06  0.3425322E+04  0.7818609E-02  0.8131719E-01
       -1   -1    0    0    0  501  0.00000000000E+00  0.00000000000E+00  0.13956810091E+04  0.13956810091E+04  0.50400001928E-02 0.  1.
        1   -1    0    0  501    0  0.00000000000E+00  0.00000000000E+00 -0.21016320980E+04  0.21016320980E+04  0.50400001928E-02 0. -1.
    10030    2    1    2    0    0  0.00000000000E+00  0.00000000000E+00 -0.70595108894E+03  0.34973131071E+04  0.34253221789E+04 0.  0.
        2    1    3    3  502    0  0.16396108373E+04 -0.43857976938E+03 -0.58699149028E+03  0.17958939060E+04  0.25500000920E-02 0.  1.
       -2    1    3    3    0  502 -0.16396108373E+04  0.43857976938E+03 -0.11895959866E+03  0.17014192011E+04  0.25500000920E-02 0. -1.
</event>
<event>
 5   0  0.1999849E-06  0.3009830E+04  0.7818609E-02  0.8240929E-01
       -1   -1    0    0    0  501  0.00000000000E+00  0.00000000000E+00  0.14140608210E+04  0.14140608210E+04  0.50400001928E-02 0.  1.
        1   -1    0    0  501    0  0.00000000000E+00  0.00000000000E+00 -0.16016064896E+04  0.16016064896E+04  0.50400001928E-02 0. -1.
    10030    2    1    2    0    0  0.00000000000E+00  0.00000000000E+00 -0.18754566863E+03  0.30156673106E+04  0.30098298873E+04 0.  0.
        5    1    3    3  502    0  0.17585994094E+03  0.75767040284E+03 -0.13845865384E+04  0.15881099239E+04  0.46999998093E+01 0. -1.
       -5    1    3    3    0  502 -0.17585994094E+03 -0.75767040284E+03  0.11970408698E+04  0.14275573866E+04  0.46999998093E+01 0.  1.
</event>
<event>
 5   0  0.5637538E-06  0.2554881E+04  0.7818609E-02  0.8383691E-01
       -2   -1    0    0    0  501  0.00000000000E+00  0.00000000000E+00  0.91292294182E+03  0.91292294183E+03  0.25500000920E-02 0. -1.
        2   -1    0    0  501    0  0.00000000000E+00  0.00000000000E+00 -0.17875052811E+04  0.17875052811E+04  0.25500000920E-02 0.  1.
    10030    2    1    2    0    0  0.00000000000E+00  0.00000000000E+00 -0.87458233929E+03  0.27004282229E+04  0.25548812730E+04 0.  0.
        2    1    3    3  502    0  0.88257444516E+03  0.20316651624E+03 -0.13895252381E+04  0.16586122730E+04  0.25500000920E-02 0.  1.
       -2    1    3    3    0  502 -0.88257444516E+03 -0.20316651624E+03  0.51494289885E+03  0.10418159500E+04  0.25500000920E-02 0. -1.
</event>
<event>
 5   0  0.5637538E-06  0.1766685E+04  0.7818609E-02  0.8724219E-01
       -2   -1    0    0    0  501  0.00000000000E+00  0.00000000000E+00  0.56042183165E+03  0.56042183165E+03  0.25500000920E-02 0.  1.
        2   -1    0    0  501    0  0.00000000000E+00  0.00000000000E+00 -0.13923335118E+04  0.13923335118E+04  0.25500000920E-02 0. -1.
    10030    2    1    2    0    0  0.00000000000E+00  0.00000000000E+00 -0.83191168014E+03  0.19527553434E+04  0.17666851411E+04 0.  0.
        2    1    3    3  502    0  0.56819606044E+03  0.64687297297E+03 -0.63424690668E+03  0.10693739032E+04  0.25500000920E-02 0. -1.
       -2    1    3    3    0  502 -0.56819606044E+03 -0.64687297297E+03 -0.19766477346E+03  0.88338144022E+03  0.25500000920E-02 0.  1.
</event>
<event>
 5   0  0.2730981E-06  0.3262089E+04  0.7818609E-02  0.8172609E-01
        1   -1    0    0  501    0  0.00000000000E+00  0.00000000000E+00  0.17074750989E+04  0.17074750989E+04  0.50400001928E-02 0.  1.
       -1   -1    0    0    0  501  0.00000000000E+00  0.00000000000E+00 -0.15580351112E+04  0.15580351112E+04  0.50400001928E-02 0. -1.
    10030    2    1    2    0    0  0.00000000000E+00  0.00000000000E+00  0.14943998769E+03  0.32655102101E+04  0.32620889967E+04 0.  0.
        3    1    3    3  502    0  0.20264286953E+02 -0.16306135029E+04  0.10629841568E+03  0.16342002327E+04  0.10100000352E+00 0.  1.
       -3    1    3    3    0  502 -0.20264286953E+02  0.16306135029E+04  0.43141572008E+02  0.16313099774E+04  0.10100000352E+00 0. -1.
</event>
<event>
 5   0  0.5300268E-06  0.3413233E+04  0.7818609E-02  0.8134666E-01
       -2   -1    0    0    0  501  0.00000000000E+00  0.00000000000E+00  0.17922919465E+04  0.17922919465E+04  0.25500000920E-02 0. -1.
        2   -1    0    0  501    0  0.00000000000E+00  0.00000000000E+00 -0.16250362402E+04  0.16250362402E+04  0.25500000920E-02 0.  1.
    10030    2    1    2    0    0  0.00000000000E+00  0.00000000000E+00  0.16725570622E+03  0.34173281867E+04  0.34132327000E+04 0.  0.
        4    1    3    3  502    0 -0.49930146217E+03  0.27170600338E+03  0.16947235583E+04  0.17875166165E+04  0.12699999809E+01 0. -1.
       -4    1    3    3    0  502  0.49930146217E+03 -0.27170600338E+03 -0.15274678521E+04  0.16298115702E+04  0.12699999809E+01 0.  1.
</event>
<event>
 5   0  0.1925906E-06  0.3245734E+04  0.7818609E-02  0.8176842E-01
        1   -1    0    0  501    0  0.00000000000E+00  0.00000000000E+00  0.19551213476E+04  0.19551213476E+04  0.50400001928E-02 0. -1.
       -1   -1    0    0    0  501  0.00000000000E+00  0.00000000000E+00 -0.13470758641E+04  0.13470758641E+04  0.50400001928E-02 0.  1.
    10030    2    1    2    0    0  0.00000000000E+00  0.00000000000E+00  0.60804548346E+03  0.33021972117E+04  0.32457336790E+04 0.  0.
        1    1    3    3  502    0  0.48326470441E+02  0.15451109245E+04 -0.19852729384E+03  0.15585622551E+04  0.50400001928E-02 0.  1.
       -1    1    3    3    0  502 -0.48326470441E+02 -0.15451109245E+04  0.80657277729E+03  0.17436349566E+04  0.50400001928E-02 0. -1.
</event>
<event>
 5   0  0.5637538E-06  0.3235882E+04  0.7818609E-02  0.8179405E-01
        2   -1    0    0  501    0  0.00000000000E+00  0.00000000000E+00  0.14015221154E+04  0.14015221154E+04  0.25500000920E-02 0.  1.
       -2   -1    0    0    0  501  0.00000000000E+00  0.00000000000E+00 -0.18677789532E+04  0.18677789532E+04  0.25500000920E-02 0. -1.
    10030    2    1    2    0    0  0.00000000000E+00  0.00000000000E+00 -0.46625683775E+03  0.32693010686E+04  0.32358822659E+04 0.  0.
        2    1    3    3  502    0  0.15727751427E+04 -0.21077660132E+03  0.85861747253E+02  0.15891572185E+04  0.25500000920E-02 0.  1.
       -2    1    3    3    0  502 -0.15727751427E+04  0.21077660132E+03 -0.55211858501E+03  0.16801438502E+04  0.25500000920E-02 0. -1.
</event>
<event>
 5   0  0.1999849E-06  0.3314609E+04  0.7818609E-02  0.8159188E-01
        1   -1    0    0  501    0  0.00000000000E+00  0.00000000000E+00  0.17794746254E+04  0.17794746254E+04  0.50400001928E-02 0. -1.
       -1   -1    0    0    0  501  0.00000000000E+00  0.00000000000E+00 -0.15435217755E+04  0.15435217755E+04  0.50400001928E-02 0.  1.
    10030    2    1    2    0    0  0.00000000000E+00  0.00000000000E+00  0.23595284993E+03  0.33229964009E+04  0.33146087752E+04 0.  0.
        5    1    3    3  502    0 -0.12837338556E+04  0.32860686354E+02 -0.93233077262E+03  0.15869200346E+04  0.46999998093E+01 0.  1.
       -5    1    3    3    0  502  0.12837338556E+04 -0.32860686354E+02  0.11682836226E+04  0.17360763662E+04  0.46999998093E+01 0. -1.
</event>
<event>
 5   0  0.5622811E-06  0.1710741E+04  0.7818609E-02  0.8755262E-01
       -2   -1    0    0    0  501  0.00000000000E+00  0.00000000000E+00  0.21159160288E+04  0.21159160288E+04  0.25500000920E-02 0.  1.
        2   -1    0    0  501    0  0.00000000000E+00  0.00000000000E+00 -0.34578806414E+03  0.34578806415E+03  0.25500000920E-02 0. -1.
    10030    2    1    2    0    0  0.00000000000E+00  0.00000000000E+00  0.17701279647E+04  0.24617040930E+04  0.17107407840E+04 0.  0.
        1    1    3    3  502    0 -0.73326573238E+03 -0.42671207705E+03  0.72811284590E+03  0.11179938047E+04  0.50400001928E-02 0.  1.
       -1    1    3    3    0  502  0.73326573238E+03  0.42671207705E+03  0.10420151188E+04  0.13437102883E+04  0.50400001928E-02 0. -1.
</event>
<event>
 5   0  0.5755250E-06  0.2283765E+04  0.7818609E-02  0.8484350E-01
        2   -1    0    0  501    0  0.00000000000E+00  0.00000000000E+00  0.99186730913E+03  0.99186730913E+03  0.25500000920E-02 0. -1.
       -2   -1    0    0    0  501  0.00000000000E+00  0.00000000000E+00 -0.13145869727E+04  0.13145869727E+04  0.25500000920E-02 0.  1.
    10030    2    1    2    0    0  0.00000000000E+00  0.00000000000E+00 -0.32271966356E+03  0.23064542818E+04  0.22837651746E+04 0.  0.
        5    1    3    3  502    0  0.36310660291E+03  0.64327212075E+03  0.71805423285E+03  0.10301793037E+04  0.46999998093E+01 0. -1.
       -5    1    3    3    0  502 -0.36310660291E+03 -0.64327212075E+03 -0.10407738964E+04  0.12762749781E+04  0.46999998093E+01 0.  1.
</event>
<event>
 5   0  0.1925906E-06  0.3199925E+04  0.7818609E-02  0.8188837E-01
        1   -1    0    0  501    0  0.00000000000E+00  0.00000000000E+00  0.12111374130E+04  0.12111374130E+04  0.50400001928E-02 0. -1.
       -1   -1    0    0    0  501  0.00000000000E+00  0.00000000000E+00 -0.21136159065E+04  0.21136159065E+04  0.50400001928E-02 0.  1.
    10030    2    1    2    0    0  0.00000000000E+00  0.00000000000E+00 -0.90247849348E+03  0.33247533195E+04  0.31999245623E+04 0.  0.
        1    1    3    3  502    0 -0.36595042703E+03  0.26389126730E+03 -0.20461519377E+04  0.20953033356E+04  0.50400001928E-02 0.  1.
       -1    1    3    3    0  502  0.36595042703E+03 -0.26389126730E+03  0.11436734442E+04  0.12294499839E+04  0.50400001928E-02 0. -1.
</event>
<event>
 5   0  0.2097842E-06  0.3502382E+04  0.7818609E-02  0.8113226E-01
        1   -1    0    0  501    0  0.00000000000E+00  0.00000000000E+00  0.19949867853E+04  0.19949867853E+04  0.50400001928E-02 0.  1.
       -1   -1    0    0    0  501  0.00000000000E+00  0.00000000000E+00 -0.15371881165E+04  0.15371881165E+04  0.50400001928E-02 0. -1.
    10030    2    1    2    0    0  0.00000000000E+00  0.00000000000E+00  0.45779866886E+03  0.35321749018E+04  0.35023820345E+04 0.  0.
        4    1    3    3  502    0  0.98293006325E+03 -0.13563859647E+04 -0.28606540558E+03  0.16993438215E+04  0.12699999809E+01 0. -1.
       -4    1    3    3    0  502 -0.98293006325E+03  0.13563859647E+04  0.74386407444E+03  0.18328310803E+04  0.12699999809E+01 0.  1.
</event>
<event>
 5   0  0.2097842E-06  0.2090318E+04  0.7818609E-02  0.8565520E-01
       -1   -1    0    0    0  501  0.00000000000E+00  0.00000000000E+00  0.83247722937E+03  0.83247722939E+03  0.50400001928E-02 0.  1.
        1   -1    0    0  501    0  0.00000000000E+00  0.00000000000E+00 -0.13121765557E+04  0.13121765557E+04  0.50400001928E-02 0. -1.
    10030    2    1    2    0    0  0.00000000000E+00  0.00000000000E+00 -0.47969932629E+03  0.21446537851E+04  0.20903177783E+04 0.  0.
        4    1    3    3  502    0 -0.57943834336E+03  0.18759614630E+03 -0.11112892352E+04  0.12672436565E+04  0.12699999809E+01 0. -1.
       -4    1    3    3    0  502  0.57943834336E+03 -0.18759614630E+03  0.63158990886E+03  0.87741012858E+03  0.12699999809E+01 0.  1.
</event>
<event>
 5   0  0.5637538E-06  0.2046349E+04  0.7818609E-02  0.8585252E-01
        2   -1    0    0  501    0  0.00000000000E+00  0.00000000000E+00  0.91764025873E+03  0.91764025873E+03  0.25500000920E-02 0.  1.
       -2   -1    0    0    0  501  0.00000000000E+00  0.00000000000E+00 -0.11408459394E+04  0.11408459394E+04  0.25500000920E-02 0. -1.
    10030    2    1    2    0    0  0.00000000000E+00  0.00000000000E+00 -0.22320568068E+03  0.20584861981E+04  0.20463491032E+04 0.  0.
        2    1    3    3  502    0 -0.59853209157E+03  0.21768173867E+02  0.72287848296E+03  0.93875865864E+03  0.25500000920E-02 0.  1.
       -2    1    3    3    0  502  0.59853209157E+03 -0.21768173867E+02 -0.94608416364E+03  0.11197275395E+04  0.25500000920E-02 0. -1.
</event>
<event>
 5   0  0.5637538E-06  0.3244522E+04  0.7818609E-02  0.8177157E-01
       -2   -1    0    0    0  501  0.00000000000E+00  0.00000000000E+00  0.14784839506E+04  0.14784839506E+04  0.25500000920E-02 0. -1.
        2   -1    0    0  501    0  0.00000000000E+00  0.00000000000E+00 -0.17800199533E+04  0.17800199533E+04  0.25500000920E-02 0.  1.
    10030    2    1    2    0    0  0.00000000000E+00  0.00000000000E+00 -0.30153600267E+03  0.32585039039E+04  0.32445221113E+04 0.  0.
        2    1    3    3  502    0 -0.38408067368E+03 -0.12194868094E+04  0.85206639010E+03  0.15364514881E+04  0.25500000920E-02 0. -1.
       -2    1    3    3    0  502  0.38408067368E+03  0.12194868094E+04 -0.11536023928E+04  0.17220524158E+04  0.25500000920E-02 0.  1.
</event>
<event>
 5   0  0.5300268E-06  0.3230486E+04  0.7818609E-02  0.8180812E-01
        2   -1    0    0  501    0  0.00000000000E+00  0.00000000000E+00  0.20984756214E+04  0.20984756214E+04  0.25500000920E-02 0.  1.
       -2   -1    0    0    0  501  0.00000000000E+00  0.00000000000E+00 -0.12432882979E+04  0.12432882979E+04  0.25500000920E-02 0. -1.
    10030    2    1    2    0    0  0.00000000000E+00  0.00000000000E+00  0.85518732350E+03  0.33417639194E+04  0.32304861452E+04 0.  0.
        4    1    3    3  502    0  0.39798801807E+03  0.54118896625E+03 -0.10919258917E+04  0.12820232937E+04  0.12699999809E+01 0. -1.
       -4    1    3    3    0  502 -0.39798801807E+03 -0.54118896625E+03  0.19471132152E+04  0.20597406257E+04  0.12699999809E+01 0.  1.
</event>
<event>
 5   0  0.5755250E-06  0.3330723E+04  0.7818609E-02  0.8155122E-01
       -2   -1    0    0    0  501  0.00000000000E+00  0.00000000000E+00  0.17578336225E+04  0.17578336225E+04  0.25500000920E-02 0. -1.
        2   -1    0    0  501    0  0.00000000000E+00  0.00000000000E+00 -0.15777537964E+04  0.15777537964E+04  0.25500000920E-02 0.  1.
    10030    2    1    2    0    0  0.00000000000E+00  0.00000000000E+00  0.18007982607E+03  0.33355874188E+04  0.33307228472E+04 0.  0.
        5    1    3    3  502    0  0.11646122890E+04 -0.32079686062E+02 -0.11016794557E+04  0.16034558313E+04  0.46999998093E+01 0.  1.
       -5    1    3    3    0  502 -0.11646122890E+04  0.32079686062E+02  0.12817592818E+04  0.17321315875E+04  0.46999998093E+01 0. -1.
</event>
<event>
 5   0  0.5637538E-06  0.3279702E+04  0.7818609E-02  0.8168079E-01
        2   -1    0    0  501    0  0.00000000000E+00  0.00000000000E+00  0.19559736186E+04  0.19559736186E+04  0.25500000920E-02 0. -1.
       -2   -1    0    0    0  501  0.00000000000E+00  0.00000000000E+00 -0.13748199443E+04  0.13748199443E+04  0.25500000920E-02 0.  1.
    10030    2    1    2    0    0  0.00000000000E+00  0.00000000000E+00  0.58115367424E+03  0.33307935629E+04  0.32797021458E+04 0.  0.
        2    1    3    3  502    0 -0.98184487370E+03  0.54614293220E+03  0.15036805151E+04  0.18770579506E+04  0.25500000920E-02 0. -1.
       -2    1    3    3    0  502  0.98184487370E+03 -0.54614293220E+03 -0.92252684083E+03  0.14537356123E+04  0.25500000920E-02 0.  1.
</event>
<event>
 5   0  0.5622811E-06  0.3272207E+04  0.7818609E-02  0.8170003E-01
       -2   -1    0    0    0  501  0.00000000000E+00  0.00000000000E+00  0.17001777063E+04  0.17001777063E+04  0.25500000920E-02 0. -1.
        2   -1    0    0  501    0  0.00000000000E+00  0.00000000000E+00 -0.15744443530E+04  0.15744443530E+04  0.25500000920E-02 0.  1.
    10030    2    1    2    0    0  0.00000000000E+00  0.00000000000E+00  0.12573335330E+03  0.32746220592E+04  0.32722073214E+04 0.  0.
        1    1    3    3  502    0 -0.14448917736E+04 -0.67282364600E+03  0.43250532010E+03  0.16515037839E+04  0.50400001928E-02 0.  1.
       -1    1    3    3    0  502  0.14448917736E+04  0.67282364600E+03 -0.30677196680E+03  0.16231182754E+04  0.50400001928E-02 0. -1.
</event>
<event>
 5   0  0.5300268E-06  0.3297662E+04  0.7818609E-02  0.8163490E-01
        2   -1    0    0  501    0  0.00000000000E+00  0.00000000000E+00  0.19594911264E+04  0.19594911264E+04  0.25500000920E-02 0.  1.
       -2   -1    0    0    0  501  0.00000000000E+00  0.00000000000E+00 -0.13874234947E+04  0.13874234947E+04  0.25500000920E-02 0. -1.
    10030    2    1    2    0    0  0.00000000000E+00  0.00000000000E+00  0.57206763166E+03  0.33469146211E+04  0.32976622183E+04 0.  0.
        4    1    3    3  502    0 -0.92130514887E+03 -0.13592268457E+04  0.43773737779E+03  0.16993870719E+04  0.12699999809E+01 0. -1.
       -4    1    3    3    0  502  0.92130514887E+03  0.13592268457E+04  0.13433025387E+03  0.16475275492E+04  0.12699999809E+01 0.  1.
</event>
<event>
 5   0  0.5300268E-06  0.3301741E+04  0.7818609E-02  0.8162453E-01
        2   -1    0    0  501    0  0.00000000000E+00  0.00000000000E+00  0.15042102432E+04  0.15042102432E+04  0.25500000920E-02 0. -1.
       -2   -1    0    0    0  501  0.00000000000E+00  0.00000000000E+00 -0.18118297385E+04  0.18118297385E+04  0.25500000920E-02 0.  1.
    10030    2    1    2    0    0  0.00000000000E+00  0.00000000000E+00 -0.30761949536E+03  0.33160399817E+04  0.33017406631E+04 0.  0.
        4    1    3    3  502    0  0.91816646451E+03  0.76753958493E+03 -0.12959351031E+04  0.17639716764E+04  0.12699999809E+01 0. -1.
       -4    1    3    3    0  502 -0.91816646451E+03 -0.76753958493E+03  0.98831560771E+03  0.15520683053E+04  0.12699999809E+01 0.  1.
</event>
<event>
 5   0  0.5755250E-06  0.3320478E+04  0.7818609E-02  0.8157704E-01
       -2   -1    0    0    0  501  0.00000000000E+00  0.00000000000E+00  0.11908720074E+04  0.11908720074E+04  0.25500000920E-02 0.  1.
        2   -1    0    0  501    0  0.00000000000E+00  0.00000000000E+00 -0.23146007880E+04  0.23146007880E+04  0.25500000920E-02 0. -1.
    10030    2    1    2    0    0  0.00000000000E+00  0.00000000000E+00 -0.11237287806E+04  0.35054727954E+04  0.33204778492E+04 0.  0.
        5    1    3    3  502    0  0.97375159949E+03  0.12829810518E+04 -0.13676618005E+03  0.16164651666E+04  0.46999998093E+01 0.  1.
       -5    1    3    3    0  502 -0.97375159949E+03 -0.12829810518E+04 -0.98696260052E+03  0.18890076288E+04  0.46999998093E+01 0. -1.
</event>
<event>
 5   0  0.2097842E-06  0.2709998E+04  0.7818609E-02  0.8331768E-01
       -1   -1    0    0    0  501  0.00000000000E+00  0.00000000000E+00  0.18498914555E+04  0.18498914555E+04  0.50400001928E-02 0. -1.
        1   -1    0    0  501    0  0.00000000000E+00  0.00000000000E+00 -0.99250296968E+03  0.99250296969E+03  0.50400001928E-02 0.  1.
    10030    2    1    2    0    0  0.00000000000E+00  0.00000000000E+00  0.85738848585E+03  0.28423944252E+04  0.27099983492E+04 0.  0.
        4    1    3    3  502    0  0.13258022524E+04 -0.21263908039E+03  0.23800404299E+03  0.13636768416E+04  0.12699999809E+01 0.  1.
       -4    1    3    3    0  502 -0.13258022524E+04  0.21263908039E+03  0.61938444286E+03  0.14787175836E+04  0.12699999809E+01 0. -1.
</event>
<event>
 5   0  0.5755250E-06  0.3340142E+04  0.7818609E-02  0.8152756E-01
       -2   -1    0    0    0  501  0.00000000000E+00  0.00000000000E+00  0.26167138091E+04  0.26167138091E+04  0.25500000920E-02 0.  1.
        2   -1    0    0  501    0  0.00000000000E+00  0.00000000000E+00 -0.10658933529E+04  0.10658933529E+04  0.25500000920E-02 0. -1.
    10030    2    1    2    0    0  0.00000000000E+00  0.00000000000E+00  0.15508204561E+04  0.36826071620E+04  0.33401424255E+04 0.  0.
        5    1    3    3  502    0  0.41413150034E+03 -0.62102986705E+03 -0.87173147151E+03  0.11476588534E+04  0.46999998093E+01 0. -1.
       -5    1    3    3    0  502 -0.41413150034E+03  0.62102986705E+03  0.24225519276E+04  0.25349483086E+04  0.46999998093E+01 0.  1.
</event>
<event>
 5   0  0.5855568E-06  0.3234038E+04  0.7818609E-02  0.8179885E-01
        2   -1    0    0  501    0  0.00000000000E+00  0.00000000000E+00  0.22975680040E+04  0.22975680040E+04  0.25500000920E-02 0. -1.
       -2   -1    0    0    0  501  0.00000000000E+00  0.00000000000E+00 -0.11380512652E+04  0.11380512652E+04  0.25500000920E-02 0.  1.
    10030    2    1    2    0    0  0.00000000000E+00  0.00000000000E+00  0.11595167387E+04  0.34356192692E+04  0.32340378315E+04 0.  0.
        3    1    3    3  502    0  0.11187060533E+04 -0.11560832785E+04  0.75340446416E+03  0.17764149508E+04  0.10100000352E+00 0.  1.
       -3    1    3    3    0  502 -0.11187060533E+04  0.11560832785E+04  0.40611227456E+03  0.16592043184E+04  0.10100000352E+00 0. -1.
</event>
<event>
 5   0  0.1878000E-06  0.2432684E+04  0.7818609E-02  0.8427368E-01
       -4   -1    0    0    0  501  0.00000000000E+00  0.00000000000E+00  0.12024757693E+04  0.12024764399E+04  0.12699999809E+01 0. -1.
        4   -1    0    0  501    0  0.00000000000E+00  0.00000000000E+00 -0.12303663777E+04  0.12303670332E+04  0.12699999809E+01 0.  1.
    10030    2    1    2    0    0  0.00000000000E+00  0.00000000000E+00 -0.27890608468E+02  0.24328434731E+04  0.24326835961E+04 0.  0.
        2    1    3    3  502    0  0.67261612356E+03 -0.92978094956E+03  0.38929615748E+03  0.12117988951E+04  0.25500000920E-02 0. -1.
       -2    1    3    3    0  502 -0.67261612356E+03  0.92978094956E+03 -0.41718676595E+03  0.12210445780E+04  0.25500000920E-02 0.  1.
</event>
<event>
 5   0  0.1925906E-06  0.3294078E+04  0.7818609E-02  0.8164404E-01
       -1   -1    0    0    0  501  0.00000000000E+00  0.00000000000E+00  0.28182068401E+04  0.28182068401E+04  0.50400001928E-02 0.  1.
        1   -1    0    0  501    0  0.00000000000E+00  0.00000000000E+00 -0.96257553913E+03  0.96257553915E+03  0.50400001928E-02 0. -1.
    10030    2    1    2    0    0  0.00000000000E+00  0.00000000000E+00  0.18556313010E+04  0.37807823792E+04  0.32940776970E+04 0.  0.
        1    1    3    3  502    0 -0.81100111752E+03  0.79543236444E+03  0.22966272508E+04  0.25622123620E+04  0.50400001928E-02 0.  1.
       -1    1    3    3    0  502  0.81100111752E+03 -0.79543236444E+03 -0.44099594985E+03  0.12185700172E+04  0.50400001928E-02 0. -1.
</event>
<event>
 5   0  0.2036840E-06  0.1836126E+04  0.7818609E-02  0.8687320E-01
        1   -1    0    0  501    0  0.00000000000E+00  0.00000000000E+00  0.90257265258E+03  0.90257265259E+03  0.50400001928E-02 0.  1.
       -1   -1    0    0    0  501  0.00000000000E+00  0.00000000000E+00 -0.93381943357E+03  0.93381943358E+03  0.50400001928E-02 0. -1.
    10030    2    1    2    0    0  0.00000000000E+00  0.00000000000E+00 -0.31246780991E+02  0.18363920862E+04  0.18361262301E+04 0.  0.
        5    1    3    3  502    0  0.32898711870E+03 -0.26066519036E+03 -0.83222120411E+03  0.93209070819E+03  0.46999998093E+01 0. -1.
       -5    1    3    3    0  502 -0.32898711870E+03  0.26066519036E+03  0.80097442312E+03  0.90430137798E+03  0.46999998093E+01 0.  1.
</event>
<event>
 5   0  0.1999849E-06  0.3136003E+04  0.7818609E-02  0.8205926E-01
       -1   -1    0    0    0  501  0.00000000000E+00  0.00000000000E+00  0.26563789451E+04  0.26563789451E+04  0.50400001928E-02 0.  1.
        1   -1    0    0  501    0  0.00000000000E+00  0.00000000000E+00 -0.92555666689E+03  0.92555666690E+03  0.50400001928E-02 0. -1.
    10030    2    1    2    0    0  0.00000000000E+00  0.00000000000E+00  0.17308222782E+04  0.35819356120E+04  0.31360033434E+04 0.  0.
        5    1    3    3  502    0 -0.82913515068E+03  0.12242990812E+04  0.14613645253E+04  0.20789376383E+04  0.46999998093E+01 0.  1.
       -5    1    3    3    0  502  0.82913515068E+03 -0.12242990812E+04  0.26945775288E+03  0.15029979737E+04  0.46999998093E+01 0. -1.
</event>
<event>
 5   0  0.5622811E-06  0.3330108E+04  0.7818609E-02  0.8155276E-01
        2   -1    0    0  501    0  0.00000000000E+00  0.00000000000E+00  0.10197867954E+04  0.10197867954E+04  0.25500000920E-02 0. -1.
       -2   -1    0    0    0  501  0.00000000000E+00  0.00000000000E+00 -0.27186119979E+04  0.27186119979E+04  0.25500000920E-02 0.  1.
    10030    2    1    2    0    0  0.00000000000E+00  0.00000000000E+00 -0.16988252025E+04  0.37383987932E+04  0.33301078765E+04 0.  0.
        1    1    3    3  502    0  0.46677382528E+03 -0.26960939464E+03  0.91912380442E+03  0.10655306647E+04  0.50400001928E-02 0. -1.
       -1    1    3    3    0  502 -0.46677382528E+03  0.26960939464E+03 -0.26179490069E+04  0.26728681285E+04  0.50400001928E-02 0.  1.
</event>
<event>
 5   0  0.5622811E-06  0.2598298E+04  0.7818609E-02  0.8368780E-01
       -2   -1    0    0    0  501  0.00000000000E+00  0.00000000000E+00  0.85507361105E+03  0.85507361105E+03  0.25500000920E-02 0.  1.
        2   -1    0    0  501    0  0.00000000000E+00  0.00000000000E+00 -0.19738507325E+04  0.19738507325E+04  0.25500000920E-02 0. -1.
    10030    2    1    2    0    0  0.00000000000E+00  0.00000000000E+00 -0.11187771215E+04  0.28289243436E+04  0.25982976531E+04 0.  0.
        1    1    3    3  502    0  0.14004515024E+03  0.10398757310E+04 -0.13934343198E+04  0.17443088556E+04  0.50400001928E-02 0. -1.
       -1    1    3    3    0  502 -0.14004515024E+03 -0.10398757310E+04  0.27465719833E+03  0.10846154880E+04  0.50400001928E-02 0.  1.
</event>
<event>
 5   0  0.2097842E-06  0.3043446E+04  0.7818609E-02  0.8231432E-01
       -1   -1    0    0    0  501  0.00000000000E+00  0.00000000000E+00  0.15795802961E+04  0.15795802961E+04  0.50400001928E-02 0.  1.
        1   -1    0    0  501    0  0.00000000000E+00  0.00000000000E+00 -0.14659846842E+04  0.14659846842E+04  0.50400001928E-02 0. -1.
    10030    2    1    2    0    0  0.00000000000E+00  0.00000000000E+00  0.11359561192E+03  0.30455649804E+04  0.30434457588E+04 0.  0.
        4    1    3    3  502    0 -0.10337293322E+03 -0.27596640674E+02 -0.14622154960E+04  0.14661252700E+04  0.12699999809E+01 0. -1.
       -4    1    3    3    0  502  0.10337293322E+03  0.27596640674E+02  0.15758111079E+04  0.15794397103E+04  0.12699999809E+01 0.  1.
</event>
<event>
 5   0  0.5637538E-06  0.2084177E+04  0.7818609E-02  0.8568246E-01
       -2   -1    0    0    0  501  0.00000000000E+00  0.00000000000E+00  0.72643113817E+03  0.72643113817E+03  0.25500000920E-02 0.  1.
        2   -1    0    0  501    0  0.00000000000E+00  0.00000000000E+00 -0.14949096025E+04  0.14949096025E+04  0.25500000920E-02 0. -1.
    10030    2    1    2    0    0  0.00000000000E+00  0.00000000000E+00 -0.76847846437E+03  0.22213407407E+04  0.20841774243E+04 0.  0.
        2    1    3    3  502    0  0.10245897964E+04 -0.11853715584E+03 -0.22574627023E+03  0.10558393281E+04  0.25500000920E-02 0. -1.
       -2    1    3    3    0  502 -0.10245897964E+04  0.11853715584E+03 -0.54273219413E+03  0.11655014126E+04  0.25500000920E-02 0.  1.
</event>
<event>
 5   0  0.5755250E-06  0.1963919E+04  0.7818609E-02  0.8623678E-01
       -2   -1    0    0    0  501  0.00000000000E+00  0.00000000000E+00  0.68925542885E+03  0.68925542886E+03  0.25500000920E-02 0. -1.
        2   -1    0    0  501    0  0.00000000000E+00  0.00000000000E+00 -0.13989646603E+04  0.13989646603E+04  0.25500000920E-02 0.  1.
    10030    2    1    2    0    0  0.00000000000E+00  0.00000000000E+00 -0.70970923146E+03  0.20882200892E+04  0.19639185186E+04 0.  0.
        5    1    3    3  502    0  0.88106046076E+03  0.42004343192E+03 -0.46896863873E+03  0.10828932054E+04  0.46999998093E+01 0.  1.
       -5    1    3    3    0  502 -0.88106046076E+03 -0.42004343192E+03 -0.24074059273E+03  0.10053268838E+04  0.46999998093E+01 0. -1.
</event>
<event>
 5   0  0.5755250E-06  0.3265127E+04  0.7818609E-02  0.8171826E-01
       -2   -1    0    0    0  501  0.00000000000E+00  0.00000000000E+00  0.12931686753E+04  0.12931686753E+04  0.25500000920E-02 0. -1.
        2   -1    0    0  501    0  0.00000000000E+00  0.00000000000E+00 -0.20610328702E+04  0.20610328702E+04  0.25500000920E-02 0.  1.
    10030    2    1    2    0    0  0.00000000000E+00  0.00000000000E+00 -0.76786419484E+03  0.33542015455E+04  0.32651267336E+04 0.  0.
        5    1    3    3  502    0  0.14733464336E+03  0.85144669399E+02  0.12840262622E+04  0.12952616121E+04  0.46999998093E+01 0. -1.
       -5    1    3    3    0  502 -0.14733464336E+03 -0.85144669399E+02 -0.20518904570E+04  0.20589399334E+04  0.46999998093E+01 0.  1.
</event>
<event>
 5   0  0.1925906E-06  0.3260465E+04  0.7818609E-02  0.8173028E-01
       -1   -1    0    0    0  501  0.00000000000E+00  0.00000000000E+00  0.20741252730E+04  0.20741252730E+04  0.50400001928E-02 0.  1.
        1   -1    0    0  501    0  0.00000000000E+00  0.00000000000E+00 -0.12813394380E+04  0.12813394380E+04  0.50400001928E-02 0. -1.
    10030    2    1    2    0    0  0.00000000000E+00  0.00000000000E+00  0.79278583495E+03  0.33554647110E+04  0.32604653113E+04 0.  0.
        1    1    3    3  502    0  0.35093547915E+03  0.14181706426E+03 -0.12354917967E+04  0.12921717262E+04  0.50400001928E-02 0. -1.
       -1    1    3    3    0  502 -0.35093547915E+03 -0.14181706426E+03  0.20282776316E+04  0.20632929848E+04  0.50400001928E-02 0.  1.
</event>
<event>
 5   0  0.2097842E-06  0.1864802E+04  0.7818609E-02  0.8672578E-01
       -1   -1    0    0    0  501  0.00000000000E+00  0.00000000000E+00  0.90471870296E+03  0.90471870298E+03  0.50400001928E-02 0. -1.
        1   -1    0    0  501    0  0.00000000000E+00  0.00000000000E+00 -0.96093023561E+03  0.96093023562E+03  0.50400001928E-02 0.  1.
    10030    2    1    2    0    0  0.00000000000E+00  0.00000000000E+00 -0.56211532642E+02  0.18656489386E+04  0.18648019267E+04 0.  0.
        4    1    3    3  502    0  0.61240219292E+03 -0.49544871745E+03  0.47098359493E+03  0.91778703254E+03  0.12699999809E+01 0. -1.
       -4    1    3    3    0  502 -0.61240219292E+03  0.49544871745E+03 -0.52719512757E+03  0.94786190605E+03  0.12699999809E+01 0.  1.
</event>
<event>
 5   0  0.5855568E-06  0.3990164E+04  0.7818609E-02  0.8006534E-01
        2   -1    0    0  501    0  0.00000000000E+00  0.00000000000E+00  0.19555441122E+04  0.19555441122E+04  0.25500000920E-02 0.  1.
       -2   -1    0    0    0  501  0.00000000000E+00  0.00000000000E+00 -0.20354195257E+04  0.20354195257E+04  0.25500000920E-02 0. -1.
    10030    2    1    2    0    0  0.00000000000E+00  0.00000000000E+00 -0.79875413501E+02  0.39909636378E+04  0.39901642418E+04 0.  0.
        3    1    3    3  502    0 -0.12960550766E+04  0.13632774064E+04  0.62507790056E+03  0.19821721520E+04  0.10100000352E+00 0. -1.
       -3    1    3    3    0  502  0.12960550766E+04 -0.13632774064E+04 -0.70495331407E+03  0.20087914858E+04  0.10100000352E+00 0.  1.
</event>
<event>
 5   0  0.5622811E-06  0.3171942E+04  0.7818609E-02  0.8196267E-01
        2   -1    0    0  501    0  0.00000000000E+00  0.00000000000E+00  0.87088089657E+03  0.87088089657E+03  0.25500000920E-02 0.  1.
       -2   -1    0    0    0  501  0.00000000000E+00  0.00000000000E+00 -0.28882290909E+04  0.28882290909E+04  0.25500000920E-02 0. -1.
    10030    2    1    2    0    0  0.00000000000E+00  0.00000000000E+00 -0.20173481943E+04  0.37591099875E+04  0.31719417020E+04 0.  0.
        1    1    3    3  502    0 -0.13598043442E+03  0.13397760025E+04 -0.20014942384E+04  0.24123576853E+04  0.50400001928E-02 0. -1.
       -1    1    3    3    0  502  0.13598043442E+03 -0.13397760025E+04 -0.15853955943E+02  0.13467523022E+04  0.50400001928E-02 0.  1.
</event>
<event>
 5   0  0.5755250E-06  0.3485703E+04  0.7818609E-02  0.8117186E-01
       -2   -1    0    0    0  501  0.00000000000E+00  0.00000000000E+00  0.19002437862E+04  0.19002437862E+04  0.25500000920E-02 0. -1.
        2   -1    0    0  501    0  0.00000000000E+00  0.00000000000E+00 -0.15984957234E+04  0.15984957234E+04  0.25500000920E-02 0.  1.
    10030    2    1    2    0    0  0.00000000000E+00  0.00000000000E+00  0.30174806277E+03  0.34987395096E+04  0.34857031231E+04 0.  0.
        5    1    3    3  502    0 -0.12392436568E+04 -0.11442707674E+04 -0.28943391835E+03  0.17113954871E+04  0.46999998093E+01 0. -1.
       -5    1    3    3    0  502  0.12392436568E+04  0.11442707674E+04  0.59118198112E+03  0.17873440225E+04  0.46999998093E+01 0.  1.
</event>
<event>
 5   0  0.1878000E-06  0.3321407E+04  0.7818609E-02  0.8157470E-01
        4   -1    0    0  501    0  0.00000000000E+00  0.00000000000E+00  0.15825682469E+04  0.15825687565E+04  0.12699999809E+01 0.  1.
       -4   -1    0    0    0  501  0.00000000000E+00  0.00000000000E+00 -0.17426949685E+04  0.17426954312E+04  0.12699999809E+01 0. -1.
    10030    2    1    2    0    0  0.00000000000E+00  0.00000000000E+00 -0.16012672160E+03  0.33252641877E+04  0.33214065320E+04 0.  0.
        3    1    3    3  502    0 -0.10974777850E+04 -0.51861953830E+03  0.10546159527E+04  0.16079920808E+04  0.10100000352E+00 0.  1.
       -3    1    3    3    0  502  0.10974777850E+04  0.51861953830E+03 -0.12147426743E+04  0.17172721069E+04  0.10100000352E+00 0. -1.
</event>
<event>
 5   0  0.5855568E-06  0.3270549E+04  0.7818609E-02  0.8170430E-01
        2   -1    0    0  501    0  0.00000000000E+00  0.00000000000E+00  0.14632052245E+04  0.14632052245E+04  0.25500000920E-02 0.  1.
       -2   -1    0    0    0  501  0.00000000000E+00  0.00000000000E+00 -0.18275787071E+04  0.18275787071E+04  0.25500000920E-02 0. -1.
    10030    2    1    2    0    0  0.00000000000E+00  0.00000000000E+00 -0.36437348261E+03  0.32907839316E+04  0.32705490135E+04 0.  0.
        3    1    3    3  502    0 -0.36438462347E+03 -0.15773582049E+04 -0.41445611936E+03  0.16711100938E+04  0.10100000352E+00 0.  1.
       -3    1    3    3    0  502  0.36438462347E+03  0.15773582049E+04  0.50082636749E+02  0.16196738379E+04  0.10100000352E+00 0. -1.
</event>
<event>
 5   0  0.5300268E-06  0.3335718E+04  0.7818609E-02  0.8153866E-01
       -2   -1    0    0    0  501  0.00000000000E+00  0.00000000000E+00  0.23668411926E+04  0.23668411926E+04  0.25500000920E-02 0. -1.
        2   -1    0    0  501    0  0.00000000000E+00  0.00000000000E+00 -0.11753019277E+04  0.11753019277E+04  0.25500000920E-02 0.  1.
    10030    2    1    2    0    0  0.00000000000E+00  0.00000000000E+00  0.11915392649E+04  0.35421431204E+04  0.33357176238E+04 0.  0.
        4    1    3    3  502    0  0.67288073864E+03  0.80267435407E+03 -0.78251114885E+03  0.13074325673E+04  0.12699999809E+01 0.  1.
       -4    1    3    3    0  502 -0.67288073864E+03 -0.80267435407E+03  0.19740504137E+04  0.22347105531E+04  0.12699999809E+01 0. -1.
</event>
<event>
 5   0  0.1878000E-06  0.3269310E+04  0.7818609E-02  0.8170749E-01
        3   -1    0    0  501    0  0.00000000000E+00  0.00000000000E+00  0.16401261713E+04  0.16401261744E+04  0.10100000352E+00 0. -1.
       -3   -1    0    0    0  501  0.00000000000E+00  0.00000000000E+00 -0.16292021913E+04  0.16292021944E+04  0.10100000352E+00 0.  1.
    10030    2    1    2    0    0  0.00000000000E+00  0.00000000000E+00  0.10923980042E+02  0.32693283688E+04  0.32693101183E+04 0.  0.
        4    1    3    3  502    0  0.89274454959E+03  0.84236027468E+03  0.10850660375E+04  0.16382715226E+04  0.12699999809E+01 0. -1.
       -4    1    3    3    0  502 -0.89274454959E+03 -0.84236027468E+03 -0.10741420574E+04  0.16310568462E+04  0.12699999809E+01 0.  1.
</event>
<event>
 5   0  0.5855568E-06  0.3344842E+04  0.7818609E-02  0.8151578E-01
        2   -1    0    0  501    0  0.00000000000E+00  0.00000000000E+00  0.11673917273E+04  0.11673917273E+04  0.25500000920E-02 0.  1.
       -2   -1    0    0    0  501  0.00000000000E+00  0.00000000000E+00 -0.23959324530E+04  0.23959324530E+04  0.25500000920E-02 0. -1.
    10030    2    1    2    0    0  0.00000000000E+00  0.00000000000E+00 -0.12285407257E+04  0.35633241804E+04  0.33448418348E+04 0.  0.
        3    1    3    3  502    0 -0.10856030948E+04 -0.26221780199E+03  0.71191273741E+03  0.13244289377E+04  0.10100000352E+00 0.  1.
       -3    1    3    3    0  502  0.10856030948E+04  0.26221780199E+03 -0.19404534631E+04  0.22388952427E+04  0.10100000352E+00 0. -1.
</event>
<event>
 5   0  0.5300268E-06  0.3172944E+04  0.7818609E-02  0.8195999E-01
       -2   -1    0    0    0  501  0.00000000000E+00  0.00000000000E+00  0.14401229045E+04  0.14401229045E+04  0.25500000920E-02 0.  1.
        2   -1    0    0  501    0  0.00000000000E+00  0.00000000000E+00 -0.17476936931E+04  0.17476936931E+04  0.25500000920E-02 0. -1.
    10030    2    1    2    0    0  0.00000000000E+00  0.00000000000E+00 -0.30757078864E+03  0.31878165976E+04  0.31729441959E+04 0.  0.
        4    1    3    3  502    0  0.11952251533E+04 -0.10429266282E+04 -0.12850826004E+03  0.15914694797E+04  0.12699999809E+01 0.  1.
       -4    1    3    3    0  502 -0.11952251533E+04  0.10429266282E+04 -0.17906252860E+03  0.15963471179E+04  0.12699999809E+01 0. -1.
</event>
<event>
 5   0  0.5622811E-06  0.3259460E+04  0.7818609E-02  0.8173288E-01
        2   -1    0    0  501    0  0.00000000000E+00  0.00000000000E+00  0.26885260821E+04  0.26885260821E+04  0.25500000920E-02 0. -1.
       -2   -1    0    0    0  501  0.00000000000E+00  0.00000000000E+00 -0.98790954697E+03  0.98790954698E+03  0.25500000920E-02 0.  1.
    10030    2    1    2    0    0  0.00000000000E+00  0.00000000000E+00  0.17006165351E+04  0.36764356291E+04  0.32594604362E+04 0.  0.
        1    1    3    3  502    0 -0.94509923240E+03 -0.93302187348E+03  0.19157541508E+04  0.23310633500E+04  0.50400001928E-02 0.  1.
       -1    1    3    3    0  502  0.94509923240E+03  0.93302187348E+03 -0.21513761569E+03  0.13453722790E+04  0.50400001928E-02 0. -1.
</event>
<event>
 5   0  0.2097842E-06  0.3304901E+04  0.7818609E-02  0.8161649E-01
        1   -1    0    0  501    0  0.00000000000E+00  0.00000000000E+00  0.18956933021E+04  0.18956933021E+04  0.50400001928E-02 0. -1.
       -1   -1    0    0    0  501  0.00000000000E+00  0.00000000000E+00 -0.14404188589E+04  0.14404188589E+04  0.50400001928E-02 0.  1.
    10030    2    1    2    0    0  0.00000000000E+00  0.00000000000E+00  0.45527444313E+03  0.33361121610E+04  0.33049008355E+04 0.  0.
        4    1    3    3  502    0  0.12717158292E+04  0.10297924670E+04 -0.44407155730E+01  0.16363847372E+04  0.12699999809E+01 0. -1.
       -4    1    3    3    0  502 -0.12717158292E+04 -0.10297924670E+04  0.45971515871E+03  0.16997274238E+04  0.12699999809E+01 0.  1.
</event>
<event>
 5   0  0.5855568E-06  0.2035982E+04  0.7818609E-02  0.8589980E-01
       -2   -1    0    0    0  501  0.00000000000E+00  0.00000000000E+00  0.11316909710E+04  0.11316909710E+04  0.25500000920E-02 0.  1.
        2   -1    0    0  501    0  0.00000000000E+00  0.00000000000E+00 -0.91571478339E+03  0.91571478339E+03  0.25500000920E-02 0. -1.
    10030    2    1    2    0    0  0.00000000000E+00  0.00000000000E+00  0.21597618762E+03  0.20474057544E+04  0.20359824679E+04 0.  0.
        3    1    3    3  502    0  0.15231890317E+03  0.63286234228E+03  0.89506099711E+03  0.11067294120E+04  0.10100000352E+00 0.  1.
       -3    1    3    3    0  502 -0.15231890317E+03 -0.63286234228E+03 -0.67908480950E+03  0.94067634244E+03  0.10100000352E+00 0. -1.
</event>
<event>
 5   0  0.5755250E-06  0.3310040E+04  0.7818609E-02  0.8160345E-01
       -2   -1    0    0    0  501  0.00000000000E+00  0.00000000000E+00  0.14024435657E+04  0.14024435657E+04  0.25500000920E-02 0. -1.
        2   -1    0    0  501    0  0.00000000000E+00  0.00000000000E+00 -0.19530851908E+04  0.19530851908E+04  0.25500000920E-02 0.  1.
    10030    2    1    2    0    0  0.00000000000E+00  0.00000000000E+00 -0.55064162505E+03  0.33555287565E+04  0.33100403376E+04 0.  0.
        5    1    3    3  502    0  0.21813147184E+01 -0.26086579027E+03 -0.19321042978E+04  0.19496422303E+04  0.46999998093E+01 0.  1.
       -5    1    3    3    0  502 -0.21813147184E+01  0.26086579027E+03  0.13814626727E+04  0.14058865263E+04  0.46999998093E+01 0. -1.
</event>
<event>
 5   0  0.2730981E-06  0.3011064E+04  0.7818609E-02  0.8240578E-01
       -1   -1    0    0    0  501  0.00000000000E+00  0.00000000000E+00  0.20334624152E+04  0.20334624152E+04  0.50400001928E-02 0. -1.
        1   -1    0    0  501    0  0.00000000000E+00  0.00000000000E+00 -0.11146639179E+04  0.11146639179E+04  0.50400001928E-02 0.  1.
    10030    2    1    2    0    0  0.00000000000E+00  0.00000000000E+00  0.91879849732E+03  0.31481263332E+04  0.30110643851E+04 0.  0.
        3    1    3    3  502    0  0.32195465825E+03 -0.83216693440E+03 -0.80842857237E+03  0.12040404377E+04  0.10100000352E+00 0.  1.
       -3    1    3    3    0  502 -0.32195465825E+03  0.83216693440E+03  0.17272270697E+04  0.19440858955E+04  0.10100000352E+00 0. -1.
</event>
<event>
 5   0  0.2097842E-06  0.1844041E+04  0.7818609E-02  0.8683224E-01
       -1   -1    0    0    0  501  0.00000000000E+00  0.00000000000E+00  0.64469574132E+03  0.64469574134E+03  0.50400001928E-02 0. -1.
        1   -1    0    0  501    0  0.00000000000E+00  0.00000000000E+00 -0.13186398305E+04  0.13186398305E+04  0.50400001928E-02 0.  1.
    10030    2    1    2    0    0  0.00000000000E+00  0.00000000000E+00 -0.67394408920E+03  0.19633355719E+04  0.18440406537E+04 0.  0.
        4    1    3    3  502    0  0.44933954880E+03  0.37693146366E+03  0.42048477114E+03  0.72165948624E+03  0.12699999809E+01 0. -1.
       -4    1    3    3    0  502 -0.44933954880E+03 -0.37693146366E+03 -0.10944288603E+04  0.12416760856E+04  0.12699999809E+01 0.  1.
</event>
<event>
 5   0  0.5300268E-06  0.3549790E+04  0.7818609E-02  0.8102091E-01
        2   -1    0    0  501    0  0.00000000000E+00  0.00000000000E+00  0.26927659740E+04  0.26927659740E+04  0.25500000920E-02 0.  1.
       -2   -1    0    0    0  501  0.00000000000E+00  0.00000000000E+00 -0.11698946460E+04  0.11698946460E+04  0.25500000920E-02 0. -1.
    10030    2    1    2    0    0  0.00000000000E+00  0.00000000000E+00  0.15228713280E+04  0.38626606200E+04  0.35497901324E+04 0.  0.
        4    1    3    3  502    0 -0.27426866970E+03  0.62263438492E+03  0.25452362975E+04  0.26346017353E+04  0.12699999809E+01 0.  1.
       -4    1    3    3    0  502  0.27426866970E+03 -0.62263438492E+03 -0.10223649696E+04  0.12280588847E+04  0.12699999809E+01 0. -1.
</event>
<event>
 5   0  0.2730981E-06  0.3698476E+04  0.7818609E-02  0.8068300E-01
       -1   -1    0    0    0  501  0.00000000000E+00  0.00000000000E+00  0.31260032346E+04  0.31260032346E+04  0.50400001928E-02 0.  1.
        1   -1    0    0  501    0  0.00000000000E+00  0.00000000000E+00 -0.10939467588E+04  0.10939467588E+04  0.50400001928E-02 0. -1.
    10030    2    1    2    0    0  0.00000000000E+00  0.00000000000E+00  0.20320564757E+04  0.42199499934E+04  0.36984759600E+04 0.  0.
        3    1    3    3  502    0 -0.14296580170E+04 -0.11589339906E+04  0.80991775981E+03  0.20107254482E+04  0.10100000352E+00 0.  1.
       -3    1    3    3    0  502  0.14296580170E+04  0.11589339906E+04  0.12221387159E+04  0.22092245452E+04  0.10100000352E+00 0. -1.
</event>
<event>
 5   0  0.5755250E-06  0.3197155E+04  0.7818609E-02  0.8189569E-01
        2   -1    0    0  501    0  0.00000000000E+00  0.00000000000E+00  0.23480437316E+04  0.23480437316E+04  0.25500000920E-02 0.  1.
       -2   -1    0    0    0  501  0.00000000000E+00  0.00000000000E+00 -0.10883313510E+04  0.10883313510E+04  0.25500000920E-02 0. -1.
    10030    2    1    2    0    0  0.00000000000E+00  0.00000000000E+00  0.12597123806E+04  0.34363750825E+04  0.31971547391E+04 0.  0.
        5    1    3    3  502    0  0.61427205331E+03 -0.13689319434E+04  0.12225922113E+04  0.19354737473E+04  0.46999998093E+01 0.  1.
       -5    1    3    3    0  502 -0.61427205331E+03  0.13689319434E+04  0.37120169347E+02  0.15009013353E+04  0.46999998093E+01 0. -1.
</event>
<event>
 5   0  0.5637538E-06  0.3024661E+04  0.7818609E-02  0.8236724E-01
        2   -1    0    0  501    0  0.00000000000E+00  0.00000000000E+00  0.11058871488E+04  0.11058871488E+04  0.25500000920E-02 0.  1.
       -2   -1    0    0    0  501  0.00000000000E+00  0.00000000000E+00 -0.20681525954E+04  0.20681525954E+04  0.25500000920E-02 0. -1.
    10030    2    1    2    0    0  0.00000000000E+00  0.00000000000E+00 -0.96226544660E+03  0.31740397442E+04  0.30246608915E+04 0.  0.
        2    1    3    3  502    0 -0.22944164305E+03 -0.25470617718E+03  0.10645771288E+04  0.11184110011E+04  0.25500000920E-02 0.  1.
       -2    1    3    3    0  502  0.22944164305E+03  0.25470617718E+03 -0.20268425754E+04  0.20556287431E+04  0.25500000920E-02 0. -1.
</event>
<event>
 5   0  0.5755250E-06  0.3284679E+04  0.7818609E-02  0.8166805E-01
        2   -1    0    0  501    0  0.00000000000E+00  0.00000000000E+00  0.15391636782E+04  0.15391636782E+04  0.25500000920E-02 0. -1.
       -2   -1    0    0    0  501  0.00000000000E+00  0.00000000000E+00 -0.17524310666E+04  0.17524310666E+04  0.25500000920E-02 0.  1.
    10030    2    1    2    0    0  0.00000000000E+00  0.00000000000E+00 -0.21326738846E+03  0.32915947448E+04  0.32846785208E+04 0.  0.
        5    1    3    3  502    0 -0.14266825888E+04  0.36671349216E+03  0.62108692188E+03  0.15986472560E+04  0.46999998093E+01 0. -1.
       -5    1    3    3    0  502  0.14266825888E+04 -0.36671349216E+03 -0.83435431033E+03  0.16929474888E+04  0.46999998093E+01 0.  1.
</event>
<event>
 5   0  0.1999849E-06  0.3201372E+04  0.7818609E-02  0.8188455E-01
       -1   -1    0    0    0  501  0.00000000000E+00  0.00000000000E+00  0.14185155570E+04  0.14185155570E+04  0.50400001928E-02 0. -1.
        1   -1    0    0  501    0  0.00000000000E+00  0.00000000000E+00 -0.18062513937E+04  0.18062513937E+04  0.50400001928E-02 0.  1.
    10030    2    1    2    0    0  0.00000000000E+00  0.00000000000E+00 -0.38773583674E+03  0.32247669507E+04  0.32013720195E+04 0.  0.
        5    1    3    3  502    0 -0.12090629642E+04 -0.18994151886E+03 -0.12330378827E+04  0.17373300038E+04  0.46999998093E+01 0.  1.
       -5    1    3    3    0  502  0.12090629642E+04  0.18994151886E+03  0.84530204598E+03  0.14874369469E+04  0.46999998093E+01 0. -1.
</event>
<event>
 5   0  0.2097842E-06  0.3277424E+04  0.7818609E-02  0.8168664E-01
       -1   -1    0    0    0  501  0.00000000000E+00  0.00000000000E+00  0.14379869668E+04  0.14379869668E+04  0.50400001928E-02 0. -1.
        1   -1    0    0  501    0  0.00000000000E+00  0.00000000000E+00 -0.18674556343E+04  0.18674556343E+04  0.50400001928E-02 0.  1.
    10030    2    1    2    0    0  0.00000000000E+00  0.00000000000E+00 -0.42946866756E+03  0.33054426011E+04  0.32774239050E+04 0.  0.
        4    1    3    3  502    0  0.14486527235E+02 -0.86743859542E+03  0.11873721169E+04  0.14705487864E+04  0.12699999809E+01 0. -1.
       -4    1    3    3    0  502 -0.14486527235E+02  0.86743859542E+03 -0.16168407844E+04  0.18348938148E+04  0.12699999809E+01 0.  1.
</event>
<event>
 5   0  0.5855568E-06  0.3278063E+04  0.7818609E-02  0.8168500E-01
       -2   -1    0    0    0  501  0.00000000000E+00  0.00000000000E+00  0.12812479275E+04  0.12812479275E+04  0.25500000920E-02 0.  1.
        2   -1    0    0  501    0  0.00000000000E+00  0.00000000000E+00 -0.20967244869E+04  0.20967244869E+04  0.25500000920E-02 0. -1.
    10030    2    1    2    0    0  0.00000000000E+00  0.00000000000E+00 -0.81547655935E+03  0.33779724144E+04  0.32780627837E+04 0.  0.
        3    1    3    3  502    0 -0.11298103319E+03  0.15614161869E+04 -0.90795950228E+03  0.18097446479E+04  0.10100000352E+00 0.  1.
       -3    1    3    3    0  502  0.11298103319E+03 -0.15614161869E+04  0.92482942923E+02  0.15682277665E+04  0.10100000352E+00 0. -1.
</event>
<event>
 5   0  0.2037109E-06  0.3079737E+04  0.7818609E-02  0.8221321E-01
        1   -1    0    0  501    0  0.00000000000E+00  0.00000000000E+00  0.18407841162E+04  0.18407841162E+04  0.50400001928E-02 0. -1.
       -1   -1    0    0    0  501  0.00000000000E+00  0.00000000000E+00 -0.12881439371E+04  0.12881439371E+04  0.50400001928E-02 0.  1.
    10030    2    1    2    0    0  0.00000000000E+00  0.00000000000E+00  0.55264017913E+03  0.31289280533E+04  0.30797369360E+04 0.  0.
        2    1    3    3  502    0  0.11036157458E+04 -0.72581114401E+03  0.10804322385E+04  0.17064886033E+04  0.25500000920E-02 0. -1.
       -2    1    3    3    0  502 -0.11036157458E+04  0.72581114401E+03 -0.52779205940E+03  0.14224394500E+04  0.25500000920E-02 0.  1.
</event>
<event>
 5   0  0.5300268E-06  0.2064935E+04  0.7818609E-02  0.8576849E-01
       -2   -1    0    0    0  501  0.00000000000E+00  0.00000000000E+00  0.11079273977E+04  0.11079273977E+04  0.25500000920E-02 0.  1.
        2   -1    0    0  501    0  0.00000000000E+00  0.00000000000E+00 -0.96214744321E+03  0.96214744321E+03  0.25500000920E-02 0. -1.
    10030    2    1    2    0    0  0.00000000000E+00  0.00000000000E+00  0.14577995449E+03  0.20700748409E+04  0.20649353626E+04 0.  0.
        4    1    3    3  502    0 -0.52242175353E+03 -0.29574532725E+03  0.91497955185E+03  0.10943395179E+04  0.12699999809E+01 0.  1.
       -4    1    3    3    0  502  0.52242175353E+03  0.29574532725E+03 -0.76919959737E+03  0.97573532305E+03  0.12699999809E+01 0. -1.
</event>
<event>
 5   0  0.2097842E-06  0.1637480E+04  0.7818609E-02  0.8797848E-01
        1   -1    0    0  501    0  0.00000000000E+00  0.00000000000E+00  0.13687609281E+04  0.13687609281E+04  0.50400001928E-02 0. -1.
       -1   -1    0    0    0  501  0.00000000000E+00  0.00000000000E+00 -0.48973886719E+03  0.48973886722E+03  0.50400001928E-02 0.  1.
    10030    2    1    2    0    0  0.00000000000E+00  0.00000000000E+00  0.87902206092E+03  0.18584997953E+04  0.16374802917E+04 0.  0.
        4    1    3    3  502    0 -0.27256626531E+02 -0.80165978306E+03  0.62577318646E+03  0.10173470525E+04  0.12699999809E+01 0.  1.
       -4    1    3    3    0  502  0.27256626531E+02  0.80165978306E+03  0.25324887446E+03  0.84115274283E+03  0.12699999809E+01 0. -1.
</event>
<event>
 5   0  0.1925906E-06  0.3289323E+04  0.7818609E-02  0.8165617E-01
        1   -1    0    0  501    0  0.00000000000E+00  0.00000000000E+00  0.20673629825E+04  0.20673629825E+04  0.50400001928E-02 0. -1.
       -1   -1    0    0    0  501  0.00000000000E+00  0.00000000000E+00 -0.13083874764E+04  0.13083874764E+04  0.50400001928E-02 0.  1.
    10030    2    1    2    0    0  0.00000000000E+00  0.00000000000E+00  0.75897550608E+03  0.33757504589E+04  0.32893232346E+04 0.  0.
        1    1    3    3  502    0  0.54110130594E+03  0.14276285182E+04  0.10071101565E+04  0.18289846026E+04  0.50400001928E-02 0. -1.
       -1    1    3    3    0  502 -0.54110130594E+03 -0.14276285182E+04 -0.24813465046E+03  0.15467658562E+04  0.50400001928E-02 0.  1.
</event>
<event>
 5   0  0.1999849E-06  0.3275194E+04  0.7818609E-02  0.8169236E-01
        1   -1    0    0  501    0  0.00000000000E+00  0.00000000000E+00  0.88132157636E+03  0.88132157638E+03  0.50400001928E-02 0. -1.
       -1   -1    0    0    0  501  0.00000000000E+00  0.00000000000E+00 -0.30428435239E+04  0.30428435239E+04  0.50400001928E-02 0.  1.
    10030    2    1    2    0    0  0.00000000000E+00  0.00000000000E+00 -0.21615219475E+04  0.39241651003E+04  0.32751938270E+04 0.  0.
        5    1    3    3  502    0 -0.15585899188E+04  0.42560216936E+03 -0.14008296855E+04  0.21383838850E+04  0.46999998093E+01 0. -1.
       -5    1    3    3    0  502  0.15585899188E+04 -0.42560216936E+03 -0.76069226198E+03  0.17857812153E+04  0.46999998093E+01 0.  1.
</event>
<event>
 5   0  0.2730981E-06  0.3169951E+04  0.7818609E-02  0.8196798E-01
       -1   -1    0    0    0  501  0.00000000000E+00  0.00000000000E+00  0.17258987816E+04  0.17258987816E+04  0.50400001928E-02 0.  1.
        1   -1    0    0  501    0  0.00000000000E+00  0.00000000000E+00 -0.14555587487E+04  0.14555587487E+04  0.50400001928E-02 0. -1.
    10030    2    1    2    0    0  0.00000000000E+00  0.00000000000E+00  0.27034003292E+03  0.31814575303E+04  0.31699508330E+04 0.  0.
        3    1    3    3  502    0  0.69807671540E+03  0.52320057848E+03  0.14632637275E+04  0.17035817246E+04  0.10100000352E+00 0.  1.
       -3    1    3    3    0  502 -0.69807671540E+03 -0.52320057848E+03 -0.11929236946E+04  0.14778758057E+04  0.10100000352E+00 0. -1.
</event>
<event>
 5   0  0.5637538E-06  0.3244779E+04  0.7818609E-02  0.8177090E-01
        2   -1    0    0  501    0  0.00000000000E+00  0.00000000000E+00  0.17543502211E+04  0.17543502211E+04  0.25500000920E-02 0. -1.
       -2   -1    0    0    0  501  0.00000000000E+00  0.00000000000E+00 -0.15003543533E+04  0.15003543533E+04  0.25500000920E-02 0.  1.
    10030    2    1    2    0    0  0.00000000000E+00  0.00000000000E+00  0.25399586773E+03  0.32547045744E+04  0.32447785696E+04 0.  0.
        2    1    3    3  502    0  0.80647678714E+03 -0.98747217105E+03  0.11333820974E+04  0.17058901124E+04  0.25500000920E-02 0. -1.
       -2    1    3    3    0  502 -0.80647678714E+03  0.98747217105E+03 -0.87938622968E+03  0.15488144620E+04  0.25500000920E-02 0.  1.
</event>
<event>
 5   0  0.2097842E-06  0.3326210E+04  0.7818609E-02  0.8156258E-01
       -1   -1    0    0    0  501  0.00000000000E+00  0.00000000000E+00  0.14413824530E+04  0.14413824530E+04  0.50400001928E-02 0. -1.
        1   -1    0    0  501    0  0.00000000000E+00  0.00000000000E+00 -0.19189348636E+04  0.19189348636E+04  0.50400001928E-02 0.  1.
    10030    2    1    2    0    0  0.00000000000E+00  0.00000000000E+00 -0.47755241061E+03  0.33603173166E+04  0.33262104809E+04 0.  0.
        4    1    3    3  502    0 -0.38794363296E+03 -0.23698950886E+03 -0.18549467397E+04  0.19098411739E+04  0.12699999809E+01 0.  1.
       -4    1    3    3    0  502  0.38794363296E+03  0.23698950886E+03  0.13773943291E+04  0.14504761426E+04  0.12699999809E+01 0. -1.
</event>
<event>
 5   0  0.5855568E-06  0.3328969E+04  0.7818609E-02  0.8155563E-01
       -2   -1    0    0    0  501  0.00000000000E+00  0.00000000000E+00  0.96262843792E+03  0.96262843793E+03  0.25500000920E-02 0.  1.
        2   -1    0    0  501    0  0.00000000000E+00  0.00000000000E+00 -0.28780668366E+04  0.28780668366E+04  0.25500000920E-02 0. -1.
    10030    2    1    2    0    0  0.00000000000E+00  0.00000000000E+00 -0.19154383987E+04  0.38406952745E+04  0.33289691997E+04 0.  0.
        3    1    3    3  502    0  0.21376092071E+03  0.14437304448E+04 -0.18810243983E+04  0.23808200531E+04  0.10100000352E+00 0. -1.
       -3    1    3    3    0  502 -0.21376092071E+03 -0.14437304448E+04 -0.34414000420E+02  0.14598752214E+04  0.10100000352E+00 0.  1.
</event>
<event>
 5   0  0.5300268E-06  0.3322884E+04  0.7818609E-02  0.8157097E-01
        2   -1    0    0  501    0  0.00000000000E+00  0.00000000000E+00  0.23295274579E+04  0.23295274579E+04  0.25500000920E-02 0. -1.
       -2   -1    0    0    0  501  0.00000000000E+00  0.00000000000E+00 -0.11849567144E+04  0.11849567144E+04  0.25500000920E-02 0.  1.
    10030    2    1    2    0    0  0.00000000000E+00  0.00000000000E+00  0.11445707434E+04  0.35144841723E+04  0.33228838094E+04 0.  0.
        4    1    3    3  502    0 -0.16426761559E+04  0.67397318181E+02  0.31875491035E+03  0.16746741944E+04  0.12699999809E+01 0.  1.
       -4    1    3    3    0  502  0.16426761559E+04 -0.67397318181E+02  0.82581583307E+03  0.18398099779E+04  0.12699999809E+01 0. -1.
</event>
<event>
 5   0  0.1925906E-06  0.3334001E+04  0.7818609E-02  0.8154297E-01
        1   -1    0    0  501    0  0.00000000000E+00  0.00000000000E+00  0.15960896976E+04  0.15960896976E+04  0.50400001928E-02 0. -1.
       -1   -1    0    0    0  501  0.00000000000E+00  0.00000000000E+00 -0.17410615020E+04  0.17410615020E+04  0.50400001928E-02 0.  1.
    10030    2    1    2    0    0  0.00000000000E+00  0.00000000000E+00 -0.14497180439E+03  0.33371511996E+04  0.33340007956E+04 0.  0.
        1    1    3    3  502    0  0.10781323124E+04  0.12365456635E+04  0.22355676501E+03  0.16557149780E+04  0.50400001928E-02 0. -1.
       -1    1    3    3    0  502 -0.10781323124E+04 -0.12365456635E+04 -0.36852856940E+03  0.16814362217E+04  0.50400001928E-02 0.  1.
</event>
<event>
 5   0  0.5755250E-06  0.2444376E+04  0.7818609E-02  0.8423074E-01
       -2   -1    0    0    0  501  0.00000000000E+00  0.00000000000E+00  0.11799032286E+04  0.11799032286E+04  0.25500000920E-02 0.  1.
        2   -1    0    0  501    0  0.00000000000E+00  0.00000000000E+00 -0.12659881563E+04  0.12659881563E+04  0.25500000920E-02 0. -1.
    10030    2    1    2    0    0  0.00000000000E+00  0.00000000000E+00 -0.86084927696E+02  0.24458913849E+04  0.24443760046E+04 0.  0.
        5    1    3    3  502    0 -0.46193235198E+03  0.47100201646E+03  0.98642820293E+03  0.11867127230E+04  0.46999998093E+01 0.  1.
       -5    1    3    3    0  502  0.46193235198E+03 -0.47100201646E+03 -0.10725131306E+04  0.12591786619E+04  0.46999998093E+01 0. -1.
</event>
<event>
 5   0  0.5622811E-06  0.3255856E+04  0.7818609E-02  0.8174220E-01
       -2   -1    0    0    0  501  0.00000000000E+00  0.00000000000E+00  0.14835110373E+04  0.14835110373E+04  0.25500000920E-02 0. -1.
        2   -1    0    0  501    0  0.00000000000E+00  0.00000000000E+00 -0.17864037329E+04  0.17864037329E+04  0.25500000920E-02 0.  1.
    10030    2    1    2    0    0  0.00000000000E+00  0.00000000000E+00 -0.30289269552E+03  0.32699147702E+04  0.32558560502E+04 0.  0.
        1    1    3    3  502    0 -0.26178916120E+03 -0.14080455778E+04  0.62586186277E+03  0.15629552090E+04  0.50400001928E-02 0. -1.
       -1    1    3    3    0  502  0.26178916120E+03  0.14080455778E+04 -0.92875455830E+03  0.17069595612E+04  0.50400001928E-02 0.  1.
</event>
<event>
 5   0  0.5855568E-06  0.3209269E+04  0.7818609E-02  0.8186374E-01
       -2   -1    0    0    0  501  0.00000000000E+00  0.00000000000E+00  0.25211479981E+04  0.25211479981E+04  0.25500000920E-02 0.  1.
        2   -1    0    0  501    0  0.00000000000E+00  0.00000000000E+00 -0.10213011756E+04  0.10213011756E+04  0.25500000920E-02 0. -1.
    10030    2    1    2    0    0  0.00000000000E+00  0.00000000000E+00  0.14998468225E+04  0.35424491738E+04  0.32092687108E+04 0.  0.
        3    1    3    3  502    0  0.97537356389E+03 -0.12541880201E+04  0.50184601284E+03  0.16661904482E+04  0.10100000352E+00 0. -1.
       -3    1    3    3    0  502 -0.97537356389E+03  0.12541880201E+04  0.99800080968E+03  0.18762587256E+04  0.10100000352E+00 0.  1.
</event>
<event>
 5   0  0.1925906E-06  0.3363107E+04  0.7818609E-02  0.8147021E-01
        1   -1    0    0  501    0  0.00000000000E+00  0.00000000000E+00  0.16538828819E+04  0.16538828819E+04  0.50400001928E-02 0.  1.
       -1   -1    0    0    0  501  0.00000000000E+00  0.00000000000E+00 -0.17096865986E+04  0.17096865986E+04  0.50400001928E-02 0. -1.
    10030    2    1    2    0    0  0.00000000000E+00  0.00000000000E+00 -0.55803716625E+02  0.33635694805E+04  0.33631065394E+04 0.  0.
        1    1    3    3  502    0  0.14323720789E+04  0.10185188752E+03 -0.90298390959E+03  0.16963028976E+04  0.50400001928E-02 0. -1.
       -1    1    3    3    0  502 -0.14323720789E+04 -0.10185188752E+03  0.84718019297E+03  0.16672665830E+04  0.50400001928E-02 0.  1.
</event>
<event>
 5   0  0.2037109E-06  0.3352158E+04  0.7818609E-02  0.8149749E-01
        1   -1    0    0  501    0  0.00000000000E+00  0.00000000000E+00  0.15065423462E+04  0.15065423462E+04  0.50400001928E-02 0.  1.
       -1   -1    0    0    0  501  0.00000000000E+00  0.00000000000E+00 -0.18646946798E+04  0.18646946798E+04  0.50400001928E-02 0. -1.
    10030    2    1    2    0    0  0.00000000000E+00  0.00000000000E+00 -0.35815233363E+03  0.33712370260E+04  0.33521584078E+04 0.  0.
        2    1    3    3  502    0 -0.16285088658E+04 -0.39642641018E+03 -0.17222025788E+03  0.16848901573E+04  0.25500000920E-02 0.  1.
       -2    1    3    3    0  502  0.16285088658E+04  0.39642641018E+03 -0.18593207575E+03  0.16863468687E+04  0.25500000920E-02 0. -1.
</event>
<event>
 5   0  0.5622811E-06  0.3314953E+04  0.7818609E-02  0.8159101E-01
        2   -1    0    0  501    0  0.00000000000E+00  0.00000000000E+00  0.16180111910E+04  0.16180111910E+04  0.25500000920E-02 0.  1.
       -2   -1    0    0    0  501  0.00000000000E+00  0.00000000000E+00 -0.16979043143E+04  0.16979043143E+04  0.25500000920E-02 0. -1.
    10030    2    1    2    0    0  0.00000000000E+00  0.00000000000E+00 -0.79893123240E+02  0.33159155053E+04  0.33149528997E+04 0.  0.
        1    1    3    3  502    0  0.57748822059E+03 -0.15536200559E+04 -0.39437768617E+02  0.16579454939E+04  0.50400001928E-02 0. -1.
       -1    1    3    3    0  502 -0.57748822059E+03  0.15536200559E+04 -0.40455354623E+02  0.16579700114E+04  0.50400001928E-02 0.  1.
</event>
<event>
 5   0  0.5855568E-06  0.3249857E+04  0.7818609E-02  0.8175773E-01
       -2   -1    0    0    0  501  0.00000000000E+00  0.00000000000E+00  0.93071271632E+03  0.93071271633E+03  0.25500000920E-02 0. -1.
        2   -1    0    0  501    0  0.00000000000E+00  0.00000000000E+00 -0.28369573135E+04  0.28369573135E+04  0.25500000920E-02 0.  1.
    10030    2    1    2    0    0  0.00000000000E+00  0.00000000000E+00 -0.19062445972E+04  0.37676700298E+04  0.32498567644E+04 0.  0.
        3    1    3    3  502    0 -0.12629507028E+04  0.10170688992E+04 -0.10742636435E+04  0.19451262194E+04  0.10100000352E+00 0. -1.
       -3    1    3    3    0  502  0.12629507028E+04 -0.10170688992E+04 -0.83198095364E+03  0.18225438104E+04  0.10100000352E+00 0.  1.
</event>
<event>
 5   0  0.1999849E-06  0.3321574E+04  0.7818609E-02  0.8157428E-01
        1   -1    0    0  501    0  0.00000000000E+00  0.00000000000E+00  0.22059269395E+04  0.22059269395E+04  0.50400001928E-02 0.  1.
       -1   -1    0    0    0  501  0.00000000000E+00  0.00000000000E+00 -0.12503645749E+04  0.12503645749E+04  0.50400001928E-02 0. -1.
    10030    2    1    2    0    0  0.00000000000E+00  0.00000000000E+00  0.95556236460E+03  0.34562915144E+04  0.33215736631E+04 0.  0.
        5    1    3    3  502    0  0.10932794162E+04  0.43093430826E+03  0.16989316214E+04  0.20657577313E+04  0.46999998093E+01 0.  1.
       -5    1    3    3    0  502 -0.10932794162E+04 -0.43093430826E+03 -0.74336925682E+03  0.13905337831E+04  0.46999998093E+01 0. -1.
</event>
<event>
 5   0  0.5855568E-06  0.3434144E+04  0.7818609E-02  0.8129577E-01
       -2   -1    0    0    0  501  0.00000000000E+00  0.00000000000E+00  0.13716566980E+04  0.13716566980E+04  0.25500000920E-02 0.  1.
        2   -1    0    0  501    0  0.00000000000E+00  0.00000000000E+00 -0.21494706404E+04  0.21494706404E+04  0.25500000920E-02 0. -1.
    10030    2    1    2    0    0  0.00000000000E+00  0.00000000000E+00 -0.77781394245E+03  0.35211273384E+04  0.34341437367E+04 0.  0.
        3    1    3    3  502    0  0.31237223304E+03  0.46645946941E+03  0.12749006886E+04  0.13930300156E+04  0.10100000352E+00 0.  1.
       -3    1    3    3    0  502 -0.31237223304E+03 -0.46645946941E+03 -0.20527146310E+04  0.21280973228E+04  0.10100000352E+00 0. -1.
</event>
<event>
 5   0  0.2097842E-06  0.1860267E+04  0.7818609E-02  0.8674891E-01
        1   -1    0    0  501    0  0.00000000000E+00  0.00000000000E+00  0.15002262576E+04  0.15002262576E+04  0.50400001928E-02 0.  1.
       -1   -1    0    0    0  501  0.00000000000E+00  0.00000000000E+00 -0.57667845689E+03  0.57667845691E+03  0.50400001928E-02 0. -1.
    10030    2    1    2    0    0  0.00000000000E+00  0.00000000000E+00  0.92354780074E+03  0.20769047145E+04  0.18602668231E+04 0.  0.
        4    1    3    3  502    0 -0.42984610199E+03 -0.20884871106E+03 -0.42912739801E+03  0.64229073800E+03  0.12699999809E+01 0. -1.
       -4    1    3    3    0  502  0.42984610199E+03  0.20884871106E+03  0.13526751987E+04  0.14346139765E+04  0.12699999809E+01 0.  1.
</event>
<event>
 5   0  0.2097842E-06  0.2153910E+04  0.7818609E-02  0.8537861E-01
       -1   -1    0    0    0  501  0.00000000000E+00  0.00000000000E+00  0.56887224849E+03  0.56887224851E+03  0.50400001928E-02 0.  1.
        1   -1    0    0  501    0  0.00000000000E+00  0.00000000000E+00 -0.20388265466E+04  0.20388265466E+04  0.50400001928E-02 0. -1.
    10030    2    1    2    0    0  0.00000000000E+00  0.00000000000E+00 -0.14699542981E+04  0.26076987951E+04  0.21539097863E+04 0.  0.
        4    1    3    3  502    0  0.63011539384E+03 -0.30664465904E+02 -0.17917048399E+04  0.18995245629E+04  0.12699999809E+01 0. -1.
       -4    1    3    3    0  502 -0.63011539384E+03  0.30664465904E+02  0.32175054181E+03  0.70817423215E+03  0.12699999809E+01 0.  1.
</event>
<event>
 5   0  0.5855568E-06  0.3137817E+04  0.7818609E-02  0.8205435E-01
        2   -1    0    0  501    0  0.00000000000E+00  0.00000000000E+00  0.81596384596E+03  0.81596384596E+03  0.25500000920E-02 0.  1.
       -2   -1    0    0    0  501  0.00000000000E+00  0.00000000000E+00 -0.30166449007E+04  0.30166449007E+04  0.25500000920E-02 0. -1.
    10030    2    1    2    0    0  0.00000000000E+00  0.00000000000E+00 -0.22006810547E+04  0.38326087466E+04  0.31378165498E+04 0.  0.
        3    1    3    3  502    0 -0.81375979439E+03 -0.96737093138E+03 -0.22353211896E+04  0.25680094144E+04  0.10100000352E+00 0. -1.
       -3    1    3    3    0  502  0.81375979439E+03  0.96737093138E+03  0.34640134873E+02  0.12645993322E+04  0.10100000352E+00 0.  1.
</event>
<event>
 5   0  0.1999849E-06  0.3061532E+04  0.7818609E-02  0.8226375E-01
       -1   -1    0    0    0  501  0.00000000000E+00  0.00000000000E+00  0.13236511296E+04  0.13236511296E+04  0.50400001928E-02 0.  1.
        1   -1    0    0  501    0  0.00000000000E+00  0.00000000000E+00 -0.17702883924E+04  0.17702883924E+04  0.50400001928E-02 0. -1.
    10030    2    1    2    0    0  0.00000000000E+00  0.00000000000E+00 -0.44663726278E+03  0.30939395221E+04  0.30615317933E+04 0.  0.
        5    1    3    3  502    0  0.14865202768E+04  0.30456110100E+03 -0.19385232042E+02  0.15175301890E+04  0.46999998093E+01 0. -1.
       -5    1    3    3    0  502 -0.14865202768E+04 -0.30456110100E+03 -0.42725203074E+03  0.15764093330E+04  0.46999998093E+01 0.  1.
</event>
<event>
 5   0  0.1925906E-06  0.1895595E+04  0.7818609E-02  0.8657052E-01
       -1   -1    0    0    0  501  0.00000000000E+00  0.00000000000E+00  0.55131229864E+03  0.55131229867E+03  0.50400001928E-02 0. -1.
        1   -1    0    0  501    0  0.00000000000E+00  0.00000000000E+00 -0.16294222369E+04  0.16294222369E+04  0.50400001928E-02 0.  1.
    10030    2    1    2    0    0  0.00000000000E+00  0.00000000000E+00 -0.10781099383E+04  0.21807345356E+04  0.18955954410E+04 0.  0.
        1    1    3    3  502    0  0.23148838943E+01  0.24675831736E+03 -0.15918170522E+04  0.16108310133E+04  0.50400001928E-02 0.  1.
       -1    1    3    3    0  502 -0.23148838943E+01 -0.24675831736E+03  0.51370711386E+03  0.56990352230E+03  0.50400001928E-02 0. -1.
</event>
<event>
 5   0  0.2097842E-06  0.3241557E+04  0.7818609E-02  0.8177927E-01
        1   -1    0    0  501    0  0.00000000000E+00  0.00000000000E+00  0.22932992107E+04  0.22932992107E+04  0.50400001928E-02 0.  1.
       -1   -1    0    0    0  501  0.00000000000E+00  0.00000000000E+00 -0.11454776488E+04  0.11454776488E+04  0.50400001928E-02 0. -1.
    10030    2    1    2    0    0  0.00000000000E+00  0.00000000000E+00  0.11478215619E+04  0.34387768596E+04  0.32415570259E+04 0.  0.
        4    1    3    3  502    0 -0.13209600336E+04 -0.62068421559E+03  0.13215870814E+04  0.19689536136E+04  0.12699999809E+01 0.  1.
       -4    1    3    3    0  502  0.13209600336E+04  0.62068421559E+03 -0.17376551952E+03  0.14698232460E+04  0.12699999809E+01 0. -1.
</event>
<event>
 5   0  0.5637538E-06  0.1892394E+04  0.7818609E-02  0.8658652E-01
       -2   -1    0    0    0  501  0.00000000000E+00  0.00000000000E+00  0.50659748120E+03  0.50659748120E+03  0.25500000920E-02 0. -1.
        2   -1    0    0  501    0  0.00000000000E+00  0.00000000000E+00 -0.17672581874E+04  0.17672581874E+04  0.25500000920E-02 0.  1.
    10030    2    1    2    0    0  0.00000000000E+00  0.00000000000E+00 -0.12606607062E+04  0.22738556686E+04  0.18923937713E+04 0.  0.
        2    1    3    3  502    0 -0.23500363482E+03 -0.24471086894E+03 -0.16916552542E+04  0.17253427534E+04  0.25500000920E-02 0.  1.
       -2    1    3    3    0  502  0.23500363482E+03  0.24471086894E+03  0.43099454797E+03  0.54851291520E+03  0.25500000920E-02 0. -1.
</event>
<event>
 5   0  0.5637538E-06  0.3155580E+04  0.7818609E-02  0.8200648E-01
        2   -1    0    0  501    0  0.00000000000E+00  0.00000000000E+00  0.13020522525E+04  0.13020522525E+04  0.25500000920E-02 0. -1.
       -2   -1    0    0    0  501  0.00000000000E+00  0.00000000000E+00 -0.19119209996E+04  0.19119209996E+04  0.25500000920E-02 0.  1.
    10030    2    1    2    0    0  0.00000000000E+00  0.00000000000E+00 -0.60986874713E+03  0.32139732521E+04  0.31555798479E+04 0.  0.
        2    1    3    3  502    0  0.99655285543E+03 -0.40209576193E+03 -0.14815708210E+04  0.18302597337E+04  0.25500000920E-02 0.  1.
       -2    1    3    3    0  502 -0.99655285543E+03  0.40209576193E+03  0.87170207382E+03  0.13837135184E+04  0.25500000920E-02 0. -1.
</event>
<event>
 5   0  0.5637538E-06  0.3258462E+04  0.7818609E-02  0.8173546E-01
        2   -1    0    0  501    0  0.00000000000E+00  0.00000000000E+00  0.13339896314E+04  0.13339896314E+04  0.25500000920E-02 0. -1.
       -2   -1    0    0    0  501  0.00000000000E+00  0.00000000000E+00 -0.19898162645E+04  0.19898162645E+04  0.25500000920E-02 0.  1.
    10030    2    1    2    0    0  0.00000000000E+00  0.00000000000E+00 -0.65582663308E+03  0.33238058959E+04  0.32584623768E+04 0.  0.
        2    1    3    3  502    0 -0.18875450362E+03 -0.15936949764E+04 -0.41384805707E+02  0.16053674479E+04  0.25500000920E-02 0. -1.
       -2    1    3    3    0  502  0.18875450362E+03  0.15936949764E+04 -0.61444182737E+03  0.17184384480E+04  0.25500000920E-02 0.  1.
</event>
<event>
 5   0  0.2037109E-06  0.3250352E+04  0.7818609E-02  0.8175645E-01
       -1   -1    0    0    0  501  0.00000000000E+00  0.00000000000E+00  0.14983079655E+04  0.14983079655E+04  0.50400001928E-02 0. -1.
        1   -1    0    0  501    0  0.00000000000E+00  0.00000000000E+00 -0.17627860228E+04  0.17627860228E+04  0.50400001928E-02 0.  1.
    10030    2    1    2    0    0  0.00000000000E+00  0.00000000000E+00 -0.26447805722E+03  0.32610939883E+04  0.32503515745E+04 0.  0.
        2    1    3    3  502    0 -0.56890630186E+03 -0.25047337873E+03  0.13743245907E+04  0.15083631440E+04  0.25500000920E-02 0. -1.
       -2    1    3    3    0  502  0.56890630186E+03  0.25047337873E+03 -0.16388026479E+04  0.17527308443E+04  0.25500000920E-02 0.  1.
</event>
<event>
 5   0  0.2097842E-06  0.2114257E+04  0.7818609E-02  0.8554989E-01
       -1   -1    0    0    0  501  0.00000000000E+00  0.00000000000E+00  0.52635944249E+03  0.52635944251E+03  0.50400001928E-02 0. -1.
        1   -1    0    0  501    0  0.00000000000E+00  0.00000000000E+00 -0.21231139453E+04  0.21231139453E+04  0.50400001928E-02 0.  1.
    10030    2    1    2    0    0  0.00000000000E+00  0.00000000000E+00 -0.15967545029E+04  0.26494733879E+04  0.21142573851E+04 0.  0.
        4    1    3    3  502    0 -0.86836988866E+03  0.26383760136E+03 -0.14776736596E+04  0.17341273311E+04  0.12699999809E+01 0.  1.
       -4    1    3    3    0  502  0.86836988866E+03 -0.26383760136E+03 -0.11908084325E+03  0.91534605672E+03  0.12699999809E+01 0. -1.
</event>
<event>
 5   0  0.2730981E-06  0.3423792E+04  0.7818609E-02  0.8132092E-01
       -1   -1    0    0    0  501  0.00000000000E+00  0.00000000000E+00  0.31058359689E+04  0.31058359689E+04  0.50400001928E-02 0. -1.
        1   -1    0    0  501    0  0.00000000000E+00  0.00000000000E+00 -0.94357467840E+03  0.94357467841E+03  0.50400001928E-02 0.  1.
    10030    2    1    2    0    0  0.00000000000E+00  0.00000000000E+00  0.21622612905E+04  0.40494106473E+04  0.34237921523E+04 0.  0.
        3    1    3    3  502    0  0.13028543299E+04  0.21079891717E+03 -0.20837926419E+03  0.13361465175E+04  0.10100000352E+00 0.  1.
       -3    1    3    3    0  502 -0.13028543299E+04 -0.21079891717E+03  0.23706405546E+04  0.27132641298E+04  0.10100000352E+00 0. -1.
</event>
<event>
 5   0  0.5755250E-06  0.3239002E+04  0.7818609E-02  0.8178592E-01
        2   -1    0    0  501    0  0.00000000000E+00  0.00000000000E+00  0.14224300140E+04  0.14224300140E+04  0.25500000920E-02 0. -1.
       -2   -1    0    0    0  501  0.00000000000E+00  0.00000000000E+00 -0.18438755363E+04  0.18438755363E+04  0.25500000920E-02 0.  1.
    10030    2    1    2    0    0  0.00000000000E+00  0.00000000000E+00 -0.42144552231E+03  0.32663055503E+04  0.32390022568E+04 0.  0.
        5    1    3    3  502    0 -0.83974998722E+03 -0.11391905955E+04 -0.10046499037E+04  0.17355917644E+04  0.46999998093E+01 0.  1.
       -5    1    3    3    0  502  0.83974998722E+03  0.11391905955E+04  0.58320438138E+03  0.15307137859E+04  0.46999998093E+01 0. -1.
</event>
<event>
 5   0  0.2097842E-06  0.3322912E+04  0.7818609E-02  0.8157090E-01
       -1   -1    0    0    0  501  0.00000000000E+00  0.00000000000E+00  0.14232982019E+04  0.14232982019E+04  0.50400001928E-02 0. -1.
        1   -1    0    0  501    0  0.00000000000E+00  0.00000000000E+00 -0.19394638727E+04  0.19394638727E+04  0.50400001928E-02 0.  1.
    10030    2    1    2    0    0  0.00000000000E+00  0.00000000000E+00 -0.51616567078E+03  0.33627620747E+04  0.33229116406E+04 0.  0.
        4    1    3    3  502    0 -0.13602065090E+03  0.15401703750E+04  0.35732803474E+03  0.15869188192E+04  0.12699999809E+01 0. -1.
       -4    1    3    3    0  502  0.13602065090E+03 -0.15401703750E+04 -0.87349370552E+03  0.17758432554E+04  0.12699999809E+01 0.  1.
</event>
<event>
 5   0  0.5755250E-06  0.2340745E+04  0.7818609E-02  0.8462027E-01
       -2   -1    0    0    0  501  0.00000000000E+00  0.00000000000E+00  0.67680779232E+03  0.67680779232E+03  0.25500000920E-02 0.  1.
        2   -1    0    0  501    0  0.00000000000E+00  0.00000000000E+00 -0.20238719311E+04  0.20238719311E+04  0.25500000920E-02 0. -1.
    10030    2    1    2    0    0  0.00000000000E+00  0.00000000000E+00 -0.13470641388E+04  0.27006797234E+04  0.23407454314E+04 0.  0.
        5    1    3    3  502    0  0.70489769394E+02  0.21742237154E+03  0.65079629111E+03  0.68978199292E+03  0.46999998093E+01 0.  1.
       -5    1    3    3    0  502 -0.70489769394E+02 -0.21742237154E+03 -0.19978604299E+04  0.20108977305E+04  0.46999998093E+01 0. -1.
</event>
<event>
 5   0  0.2097842E-06  0.2775418E+04  0.7818609E-02  0.8310941E-01
       -1   -1    0    0    0  501  0.00000000000E+00  0.00000000000E+00  0.15699529123E+04  0.15699529123E+04  0.50400001928E-02 0. -1.
        1   -1    0    0  501    0  0.00000000000E+00  0.00000000000E+00 -0.12266200271E+04  0.12266200271E+04  0.50400001928E-02 0.  1.
    10030    2    1    2    0    0  0.00000000000E+00  0.00000000000E+00  0.34333288524E+03  0.27965729394E+04  0.27754175785E+04 0.  0.
        4    1    3    3  502    0 -0.98217909004E+02 -0.13841582659E+04  0.15766056153E+03  0.13965669796E+04  0.12699999809E+01 0.  1.
       -4    1    3    3    0  502  0.98217909004E+02  0.13841582659E+04  0.18567232371E+03  0.14000059598E+04  0.12699999809E+01 0. -1.
</event>
<event>
 5   0  0.1878000E-06  0.2118061E+04  0.7818609E-02  0.8553329E-01
        3   -1    0    0  501    0  0.00000000000E+00  0.00000000000E+00  0.78920736918E+03  0.78920737565E+03  0.10100000352E+00 0. -1.
       -3   -1    0    0    0  501  0.00000000000E+00  0.00000000000E+00 -0.14211044625E+04  0.14211044661E+04  0.10100000352E+00 0.  1.
    10030    2    1    2    0    0  0.00000000000E+00  0.00000000000E+00 -0.63189709330E+03  0.22103118417E+04  0.21180614961E+04 0.  0.
        2    1    3    3  502    0 -0.41830792351E+03  0.54938080805E+03 -0.11538811505E+04  0.13447090765E+04  0.25500000920E-02 0.  1.
       -2    1    3    3    0  502  0.41830792351E+03 -0.54938080805E+03  0.52198405717E+03  0.86560276517E+03  0.25500000920E-02 0. -1.
</event>
<event>
 5   0  0.2730981E-06  0.2801753E+04  0.7818609E-02  0.8302724E-01
       -1   -1    0    0    0  501  0.00000000000E+00  0.00000000000E+00  0.97034372452E+03  0.97034372453E+03  0.50400001928E-02 0. -1.
        1   -1    0    0  501    0  0.00000000000E+00  0.00000000000E+00 -0.20224332228E+04  0.20224332228E+04  0.50400001928E-02 0.  1.
    10030    2    1    2    0    0  0.00000000000E+00  0.00000000000E+00 -0.10520894983E+04  0.29927769474E+04  0.28017532982E+04 0.  0.
        3    1    3    3  502    0 -0.71405036276E+03 -0.11567472059E+04 -0.88753075818E+03  0.16234663150E+04  0.10100000352E+00 0.  1.
       -3    1    3    3    0  502  0.71405036276E+03  0.11567472059E+04 -0.16455874014E+03  0.13693106324E+04  0.10100000352E+00 0. -1.
</event>
<event>
 5   0  0.1925906E-06  0.2548001E+04  0.7818609E-02  0.8386082E-01
        1   -1    0    0  501    0  0.00000000000E+00  0.00000000000E+00  0.19179326979E+04  0.19179326980E+04  0.50400001928E-02 0.  1.
       -1   -1    0    0    0  501  0.00000000000E+00  0.00000000000E+00 -0.84626402499E+03  0.84626402500E+03  0.50400001928E-02 0. -1.
    10030    2    1    2    0    0  0.00000000000E+00  0.00000000000E+00  0.10716686730E+04  0.27641967230E+04  0.25480011339E+04 0.  0.
        1    1    3    3  502    0 -0.62914328165E+03  0.82778624011E+03  0.13345265255E+04  0.16917483192E+04  0.50400001928E-02 0.  1.
       -1    1    3    3    0  502  0.62914328165E+03 -0.82778624011E+03 -0.26285785250E+03  0.10724484038E+04  0.50400001928E-02 0. -1.
</event>
<event>
 5   0  0.5300268E-06  0.3157571E+04  0.7818609E-02  0.8200113E-01
        2   -1    0    0  501    0  0.00000000000E+00  0.00000000000E+00  0.17214883071E+04  0.17214883071E+04  0.25500000920E-02 0.  1.
       -2   -1    0    0    0  501  0.00000000000E+00  0.00000000000E+00 -0.14479119068E+04  0.14479119068E+04  0.25500000920E-02 0. -1.
    10030    2    1    2    0    0  0.00000000000E+00  0.00000000000E+00  0.27357640035E+03  0.31694002139E+04  0.31575708494E+04 0.  0.
        4    1    3    3  502    0  0.45999820017E+03  0.14320164733E+04  0.61847380638E+03  0.16262782622E+04  0.12699999809E+01 0.  1.
       -4    1    3    3    0  502 -0.45999820017E+03 -0.14320164733E+04 -0.34489740604E+03  0.15431219517E+04  0.12699999809E+01 0. -1.
</event>
<event>
 5   0  0.5637538E-06  0.3342244E+04  0.7818609E-02  0.8152229E-01
       -2   -1    0    0    0  501  0.00000000000E+00  0.00000000000E+00  0.14527674280E+04  0.14527674280E+04  0.25500000920E-02 0. -1.
        2   -1    0    0  501    0  0.00000000000E+00  0.00000000000E+00 -0.19222961105E+04  0.19222961105E+04  0.25500000920E-02 0.  1.
    10030    2    1    2    0    0  0.00000000000E+00  0.00000000000E+00 -0.46952868255E+03  0.33750635385E+04  0.33422442617E+04 0.  0.
        2    1    3    3  502    0  0.93761156283E+03  0.98754876042E+03  0.74339649254E+03  0.15514529777E+04  0.25500000920E-02 0. -1.
       -2    1    3    3    0  502 -0.93761156283E+03 -0.98754876042E+03 -0.12129251751E+04  0.18236105608E+04  0.25500000920E-02 0.  1.
</event>
<event>
 5   0  0.2730981E-06  0.3435809E+04  0.7818609E-02  0.8129173E-01
        1   -1    0    0  501    0  0.00000000000E+00  0.00000000000E+00  0.27643366949E+04  0.27643366949E+04  0.50400001928E-02 0.  1.
       -1   -1    0    0    0  501  0.00000000000E+00  0.00000000000E+00 -0.10675965483E+04  0.10675965483E+04  0.50400001928E-02 0. -1.
    10030    2    1    2    0    0  0.00000000000E+00  0.00000000000E+00  0.16967401466E+04  0.38319332432E+04  0.34358092576E+04 0.  0.
        3    1    3    3  502    0 -0.99550221571E+02 -0.50948717052E+03 -0.97802490358E+03  0.11072579400E+04  0.10100000352E+00 0. -1.
       -3    1    3    3    0  502  0.99550221571E+02  0.50948717052E+03  0.26747650502E+04  0.27246753031E+04  0.10100000352E+00 0.  1.
</event>
<event>
 5   0  0.5855568E-06  0.2868780E+04  0.7818609E-02  0.8282227E-01
        2   -1    0    0  501    0  0.00000000000E+00  0.00000000000E+00  0.18474471012E+04  0.18474471012E+04  0.25500000920E-02 0. -1.
       -2   -1    0    0    0  501  0.00000000000E+00  0.00000000000E+00 -0.11136853107E+04  0.11136853107E+04  0.25500000920E-02 0.  1.
    10030    2    1    2    0    0  0.00000000000E+00  0.00000000000E+00  0.73376179050E+03  0.29611324118E+04  0.28687800186E+04 0.  0.
        3    1    3    3  502    0 -0.11143994221E+04  0.64807711698E+03  0.10160835777E+04  0.16414371351E+04  0.10100000352E+00 0. -1.
       -3    1    3    3    0  502  0.11143994221E+04 -0.64807711698E+03 -0.28232178716E+03  0.13196952767E+04  0.10100000352E+00 0.  1.
</event>
<event>
 5   0  0.1925906E-06  0.3610477E+04  0.7818609E-02  0.8088096E-01
       -1   -1    0    0    0  501  0.00000000000E+00  0.00000000000E+00  0.22793430764E+04  0.22793430764E+04  0.50400001928E-02 0.  1.
        1   -1    0    0  501    0  0.00000000000E+00  0.00000000000E+00 -0.14297480077E+04  0.14297480077E+04  0.50400001928E-02 0. -1.
    10030    2    1    2    0    0  0.00000000000E+00  0.00000000000E+00  0.84959506877E+03  0.37090910841E+04  0.36104771000E+04 0.  0.
        1    1    3    3  502    0  0.10005975687E+03  0.55666243176E+03  0.21859736443E+04  0.22579561093E+04  0.50400001928E-02 0.  1.
       -1    1    3    3    0  502 -0.10005975687E+03 -0.55666243176E+03 -0.13363785756E+04  0.14511349748E+04  0.50400001928E-02 0. -1.
</event>
<event>
 5   0  0.2097842E-06  0.1899873E+04  0.7818609E-02  0.8654919E-01
        1   -1    0    0  501    0  0.00000000000E+00  0.00000000000E+00  0.99592394463E+03  0.99592394464E+03  0.50400001928E-02 0. -1.
       -1   -1    0    0    0  501  0.00000000000E+00  0.00000000000E+00 -0.90607297776E+03  0.90607297778E+03  0.50400001928E-02 0.  1.
    10030    2    1    2    0    0  0.00000000000E+00  0.00000000000E+00  0.89850966865E+02  0.19019969224E+04  0.18998734423E+04 0.  0.
        4    1    3    3  502    0  0.55615627874E+02  0.65439763202E+03  0.73202254294E+03  0.98345715470E+03  0.12699999809E+01 0. -1.
       -4    1    3    3    0  502 -0.55615627874E+02 -0.65439763202E+03 -0.64217157607E+03  0.91853976772E+03  0.12699999809E+01 0.  1.
</event>
<event>
 5   0  0.1999849E-06  0.3298901E+04  0.7818609E-02  0.8163175E-01
       -1   -1    0    0    0  501  0.00000000000E+00  0.00000000000E+00  0.13436767015E+04  0.13436767015E+04  0.50400001928E-02 0.  1.
        1   -1    0    0  501    0  0.00000000000E+00  0.00000000000E+00 -0.20248081760E+04  0.20248081760E+04  0.50400001928E-02 0. -1.
    10030    2    1    2    0    0  0.00000000000E+00  0.00000000000E+00 -0.68113147457E+03  0.33684848775E+04  0.32989013754E+04 0.  0.
        5    1    3    3  502    0  0.12045046204E+04  0.27503309106E+03  0.77527483540E+03  0.14586115803E+04  0.46999998093E+01 0.  1.
       -5    1    3    3    0  502 -0.12045046204E+04 -0.27503309106E+03 -0.14564063100E+04  0.19098732972E+04  0.46999998093E+01 0. -1.
</event>
<event>
 5   0  0.5855568E-06  0.3272314E+04  0.7818609E-02  0.8169976E-01
        2   -1    0    0  501    0  0.00000000000E+00  0.00000000000E+00  0.14660807286E+04  0.14660807286E+04  0.25500000920E-02 0. -1.
       -2   -1    0    0    0  501  0.00000000000E+00  0.00000000000E+00 -0.18259633333E+04  0.18259633333E+04  0.25500000920E-02 0.  1.
    10030    2    1    2    0    0  0.00000000000E+00  0.00000000000E+00 -0.35988260467E+03  0.32920440620E+04  0.32723139545E+04 0.  0.
        3    1    3    3  502    0 -0.12347202320E+04 -0.86919111842E+02 -0.12564024788E+04  0.17636995726E+04  0.10100000352E+00 0.  1.
       -3    1    3    3    0  502  0.12347202320E+04  0.86919111842E+02  0.89651987409E+03  0.15283444894E+04  0.10100000352E+00 0. -1.
</event>
<event>
 5   0  0.1925906E-06  0.3263094E+04  0.7818609E-02  0.8172350E-01
       -1   -1    0    0    0  501  0.00000000000E+00  0.00000000000E+00  0.83584059270E+03  0.83584059272E+03  0.50400001928E-02 0.  1.
        1   -1    0    0  501    0  0.00000000000E+00  0.00000000000E+00 -0.31847527583E+04  0.31847527583E+04  0.50400001928E-02 0. -1.
    10030    2    1    2    0    0  0.00000000000E+00  0.00000000000E+00 -0.23489121656E+04  0.40205933510E+04  0.32630940122E+04 0.  0.
        1    1    3    3  502    0  0.11671053034E+04  0.45298896694E+03  0.11465586768E+03  0.12571713333E+04  0.50400001928E-02 0.  1.
       -1    1    3    3    0  502 -0.11671053034E+04 -0.45298896694E+03 -0.24635680333E+04  0.27634220177E+04  0.50400001928E-02 0. -1.
</event>
<event>
 5   0  0.5622811E-06  0.3277470E+04  0.7818609E-02  0.8168652E-01
       -2   -1    0    0    0  501  0.00000000000E+00  0.00000000000E+00  0.17389272367E+04  0.17389272367E+04  0.25500000920E-02 0.  1.
        2   -1    0    0  501    0  0.00000000000E+00  0.00000000000E+00 -0.15443158786E+04  0.15443158786E+04  0.25500000920E-02 0. -1.
    10030    2    1    2    0    0  0.00000000000E+00  0.00000000000E+00  0.19461135805E+03  0.32832431153E+04  0.32774703314E+04 0.  0.
        1    1    3    3  502    0  0.10377141522E+04 -0.11760439011E+04  0.57303477780E+03  0.16698199830E+04  0.50400001928E-02 0. -1.
       -1    1    3    3    0  502 -0.10377141522E+04  0.11760439011E+04 -0.37842341975E+03  0.16134231323E+04  0.50400001928E-02 0.  1.
</event>
<event>
 5   0  0.2097842E-06  0.3293482E+04  0.7818609E-02  0.8164556E-01
        1   -1    0    0  501    0  0.00000000000E+00  0.00000000000E+00  0.20161210947E+04  0.20161210947E+04  0.50400001928E-02 0. -1.
       -1   -1    0    0    0  501  0.00000000000E+00  0.00000000000E+00 -0.13450362435E+04  0.13450362435E+04  0.50400001928E-02 0.  1.
    10030    2    1    2    0    0  0.00000000000E+00  0.00000000000E+00  0.67108485123E+03  0.33611573382E+04  0.32934820137E+04 0.  0.
        4    1    3    3  502    0 -0.11037313576E+04  0.17795238665E+03  0.15694626628E+04  0.19269417802E+04  0.12699999809E+01 0. -1.
       -4    1    3    3    0  502  0.11037313576E+04 -0.17795238665E+03 -0.89837781154E+03  0.14342155580E+04  0.12699999809E+01 0.  1.
</event>
<event>
 5   0  0.1999849E-06  0.3107058E+04  0.7818609E-02  0.8213804E-01
       -1   -1    0    0    0  501  0.00000000000E+00  0.00000000000E+00  0.21677291557E+04  0.21677291557E+04  0.50400001928E-02 0. -1.
        1   -1    0    0  501    0  0.00000000000E+00  0.00000000000E+00 -0.11133548429E+04  0.11133548430E+04  0.50400001928E-02 0.  1.
    10030    2    1    2    0    0  0.00000000000E+00  0.00000000000E+00  0.10543743128E+04  0.32810839987E+04  0.31070576137E+04 0.  0.
        5    1    3    3  502    0  0.15464312809E+03 -0.82590821807E+03 -0.85267120210E+03  0.11971253696E+04  0.46999998093E+01 0.  1.
       -5    1    3    3    0  502 -0.15464312809E+03  0.82590821807E+03  0.19070455149E+04  0.20839586290E+04  0.46999998093E+01 0. -1.
</event>
<event>
 5   0  0.2037109E-06  0.3210509E+04  0.7818609E-02  0.8186047E-01
       -1   -1    0    0    0  501  0.00000000000E+00  0.00000000000E+00  0.14301322169E+04  0.14301322169E+04  0.50400001928E-02 0.  1.
        1   -1    0    0  501    0  0.00000000000E+00  0.00000000000E+00 -0.18018212270E+04  0.18018212270E+04  0.50400001928E-02 0. -1.
    10030    2    1    2    0    0  0.00000000000E+00  0.00000000000E+00 -0.37168901011E+03  0.32319534439E+04  0.32105093588E+04 0.  0.
        2    1    3    3  502    0 -0.11482223308E+04  0.10928941996E+04 -0.44053703079E+03  0.16452674943E+04  0.25500000920E-02 0. -1.
       -2    1    3    3    0  502  0.11482223308E+04 -0.10928941996E+04  0.68848020682E+02  0.15866859495E+04  0.25500000920E-02 0.  1.
</event>
<event>
 5   0  0.2037109E-06  0.2980732E+04  0.7818609E-02  0.8249255E-01
        1   -1    0    0  501    0  0.00000000000E+00  0.00000000000E+00  0.19886139404E+04  0.19886139404E+04  0.50400001928E-02 0.  1.
       -1   -1    0    0    0  501  0.00000000000E+00  0.00000000000E+00 -0.11169539156E+04  0.11169539156E+04  0.50400001928E-02 0. -1.
    10030    2    1    2    0    0  0.00000000000E+00  0.00000000000E+00  0.87166002487E+03  0.31055678560E+04  0.29807315393E+04 0.  0.
        2    1    3    3  502    0  0.49158630495E+03 -0.72014043917E+03  0.16951409624E+04  0.19062429619E+04  0.25500000920E-02 0.  1.
       -2    1    3    3    0  502 -0.49158630495E+03  0.72014043917E+03 -0.82348093750E+03  0.11993248942E+04  0.25500000920E-02 0. -1.
</event>
<event>
 5   0  0.1999849E-06  0.3281313E+04  0.7818609E-02  0.8167667E-01
        1   -1    0    0  501    0  0.00000000000E+00  0.00000000000E+00  0.21531852999E+04  0.21531852999E+04  0.50400001928E-02 0.  1.
       -1   -1    0    0    0  501  0.00000000000E+00  0.00000000000E+00 -0.12501260597E+04  0.12501260597E+04  0.50400001928E-02 0. -1.
    10030    2    1    2    0    0  0.00000000000E+00  0.00000000000E+00  0.90305924018E+03  0.34033113596E+04  0.32813125757E+04 0.  0.
        5    1    3    3  502    0 -0.14958397468E+03 -0.15788411302E+04  0.88741214008E+03  0.18173158989E+04  0.46999998093E+01 0.  1.
       -5    1    3    3    0  502  0.14958397468E+03  0.15788411302E+04  0.15647100102E+02  0.15859954608E+04  0.46999998093E+01 0. -1.
</event>
<event>
 5   0  0.5637538E-06  0.1993913E+04  0.7818609E-02  0.8609472E-01
        2   -1    0    0  501    0  0.00000000000E+00  0.00000000000E+00  0.10110376730E+04  0.10110376730E+04  0.25500000920E-02 0. -1.
       -2   -1    0    0    0  501  0.00000000000E+00  0.00000000000E+00 -0.98307112893E+03  0.98307112894E+03  0.25500000920E-02 0.  1.
    10030    2    1    2    0    0  0.00000000000E+00  0.00000000000E+00  0.27966544080E+02  0.19941088020E+04  0.19939126828E+04 0.  0.
        2    1    3    3  502    0  0.35976008325E+02  0.91610108130E+03  0.40566765727E+03  0.10025476111E+04  0.25500000920E-02 0. -1.
       -2    1    3    3    0  502 -0.35976008325E+02 -0.91610108130E+03 -0.37770111319E+03  0.99156119087E+03  0.25500000920E-02 0.  1.
</event>
<event>
 5   0  0.1925906E-06  0.1969955E+04  0.7818609E-02  0.8620798E-01
       -1   -1    0    0    0  501  0.00000000000E+00  0.00000000000E+00  0.66411225588E+03  0.66411225589E+03  0.50400001928E-02 0. -1.
        1   -1    0    0  501    0  0.00000000000E+00  0.00000000000E+00 -0.14608685969E+04  0.14608685969E+04  0.50400001928E-02 0.  1.
    10030    2    1    2    0    0  0.00000000000E+00  0.00000000000E+00 -0.79675634102E+03  0.21249808528E+04  0.19699550649E+04 0.  0.
        1    1    3    3  502    0 -0.12997807947E+03  0.45588493178E+03 -0.13297208907E+04  0.14116950872E+04  0.50400001928E-02 0.  1.
       -1    1    3    3    0  502  0.12997807947E+03 -0.45588493178E+03  0.53296454965E+03  0.71328576558E+03  0.50400001928E-02 0. -1.
</event>
<event>
 5   0  0.1925906E-06  0.2536381E+04  0.7818609E-02  0.8390138E-01
       -1   -1    0    0    0  501  0.00000000000E+00  0.00000000000E+00  0.13922658879E+04  0.13922658879E+04  0.50400001928E-02 0. -1.
        1   -1    0    0  501    0  0.00000000000E+00  0.00000000000E+00 -0.11551720258E+04  0.11551720258E+04  0.50400001928E-02 0.  1.
    10030    2    1    2    0    0  0.00000000000E+00  0.00000000000E+00  0.23709386213E+03  0.25474379137E+04  0.25363805757E+04 0.  0.
        1    1    3    3  502    0 -0.10916794133E+04  0.21994787134E+03 -0.49086477521E+03  0.12170000966E+04  0.50400001928E-02 0.  1.
       -1    1    3    3    0  502  0.10916794133E+04 -0.21994787134E+03  0.72795863734E+03  0.13304378171E+04  0.50400001928E-02 0. -1.
</event>
<event>
 5   0  0.1925906E-06  0.3276826E+04  0.7818609E-02  0.8168817E-01
       -1   -1    0    0    0  501  0.00000000000E+00  0.00000000000E+00  0.17679045976E+04  0.17679045976E+04  0.50400001928E-02 0.  1.
        1   -1    0    0  501    0  0.00000000000E+00  0.00000000000E+00 -0.15184058500E+04  0.15184058500E+04  0.50400001928E-02 0. -1.
    10030    2    1    2    0    0  0.00000000000E+00  0.00000000000E+00  0.24949874762E+03  0.32863104476E+04  0.32768257099E+04 0.  0.
        1    1    3    3  502    0 -0.69631851786E+03  0.13759900514E+04  0.67969411700E+03  0.16852869763E+04  0.50400001928E-02 0. -1.
       -1    1    3    3    0  502  0.69631851786E+03 -0.13759900514E+04 -0.43019536938E+03  0.16010234713E+04  0.50400001928E-02 0.  1.
</event>
<event>
 5   0  0.5300268E-06  0.2398944E+04  0.7818609E-02  0.8439899E-01
       -2   -1    0    0    0  501  0.00000000000E+00  0.00000000000E+00  0.17714940417E+04  0.17714940417E+04  0.25500000920E-02 0. -1.
        2   -1    0    0  501    0  0.00000000000E+00  0.00000000000E+00 -0.81215809247E+03  0.81215809248E+03  0.25500000920E-02 0.  1.
    10030    2    1    2    0    0  0.00000000000E+00  0.00000000000E+00  0.95933594919E+03  0.25836521341E+04  0.23989441192E+04 0.  0.
        4    1    3    3  502    0  0.11563411380E+03 -0.87605433793E+03  0.13532230115E+04  0.16161858133E+04  0.12699999809E+01 0. -1.
       -4    1    3    3    0  502 -0.11563411380E+03  0.87605433793E+03 -0.39388706230E+03  0.96746632088E+03  0.12699999809E+01 0.  1.
</event>
<event>
 5   0  0.1925906E-06  0.3283891E+04  0.7818609E-02  0.8167006E-01
       -1   -1    0    0    0  501  0.00000000000E+00  0.00000000000E+00  0.14547856430E+04  0.14547856430E+04  0.50400001928E-02 0. -1.
        1   -1    0    0  501    0  0.00000000000E+00  0.00000000000E+00 -0.18531842523E+04  0.18531842523E+04  0.50400001928E-02 0.  1.
    10030    2    1    2    0    0  0.00000000000E+00  0.00000000000E+00 -0.39839860930E+03  0.33079698953E+04  0.32838914988E+04 0.  0.
        1    1    3    3  502    0 -0.16125480179E+04  0.77832654414E+02 -0.50075497130E+03  0.16903031011E+04  0.50400001928E-02 0.  1.
       -1    1    3    3    0  502  0.16125480179E+04 -0.77832654414E+02  0.10235636201E+03  0.16176667942E+04  0.50400001928E-02 0. -1.
</event>
<event>
 5   0  0.5300268E-06  0.3199503E+04  0.7818609E-02  0.8188948E-01
       -2   -1    0    0    0  501  0.00000000000E+00  0.00000000000E+00  0.18905790812E+04  0.18905790812E+04  0.25500000920E-02 0.  1.
        2   -1    0    0  501    0  0.00000000000E+00  0.00000000000E+00 -0.13536618198E+04  0.13536618198E+04  0.25500000920E-02 0. -1.
    10030    2    1    2    0    0  0.00000000000E+00  0.00000000000E+00  0.53691726139E+03  0.32442409011E+04  0.31995029112E+04 0.  0.
        4    1    3    3  502    0 -0.53999138660E+03 -0.14031611792E+04  0.82268266157E+03  0.17138437405E+04  0.12699999809E+01 0.  1.
       -4    1    3    3    0  502  0.53999138660E+03  0.14031611792E+04 -0.28576540019E+03  0.15303971606E+04  0.12699999809E+01 0. -1.
</event>
<event>
 5   0  0.5855568E-06  0.1623318E+04  0.7818609E-02  0.8806350E-01
       -2   -1    0    0    0  501  0.00000000000E+00  0.00000000000E+00  0.11115535255E+04  0.11115535255E+04  0.25500000920E-02 0.  1.
        2   -1    0    0  501    0  0.00000000000E+00  0.00000000000E+00 -0.59267505713E+03  0.59267505713E+03  0.25500000920E-02 0. -1.
    10030    2    1    2    0    0  0.00000000000E+00  0.00000000000E+00  0.51887846841E+03  0.17042285827E+04  0.16233176513E+04 0.  0.
        3    1    3    3  502    0 -0.18761814682E+03 -0.33399303061E+03 -0.49179519474E+03  0.62338947480E+03  0.10100000352E+00 0. -1.
       -3    1    3    3    0  502  0.18761814682E+03  0.33399303061E+03  0.10106736631E+04  0.10808391079E+04  0.10100000352E+00 0.  1.
</event>
<event>
 5   0  0.5622811E-06  0.1790752E+04  0.7818609E-02  0.8711233E-01
       -2   -1    0    0    0  501  0.00000000000E+00  0.00000000000E+00  0.59601568540E+03  0.59601568541E+03  0.25500000920E-02 0.  1.
        2   -1    0    0  501    0  0.00000000000E+00  0.00000000000E+00 -0.13450950803E+04  0.13450950803E+04  0.25500000920E-02 0. -1.
    10030    2    1    2    0    0  0.00000000000E+00  0.00000000000E+00 -0.74907939485E+03  0.19411107657E+04  0.17907515363E+04 0.  0.
        1    1    3    3  502    0  0.90608537868E+02  0.86768499849E+03 -0.15609842289E+03  0.88625836041E+03  0.50400001928E-02 0.  1.
       -1    1    3    3    0  502 -0.90608537868E+02 -0.86768499849E+03 -0.59298097196E+03  0.10548524053E+04  0.50400001928E-02 0. -1.
</event>
<event>
 5   0  0.5300268E-06  0.2277774E+04  0.7818609E-02  0.8486737E-01
        2   -1    0    0  501    0  0.00000000000E+00  0.00000000000E+00  0.13628683015E+04  0.13628683015E+04  0.25500000920E-02 0. -1.
       -2   -1    0    0    0  501  0.00000000000E+00  0.00000000000E+00 -0.95171574533E+03  0.95171574534E+03  0.25500000920E-02 0.  1.
    10030    2    1    2    0    0  0.00000000000E+00  0.00000000000E+00  0.41115255619E+03  0.23145840469E+04  0.22777736686E+04 0.  0.
        4    1    3    3  502    0  0.16165234577E+03 -0.74882257348E+03  0.10619259903E+04  0.13094102296E+04  0.12699999809E+01 0. -1.
       -4    1    3    3    0  502 -0.16165234577E+03  0.74882257348E+03 -0.65077343416E+03  0.10051738173E+04  0.12699999809E+01 0.  1.
</event>
<event>
 5   0  0.1925906E-06  0.3130446E+04  0.7818609E-02  0.8207432E-01
       -1   -1    0    0    0  501  0.00000000000E+00  0.00000000000E+00  0.11351512869E+04  0.11351512869E+04  0.50400001928E-02 0.  1.
        1   -1    0    0  501    0  0.00000000000E+00  0.00000000000E+00 -0.21582341681E+04  0.21582341681E+04  0.50400001928E-02 0. -1.
    10030    2    1    2    0    0  0.00000000000E+00  0.00000000000E+00 -0.10230828812E+04  0.32933854550E+04  0.31304455231E+04 0.  0.
        1    1    3    3  502    0  0.35909998330E+03  0.14932796294E+04 -0.82905399488E+03  0.17453272977E+04  0.50400001928E-02 0. -1.
       -1    1    3    3    0  502 -0.35909998330E+03 -0.14932796294E+04 -0.19402888630E+03  0.15480581573E+04  0.50400001928E-02 0.  1.
</event>
<event>
 5   0  0.5855568E-06  0.3335831E+04  0.7818609E-02  0.8153838E-01
       -2   -1    0    0    0  501  0.00000000000E+00  0.00000000000E+00  0.15403455839E+04  0.15403455839E+04  0.25500000920E-02 0. -1.
        2   -1    0    0  501    0  0.00000000000E+00  0.00000000000E+00 -0.18060502606E+04  0.18060502606E+04  0.25500000920E-02 0.  1.
    10030    2    1    2    0    0  0.00000000000E+00  0.00000000000E+00 -0.26570467671E+03  0.33463958445E+04  0.33358306571E+04 0.  0.
        3    1    3    3  502    0  0.13145250318E+03 -0.32458847378E+02 -0.18005278540E+04  0.18056117801E+04  0.10100000352E+00 0.  1.
       -3    1    3    3    0  502 -0.13145250318E+03  0.32458847378E+02  0.15348231773E+04  0.15407840644E+04  0.10100000352E+00 0. -1.
</event>
<event>
 5   0  0.1925906E-06  0.2459872E+04  0.7818609E-02  0.8417422E-01
        1   -1    0    0  501    0  0.00000000000E+00  0.00000000000E+00  0.14455193773E+04  0.14455193773E+04  0.50400001928E-02 0. -1.
       -1   -1    0    0    0  501  0.00000000000E+00  0.00000000000E+00 -0.10465048918E+04  0.10465048918E+04  0.50400001928E-02 0.  1.
    10030    2    1    2    0    0  0.00000000000E+00  0.00000000000E+00  0.39901448555E+03  0.24920242691E+04  0.24598724354E+04 0.  0.
        1    1    3    3  502    0  0.14261675911E+03 -0.95445819710E+03  0.97197807792E+03  0.13696975484E+04  0.50400001928E-02 0. -1.
       -1    1    3    3    0  502 -0.14261675911E+03  0.95445819710E+03 -0.57296359237E+03  0.11223267208E+04  0.50400001928E-02 0.  1.
</event>
<event>
 5   0  0.5300268E-06  0.3253864E+04  0.7818609E-02  0.8174735E-01
       -2   -1    0    0    0  501  0.00000000000E+00  0.00000000000E+00  0.12004244470E+04  0.12004244471E+04  0.25500000920E-02 0.  1.
        2   -1    0    0  501    0  0.00000000000E+00  0.00000000000E+00 -0.22049760925E+04  0.22049760925E+04  0.25500000920E-02 0. -1.
    10030    2    1    2    0    0  0.00000000000E+00  0.00000000000E+00 -0.10045516454E+04  0.34054005395E+04  0.32538636767E+04 0.  0.
        4    1    3    3  502    0 -0.11051679484E+04 -0.29011090395E+03 -0.17143776452E+04  0.20602555312E+04  0.12699999809E+01 0. -1.
       -4    1    3    3    0  502  0.11051679484E+04  0.29011090395E+03  0.70982599974E+03  0.13451450083E+04  0.12699999809E+01 0.  1.
</event>
<event>
 5   0  0.5637538E-06  0.3284476E+04  0.7818609E-02  0.8166857E-01
        2   -1    0    0  501    0  0.00000000000E+00  0.00000000000E+00  0.16010212046E+04  0.16010212046E+04  0.25500000920E-02 0. -1.
       -2   -1    0    0    0  501  0.00000000000E+00  0.00000000000E+00 -0.16845163098E+04  0.16845163099E+04  0.25500000920E-02 0.  1.
    10030    2    1    2    0    0  0.00000000000E+00  0.00000000000E+00 -0.83495105239E+02  0.32855375145E+04  0.32844764159E+04 0.  0.
        2    1    3    3  502    0  0.33769295651E+03  0.14316610948E+04 -0.77222747482E+03  0.16613323858E+04  0.25500000920E-02 0.  1.
       -2    1    3    3    0  502 -0.33769295651E+03 -0.14316610948E+04  0.68873236958E+03  0.16242051287E+04  0.25500000920E-02 0. -1.
</event>
<event>
 5   0  0.5622811E-06  0.3172435E+04  0.7818609E-02  0.8196135E-01
       -2   -1    0    0    0  501  0.00000000000E+00  0.00000000000E+00  0.16979170412E+04  0.16979170412E+04  0.25500000920E-02 0. -1.
        2   -1    0    0  501    0  0.00000000000E+00  0.00000000000E+00 -0.14818660296E+04  0.14818660296E+04  0.25500000920E-02 0.  1.
    10030    2    1    2    0    0  0.00000000000E+00  0.00000000000E+00  0.21605101160E+03  0.31797830709E+04  0.31724347650E+04 0.  0.
        1    1    3    3  502    0  0.71424847979E+02  0.12583436036E+03 -0.14752376435E+04  0.14823163967E+04  0.50400001928E-02 0.  1.
       -1    1    3    3    0  502 -0.71424847979E+02 -0.12583436036E+03  0.16912886551E+04  0.16974666742E+04  0.50400001928E-02 0. -1.
</event>
<event>
 5   0  0.5622811E-06  0.3171754E+04  0.7818609E-02  0.8196317E-01
       -2   -1    0    0    0  501  0.00000000000E+00  0.00000000000E+00  0.10103881907E+04  0.10103881907E+04  0.25500000920E-02 0. -1.
        2   -1    0    0  501    0  0.00000000000E+00  0.00000000000E+00 -0.24891486833E+04  0.24891486833E+04  0.25500000920E-02 0.  1.
    10030    2    1    2    0    0  0.00000000000E+00  0.00000000000E+00 -0.14787604926E+04  0.34995368740E+04  0.31717543628E+04 0.  0.
        1    1    3    3  502    0 -0.11397635091E+04 -0.68175624356E+03  0.21687872110E+03  0.13456926885E+04  0.50400001928E-02 0. -1.
       -1    1    3    3    0  502  0.11397635091E+04  0.68175624356E+03 -0.16956392137E+04  0.21538441855E+04  0.50400001928E-02 0.  1.
</event>
<event>
 5   0  0.5637538E-06  0.3265934E+04  0.7818609E-02  0.8171618E-01
        2   -1    0    0  501    0  0.00000000000E+00  0.00000000000E+00  0.18158432640E+04  0.18158432640E+04  0.25500000920E-02 0.  1.
       -2   -1    0    0    0  501  0.00000000000E+00  0.00000000000E+00 -0.14685085407E+04  0.14685085407E+04  0.25500000920E-02 0. -1.
    10030    2    1    2    0    0  0.00000000000E+00  0.00000000000E+00  0.34733472332E+03  0.32843518047E+04  0.32659340726E+04 0.  0.
        2    1    3    3  502    0  0.10062159981E+04 -0.10528309768E+04  0.91651949947E+03  0.17207358000E+04  0.25500000920E-02 0.  1.
       -2    1    3    3    0  502 -0.10062159981E+04  0.10528309768E+04 -0.56918477614E+03  0.15636160046E+04  0.25500000920E-02 0. -1.
</event>
<event>
 5   0  0.2037109E-06  0.2769709E+04  0.7818609E-02  0.8312735E-01
        1   -1    0    0  501    0  0.00000000000E+00  0.00000000000E+00  0.16436581468E+04  0.16436581468E+04  0.50400001928E-02 0. -1.
       -1   -1    0    0    0  501  0.00000000000E+00  0.00000000000E+00 -0.11668012262E+04  0.11668012262E+04  0.50400001928E-02 0.  1.
    10030    2    1    2    0    0  0.00000000000E+00  0.00000000000E+00  0.47685692059E+03  0.28104593730E+04  0.27697092563E+04 0.  0.
        2    1    3    3  502    0 -0.11814780117E+04 -0.21247791614E+03  0.93908391105E+03  0.15241114621E+04  0.25500000920E-02 0. -1.
       -2    1    3    3    0  502  0.11814780117E+04  0.21247791614E+03 -0.46222699046E+03  0.12863479108E+04  0.25500000920E-02 0.  1.
</event>
<event>
 5   0  0.2037109E-06  0.1930997E+04  0.7818609E-02  0.8639579E-01
       -1   -1    0    0    0  501  0.00000000000E+00  0.00000000000E+00  0.71224169363E+03  0.71224169364E+03  0.50400001928E-02 0.  1.
        1   -1    0    0  501    0  0.00000000000E+00  0.00000000000E+00 -0.13088077290E+04  0.13088077290E+04  0.50400001928E-02 0. -1.
    10030    2    1    2    0    0  0.00000000000E+00  0.00000000000E+00 -0.59656603538E+03  0.20210494227E+04  0.19309970829E+04 0.  0.
        2    1    3    3  502    0 -0.53740545186E+03  0.73407228701E+02 -0.11342780157E+04  0.12572906815E+04  0.25500000920E-02 0. -1.
       -2    1    3    3    0  502  0.53740545186E+03 -0.73407228701E+02  0.53771198031E+03  0.76375874115E+03  0.25500000920E-02 0.  1.
</event>
<event>
 5   0  0.2097842E-06  0.1760394E+04  0.7818609E-02  0.8727650E-01
       -1   -1    0    0    0  501  0.00000000000E+00  0.00000000000E+00  0.64806595096E+03  0.64806595098E+03  0.50400001928E-02 0.  1.
        1   -1    0    0  501    0  0.00000000000E+00  0.00000000000E+00 -0.11954751003E+04  0.11954751003E+04  0.50400001928E-02 0. -1.
    10030    2    1    2    0    0  0.00000000000E+00  0.00000000000E+00 -0.54740914935E+03  0.18435410513E+04  0.17603939420E+04 0.  0.
        4    1    3    3  502    0 -0.34036890065E+03  0.36055562096E+03  0.48789582815E+03  0.69562583072E+03  0.12699999809E+01 0.  1.
       -4    1    3    3    0  502  0.34036890065E+03 -0.36055562096E+03 -0.10353049775E+04  0.11479152206E+04  0.12699999809E+01 0. -1.
</event>
<event>
 5   0  0.1999849E-06  0.3360565E+04  0.7818609E-02  0.8147653E-01
       -1   -1    0    0    0  501  0.00000000000E+00  0.00000000000E+00  0.17067155075E+04  0.17067155076E+04  0.50400001928E-02 0.  1.
        1   -1    0    0  501    0  0.00000000000E+00  0.00000000000E+00 -0.16542583930E+04  0.16542583930E+04  0.50400001928E-02 0. -1.
    10030    2    1    2    0    0  0.00000000000E+00  0.00000000000E+00  0.52457114589E+02  0.33609739005E+04  0.33605645078E+04 0.  0.
        5    1    3    3  502    0 -0.10018093224E+04 -0.73389112735E+03  0.11582269727E+04  0.16981548562E+04  0.46999998093E+01 0.  1.
       -5    1    3    3    0  502  0.10018093224E+04  0.73389112735E+03 -0.11057698581E+04  0.16628190444E+04  0.46999998093E+01 0. -1.
</event>
<event>
 5   0  0.1999849E-06  0.3403678E+04  0.7818609E-02  0.8137004E-01
        1   -1    0    0  501    0  0.00000000000E+00  0.00000000000E+00  0.23057705359E+04  0.23057705359E+04  0.50400001928E-02 0. -1.
       -1   -1    0    0    0  501  0.00000000000E+00  0.00000000000E+00 -0.12560900745E+04  0.12560900745E+04  0.50400001928E-02 0.  1.
    10030    2    1    2    0    0  0.00000000000E+00  0.00000000000E+00  0.10496804614E+04  0.35618606104E+04  0.34036777076E+04 0.  0.
        5    1    3    3  502    0  0.11960272017E+04 -0.63853622137E+03  0.16012464848E+04  0.20981472704E+04  0.46999998093E+01 0. -1.
       -5    1    3    3    0  502 -0.11960272017E+04  0.63853622137E+03 -0.55156602348E+03  0.14637133400E+04  0.46999998093E+01 0.  1.
</event>
<event>
 5   0  0.5855568E-06  0.1949338E+04  0.7818609E-02  0.8630680E-01
        2   -1    0    0  501    0  0.00000000000E+00  0.00000000000E+00  0.43339810792E+03  0.43339810793E+03  0.25500000920E-02 0.  1.
       -2   -1    0    0    0  501  0.00000000000E+00  0.00000000000E+00 -0.21919338018E+04  0.21919338018E+04  0.25500000920E-02 0. -1.
    10030    2    1    2    0    0  0.00000000000E+00  0.00000000000E+00 -0.17585356939E+04  0.26253319097E+04  0.19493383107E+04 0.  0.
        3    1    3    3  502    0 -0.68134196857E+03 -0.48386831800E+03 -0.15548427118E+04  0.17651887423E+04  0.10100000352E+00 0. -1.
       -3    1    3    3    0  502  0.68134196857E+03  0.48386831800E+03 -0.20369298206E+03  0.86014316741E+03  0.10100000352E+00 0.  1.
</event>
<event>
 5   0  0.5855568E-06  0.3308996E+04  0.7818609E-02  0.8160610E-01
       -2   -1    0    0    0  501  0.00000000000E+00  0.00000000000E+00  0.15883244466E+04  0.15883244466E+04  0.25500000920E-02 0.  1.
        2   -1    0    0  501    0  0.00000000000E+00  0.00000000000E+00 -0.17234283764E+04  0.17234283764E+04  0.25500000920E-02 0. -1.
    10030    2    1    2    0    0  0.00000000000E+00  0.00000000000E+00 -0.13510392983E+03  0.33117528230E+04  0.33089958732E+04 0.  0.
        3    1    3    3  502    0  0.11262125993E+04 -0.25588790332E+03 -0.12532457286E+04  0.17042471371E+04  0.10100000352E+00 0. -1.
       -3    1    3    3    0  502 -0.11262125993E+04  0.25588790332E+03  0.11181417988E+04  0.16075056859E+04  0.10100000352E+00 0.  1.
</event>
<event>
 5   0  0.1999849E-06  0.3309253E+04  0.7818609E-02  0.8160545E-01
        1   -1    0    0  501    0  0.00000000000E+00  0.00000000000E+00  0.18269064030E+04  0.18269064030E+04  0.50400001928E-02 0. -1.
       -1   -1    0    0    0  501  0.00000000000E+00  0.00000000000E+00 -0.14985926281E+04  0.14985926281E+04  0.50400001928E-02 0.  1.
    10030    2    1    2    0    0  0.00000000000E+00  0.00000000000E+00  0.32831377494E+03  0.33254990311E+04  0.33092527662E+04 0.  0.
        5    1    3    3  502    0  0.10169377886E+04  0.14273335286E+03 -0.11396064332E+04  0.15340339593E+04  0.46999998093E+01 0.  1.
       -5    1    3    3    0  502 -0.10169377886E+04 -0.14273335286E+03  0.14679202081E+04  0.17914650717E+04  0.46999998093E+01 0. -1.
</event>
<event>
 5   0  0.5622811E-06  0.3218647E+04  0.7818609E-02  0.8183910E-01
        2   -1    0    0  501    0  0.00000000000E+00  0.00000000000E+00  0.15862725785E+04  0.15862725785E+04  0.25500000920E-02 0.  1.
       -2   -1    0    0    0  501  0.00000000000E+00  0.00000000000E+00 -0.16327097665E+04  0.16327097665E+04  0.25500000920E-02 0. -1.
    10030    2    1    2    0    0  0.00000000000E+00  0.00000000000E+00 -0.46437187919E+02  0.32189823450E+04  0.32186473751E+04 0.  0.
        1    1    3    3  502    0 -0.17199709540E+03 -0.31996956674E+03 -0.15911697543E+04  0.16321105083E+04  0.50400001928E-02 0. -1.
       -1    1    3    3    0  502  0.17199709540E+03  0.31996956674E+03  0.15447325664E+04  0.15868718367E+04  0.50400001928E-02 0.  1.
</event>
<event>
 5   0  0.2037109E-06  0.3295421E+04  0.7818609E-02  0.8164062E-01
        1   -1    0    0  501    0  0.00000000000E+00  0.00000000000E+00  0.16401202224E+04  0.16401202224E+04  0.50400001928E-02 0. -1.
       -1   -1    0    0    0  501  0.00000000000E+00  0.00000000000E+00 -0.16553355817E+04  0.16553355818E+04  0.50400001928E-02 0.  1.
    10030    2    1    2    0    0  0.00000000000E+00  0.00000000000E+00 -0.15215359385E+02  0.32954558041E+04  0.32954206787E+04 0.  0.
        2    1    3    3  502    0 -0.24659404409E+03  0.28972387309E+03 -0.16108093539E+04  0.16551300009E+04  0.25500000920E-02 0.  1.
       -2    1    3    3    0  502  0.24659404409E+03 -0.28972387309E+03  0.15955939945E+04  0.16403258032E+04  0.25500000920E-02 0. -1.
</event>
<event>
 5   0  0.5855568E-06  0.3407778E+04  0.7818609E-02  0.8136000E-01
        2   -1    0    0  501    0  0.00000000000E+00  0.00000000000E+00  0.28478972904E+04  0.28478972904E+04  0.25500000920E-02 0. -1.
       -2   -1    0    0    0  501  0.00000000000E+00  0.00000000000E+00 -0.10194317911E+04  0.10194317911E+04  0.25500000920E-02 0.  1.
    10030    2    1    2    0    0  0.00000000000E+00  0.00000000000E+00  0.18284654993E+04  0.38673290815E+04  0.34077775958E+04 0.  0.
        3    1    3    3  502    0 -0.94381658205E+02 -0.16022839228E+04  0.26526373639E+03  0.16268332818E+04  0.10100000352E+00 0. -1.
       -3    1    3    3    0  502  0.94381658205E+02  0.16022839228E+04  0.15632017630E+04  0.22404957997E+04  0.10100000352E+00 0.  1.
</event>
<event>
 5   0  0.5300268E-06  0.3310040E+04  0.7818609E-02  0.8160345E-01
       -2   -1    0    0    0  501  0.00000000000E+00  0.00000000000E+00  0.17567415422E+04  0.17567415422E+04  0.25500000920E-02 0.  1.
        2   -1    0    0  501    0  0.00000000000E+00  0.00000000000E+00 -0.15591881775E+04  0.15591881775E+04  0.25500000920E-02 0. -1.
    10030    2    1    2    0    0  0.00000000000E+00  0.00000000000E+00  0.19755336475E+03  0.33159297197E+04  0.33100396635E+04 0.  0.
        4    1    3    3  502    0  0.10724060574E+03 -0.12881462414E+04 -0.93663289284E+03  0.15962781949E+04  0.12699999809E+01 0. -1.
       -4    1    3    3    0  502 -0.10724060574E+03  0.12881462414E+04  0.11341862576E+04  0.17196515247E+04  0.12699999809E+01 0.  1.
</event>
<event>
 5   0  0.5755250E-06  0.3389392E+04  0.7818609E-02  0.8140515E-01
        2   -1    0    0  501    0  0.00000000000E+00  0.00000000000E+00  0.28078518907E+04  0.28078518907E+04  0.25500000920E-02 0. -1.
       -2   -1    0    0    0  501  0.00000000000E+00  0.00000000000E+00 -0.10228437826E+04  0.10228437826E+04  0.25500000920E-02 0.  1.
    10030    2    1    2    0    0  0.00000000000E+00  0.00000000000E+00  0.17850081081E+04  0.38306956733E+04  0.33893915966E+04 0.  0.
        5    1    3    3  502    0  0.61221575244E+03 -0.19504583809E+03 -0.87983101203E+03  0.10894841468E+04  0.46999998093E+01 0.  1.
       -5    1    3    3    0  502 -0.61221575244E+03  0.19504583809E+03  0.26648391201E+04  0.27412115264E+04  0.46999998093E+01 0. -1.
</event>
<event>
 5   0  0.1925906E-06  0.3258431E+04  0.7818609E-02  0.8173554E-01
       -1   -1    0    0    0  501  0.00000000000E+00  0.00000000000E+00  0.11993827091E+04  0.11993827091E+04  0.50400001928E-02 0. -1.
        1   -1    0    0  501    0  0.00000000000E+00  0.00000000000E+00 -0.22130904214E+04  0.22130904214E+04  0.50400001928E-02 0.  1.
    10030    2    1    2    0    0  0.00000000000E+00  0.00000000000E+00 -0.10137077122E+04  0.34124731305E+04  0.32584305333E+04 0.  0.
        1    1    3    3  502    0 -0.59985373468E+03 -0.98508581381E+03 -0.17119593690E+04  0.20642246594E+04  0.50400001928E-02 0.  1.
       -1    1    3    3    0  502  0.59985373468E+03  0.98508581381E+03  0.69825165674E+03  0.13482484711E+04  0.50400001928E-02 0. -1.
</event>
<event>
 5   0  0.2730981E-06  0.3269085E+04  0.7818609E-02  0.8170807E-01
        1   -1    0    0  501    0  0.00000000000E+00  0.00000000000E+00  0.14707833733E+04  0.14707833733E+04  0.50400001928E-02 0.  1.
       -1   -1    0    0    0  501  0.00000000000E+00  0.00000000000E+00 -0.18165348549E+04  0.18165348549E+04  0.50400001928E-02 0. -1.
    10030    2    1    2    0    0  0.00000000000E+00  0.00000000000E+00 -0.34575148169E+03  0.32873182282E+04  0.32690850473E+04 0.  0.
        3    1    3    3  502    0  0.72038807142E+03 -0.41686404513E+03 -0.15874893712E+04  0.17924444536E+04  0.10100000352E+00 0. -1.
       -3    1    3    3    0  502 -0.72038807142E+03  0.41686404513E+03  0.12417378895E+04  0.14948737746E+04  0.10100000352E+00 0.  1.
</event>
<event>
 5   0  0.2097842E-06  0.3019592E+04  0.7818609E-02  0.8238158E-01
       -1   -1    0    0    0  501  0.00000000000E+00  0.00000000000E+00  0.16248042408E+04  0.16248042408E+04  0.50400001928E-02 0.  1.
        1   -1    0    0  501    0  0.00000000000E+00  0.00000000000E+00 -0.14029285417E+04  0.14029285417E+04  0.50400001928E-02 0. -1.
    10030    2    1    2    0    0  0.00000000000E+00  0.00000000000E+00  0.22187569910E+03  0.30277327825E+04  0.30195921871E+04 0.  0.
        4    1    3    3  502    0 -0.70082179712E+03 -0.11044550128E+04 -0.64509126408E+03  0.14584637186E+04  0.12699999809E+01 0. -1.
       -4    1    3    3    0  502  0.70082179712E+03  0.11044550128E+04  0.86696696318E+03  0.15692690638E+04  0.12699999809E+01 0.  1.
</event>
<event>
 5   0  0.1999849E-06  0.1672856E+04  0.7818609E-02  0.8776999E-01
       -1   -1    0    0    0  501  0.00000000000E+00  0.00000000000E+00  0.50702172854E+03  0.50702172857E+03  0.50400001928E-02 0.  1.
        1   -1    0    0  501    0  0.00000000000E+00  0.00000000000E+00 -0.13798461001E+04  0.13798461002E+04  0.50400001928E-02 0. -1.
    10030    2    1    2    0    0  0.00000000000E+00  0.00000000000E+00 -0.87282437160E+03  0.18868678287E+04  0.16728561861E+04 0.  0.
        5    1    3    3  502    0  0.40577383135E+02  0.96952697385E+01 -0.13786569003E+04  0.13792960019E+04  0.46999998093E+01 0. -1.
       -5    1    3    3    0  502 -0.40577383135E+02 -0.96952697385E+01  0.50583252868E+03  0.50757182679E+03  0.46999998093E+01 0.  1.
</event>
<event>
 5   0  0.5855568E-06  0.3436626E+04  0.7818609E-02  0.8128975E-01
        2   -1    0    0  501    0  0.00000000000E+00  0.00000000000E+00  0.29762344211E+04  0.29762344211E+04  0.25500000920E-02 0.  1.
       -2   -1    0    0    0  501  0.00000000000E+00  0.00000000000E+00 -0.99205862915E+03  0.99205862915E+03  0.25500000920E-02 0. -1.
    10030    2    1    2    0    0  0.00000000000E+00  0.00000000000E+00  0.19841757920E+04  0.39682930503E+04  0.34366256938E+04 0.  0.
        3    1    3    3  502    0 -0.14832019055E+04 -0.29585816501E+03  0.19338491004E+04  0.24550340730E+04  0.10100000352E+00 0.  1.
       -3    1    3    3    0  502  0.14832019055E+04  0.29585816501E+03  0.50326691560E+02  0.15132589773E+04  0.10100000352E+00 0. -1.
</event>
<event>
 5   0  0.2037109E-06  0.3278870E+04  0.7818609E-02  0.8168293E-01
       -1   -1    0    0    0  501  0.00000000000E+00  0.00000000000E+00  0.15273870654E+04  0.15273870654E+04  0.50400001928E-02 0.  1.
        1   -1    0    0  501    0  0.00000000000E+00  0.00000000000E+00 -0.17597032165E+04  0.17597032165E+04  0.50400001928E-02 0. -1.
    10030    2    1    2    0    0  0.00000000000E+00  0.00000000000E+00 -0.23231615109E+03  0.32870902819E+04  0.32788704956E+04 0.  0.
        2    1    3    3  502    0 -0.80515882917E+03  0.12964165232E+04 -0.71663492734E+03  0.16859840334E+04  0.25500000920E-02 0. -1.
       -2    1    3    3    0  502  0.80515882917E+03 -0.12964165232E+04  0.48431877625E+03  0.16011062485E+04  0.25500000920E-02 0.  1.
</event>
<event>
 5   0  0.2097842E-06  0.3342634E+04  0.7818609E-02  0.8152131E-01
       -1   -1    0    0    0  501  0.00000000000E+00  0.00000000000E+00  0.12108625590E+04  0.12108625590E+04  0.50400001928E-02 0.  1.
        1   -1    0    0  501    0  0.00000000000E+00  0.00000000000E+00 -0.23068687991E+04  0.23068687991E+04  0.50400001928E-02 0. -1.
    10030    2    1    2    0    0  0.00000000000E+00  0.00000000000E+00 -0.10960062400E+04  0.35177313581E+04  0.33426343248E+04 0.  0.
        4    1    3    3  502    0  0.68830538419E+03  0.99927717066E+03 -0.17575479477E+04  0.21357189813E+04  0.12699999809E+01 0. -1.
       -4    1    3    3    0  502 -0.68830538419E+03 -0.99927717066E+03  0.66154170770E+03  0.13820123768E+04  0.12699999809E+01 0.  1.
</event>
<event>
 5   0  0.2730981E-06  0.2001794E+04  0.7818609E-02  0.8605782E-01
       -1   -1    0    0    0  501  0.00000000000E+00  0.00000000000E+00  0.80349385556E+03  0.80349385557E+03  0.50400001928E-02 0.  1.
        1   -1    0    0  501    0  0.00000000000E+00  0.00000000000E+00 -0.12467987174E+04  0.12467987175E+04  0.50400001928E-02 0. -1.
    10030    2    1    2    0    0  0.00000000000E+00  0.00000000000E+00 -0.44330486188E+03  0.20502925730E+04  0.20017943037E+04 0.  0.
        3    1    3    3  502    0  0.79930593269E+03  0.33484301626E+03  0.29126494204E+03  0.91424564327E+03  0.10100000352E+00 0.  1.
       -3    1    3    3    0  502 -0.79930593269E+03 -0.33484301626E+03 -0.73456980393E+03  0.11360469298E+04  0.10100000352E+00 0. -1.
</event>
<event>
 5   0  0.2097842E-06  0.1734622E+04  0.7818609E-02  0.8741861E-01
        1   -1    0    0  501    0  0.00000000000E+00  0.00000000000E+00  0.52895363768E+03  0.52895363770E+03  0.50400001928E-02 0. -1.
       -1   -1    0    0    0  501  0.00000000000E+00  0.00000000000E+00 -0.14221069197E+04  0.14221069197E+04  0.50400001928E-02 0.  1.
    10030    2    1    2    0    0  0.00000000000E+00  0.00000000000E+00 -0.89315328203E+03  0.19510605574E+04  0.17346222971E+04 0.  0.
        4    1    3    3  502    0  0.71062407278E+03  0.25827436645E+03  0.31333540012E+02  0.75675334476E+03  0.12699999809E+01 0. -1.
       -4    1    3    3    0  502 -0.71062407278E+03 -0.25827436645E+03 -0.92448682204E+03  0.11943072127E+04  0.12699999809E+01 0.  1.
</event>
<event>
 5   0  0.5637538E-06  0.3255897E+04  0.7818609E-02  0.8174209E-01
       -2   -1    0    0    0  501  0.00000000000E+00  0.00000000000E+00  0.13250019460E+04  0.13250019460E+04  0.25500000920E-02 0. -1.
        2   -1    0    0  501    0  0.00000000000E+00  0.00000000000E+00 -0.20001607676E+04  0.20001607676E+04  0.25500000920E-02 0.  1.
    10030    2    1    2    0    0  0.00000000000E+00  0.00000000000E+00 -0.67515882160E+03  0.33251627135E+04  0.32558973628E+04 0.  0.
        2    1    3    3  502    0 -0.67467613235E+03 -0.16939224676E+03 -0.18407387984E+04  0.19677908783E+04  0.25500000920E-02 0.  1.
       -2    1    3    3    0  502  0.67467613235E+03  0.16939224676E+03  0.11655799768E+04  0.13573718352E+04  0.25500000920E-02 0. -1.
</event>
<event>
 5   0  0.5755250E-06  0.3108444E+04  0.7818609E-02  0.8213424E-01
       -2   -1    0    0    0  501  0.00000000000E+00  0.00000000000E+00  0.15599992138E+04  0.15599992139E+04  0.25500000920E-02 0. -1.
        2   -1    0    0  501    0  0.00000000000E+00  0.00000000000E+00 -0.15484666653E+04  0.15484666653E+04  0.25500000920E-02 0.  1.
    10030    2    1    2    0    0  0.00000000000E+00  0.00000000000E+00  0.11532548521E+02  0.31084658792E+04  0.31084444860E+04 0.  0.
        5    1    3    3  502    0 -0.14962813798E+04  0.92711456594E+02 -0.40427472768E+03  0.15527116690E+04  0.46999998093E+01 0.  1.
       -5    1    3    3    0  502  0.14962813798E+04 -0.92711456594E+02  0.41580727620E+03  0.15557542102E+04  0.46999998093E+01 0. -1.
</event>
<event>
 5   0  0.5855568E-06  0.3348111E+04  0.7818609E-02  0.8150760E-01
        2   -1    0    0  501    0  0.00000000000E+00  0.00000000000E+00  0.19588639854E+04  0.19588639854E+04  0.25500000920E-02 0.  1.
       -2   -1    0    0    0  501  0.00000000000E+00  0.00000000000E+00 -0.14306567872E+04  0.14306567872E+04  0.25500000920E-02 0. -1.
    10030    2    1    2    0    0  0.00000000000E+00  0.00000000000E+00  0.52820719823E+03  0.33895207726E+04  0.33481111427E+04 0.  0.
        3    1    3    3  502    0  0.53078987909E+03  0.11599410594E+04  0.13616062436E+04  0.18657901087E+04  0.10100000352E+00 0.  1.
       -3    1    3    3    0  502 -0.53078987909E+03 -0.11599410594E+04 -0.83339904540E+03  0.15237306639E+04  0.10100000352E+00 0. -1.
</event>
<event>
 5   0  0.5755250E-06  0.3349334E+04  0.7818609E-02  0.8150455E-01
       -2   -1    0    0    0  501  0.00000000000E+00  0.00000000000E+00  0.11331350243E+04  0.11331350243E+04  0.25500000920E-02 0.  1.
        2   -1    0    0  501    0  0.00000000000E+00  0.00000000000E+00 -0.24750001035E+04  0.24750001035E+04  0.25500000920E-02 0. -1.
    10030    2    1    2    0    0  0.00000000000E+00  0.00000000000E+00 -0.13418650791E+04  0.36081351278E+04  0.33493338457E+04 0.  0.
        5    1    3    3  502    0 -0.63773438461E+03 -0.15164786337E+04 -0.10082995979E+04  0.19295343378E+04  0.46999998093E+01 0. -1.
       -5    1    3    3    0  502  0.63773438461E+03  0.15164786337E+04 -0.33356548119E+03  0.16786007899E+04  0.46999998093E+01 0.  1.
</event>
<event>
 5   0  0.2097842E-06  0.3340271E+04  0.7818609E-02  0.8152723E-01
        1   -1    0    0  501    0  0.00000000000E+00  0.00000000000E+00  0.15761380790E+04  0.15761380790E+04  0.50400001928E-02 0. -1.
       -1   -1    0    0    0  501  0.00000000000E+00  0.00000000000E+00 -0.17697386706E+04  0.17697386706E+04  0.50400001928E-02 0.  1.
    10030    2    1    2    0    0  0.00000000000E+00  0.00000000000E+00 -0.19360059159E+03  0.33458767496E+04  0.33402709523E+04 0.  0.
        4    1    3    3  502    0  0.89493863695E+03 -0.26623754506E+03 -0.14838817482E+04  0.17531982917E+04  0.12699999809E+01 0.  1.
       -4    1    3    3    0  502 -0.89493863695E+03  0.26623754506E+03  0.12902811567E+04  0.15926784580E+04  0.12699999809E+01 0. -1.
</event>
<event>
 5   0  0.1999849E-06  0.2213335E+04  0.7818609E-02  0.8512898E-01
       -1   -1    0    0    0  501  0.00000000000E+00  0.00000000000E+00  0.11388445309E+04  0.11388445309E+04  0.50400001928E-02 0. -1.
        1   -1    0    0  501    0  0.00000000000E+00  0.00000000000E+00 -0.10753995246E+04  0.10753995246E+04  0.50400001928E-02 0.  1.
    10030    2    1    2    0    0  0.00000000000E+00  0.00000000000E+00  0.63445006298E+02  0.22142440555E+04  0.22133349201E+04 0.  0.
        5    1    3    3  502    0  0.30948827665E+03 -0.20337887554E+03 -0.10115600215E+04  0.10772287257E+04  0.46999998093E+01 0.  1.
       -5    1    3    3    0  502 -0.30948827665E+03  0.20337887554E+03  0.10750050278E+04  0.11370153298E+04  0.46999998093E+01 0. -1.
</event>
<event>
 5   0  0.2730981E-06  0.3326869E+04  0.7818609E-02  0.8156092E-01
       -1   -1    0    0    0  501  0.00000000000E+00  0.00000000000E+00  0.21454809244E+04  0.21454809244E+04  0.50400001928E-02 0. -1.
        1   -1    0    0  501    0  0.00000000000E+00  0.00000000000E+00 -0.12896943306E+04  0.12896943306E+04  0.50400001928E-02 0.  1.
    10030    2    1    2    0    0  0.00000000000E+00  0.00000000000E+00  0.85578659378E+03  0.34351752550E+04  0.33268691496E+04 0.  0.
        3    1    3    3  502    0  0.16304660755E+04  0.88866069359E+02  0.10023353489E+03  0.16359595268E+04  0.10100000352E+00 0. -1.
       -3    1    3    3    0  502 -0.16304660755E+04 -0.88866069359E+02  0.75555305889E+03  0.17992157282E+04  0.10100000352E+00 0.  1.
</event>
<event>
 5   0  0.1999849E-06  0.3388627E+04  0.7818609E-02  0.8140703E-01
        1   -1    0    0  501    0  0.00000000000E+00  0.00000000000E+00  0.96789106904E+03  0.96789106906E+03  0.50400001928E-02 0.  1.
       -1   -1    0    0    0  501  0.00000000000E+00  0.00000000000E+00 -0.29659303761E+04  0.29659303761E+04  0.50400001928E-02 0. -1.
    10030    2    1    2    0    0  0.00000000000E+00  0.00000000000E+00 -0.19980393070E+04  0.39338214451E+04  0.33886265787E+04 0.  0.
        5    1    3    3  502    0  0.43740701104E+03 -0.98341572686E+03 -0.25180755792E+04  0.27384590735E+04  0.46999998093E+01 0. -1.
       -5    1    3    3    0  502 -0.43740701104E+03  0.98341572686E+03  0.52003627211E+03  0.11953623716E+04  0.46999998093E+01 0.  1.
</event>
<event>
 5   0  0.5637538E-06  0.3314198E+04  0.7818609E-02  0.8159292E-01
       -2   -1    0    0    0  501  0.00000000000E+00  0.00000000000E+00  0.20008950540E+04  0.20008950540E+04  0.25500000920E-02 0.  1.
        2   -1    0    0  501    0  0.00000000000E+00  0.00000000000E+00 -0.13723741927E+04  0.13723741927E+04  0.25500000920E-02 0. -1.
    10030    2    1    2    0    0  0.00000000000E+00  0.00000000000E+00  0.62852086135E+03  0.33732692467E+04  0.33141977819E+04 0.  0.
        2    1    3    3  502    0 -0.15013388764E+04 -0.69442658853E+03  0.41465947545E+03  0.17053413703E+04  0.25500000920E-02 0.  1.
       -2    1    3    3    0  502  0.15013388764E+04  0.69442658853E+03  0.21386138590E+03  0.16679278764E+04  0.25500000920E-02 0. -1.
</event>
<event>
 5   0  0.5855568E-06  0.3297341E+04  0.7818609E-02  0.8163572E-01
        2   -1    0    0  501    0  0.00000000000E+00  0.00000000000E+00  0.22501938444E+04  0.22501938444E+04  0.25500000920E-02 0.  1.
       -2   -1    0    0    0  501  0.00000000000E+00  0.00000000000E+00 -0.12079465486E+04  0.12079465486E+04  0.25500000920E-02 0. -1.
    10030    2    1    2    0    0  0.00000000000E+00  0.00000000000E+00  0.10422472958E+04  0.34581403930E+04  0.32973406788E+04 0.  0.
        3    1    3    3  502    0 -0.12272452230E+04  0.10000342392E+04  0.38332609933E+02  0.15835620342E+04  0.10100000352E+00 0. -1.
       -3    1    3    3    0  502  0.12272452230E+04 -0.10000342392E+04  0.10039146859E+04  0.18745783589E+04  0.10100000352E+00 0.  1.
</event>
<event>
 5   0  0.5855568E-06  0.1657580E+04  0.7818609E-02  0.8785935E-01
        2   -1    0    0  501    0  0.00000000000E+00  0.00000000000E+00  0.15162147109E+04  0.15162147109E+04  0.25500000920E-02 0.  1.
       -2   -1    0    0    0  501  0.00000000000E+00  0.00000000000E+00 -0.45303112403E+03  0.45303112403E+03  0.25500000920E-02 0. -1.
    10030    2    1    2    0    0  0.00000000000E+00  0.00000000000E+00  0.10631835868E+04  0.19692458349E+04  0.16575795061E+04 0.  0.
        3    1    3    3  502    0 -0.49124118417E+03 -0.65824708183E+03  0.39991208610E+03  0.91352986189E+03  0.10100000352E+00 0.  1.
       -3    1    3    3    0  502  0.49124118417E+03  0.65824708183E+03  0.66327150074E+03  0.10557159730E+04  0.10100000352E+00 0. -1.
</event>
<event>
 5   0  0.2182318E-06  0.1968668E+04  0.7818609E-02  0.8621411E-01
       -1   -1    0    0    0  501  0.00000000000E+00  0.00000000000E+00  0.70007028903E+03  0.70007028905E+03  0.50400001928E-02 0. -1.
        1   -1    0    0  501    0  0.00000000000E+00  0.00000000000E+00 -0.13840229205E+04  0.13840229206E+04  0.50400001928E-02 0.  1.
    10030    2    1    2    0    0  0.00000000000E+00  0.00000000000E+00 -0.68395263152E+03  0.20840932096E+04  0.19686679009E+04 0.  0.
        2    1    3    3  502    0  0.42568328863E+03  0.22792568033E+03  0.56607807848E+03  0.74404352622E+03  0.25500000920E-02 0. -1.
       -2    1    3    3    0  502 -0.42568328863E+03 -0.22792568033E+03 -0.12500307100E+04  0.13400496834E+04  0.25500000920E-02 0.  1.
</event>
<event>
 5   0  0.5300268E-06  0.3241648E+04  0.7818609E-02  0.8177904E-01
       -2   -1    0    0    0  501  0.00000000000E+00  0.00000000000E+00  0.15198719854E+04  0.15198719854E+04  0.25500000920E-02 0. -1.
        2   -1    0    0  501    0  0.00000000000E+00  0.00000000000E+00 -0.17284810049E+04  0.17284810049E+04  0.25500000920E-02 0.  1.
    10030    2    1    2    0    0  0.00000000000E+00  0.00000000000E+00 -0.20860901951E+03  0.32483529904E+04  0.32416476408E+04 0.  0.
        4    1    3    3  502    0  0.24951967093E+03  0.55308688827E+03 -0.16103781537E+04  0.17208964475E+04  0.12699999809E+01 0.  1.
       -4    1    3    3    0  502 -0.24951967093E+03 -0.55308688827E+03  0.14017691342E+04  0.15274565429E+04  0.12699999809E+01 0. -1.
</event>
<event>
 5   0  0.5622811E-06  0.3345320E+04  0.7818609E-02  0.8151459E-01
        2   -1    0    0  501    0  0.00000000000E+00  0.00000000000E+00  0.17770398382E+04  0.17770398382E+04  0.25500000920E-02 0.  1.
       -2   -1    0    0    0  501  0.00000000000E+00  0.00000000000E+00 -0.15744107698E+04  0.15744107698E+04  0.25500000920E-02 0. -1.
    10030    2    1    2    0    0  0.00000000000E+00  0.00000000000E+00  0.20262906835E+03  0.33514506080E+04  0.33453195122E+04 0.  0.
        1    1    3    3  502    0 -0.16235367570E+04  0.78860432360E+02  0.49662621981E+03  0.16996258915E+04  0.50400001928E-02 0.  1.
       -1    1    3    3    0  502  0.16235367570E+04 -0.78860432360E+02 -0.29399715145E+03  0.16518247165E+04  0.50400001928E-02 0. -1.
</event>
<event>
 5   0  0.5855568E-06  0.3142634E+04  0.7818609E-02  0.8204134E-01
        2   -1    0    0  501    0  0.00000000000E+00  0.00000000000E+00  0.15864758940E+04  0.15864758940E+04  0.25500000920E-02 0. -1.
       -2   -1    0    0    0  501  0.00000000000E+00  0.00000000000E+00 -0.15563027140E+04  0.15563027140E+04  0.25500000920E-02 0.  1.
    10030    2    1    2    0    0  0.00000000000E+00  0.00000000000E+00  0.30173179955E+02  0.31427786080E+04  0.31426337614E+04 0.  0.
        3    1    3    3  502    0 -0.59589542329E+03 -0.86016647338E+03 -0.11571700705E+04  0.15601347056E+04  0.10100000352E+00 0.  1.
       -3    1    3    3    0  502  0.59589542329E+03  0.86016647338E+03  0.11873432504E+04  0.15826439024E+04  0.10100000352E+00 0. -1.
</event>
<event>
 5   0  0.5855568E-06  0.3267044E+04  0.7818609E-02  0.8171332E-01
        2   -1    0    0  501    0  0.00000000000E+00  0.00000000000E+00  0.13114016440E+04  0.13114016440E+04  0.25500000920E-02 0.  1.
       -2   -1    0    0    0  501  0.00000000000E+00  0.00000000000E+00 -0.20347648016E+04  0.20347648016E+04  0.25500000920E-02 0. -1.
    10030    2    1    2    0    0  0.00000000000E+00  0.00000000000E+00 -0.72336315762E+03  0.33461664457E+04  0.32670438663E+04 0.  0.
        3    1    3    3  502    0  0.44079238338E+03  0.89330831010E+03 -0.16876770759E+04  0.19597325289E+04  0.10100000352E+00 0. -1.
       -3    1    3    3    0  502 -0.44079238338E+03 -0.89330831010E+03  0.96431391832E+03  0.13864339167E+04  0.10100000352E+00 0.  1.
</event>
<event>
 5   0  0.5755250E-06  0.3247751E+04  0.7818609E-02  0.8176319E-01
       -2   -1    0    0    0  501  0.00000000000E+00  0.00000000000E+00  0.18413541417E+04  0.18413541417E+04  0.25500000920E-02 0.  1.
        2   -1    0    0  501    0  0.00000000000E+00  0.00000000000E+00 -0.14320823996E+04  0.14320823996E+04  0.25500000920E-02 0. -1.
    10030    2    1    2    0    0  0.00000000000E+00  0.00000000000E+00  0.40927174216E+03  0.32734365413E+04  0.32477505186E+04 0.  0.
        5    1    3    3  502    0  0.12558258780E+04  0.37165245870E+03 -0.76302203740E+03  0.15157337845E+04  0.46999998093E+01 0. -1.
       -5    1    3    3    0  502 -0.12558258780E+04 -0.37165245870E+03  0.11722937796E+04  0.17577027568E+04  0.46999998093E+01 0.  1.
</event>
<event>
 5   0  0.2730981E-06  0.1956058E+04  0.7818609E-02  0.8627445E-01
       -1   -1    0    0    0  501  0.00000000000E+00  0.00000000000E+00  0.49314302376E+03  0.49314302379E+03  0.50400001928E-02 0.  1.
        1   -1    0    0  501    0  0.00000000000E+00  0.00000000000E+00 -0.19396818698E+04  0.19396818698E+04  0.50400001928E-02 0. -1.
    10030    2    1    2    0    0  0.00000000000E+00  0.00000000000E+00 -0.14465388460E+04  0.24328248936E+04  0.19560578544E+04 0.  0.
        3    1    3    3  502    0 -0.77994990705E+03  0.43988702713E+03 -0.23405444810E+03  0.92552901036E+03  0.10100000352E+00 0.  1.
       -3    1    3    3    0  502  0.77994990705E+03 -0.43988702713E+03 -0.12124843979E+04  0.15072958832E+04  0.10100000352E+00 0. -1.
</event>
<event>
 5   0  0.2037109E-06  0.1986251E+04  0.7818609E-02  0.8613076E-01
        1   -1    0    0  501    0  0.00000000000E+00  0.00000000000E+00  0.20842024861E+04  0.20842024861E+04  0.50400001928E-02 0.  1.
       -1   -1    0    0    0  501  0.00000000000E+00  0.00000000000E+00 -0.47322557476E+03  0.47322557478E+03  0.50400001928E-02 0. -1.
    10030    2    1    2    0    0  0.00000000000E+00  0.00000000000E+00  0.16109769113E+04  0.25574280609E+04  0.19862506583E+04 0.  0.
        2    1    3    3  502    0  0.61329163980E+03  0.11320966966E+02 -0.20016798320E+03  0.64523020795E+03  0.25500000920E-02 0. -1.
       -2    1    3    3    0  502 -0.61329163980E+03 -0.11320966966E+02  0.18111448945E+04  0.19121978529E+04  0.25500000920E-02 0.  1.
</event>
<event>
 5   0  0.2097842E-06  0.1636884E+04  0.7818609E-02  0.8798204E-01
        1   -1    0    0  501    0  0.00000000000E+00  0.00000000000E+00  0.10249176486E+04  0.10249176487E+04  0.50400001928E-02 0. -1.
       -1   -1    0    0    0  501  0.00000000000E+00  0.00000000000E+00 -0.65356228552E+03  0.65356228554E+03  0.50400001928E-02 0.  1.
    10030    2    1    2    0    0  0.00000000000E+00  0.00000000000E+00  0.37135536312E+03  0.16784799342E+04  0.16368842610E+04 0.  0.
        4    1    3    3  502    0  0.71580478251E+03  0.30560906557E+03  0.44523548187E+03  0.89666584347E+03  0.12699999809E+01 0. -1.
       -4    1    3    3    0  502 -0.71580478251E+03 -0.30560906557E+03 -0.73880118749E+02  0.78181409073E+03  0.12699999809E+01 0.  1.
</event>
<event>
 5   0  0.5855568E-06  0.3314546E+04  0.7818609E-02  0.8159204E-01
       -2   -1    0    0    0  501  0.00000000000E+00  0.00000000000E+00  0.10606981330E+04  0.10606981330E+04  0.25500000920E-02 0. -1.
        2   -1    0    0  501    0  0.00000000000E+00  0.00000000000E+00 -0.25893827157E+04  0.25893827157E+04  0.25500000920E-02 0.  1.
    10030    2    1    2    0    0  0.00000000000E+00  0.00000000000E+00 -0.15286845827E+04  0.36500808488E+04  0.33145457681E+04 0.  0.
        3    1    3    3  502    0 -0.11434424452E+04 -0.11830458539E+04 -0.98319457630E+03  0.19166976034E+04  0.10100000352E+00 0.  1.
       -3    1    3    3    0  502  0.11434424452E+04  0.11830458539E+04 -0.54549000640E+03  0.17333832453E+04  0.10100000352E+00 0. -1.
</event>
<event>
 5   0  0.5855568E-06  0.3285499E+04  0.7818609E-02  0.8166595E-01
       -2   -1    0    0    0  501  0.00000000000E+00  0.00000000000E+00  0.11776385354E+04  0.11776385354E+04  0.25500000920E-02 0. -1.
        2   -1    0    0  501    0  0.00000000000E+00  0.00000000000E+00 -0.22915566052E+04  0.22915566052E+04  0.25500000920E-02 0.  1.
    10030    2    1    2    0    0  0.00000000000E+00  0.00000000000E+00 -0.11139180698E+04  0.34691951406E+04  0.32854986619E+04 0.  0.
        3    1    3    3  502    0  0.10410718668E+03  0.35874364674E+02  0.11737372582E+04  0.11788911900E+04  0.10100000352E+00 0. -1.
       -3    1    3    3    0  502 -0.10410718668E+03 -0.35874364674E+02 -0.22876553280E+04  0.22903039507E+04  0.10100000352E+00 0.  1.
</event>
<event>
 5   0  0.5622811E-06  0.3286937E+04  0.7818609E-02  0.8166227E-01
       -2   -1    0    0    0  501  0.00000000000E+00  0.00000000000E+00  0.16339175883E+04  0.16339175883E+04  0.25500000920E-02 0.  1.
        2   -1    0    0  501    0  0.00000000000E+00  0.00000000000E+00 -0.16530753795E+04  0.16530753795E+04  0.25500000920E-02 0. -1.
    10030    2    1    2    0    0  0.00000000000E+00  0.00000000000E+00 -0.19157791231E+02  0.32869929678E+04  0.32869371380E+04 0.  0.
        1    1    3    3  502    0 -0.13551272561E+04  0.54748535917E+03 -0.76117588067E+03  0.16478770646E+04  0.50400001928E-02 0. -1.
       -1    1    3    3    0  502  0.13551272561E+04 -0.54748535917E+03  0.74201808944E+03  0.16391159031E+04  0.50400001928E-02 0.  1.
</event>
<event>
 5   0  0.1925906E-06  0.2224743E+04  0.7818609E-02  0.8508200E-01
       -1   -1    0    0    0  501  0.00000000000E+00  0.00000000000E+00  0.94922439270E+03  0.94922439271E+03  0.50400001928E-02 0.  1.
        1   -1    0    0  501    0  0.00000000000E+00  0.00000000000E+00 -0.13035589150E+04  0.13035589150E+04  0.50400001928E-02 0. -1.
    10030    2    1    2    0    0  0.00000000000E+00  0.00000000000E+00 -0.35433452228E+03  0.22527833077E+04  0.22247426093E+04 0.  0.
        1    1    3    3  502    0  0.11075006154E+04  0.10375101436E+03 -0.18418522884E+03  0.11274954920E+04  0.50400001928E-02 0. -1.
       -1    1    3    3    0  502 -0.11075006154E+04 -0.10375101436E+03 -0.17014929345E+03  0.11252878157E+04  0.50400001928E-02 0.  1.
</event>
<event>
 5   0  0.5637538E-06  0.2946733E+04  0.7818609E-02  0.8259107E-01
       -2   -1    0    0    0  501  0.00000000000E+00  0.00000000000E+00  0.97805646265E+03  0.97805646265E+03  0.25500000920E-02 0. -1.
        2   -1    0    0  501    0  0.00000000000E+00  0.00000000000E+00 -0.22195134283E+04  0.22195134283E+04  0.25500000920E-02 0.  1.
    10030    2    1    2    0    0  0.00000000000E+00  0.00000000000E+00 -0.12414569657E+04  0.31975698910E+04  0.29467334135E+04 0.  0.
        2    1    3    3  502    0  0.14034896852E+04 -0.14229996417E+03 -0.10820998484E+04  0.17779124439E+04  0.25500000920E-02 0.  1.
       -2    1    3    3    0  502 -0.14034896852E+04  0.14229996417E+03 -0.15935711722E+03  0.14196574471E+04  0.25500000920E-02 0. -1.
</event>
<event>
 5   0  0.5855568E-06  0.2068774E+04  0.7818609E-02  0.8575125E-01
       -2   -1    0    0    0  501  0.00000000000E+00  0.00000000000E+00  0.39220016633E+03  0.39220016634E+03  0.25500000920E-02 0. -1.
        2   -1    0    0  501    0  0.00000000000E+00  0.00000000000E+00 -0.27280887634E+04  0.27280887634E+04  0.25500000920E-02 0.  1.
    10030    2    1    2    0    0  0.00000000000E+00  0.00000000000E+00 -0.23358885971E+04  0.31202889298E+04  0.20687743877E+04 0.  0.
        3    1    3    3  502    0  0.59617727593E+03 -0.41806685185E+03 -0.22760414844E+04  0.23896803314E+04  0.10100000352E+00 0.  1.
       -3    1    3    3    0  502 -0.59617727593E+03  0.41806685185E+03 -0.59847112639E+02  0.73060859839E+03  0.10100000352E+00 0. -1.
</event>
<event>
 5   0  0.1925906E-06  0.3437222E+04  0.7818609E-02  0.8128831E-01
       -1   -1    0    0    0  501  0.00000000000E+00  0.00000000000E+00  0.96491873813E+03  0.96491873815E+03  0.50400001928E-02 0. -1.
        1   -1    0    0  501    0  0.00000000000E+00  0.00000000000E+00 -0.30610081235E+04  0.30610081235E+04  0.50400001928E-02 0.  1.
    10030    2    1    2    0    0  0.00000000000E+00  0.00000000000E+00 -0.20960893853E+04  0.40259268616E+04  0.34372221901E+04 0.  0.
        1    1    3    3  502    0 -0.22318567100E+03  0.16334531218E+04 -0.47947240940E+03  0.17169376040E+04  0.50400001928E-02 0.  1.
       -1    1    3    3    0  502  0.22318567100E+03 -0.16334531218E+04 -0.16166169759E+04  0.23089892576E+04  0.50400001928E-02 0. -1.
</event>
<event>
 5   0  0.5300268E-06  0.2011759E+04  0.7818609E-02  0.8601143E-01
        2   -1    0    0  501    0  0.00000000000E+00  0.00000000000E+00  0.10448361567E+04  0.10448361567E+04  0.25500000920E-02 0. -1.
       -2   -1    0    0    0  501  0.00000000000E+00  0.00000000000E+00 -0.96837529899E+03  0.96837529900E+03  0.25500000920E-02 0.  1.
    10030    2    1    2    0    0  0.00000000000E+00  0.00000000000E+00  0.76460857705E+02  0.20132114557E+04  0.20117589574E+04 0.  0.
        4    1    3    3  502    0  0.37723671068E+03 -0.76413843346E+03 -0.49654929735E+03  0.98629503647E+03  0.12699999809E+01 0.  1.
       -4    1    3    3    0  502 -0.37723671068E+03  0.76413843346E+03  0.57301015506E+03  0.10269164192E+04  0.12699999809E+01 0. -1.
</event>
<event>
 5   0  0.1878000E-06  0.3055883E+04  0.7818609E-02  0.8227951E-01
       -3   -1    0    0    0  501  0.00000000000E+00  0.00000000000E+00  0.10863682304E+04  0.10863682351E+04  0.10100000352E+00 0.  1.
        3   -1    0    0  501    0  0.00000000000E+00  0.00000000000E+00 -0.21489992036E+04  0.21489992060E+04  0.10100000352E+00 0. -1.
    10030    2    1    2    0    0  0.00000000000E+00  0.00000000000E+00 -0.10626309732E+04  0.32353674411E+04  0.30558825066E+04 0.  0.
        4    1    3    3  502    0  0.18767045579E+03  0.53836185225E+03  0.96953101618E+03  0.11247424986E+04  0.12699999809E+01 0.  1.
       -4    1    3    3    0  502 -0.18767045579E+03 -0.53836185225E+03 -0.20321619894E+04  0.21106249425E+04  0.12699999809E+01 0. -1.
</event>
<event>
 5   0  0.5755250E-06  0.3102634E+04  0.7818609E-02  0.8215015E-01
        2   -1    0    0  501    0  0.00000000000E+00  0.00000000000E+00  0.16136060395E+04  0.16136060395E+04  0.25500000920E-02 0.  1.
       -2   -1    0    0    0  501  0.00000000000E+00  0.00000000000E+00 -0.14914327351E+04  0.14914327351E+04  0.25500000920E-02 0. -1.
    10030    2    1    2    0    0  0.00000000000E+00  0.00000000000E+00  0.12217330439E+03  0.31050387746E+04  0.31026342800E+04 0.  0.
        5    1    3    3  502    0 -0.54970500609E+03  0.11732816404E+04 -0.79268490885E+03  0.15189262181E+04  0.46999998093E+01 0. -1.
       -5    1    3    3    0  502  0.54970500609E+03 -0.11732816404E+04  0.91485821324E+03  0.15861125565E+04  0.46999998093E+01 0.  1.
</event>
<event>
 5   0  0.5300268E-06  0.3565170E+04  0.7818609E-02  0.8098517E-01
        2   -1    0    0  501    0  0.00000000000E+00  0.00000000000E+00  0.24928670941E+04  0.24928670941E+04  0.25500000920E-02 0.  1.
       -2   -1    0    0    0  501  0.00000000000E+00  0.00000000000E+00 -0.12746809332E+04  0.12746809332E+04  0.25500000920E-02 0. -1.
    10030    2    1    2    0    0  0.00000000000E+00  0.00000000000E+00  0.12181861608E+04  0.37675480273E+04  0.35651704890E+04 0.  0.
        4    1    3    3  502    0 -0.17648137747E+04  0.22670690999E+03  0.49505612827E+03  0.18469016935E+04  0.12699999809E+01 0.  1.
       -4    1    3    3    0  502  0.17648137747E+04 -0.22670690999E+03  0.72313003256E+03  0.19206463338E+04  0.12699999809E+01 0. -1.
</event>
<event>
 5   0  0.5855568E-06  0.2589098E+04  0.7818609E-02  0.8371914E-01
        2   -1    0    0  501    0  0.00000000000E+00  0.00000000000E+00  0.21854155557E+04  0.21854155557E+04  0.25500000920E-02 0.  1.
       -2   -1    0    0    0  501  0.00000000000E+00  0.00000000000E+00 -0.76683658230E+03  0.76683658230E+03  0.25500000920E-02 0. -1.
    10030    2    1    2    0    0  0.00000000000E+00  0.00000000000E+00  0.14185789734E+04  0.29522521380E+04  0.25890976001E+04 0.  0.
        3    1    3    3  502    0 -0.10874292997E+04 -0.46145985103E+03  0.10547861567E+03  0.11859904825E+04  0.10100000352E+00 0. -1.
       -3    1    3    3    0  502  0.10874292997E+04  0.46145985103E+03  0.13131003578E+04  0.17662616555E+04  0.10100000352E+00 0.  1.
</event>
<event>
 5   0  0.5855568E-06  0.3293146E+04  0.7818609E-02  0.8164641E-01
        2   -1    0    0  501    0  0.00000000000E+00  0.00000000000E+00  0.22053564230E+04  0.22053564230E+04  0.25500000920E-02 0. -1.
       -2   -1    0    0    0  501  0.00000000000E+00  0.00000000000E+00 -0.12293719018E+04  0.12293719018E+04  0.25500000920E-02 0.  1.
    10030    2    1    2    0    0  0.00000000000E+00  0.00000000000E+00  0.97598452128E+03  0.34347283248E+04  0.32931463495E+04 0.  0.
        3    1    3    3  502    0  0.12683841751E+04  0.10429874330E+04  0.36204462066E+03  0.16815759033E+04  0.10100000352E+00 0. -1.
       -3    1    3    3    0  502 -0.12683841751E+04 -0.10429874330E+04  0.61393990062E+03  0.17531524215E+04  0.10100000352E+00 0.  1.
</event>
<event>
 5   0  0.5637538E-06  0.3070791E+04  0.7818609E-02  0.8223800E-01
       -2   -1    0    0    0  501  0.00000000000E+00  0.00000000000E+00  0.19390149625E+04  0.19390149625E+04  0.25500000920E-02 0. -1.
        2   -1    0    0  501    0  0.00000000000E+00  0.00000000000E+00 -0.12157919075E+04  0.12157919075E+04  0.25500000920E-02 0.  1.
    10030    2    1    2    0    0  0.00000000000E+00  0.00000000000E+00  0.72322305500E+03  0.31548068701E+04  0.30707905823E+04 0.  0.
        2    1    3    3  502    0 -0.14242842815E+04  0.44987298202E+03  0.72696368520E+03  0.16611585156E+04  0.25500000920E-02 0. -1.
       -2    1    3    3    0  502  0.14242842815E+04 -0.44987298202E+03 -0.37406302019E+01  0.14936483544E+04  0.25500000920E-02 0.  1.
</event>
<event>
 5   0  0.5855568E-06  0.3323266E+04  0.7818609E-02  0.8157000E-01
       -2   -1    0    0    0  501  0.00000000000E+00  0.00000000000E+00  0.16643174256E+04  0.16643174256E+04  0.25500000920E-02 0. -1.
        2   -1    0    0  501    0  0.00000000000E+00  0.00000000000E+00 -0.16589531412E+04  0.16589531412E+04  0.25500000920E-02 0.  1.
    10030    2    1    2    0    0  0.00000000000E+00  0.00000000000E+00  0.53642843789E+01  0.33232705669E+04  0.33232662375E+04 0.  0.
        3    1    3    3  502    0  0.15764382047E+03  0.29994546821E+03  0.16294005099E+04  0.16642610642E+04  0.10100000352E+00 0. -1.
       -3    1    3    3    0  502 -0.15764382047E+03 -0.29994546821E+03 -0.16240362255E+04  0.16590095027E+04  0.10100000352E+00 0.  1.
</event>
<event>
 5   0  0.1999849E-06  0.3304170E+04  0.7818609E-02  0.8161835E-01
       -1   -1    0    0    0  501  0.00000000000E+00  0.00000000000E+00  0.16145441992E+04  0.16145441992E+04  0.50400001928E-02 0. -1.
        1   -1    0    0  501    0  0.00000000000E+00  0.00000000000E+00 -0.16904989885E+04  0.16904989885E+04  0.50400001928E-02 0.  1.
    10030    2    1    2    0    0  0.00000000000E+00  0.00000000000E+00 -0.75954789290E+02  0.33050431877E+04  0.33041702956E+04 0.  0.
        5    1    3    3  502    0 -0.13834681223E+04 -0.40473539746E+03  0.76943375530E+03  0.16339660893E+04  0.46999998093E+01 0. -1.
       -5    1    3    3    0  502  0.13834681223E+04  0.40473539746E+03 -0.84538854459E+03  0.16710770983E+04  0.46999998093E+01 0.  1.
</event>
<event>
 5   0  0.5622811E-06  0.3313328E+04  0.7818609E-02  0.8159512E-01
       -2   -1    0    0    0  501  0.00000000000E+00  0.00000000000E+00  0.13640764712E+04  0.13640764713E+04  0.25500000920E-02 0.  1.
        2   -1    0    0  501    0  0.00000000000E+00  0.00000000000E+00 -0.20120100731E+04  0.20120100731E+04  0.25500000920E-02 0. -1.
    10030    2    1    2    0    0  0.00000000000E+00  0.00000000000E+00 -0.64793360189E+03  0.33760865444E+04  0.33133279950E+04 0.  0.
        1    1    3    3  502    0 -0.14715833251E+04 -0.62997337753E+03 -0.75879531903E+03  0.17714949267E+04  0.50400001928E-02 0. -1.
       -1    1    3    3    0  502  0.14715833251E+04  0.62997337753E+03  0.11086171714E+03  0.16045916177E+04  0.50400001928E-02 0.  1.
</event>
<event>
 5   0  0.1925906E-06  0.3342087E+04  0.7818609E-02  0.8152268E-01
       -1   -1    0    0    0  501  0.00000000000E+00  0.00000000000E+00  0.19821619330E+04  0.19821619330E+04  0.50400001928E-02 0. -1.
        1   -1    0    0  501    0  0.00000000000E+00  0.00000000000E+00 -0.14087580333E+04  0.14087580333E+04  0.50400001928E-02 0.  1.
    10030    2    1    2    0    0  0.00000000000E+00  0.00000000000E+00  0.57340389971E+03  0.33909199664E+04  0.33420871003E+04 0.  0.
        1    1    3    3  502    0  0.73800069225E+03  0.11506283351E+04  0.12618887284E+04  0.18603638757E+04  0.50400001928E-02 0. -1.
       -1    1    3    3    0  502 -0.73800069225E+03 -0.11506283351E+04 -0.68848482866E+03  0.15305560906E+04  0.50400001928E-02 0.  1.
</event>
<event>
 5   0  0.5300268E-06  0.2500597E+04  0.7818609E-02  0.8402773E-01
       -2   -1    0    0    0  501  0.00000000000E+00  0.00000000000E+00  0.75533060766E+03  0.75533060767E+03  0.25500000920E-02 0.  1.
        2   -1    0    0  501    0  0.00000000000E+00  0.00000000000E+00 -0.20696179449E+04  0.20696179449E+04  0.25500000920E-02 0. -1.
    10030    2    1    2    0    0  0.00000000000E+00  0.00000000000E+00 -0.13142873373E+04  0.28249485526E+04  0.25005965528E+04 0.  0.
        4    1    3    3  502    0 -0.90416442286E+03  0.44871628159E+03 -0.14906709430E+04  0.18002669463E+04  0.12699999809E+01 0. -1.
       -4    1    3    3    0  502  0.90416442286E+03 -0.44871628159E+03  0.17638360572E+03  0.10246816063E+04  0.12699999809E+01 0.  1.
</event>
<event>
 5   0  0.5300268E-06  0.3438968E+04  0.7818609E-02  0.8128408E-01
        2   -1    0    0  501    0  0.00000000000E+00  0.00000000000E+00  0.24404039673E+04  0.24404039673E+04  0.25500000920E-02 0. -1.
       -2   -1    0    0    0  501  0.00000000000E+00  0.00000000000E+00 -0.12115309602E+04  0.12115309602E+04  0.25500000920E-02 0.  1.
    10030    2    1    2    0    0  0.00000000000E+00  0.00000000000E+00  0.12288730071E+04  0.36519349275E+04  0.34389678462E+04 0.  0.
        4    1    3    3  502    0  0.44349630227E+02 -0.15258618204E+04  0.14549051949E+04  0.21087844659E+04  0.12699999809E+01 0. -1.
       -4    1    3    3    0  502 -0.44349630227E+02  0.15258618204E+04 -0.22603218776E+03  0.15431504617E+04  0.12699999809E+01 0.  1.
</event>
<event>
 5   0  0.5300268E-06  0.2360426E+04  0.7818609E-02  0.8454470E-01
        2   -1    0    0  501    0  0.00000000000E+00  0.00000000000E+00  0.13085558739E+04  0.13085558739E+04  0.25500000920E-02 0. -1.
       -2   -1    0    0    0  501  0.00000000000E+00  0.00000000000E+00 -0.10644578660E+04  0.10644578660E+04  0.25500000920E-02 0.  1.
    10030    2    1    2    0    0  0.00000000000E+00  0.00000000000E+00  0.24409800790E+03  0.23730137400E+04  0.23604258880E+04 0.  0.
        4    1    3    3  502    0 -0.31615931665E+03 -0.82914695017E+03 -0.66021341963E+03  0.11060401217E+04  0.12699999809E+01 0.  1.
       -4    1    3    3    0  502  0.31615931665E+03  0.82914695017E+03  0.90431142752E+03  0.12669736182E+04  0.12699999809E+01 0. -1.
</event>
<event>
 5   0  0.5622811E-06  0.2642502E+04  0.7818609E-02  0.8353906E-01
        2   -1    0    0  501    0  0.00000000000E+00  0.00000000000E+00  0.13164483501E+04  0.13164483501E+04  0.25500000920E-02 0.  1.
       -2   -1    0    0    0  501  0.00000000000E+00  0.00000000000E+00 -0.13260713277E+04  0.13260713277E+04  0.25500000920E-02 0. -1.
    10030    2    1    2    0    0  0.00000000000E+00  0.00000000000E+00 -0.96229776083E+01  0.26425196779E+04  0.26425021563E+04 0.  0.
        1    1    3    3  502    0 -0.51252719129E+03  0.26561468684E+03  0.11836698359E+04  0.13169318753E+04  0.50400001928E-02 0.  1.
       -1    1    3    3    0  502  0.51252719129E+03 -0.26561468684E+03 -0.11932928135E+04  0.13255878026E+04  0.50400001928E-02 0. -1.
</event>
<event>
 5   0  0.2097842E-06  0.3448905E+04  0.7818609E-02  0.8126007E-01
       -1   -1    0    0    0  501  0.00000000000E+00  0.00000000000E+00  0.15511457461E+04  0.15511457462E+04  0.50400001928E-02 0. -1.
        1   -1    0    0  501    0  0.00000000000E+00  0.00000000000E+00 -0.19171225430E+04  0.19171225430E+04  0.50400001928E-02 0.  1.
    10030    2    1    2    0    0  0.00000000000E+00  0.00000000000E+00 -0.36597679681E+03  0.34682682891E+04  0.34489050305E+04 0.  0.
        4    1    3    3  502    0 -0.87156348295E+03 -0.57911728262E+03 -0.15613533698E+04  0.18795812539E+04  0.12699999809E+01 0.  1.
       -4    1    3    3    0  502  0.87156348295E+03  0.57911728262E+03  0.11953765729E+04  0.15886870352E+04  0.12699999809E+01 0. -1.
</event>
<event>
 5   0  0.1999849E-06  0.3349443E+04  0.7818609E-02  0.8150427E-01
       -1   -1    0    0    0  501  0.00000000000E+00  0.00000000000E+00  0.14653895732E+04  0.14653895732E+04  0.50400001928E-02 0.  1.
        1   -1    0    0  501    0  0.00000000000E+00  0.00000000000E+00 -0.19139568955E+04  0.19139568955E+04  0.50400001928E-02 0. -1.
    10030    2    1    2    0    0  0.00000000000E+00  0.00000000000E+00 -0.44856732232E+03  0.33793464687E+04  0.33494432243E+04 0.  0.
        5    1    3    3  502    0  0.62686875468E+03  0.74790493548E+03 -0.15974430160E+04  0.18719435108E+04  0.46999998093E+01 0. -1.
       -5    1    3    3    0  502 -0.62686875468E+03 -0.74790493548E+03  0.11488756937E+04  0.15074029580E+04  0.46999998093E+01 0.  1.
</event>
<event>
 5   0  0.5300268E-06  0.3304577E+04  0.7818609E-02  0.8161732E-01
        2   -1    0    0  501    0  0.00000000000E+00  0.00000000000E+00  0.20589729560E+04  0.20589729560E+04  0.25500000920E-02 0.  1.
       -2   -1    0    0    0  501  0.00000000000E+00  0.00000000000E+00 -0.13259314878E+04  0.13259314878E+04  0.25500000920E-02 0. -1.
    10030    2    1    2    0    0  0.00000000000E+00  0.00000000000E+00  0.73304146826E+03  0.33849044438E+04  0.33045768715E+04 0.  0.
        4    1    3    3  502    0  0.48822337901E+03 -0.14393666664E+04 -0.29724110344E+03  0.15487066716E+04  0.12699999809E+01 0.  1.
       -4    1    3    3    0  502 -0.48822337901E+03  0.14393666664E+04  0.10302825717E+04  0.18361977722E+04  0.12699999809E+01 0. -1.
</event>
<event>
 5   0  0.5622811E-06  0.3360976E+04  0.7818609E-02  0.8147551E-01
        2   -1    0    0  501    0  0.00000000000E+00  0.00000000000E+00  0.19680416600E+04  0.19680416600E+04  0.25500000920E-02 0. -1.
       -2   -1    0    0    0  501  0.00000000000E+00  0.00000000000E+00 -0.14349494099E+04  0.14349494100E+04  0.25500000920E-02 0.  1.
    10030    2    1    2    0    0  0.00000000000E+00  0.00000000000E+00  0.53309225010E+03  0.34029910700E+04  0.33609761789E+04 0.  0.
        1    1    3    3  502    0 -0.85248740323E+02  0.83822181000E+03 -0.12056443372E+04  0.14708709727E+04  0.50400001928E-02 0.  1.
       -1    1    3    3    0  502  0.85248740323E+02 -0.83822181000E+03  0.17387365873E+04  0.19321200973E+04  0.50400001928E-02 0. -1.
</event>
<event>
 5   0  0.5637538E-06  0.3165779E+04  0.7818609E-02  0.8197914E-01
        2   -1    0    0  501    0  0.00000000000E+00  0.00000000000E+00  0.19827791218E+04  0.19827791218E+04  0.25500000920E-02 0.  1.
       -2   -1    0    0    0  501  0.00000000000E+00  0.00000000000E+00 -0.12636498728E+04  0.12636498728E+04  0.25500000920E-02 0. -1.
    10030    2    1    2    0    0  0.00000000000E+00  0.00000000000E+00  0.71912924907E+03  0.32464289946E+04  0.31657786309E+04 0.  0.
        2    1    3    3  502    0  0.25664118179E+03  0.69468159606E+03  0.17941649203E+04  0.19409984486E+04  0.25500000920E-02 0.  1.
       -2    1    3    3    0  502 -0.25664118179E+03 -0.69468159606E+03 -0.10750356712E+04  0.13054305460E+04  0.25500000920E-02 0. -1.
</event>
<event>
 5   0  0.5755250E-06  0.3287639E+04  0.7818609E-02  0.8166048E-01
        2   -1    0    0  501    0  0.00000000000E+00  0.00000000000E+00  0.14053812602E+04  0.14053812602E+04  0.25500000920E-02 0. -1.
       -2   -1    0    0    0  501  0.00000000000E+00  0.00000000000E+00 -0.19227116289E+04  0.19227116289E+04  0.25500000920E-02 0.  1.
    10030    2    1    2    0    0  0.00000000000E+00  0.00000000000E+00 -0.51733036866E+03  0.33280928891E+04  0.32876392090E+04 0.  0.
        5    1    3    3  502    0 -0.11837613581E+04 -0.95997181322E+03  0.36477318921E+03  0.15671370089E+04  0.46999998093E+01 0. -1.
       -5    1    3    3    0  502  0.11837613581E+04  0.95997181322E+03 -0.88210355788E+03  0.17609558802E+04  0.46999998093E+01 0.  1.
</event>
<event>
 5   0  0.5637538E-06  0.1762529E+04  0.7818609E-02  0.8726484E-01
       -2   -1    0    0    0  501  0.00000000000E+00  0.00000000000E+00  0.77670750418E+03  0.77670750419E+03  0.25500000920E-02 0.  1.
        2   -1    0    0  501    0  0.00000000000E+00  0.00000000000E+00 -0.99989683928E+03  0.99989683928E+03  0.25500000920E-02 0. -1.
    10030    2    1    2    0    0  0.00000000000E+00  0.00000000000E+00 -0.22318933510E+03  0.17766043435E+04  0.17625292945E+04 0.  0.
        2    1    3    3  502    0  0.77762044934E+03  0.25066896024E+03 -0.44453356482E+03  0.93012826058E+03  0.25500000920E-02 0. -1.
       -2    1    3    3    0  502 -0.77762044934E+03 -0.25066896024E+03  0.22134422972E+03  0.84647608289E+03  0.25500000920E-02 0.  1.
</event>
<event>
 5   0  0.2730981E-06  0.3261747E+04  0.7818609E-02  0.8172698E-01
        1   -1    0    0  501    0  0.00000000000E+00  0.00000000000E+00  0.18268248614E+04  0.18268248614E+04  0.50400001928E-02 0.  1.
       -1   -1    0    0    0  501  0.00000000000E+00  0.00000000000E+00 -0.14559409051E+04  0.14559409051E+04  0.50400001928E-02 0. -1.
    10030    2    1    2    0    0  0.00000000000E+00  0.00000000000E+00  0.37088395623E+03  0.32827657665E+04  0.32617474103E+04 0.  0.
        3    1    3    3  502    0  0.24054970088E+03 -0.11689358239E+04  0.13041232293E+04  0.17677704959E+04  0.10100000352E+00 0.  1.
       -3    1    3    3    0  502 -0.24054970088E+03  0.11689358239E+04 -0.93323927304E+03  0.15149952706E+04  0.10100000352E+00 0. -1.
</event>
<event>
 5   0  0.5622811E-06  0.1688183E+04  0.7818609E-02  0.8768133E-01
       -2   -1    0    0    0  501  0.00000000000E+00  0.00000000000E+00  0.10289335201E+04  0.10289335201E+04  0.25500000920E-02 0.  1.
        2   -1    0    0  501    0  0.00000000000E+00  0.00000000000E+00 -0.69245514846E+03  0.69245514847E+03  0.25500000920E-02 0. -1.
    10030    2    1    2    0    0  0.00000000000E+00  0.00000000000E+00  0.33647837159E+03  0.17213886685E+04  0.16881828259E+04 0.  0.
        1    1    3    3  502    0 -0.36672608795E+03  0.63685772108E+03 -0.25515646926E+03  0.77793354749E+03  0.50400001928E-02 0. -1.
       -1    1    3    3    0  502  0.36672608795E+03 -0.63685772108E+03  0.59163484085E+03  0.94345512104E+03  0.50400001928E-02 0.  1.
</event>
<event>
 5   0  0.2037109E-06  0.3136466E+04  0.7818609E-02  0.8205801E-01
       -1   -1    0    0    0  501  0.00000000000E+00  0.00000000000E+00  0.18697848843E+04  0.18697848843E+04  0.50400001928E-02 0.  1.
        1   -1    0    0  501    0  0.00000000000E+00  0.00000000000E+00 -0.13153139438E+04  0.13153139438E+04  0.50400001928E-02 0. -1.
    10030    2    1    2    0    0  0.00000000000E+00  0.00000000000E+00  0.55447094051E+03  0.31850988281E+04  0.31364656097E+04 0.  0.
        2    1    3    3  502    0  0.10703908693E+04 -0.74128571963E+03  0.11649251610E+04  0.17470809260E+04  0.25500000920E-02 0.  1.
       -2    1    3    3    0  502 -0.10703908693E+04  0.74128571963E+03 -0.61045422051E+03  0.14380179020E+04  0.25500000920E-02 0. -1.
</event>
<event>
 5   0  0.2097842E-06  0.3202859E+04  0.7818609E-02  0.8188063E-01
       -1   -1    0    0    0  501  0.00000000000E+00  0.00000000000E+00  0.11510162309E+04  0.11510162309E+04  0.50400001928E-02 0. -1.
        1   -1    0    0  501    0  0.00000000000E+00  0.00000000000E+00 -0.22280968848E+04  0.22280968848E+04  0.50400001928E-02 0.  1.
    10030    2    1    2    0    0  0.00000000000E+00  0.00000000000E+00 -0.10770806538E+04  0.33791131157E+04  0.32028585223E+04 0.  0.
        4    1    3    3  502    0 -0.13706226940E+04  0.39706175886E+03 -0.13053881106E+04  0.19339866447E+04  0.12699999809E+01 0.  1.
       -4    1    3    3    0  502  0.13706226940E+04 -0.39706175886E+03  0.22830745680E+03  0.14451264710E+04  0.12699999809E+01 0. -1.
</event>
<event>
 5   0  0.5855568E-06  0.1980193E+04  0.7818609E-02  0.8615938E-01
        2   -1    0    0  501    0  0.00000000000E+00  0.00000000000E+00  0.11461037724E+04  0.11461037724E+04  0.25500000920E-02 0. -1.
       -2   -1    0    0    0  501  0.00000000000E+00  0.00000000000E+00 -0.85532462188E+03  0.85532462189E+03  0.25500000920E-02 0.  1.
    10030    2    1    2    0    0  0.00000000000E+00  0.00000000000E+00  0.29077915052E+03  0.20014283943E+04  0.19801926934E+04 0.  0.
        3    1    3    3  502    0 -0.12122606811E+03  0.50304167024E+03  0.99856526541E+03  0.11246685205E+04  0.10100000352E+00 0. -1.
       -3    1    3    3    0  502  0.12122606811E+03 -0.50304167024E+03 -0.70778611489E+03  0.87675987376E+03  0.10100000352E+00 0.  1.
</event>
<event>
 5   0  0.5755250E-06  0.1986541E+04  0.7818609E-02  0.8612939E-01
        2   -1    0    0  501    0  0.00000000000E+00  0.00000000000E+00  0.12063792880E+04  0.12063792880E+04  0.25500000920E-02 0. -1.
       -2   -1    0    0    0  501  0.00000000000E+00  0.00000000000E+00 -0.81780768258E+03  0.81780768258E+03  0.25500000920E-02 0.  1.
    10030    2    1    2    0    0  0.00000000000E+00  0.00000000000E+00  0.38857160538E+03  0.20241869705E+04  0.19865409634E+04 0.  0.
        5    1    3    3  502    0 -0.64453915444E+03 -0.61967123140E+03  0.63508173360E+03  0.10967105612E+04  0.46999998093E+01 0.  1.
       -5    1    3    3    0  502  0.64453915444E+03  0.61967123140E+03 -0.24651012822E+03  0.92747640937E+03  0.46999998093E+01 0. -1.
</event>
<event>
 5   0  0.5755250E-06  0.3270758E+04  0.7818609E-02  0.8170376E-01
        2   -1    0    0  501    0  0.00000000000E+00  0.00000000000E+00  0.14447425461E+04  0.14447425461E+04  0.25500000920E-02 0.  1.
       -2   -1    0    0    0  501  0.00000000000E+00  0.00000000000E+00 -0.18511700912E+04  0.18511700912E+04  0.25500000920E-02 0. -1.
    10030    2    1    2    0    0  0.00000000000E+00  0.00000000000E+00 -0.40642754513E+03  0.32959126373E+04  0.32707578270E+04 0.  0.
        5    1    3    3  502    0 -0.12030518883E+04 -0.42673041466E+03  0.82690523892E+03  0.15209296686E+04  0.46999998093E+01 0.  1.
       -5    1    3    3    0  502  0.12030518883E+04  0.42673041466E+03 -0.12333327841E+04  0.17749829686E+04  0.46999998093E+01 0. -1.
</event>
<event>
 5   0  0.5622811E-06  0.2461974E+04  0.7818609E-02  0.8416659E-01
       -2   -1    0    0    0  501  0.00000000000E+00  0.00000000000E+00  0.14120636551E+04  0.14120636551E+04  0.25500000920E-02 0. -1.
        2   -1    0    0  501    0  0.00000000000E+00  0.00000000000E+00 -0.10731305575E+04  0.10731305575E+04  0.25500000920E-02 0.  1.
    10030    2    1    2    0    0  0.00000000000E+00  0.00000000000E+00  0.33893309760E+03  0.24851942126E+04  0.24619737264E+04 0.  0.
        1    1    3    3  502    0  0.65862792268E+03  0.10124433074E+04  0.40939821053E+03  0.12753192094E+04  0.50400001928E-02 0. -1.
       -1    1    3    3    0  502 -0.65862792268E+03 -0.10124433074E+04 -0.70465112931E+02  0.12098750032E+04  0.50400001928E-02 0.  1.
</event>
<event>
 5   0  0.2097842E-06  0.3351009E+04  0.7818609E-02  0.8150036E-01
       -1   -1    0    0    0  501  0.00000000000E+00  0.00000000000E+00  0.20631471223E+04  0.20631471223E+04  0.50400001928E-02 0.  1.
        1   -1    0    0  501    0  0.00000000000E+00  0.00000000000E+00 -0.13606954998E+04  0.13606954998E+04  0.50400001928E-02 0. -1.
    10030    2    1    2    0    0  0.00000000000E+00  0.00000000000E+00  0.70245162252E+03  0.34238426221E+04  0.33510088062E+04 0.  0.
        4    1    3    3  502    0 -0.16298691222E+04  0.72121383366E+02  0.74114659699E+03  0.17919192896E+04  0.12699999809E+01 0.  1.
       -4    1    3    3    0  502  0.16298691222E+04 -0.72121383366E+02 -0.38694974474E+02  0.16319233325E+04  0.12699999809E+01 0. -1.
</event>
<event>
 5   0  0.1878000E-06  0.2800761E+04  0.7818609E-02  0.8303032E-01
        3   -1    0    0  501    0  0.00000000000E+00  0.00000000000E+00  0.20625846812E+04  0.20625846837E+04  0.10100000352E+00 0. -1.
       -3   -1    0    0    0  501  0.00000000000E+00  0.00000000000E+00 -0.95078081572E+03  0.95078082108E+03  0.10100000352E+00 0.  1.
    10030    2    1    2    0    0  0.00000000000E+00  0.00000000000E+00  0.11118038655E+04  0.30133655048E+04  0.28007612947E+04 0.  0.
        4    1    3    3  502    0  0.98635408185E+03 -0.76568889046E+03  0.12379729295E+04  0.17583379763E+04  0.12699999809E+01 0. -1.
       -4    1    3    3    0  502 -0.98635408185E+03  0.76568889046E+03 -0.12616906397E+03  0.12550275285E+04  0.12699999809E+01 0.  1.
</event>
<event>
 5   0  0.5755250E-06  0.3465270E+04  0.7818609E-02  0.8122070E-01
        2   -1    0    0  501    0  0.00000000000E+00  0.00000000000E+00  0.24228218042E+04  0.24228218042E+04  0.25500000920E-02 0. -1.
       -2   -1    0    0    0  501  0.00000000000E+00  0.00000000000E+00 -0.12390613533E+04  0.12390613533E+04  0.25500000920E-02 0.  1.
    10030    2    1    2    0    0  0.00000000000E+00  0.00000000000E+00  0.11837604509E+04  0.36618831576E+04  0.34652704735E+04 0.  0.
        5    1    3    3  502    0 -0.57160036284E+03  0.16276717426E+04  0.42161582725E+03  0.17759009748E+04  0.46999998093E+01 0. -1.
       -5    1    3    3    0  502  0.57160036284E+03 -0.16276717426E+04  0.76214462363E+03  0.18859821828E+04  0.46999998093E+01 0.  1.
</event>
<event>
 5   0  0.5637538E-06  0.3585967E+04  0.7818609E-02  0.8093714E-01
        2   -1    0    0  501    0  0.00000000000E+00  0.00000000000E+00  0.29767468501E+04  0.29767468501E+04  0.25500000920E-02 0. -1.
       -2   -1    0    0    0  501  0.00000000000E+00  0.00000000000E+00 -0.10799673268E+04  0.10799673268E+04  0.25500000920E-02 0.  1.
    10030    2    1    2    0    0  0.00000000000E+00  0.00000000000E+00  0.18967795233E+04  0.40567141769E+04  0.35859667251E+04 0.  0.
        2    1    3    3  502    0 -0.75031315353E+03 -0.15260301975E+04  0.30540018598E+03  0.17277173570E+04  0.25500000920E-02 0. -1.
       -2    1    3    3    0  502  0.75031315353E+03  0.15260301975E+04  0.15913793373E+04  0.23289968199E+04  0.25500000920E-02 0.  1.
</event>
<event>
 5   0  0.5855568E-06  0.3403662E+04  0.7818609E-02  0.8137008E-01
       -2   -1    0    0    0  501  0.00000000000E+00  0.00000000000E+00  0.18671871101E+04  0.18671871101E+04  0.25500000920E-02 0. -1.
        2   -1    0    0  501    0  0.00000000000E+00  0.00000000000E+00 -0.15511184311E+04  0.15511184311E+04  0.25500000920E-02 0.  1.
    10030    2    1    2    0    0  0.00000000000E+00  0.00000000000E+00  0.31606867905E+03  0.34183055412E+04  0.34036617581E+04 0.  0.
        3    1    3    3  502    0  0.57719671822E+03 -0.62607146607E+03  0.16378413400E+04  0.18459809851E+04  0.10100000352E+00 0. -1.
       -3    1    3    3    0  502 -0.57719671822E+03  0.62607146607E+03 -0.13217726610E+04  0.15723245561E+04  0.10100000352E+00 0.  1.
</event>
<event>
 5   0  0.1925906E-06  0.2417229E+04  0.7818609E-02  0.8433081E-01
        1   -1    0    0  501    0  0.00000000000E+00  0.00000000000E+00  0.16393101568E+04  0.16393101568E+04  0.50400001928E-02 0. -1.
       -1   -1    0    0    0  501  0.00000000000E+00  0.00000000000E+00 -0.89107564560E+03  0.89107564561E+03  0.50400001928E-02 0.  1.
    10030    2    1    2    0    0  0.00000000000E+00  0.00000000000E+00  0.74823451117E+03  0.25303858024E+04  0.24172292868E+04 0.  0.
        1    1    3    3  502    0  0.41824133756E+03 -0.92560787417E+03  0.10598182722E+04  0.14679545372E+04  0.50400001928E-02 0. -1.
       -1    1    3    3    0  502 -0.41824133756E+03  0.92560787417E+03 -0.31158376098E+03  0.10624312652E+04  0.50400001928E-02 0.  1.
</event>
<event>
 5   0  0.5855568E-06  0.2723118E+04  0.7818609E-02  0.8327543E-01
        2   -1    0    0  501    0  0.00000000000E+00  0.00000000000E+00  0.17767456371E+04  0.17767456371E+04  0.25500000920E-02 0.  1.
       -2   -1    0    0    0  501  0.00000000000E+00  0.00000000000E+00 -0.10433920826E+04  0.10433920826E+04  0.25500000920E-02 0. -1.
    10030    2    1    2    0    0  0.00000000000E+00  0.00000000000E+00  0.73335355452E+03  0.28201377198E+04  0.27231175741E+04 0.  0.
        3    1    3    3  502    0  0.10710285874E+04 -0.83462331017E+03  0.47098267785E+03  0.14371927491E+04  0.10100000352E+00 0.  1.
       -3    1    3    3    0  502 -0.10710285874E+04  0.83462331017E+03  0.26237087667E+03  0.13829449707E+04  0.10100000352E+00 0. -1.
</event>
<event>
 5   0  0.5755250E-06  0.1803820E+04  0.7818609E-02  0.8704270E-01
       -2   -1    0    0    0  501  0.00000000000E+00  0.00000000000E+00  0.11329627642E+04  0.11329627642E+04  0.25500000920E-02 0.  1.
        2   -1    0    0  501    0  0.00000000000E+00  0.00000000000E+00 -0.71797768599E+03  0.71797768600E+03  0.25500000920E-02 0. -1.
    10030    2    1    2    0    0  0.00000000000E+00  0.00000000000E+00  0.41498507824E+03  0.18509404502E+04  0.18038203722E+04 0.  0.
        5    1    3    3  502    0 -0.85639674744E+03 -0.22502495642E+03  0.38334091793E+03  0.96489583345E+03  0.46999998093E+01 0.  1.
       -5    1    3    3    0  502  0.85639674744E+03  0.22502495642E+03  0.31644160302E+02  0.88604461678E+03  0.46999998093E+01 0. -1.
</event>
<event>
 5   0  0.1925906E-06  0.2271871E+04  0.7818609E-02  0.8489095E-01
        1   -1    0    0  501    0  0.00000000000E+00  0.00000000000E+00  0.99113995993E+03  0.99113995994E+03  0.50400001928E-02 0.  1.
       -1   -1    0    0    0  501  0.00000000000E+00  0.00000000000E+00 -0.13018841249E+04  0.13018841249E+04  0.50400001928E-02 0. -1.
    10030    2    1    2    0    0  0.00000000000E+00  0.00000000000E+00 -0.31074416497E+03  0.22930240849E+04  0.22718709289E+04 0.  0.
        1    1    3    3  502    0 -0.42582616470E+03 -0.90192325683E+03 -0.70408448359E+03  0.12208720014E+04  0.50400001928E-02 0. -1.
       -1    1    3    3    0  502  0.42582616470E+03  0.90192325683E+03  0.39334031862E+03  0.10721520834E+04  0.50400001928E-02 0.  1.
</event>
<event>
 5   0  0.2037109E-06  0.3165970E+04  0.7818609E-02  0.8197863E-01
       -1   -1    0    0    0  501  0.00000000000E+00  0.00000000000E+00  0.24306843434E+04  0.24306843434E+04  0.50400001928E-02 0. -1.
        1   -1    0    0  501    0  0.00000000000E+00  0.00000000000E+00 -0.10309203812E+04  0.10309203812E+04  0.50400001928E-02 0.  1.
    10030    2    1    2    0    0  0.00000000000E+00  0.00000000000E+00  0.13997639623E+04  0.34616047246E+04  0.31659703282E+04 0.  0.
        2    1    3    3  502    0  0.14859477614E+04 -0.46305901119E+03  0.38416683730E+03  0.16031370984E+04  0.25500000920E-02 0.  1.
       -2    1    3    3    0  502 -0.14859477614E+04  0.46305901119E+03  0.10155971250E+04  0.18584676262E+04  0.25500000920E-02 0. -1.
</event>
<event>
 5   0  0.5300268E-06  0.2047915E+04  0.7818609E-02  0.8584541E-01
        2   -1    0    0  501    0  0.00000000000E+00  0.00000000000E+00  0.30423402906E+04  0.30423402906E+04  0.25500000920E-02 0.  1.
       -2   -1    0    0    0  501  0.00000000000E+00  0.00000000000E+00 -0.34463227055E+03  0.34463227056E+03  0.25500000920E-02 0. -1.
    10030    2    1    2    0    0  0.00000000000E+00  0.00000000000E+00  0.26977080200E+04  0.33869725611E+04  0.20479146878E+04 0.  0.
        4    1    3    3  502    0 -0.71303367107E+03 -0.35334306302E+02  0.25628640426E+04  0.26604396710E+04  0.12699999809E+01 0.  1.
       -4    1    3    3    0  502  0.71303367107E+03  0.35334306302E+02  0.13484397742E+03  0.72653289012E+03  0.12699999809E+01 0. -1.
</event>
<event>
 5   0  0.5300268E-06  0.3285439E+04  0.7818609E-02  0.8166610E-01
       -2   -1    0    0    0  501  0.00000000000E+00  0.00000000000E+00  0.13187543537E+04  0.13187543537E+04  0.25500000920E-02 0.  1.
        2   -1    0    0  501    0  0.00000000000E+00  0.00000000000E+00 -0.20462695885E+04  0.20462695885E+04  0.25500000920E-02 0. -1.
    10030    2    1    2    0    0  0.00000000000E+00  0.00000000000E+00 -0.72751523487E+03  0.33650239422E+04  0.32854387400E+04 0.  0.
        4    1    3    3  502    0 -0.71527699406E+03  0.24041747977E+03  0.11307329530E+04  0.13594044161E+04  0.12699999809E+01 0.  1.
       -4    1    3    3    0  502  0.71527699406E+03 -0.24041747977E+03 -0.18582481878E+04  0.20056195261E+04  0.12699999809E+01 0. -1.
</event>
<event>
 5   0  0.5637538E-06  0.2894934E+04  0.7818609E-02  0.8274386E-01
       -2   -1    0    0    0  501  0.00000000000E+00  0.00000000000E+00  0.11063812701E+04  0.11063812701E+04  0.25500000920E-02 0. -1.
        2   -1    0    0  501    0  0.00000000000E+00  0.00000000000E+00 -0.18937057292E+04  0.18937057292E+04  0.25500000920E-02 0.  1.
    10030    2    1    2    0    0  0.00000000000E+00  0.00000000000E+00 -0.78732445905E+03  0.30000869993E+04  0.28949338852E+04 0.  0.
        2    1    3    3  502    0  0.90633491331E+03  0.16110149483E+02 -0.15631280106E+04  0.18069509372E+04  0.25500000920E-02 0.  1.
       -2    1    3    3    0  502 -0.90633491331E+03 -0.16110149483E+02  0.77580355155E+03  0.11931360621E+04  0.25500000920E-02 0. -1.
</event>
<event>
 5   0  0.5622811E-06  0.3525343E+04  0.7818609E-02  0.8107810E-01
        2   -1    0    0  501    0  0.00000000000E+00  0.00000000000E+00  0.22537152568E+04  0.22537152569E+04  0.25500000920E-02 0. -1.
       -2   -1    0    0    0  501  0.00000000000E+00  0.00000000000E+00 -0.13786171852E+04  0.13786171852E+04  0.25500000920E-02 0.  1.
    10030    2    1    2    0    0  0.00000000000E+00  0.00000000000E+00  0.87509807162E+03  0.36323324421E+04  0.35253428677E+04 0.  0.
        1    1    3    3  502    0  0.14473516789E+04  0.97223110051E+03  0.17094864690E+03  0.17519371093E+04  0.50400001928E-02 0. -1.
       -1    1    3    3    0  502 -0.14473516789E+04 -0.97223110051E+03  0.70414942472E+03  0.18803953328E+04  0.50400001928E-02 0.  1.
</event>
<event>
 5   0  0.5300268E-06  0.3251635E+04  0.7818609E-02  0.8175312E-01
        2   -1    0    0  501    0  0.00000000000E+00  0.00000000000E+00  0.17050409272E+04  0.17050409272E+04  0.25500000920E-02 0. -1.
       -2   -1    0    0    0  501  0.00000000000E+00  0.00000000000E+00 -0.15502748950E+04  0.15502748950E+04  0.25500000920E-02 0.  1.
    10030    2    1    2    0    0  0.00000000000E+00  0.00000000000E+00  0.15476603221E+03  0.32553158223E+04  0.32516347547E+04 0.  0.
        4    1    3    3  502    0 -0.12796496448E+04 -0.98889090597E+03  0.24452139041E+03  0.16356040965E+04  0.12699999809E+01 0. -1.
       -4    1    3    3    0  502  0.12796496448E+04  0.98889090597E+03 -0.89755358202E+02  0.16197117258E+04  0.12699999809E+01 0.  1.
</event>
<event>
 5   0  0.5855568E-06  0.3191727E+04  0.7818609E-02  0.8191005E-01
       -2   -1    0    0    0  501  0.00000000000E+00  0.00000000000E+00  0.98293775680E+03  0.98293775680E+03  0.25500000920E-02 0. -1.
        2   -1    0    0  501    0  0.00000000000E+00  0.00000000000E+00 -0.25909882536E+04  0.25909882536E+04  0.25500000920E-02 0.  1.
    10030    2    1    2    0    0  0.00000000000E+00  0.00000000000E+00 -0.16080504968E+04  0.35739260104E+04  0.31917269193E+04 0.  0.
        3    1    3    3  502    0 -0.32172909955E+03  0.11976755293E+04 -0.19287126067E+04  0.22930042774E+04  0.10100000352E+00 0.  1.
       -3    1    3    3    0  502  0.32172909955E+03 -0.11976755293E+04  0.32066210987E+03  0.12809217329E+04  0.10100000352E+00 0. -1.
</event>
<event>
 5   0  0.1925906E-06  0.3316312E+04  0.7818609E-02  0.8158757E-01
       -1   -1    0    0    0  501  0.00000000000E+00  0.00000000000E+00  0.26418778236E+04  0.26418778236E+04  0.50400001928E-02 0. -1.
        1   -1    0    0  501    0  0.00000000000E+00  0.00000000000E+00 -0.10407300996E+04  0.10407300996E+04  0.50400001928E-02 0.  1.
    10030    2    1    2    0    0  0.00000000000E+00  0.00000000000E+00  0.16011477240E+04  0.36826079233E+04  0.33163122715E+04 0.  0.
        1    1    3    3  502    0  0.70440676941E+02  0.17957409269E+03 -0.10282284738E+04  0.10461656361E+04  0.50400001928E-02 0.  1.
       -1    1    3    3    0  502 -0.70440676941E+02 -0.17957409269E+03  0.26293761979E+04  0.26364422872E+04  0.50400001928E-02 0. -1.
</event>
<event>
 5   0  0.1925906E-06  0.3185440E+04  0.7818609E-02  0.8192673E-01
       -1   -1    0    0    0  501  0.00000000000E+00  0.00000000000E+00  0.15401142083E+04  0.15401142083E+04  0.50400001928E-02 0.  1.
        1   -1    0    0  501    0  0.00000000000E+00  0.00000000000E+00 -0.16471229935E+04  0.16471229935E+04  0.50400001928E-02 0. -1.
    10030    2    1    2    0    0  0.00000000000E+00  0.00000000000E+00 -0.10700878523E+03  0.31872372018E+04  0.31854403307E+04 0.  0.
        1    1    3    3  502    0 -0.67919524458E+02  0.14241325238E+04  0.65681931498E+03  0.15697700850E+04  0.50400001928E-02 0.  1.
       -1    1    3    3    0  502  0.67919524458E+02 -0.14241325238E+04 -0.76382810021E+03  0.16174671168E+04  0.50400001928E-02 0. -1.
</event>
<event>
 5   0  0.2097842E-06  0.3508582E+04  0.7818609E-02  0.8111759E-01
       -1   -1    0    0    0  501  0.00000000000E+00  0.00000000000E+00  0.15695016612E+04  0.15695016612E+04  0.50400001928E-02 0.  1.
        1   -1    0    0  501    0  0.00000000000E+00  0.00000000000E+00 -0.19608373179E+04  0.19608373179E+04  0.50400001928E-02 0. -1.
    10030    2    1    2    0    0  0.00000000000E+00  0.00000000000E+00 -0.39133565671E+03  0.35303389791E+04  0.35085822936E+04 0.  0.
        4    1    3    3  502    0  0.11618313163E+04 -0.17863558049E+03  0.11146257606E+04  0.16199243431E+04  0.12699999809E+01 0.  1.
       -4    1    3    3    0  502 -0.11618313163E+04  0.17863558049E+03 -0.15059614173E+04  0.19104146360E+04  0.12699999809E+01 0. -1.
</event>
<event>
 5   0  0.1925906E-06  0.2297981E+04  0.7818609E-02  0.8478717E-01
        1   -1    0    0  501    0  0.00000000000E+00  0.00000000000E+00  0.89800041402E+03  0.89800041403E+03  0.50400001928E-02 0.  1.
       -1   -1    0    0    0  501  0.00000000000E+00  0.00000000000E+00 -0.14701323844E+04  0.14701323844E+04  0.50400001928E-02 0. -1.
    10030    2    1    2    0    0  0.00000000000E+00  0.00000000000E+00 -0.57213197038E+03  0.23681327984E+04  0.22979812792E+04 0.  0.
        1    1    3    3  502    0 -0.45655257540E+03 -0.60128873624E+03  0.60651065725E+03  0.96842324209E+03  0.50400001928E-02 0.  1.
       -1    1    3    3    0  502  0.45655257540E+03  0.60128873624E+03 -0.11786426276E+04  0.13997095563E+04  0.50400001928E-02 0. -1.
</event>
<event>
 5   0  0.5622811E-06  0.3365666E+04  0.7818609E-02  0.8146385E-01
       -2   -1    0    0    0  501  0.00000000000E+00  0.00000000000E+00  0.16788858599E+04  0.16788858599E+04  0.25500000920E-02 0.  1.
        2   -1    0    0  501    0  0.00000000000E+00  0.00000000000E+00 -0.16867896180E+04  0.16867896180E+04  0.25500000920E-02 0. -1.
    10030    2    1    2    0    0  0.00000000000E+00  0.00000000000E+00 -0.79037581473E+01  0.33656754779E+04  0.33656661976E+04 0.  0.
        1    1    3    3  502    0  0.10694568429E+04 -0.18815206489E+03  0.12816597320E+04  0.16798186828E+04  0.50400001928E-02 0.  1.
       -1    1    3    3    0  502 -0.10694568429E+04  0.18815206489E+03 -0.12895634902E+04  0.16858567951E+04  0.50400001928E-02 0. -1.
</event>
<event>
 5   0  0.5300268E-06  0.3283343E+04  0.7818609E-02  0.8167147E-01
        2   -1    0    0  501    0  0.00000000000E+00  0.00000000000E+00  0.24899601259E+04  0.24899601259E+04  0.25500000920E-02 0.  1.
       -2   -1    0    0    0  501  0.00000000000E+00  0.00000000000E+00 -0.10823811442E+04  0.10823811442E+04  0.25500000920E-02 0. -1.
    10030    2    1    2    0    0  0.00000000000E+00  0.00000000000E+00  0.14075789817E+04  0.35723412701E+04  0.32833433510E+04 0.  0.
        4    1    3    3  502    0  0.60385898080E+03 -0.78738390671E+03 -0.71917400953E+03  0.12254925353E+04  0.12699999809E+01 0. -1.
       -4    1    3    3    0  502 -0.60385898080E+03  0.78738390671E+03  0.21267529913E+04  0.23468487348E+04  0.12699999809E+01 0.  1.
</event>
<event>
 5   0  0.5637538E-06  0.1650739E+04  0.7818609E-02  0.8789970E-01
       -2   -1    0    0    0  501  0.00000000000E+00  0.00000000000E+00  0.82788562909E+03  0.82788562909E+03  0.25500000920E-02 0. -1.
        2   -1    0    0  501    0  0.00000000000E+00  0.00000000000E+00 -0.82286083120E+03  0.82286083121E+03  0.25500000920E-02 0.  1.
    10030    2    1    2    0    0  0.00000000000E+00  0.00000000000E+00  0.50247978856E+01  0.16507464603E+04  0.16507388127E+04 0.  0.
        2    1    3    3  502    0  0.79340007620E+03 -0.20175933380E+02  0.22910538964E+03  0.82606296901E+03  0.25500000920E-02 0. -1.
       -2    1    3    3    0  502 -0.79340007620E+03  0.20175933380E+02 -0.22408059175E+03  0.82468349129E+03  0.25500000920E-02 0.  1.
</event>
<event>
 5   0  0.1999849E-06  0.1923468E+04  0.7818609E-02  0.8643262E-01
        1   -1    0    0  501    0  0.00000000000E+00  0.00000000000E+00  0.13987474897E+04  0.13987474897E+04  0.50400001928E-02 0.  1.
       -1   -1    0    0    0  501  0.00000000000E+00  0.00000000000E+00 -0.66125726273E+03  0.66125726275E+03  0.50400001928E-02 0. -1.
    10030    2    1    2    0    0  0.00000000000E+00  0.00000000000E+00  0.73749022699E+03  0.20600047525E+04  0.19234676356E+04 0.  0.
        5    1    3    3  502    0  0.75020281991E+03  0.57494935346E+03  0.55894315200E+03  0.10980940612E+04  0.46999998093E+01 0.  1.
       -5    1    3    3    0  502 -0.75020281991E+03 -0.57494935346E+03  0.17854707499E+03  0.96191069130E+03  0.46999998093E+01 0. -1.
</event>
<event>
 5   0  0.2730981E-06  0.3315264E+04  0.7818609E-02  0.8159022E-01
       -1   -1    0    0    0  501  0.00000000000E+00  0.00000000000E+00  0.12547912301E+04  0.12547912301E+04  0.50400001928E-02 0. -1.
        1   -1    0    0  501    0  0.00000000000E+00  0.00000000000E+00 -0.21898018520E+04  0.21898018520E+04  0.50400001928E-02 0.  1.
    10030    2    1    2    0    0  0.00000000000E+00  0.00000000000E+00 -0.93501062192E+03  0.34445930821E+04  0.33152641883E+04 0.  0.
        3    1    3    3  502    0 -0.89669225766E+03  0.39341101880E+03  0.92217410619E+03  0.13450778145E+04  0.10100000352E+00 0. -1.
       -3    1    3    3    0  502  0.89669225766E+03 -0.39341101880E+03 -0.18571847281E+04  0.20995152677E+04  0.10100000352E+00 0.  1.
</event>
<event>
 5   0  0.5622811E-06  0.2488896E+04  0.7818609E-02  0.8406952E-01
        2   -1    0    0  501    0  0.00000000000E+00  0.00000000000E+00  0.28107408790E+04  0.28107408790E+04  0.25500000920E-02 0.  1.
       -2   -1    0    0    0  501  0.00000000000E+00  0.00000000000E+00 -0.55097605251E+03  0.55097605252E+03  0.25500000920E-02 0. -1.
    10030    2    1    2    0    0  0.00000000000E+00  0.00000000000E+00  0.22597648265E+04  0.33617169316E+04  0.24888960719E+04 0.  0.
        1    1    3    3  502    0  0.24122896079E+03  0.11704872673E+04  0.15985900129E+04  0.19959263223E+04  0.50400001928E-02 0.  1.
       -1    1    3    3    0  502 -0.24122896079E+03 -0.11704872673E+04  0.66117481357E+03  0.13657906093E+04  0.50400001928E-02 0. -1.
</event>
<event>
 5   0  0.2097842E-06  0.2919099E+04  0.7818609E-02  0.8267218E-01
       -1   -1    0    0    0  501  0.00000000000E+00  0.00000000000E+00  0.10856162600E+04  0.10856162600E+04  0.50400001928E-02 0.  1.
        1   -1    0    0  501    0  0.00000000000E+00  0.00000000000E+00 -0.19622811434E+04  0.19622811434E+04  0.50400001928E-02 0. -1.
    10030    2    1    2    0    0  0.00000000000E+00  0.00000000000E+00 -0.87666488341E+03  0.30478974035E+04  0.29190987075E+04 0.  0.
        4    1    3    3  502    0  0.10126060718E+04 -0.10225407529E+04 -0.69264022825E+03  0.15970950963E+04  0.12699999809E+01 0. -1.
       -4    1    3    3    0  502 -0.10126060718E+04  0.10225407529E+04 -0.18402465516E+03  0.14508023072E+04  0.12699999809E+01 0.  1.
</event>
<event>
 5   0  0.2730981E-06  0.2285303E+04  0.7818609E-02  0.8483739E-01
       -1   -1    0    0    0  501  0.00000000000E+00  0.00000000000E+00  0.72139498300E+03  0.72139498302E+03  0.50400001928E-02 0.  1.
        1   -1    0    0  501    0  0.00000000000E+00  0.00000000000E+00 -0.18098990889E+04  0.18098990889E+04  0.50400001928E-02 0. -1.
    10030    2    1    2    0    0  0.00000000000E+00  0.00000000000E+00 -0.10885041059E+04  0.25312940719E+04  0.22853027130E+04 0.  0.
        3    1    3    3  502    0  0.40668391986E+03 -0.16681886508E+03 -0.17125014300E+04  0.17680162620E+04  0.10100000352E+00 0. -1.
       -3    1    3    3    0  502 -0.40668391986E+03  0.16681886508E+03  0.62399732416E+03  0.76327780996E+03  0.10100000352E+00 0.  1.
</event>
<event>
 5   0  0.1925906E-06  0.1861865E+04  0.7818609E-02  0.8674075E-01
       -1   -1    0    0    0  501  0.00000000000E+00  0.00000000000E+00  0.56991066924E+03  0.56991066926E+03  0.50400001928E-02 0.  1.
        1   -1    0    0  501    0  0.00000000000E+00  0.00000000000E+00 -0.15206505360E+04  0.15206505360E+04  0.50400001928E-02 0. -1.
    10030    2    1    2    0    0  0.00000000000E+00  0.00000000000E+00 -0.95073986674E+03  0.20905612052E+04  0.18618646188E+04 0.  0.
        1    1    3    3  502    0 -0.13909310097E+03 -0.92048125113E+03 -0.47365224776E+03  0.10444994381E+04  0.50400001928E-02 0.  1.
       -1    1    3    3    0  502  0.13909310097E+03  0.92048125113E+03 -0.47708761898E+03  0.10460617671E+04  0.50400001928E-02 0. -1.
</event>
<event>
 5   0  0.1999849E-06  0.1675348E+04  0.7818609E-02  0.8775550E-01
        1   -1    0    0  501    0  0.00000000000E+00  0.00000000000E+00  0.83328963188E+03  0.83328963190E+03  0.50400001928E-02 0.  1.
       -1   -1    0    0    0  501  0.00000000000E+00  0.00000000000E+00 -0.84208150914E+03  0.84208150916E+03  0.50400001928E-02 0. -1.
    10030    2    1    2    0    0  0.00000000000E+00  0.00000000000E+00 -0.87918772572E+01  0.16753711411E+04  0.16753480722E+04 0.  0.
        5    1    3    3  502    0  0.45201423869E+03  0.33732406467E+03 -0.62373580292E+03  0.84093569221E+03  0.46999998093E+01 0. -1.
       -5    1    3    3    0  502 -0.45201423869E+03 -0.33732406467E+03  0.61494392566E+03  0.83443544885E+03  0.46999998093E+01 0.  1.
</event>
<event>
 5   0  0.2730981E-06  0.3201587E+04  0.7818609E-02  0.8188398E-01
       -1   -1    0    0    0  501  0.00000000000E+00  0.00000000000E+00  0.18706942198E+04  0.18706942198E+04  0.50400001928E-02 0.  1.
        1   -1    0    0  501    0  0.00000000000E+00  0.00000000000E+00 -0.13698334485E+04  0.13698334485E+04  0.50400001928E-02 0. -1.
    10030    2    1    2    0    0  0.00000000000E+00  0.00000000000E+00  0.50086077135E+03  0.32405276683E+04  0.32015868029E+04 0.  0.
        3    1    3    3  502    0 -0.15395720331E+04 -0.35343728808E+03 -0.12224530054E+02  0.15796675001E+04  0.10100000352E+00 0. -1.
       -3    1    3    3    0  502  0.15395720331E+04  0.35343728808E+03  0.51308530141E+03  0.16608601682E+04  0.10100000352E+00 0.  1.
</event>
<event>
 5   0  0.5300268E-06  0.3361161E+04  0.7818609E-02  0.8147505E-01
       -2   -1    0    0    0  501  0.00000000000E+00  0.00000000000E+00  0.18811840106E+04  0.18811840106E+04  0.25500000920E-02 0. -1.
        2   -1    0    0  501    0  0.00000000000E+00  0.00000000000E+00 -0.15013689507E+04  0.15013689507E+04  0.25500000920E-02 0.  1.
    10030    2    1    2    0    0  0.00000000000E+00  0.00000000000E+00  0.37981505993E+03  0.33825529613E+04  0.33611612661E+04 0.  0.
        4    1    3    3  502    0  0.56512110849E+03  0.14756988703E+03 -0.13959422968E+04  0.15132069415E+04  0.12699999809E+01 0.  1.
       -4    1    3    3    0  502 -0.56512110849E+03 -0.14756988703E+03  0.17757573568E+04  0.18693460198E+04  0.12699999809E+01 0. -1.
</event>
<event>
 5   0  0.5622811E-06  0.3329012E+04  0.7818609E-02  0.8155552E-01
        2   -1    0    0  501    0  0.00000000000E+00  0.00000000000E+00  0.19335191528E+04  0.19335191528E+04  0.25500000920E-02 0. -1.
       -2   -1    0    0    0  501  0.00000000000E+00  0.00000000000E+00 -0.14329210689E+04  0.14329210689E+04  0.25500000920E-02 0.  1.
    10030    2    1    2    0    0  0.00000000000E+00  0.00000000000E+00  0.50059808387E+03  0.33664402217E+04  0.33290120644E+04 0.  0.
        1    1    3    3  502    0  0.14027459909E+04  0.24260441227E+03 -0.62196891671E+03  0.15535116830E+04  0.50400001928E-02 0.  1.
       -1    1    3    3    0  502 -0.14027459909E+04 -0.24260441227E+03  0.11225670006E+04  0.18129285387E+04  0.50400001928E-02 0. -1.
</event>
<event>
 5   0  0.2097842E-06  0.1751355E+04  0.7818609E-02  0.8732605E-01
       -1   -1    0    0    0  501  0.00000000000E+00  0.00000000000E+00  0.84093934074E+03  0.84093934076E+03  0.50400001928E-02 0. -1.
        1   -1    0    0  501    0  0.00000000000E+00  0.00000000000E+00 -0.91185077124E+03  0.91185077126E+03  0.50400001928E-02 0.  1.
    10030    2    1    2    0    0  0.00000000000E+00  0.00000000000E+00 -0.70911430500E+02  0.17527901120E+04  0.17513551170E+04 0.  0.
        4    1    3    3  502    0  0.20008771731E+03  0.83936801312E+03  0.11378325691E+03  0.87035739700E+03  0.12699999809E+01 0. -1.
       -4    1    3    3    0  502 -0.20008771731E+03 -0.83936801312E+03 -0.18469468741E+03  0.88243271501E+03  0.12699999809E+01 0.  1.
</event>
<event>
 5   0  0.5755250E-06  0.3058773E+04  0.7818609E-02  0.8227144E-01
        2   -1    0    0  501    0  0.00000000000E+00  0.00000000000E+00  0.19916427865E+04  0.19916427865E+04  0.25500000920E-02 0. -1.
       -2   -1    0    0    0  501  0.00000000000E+00  0.00000000000E+00 -0.11744188808E+04  0.11744188808E+04  0.25500000920E-02 0.  1.
    10030    2    1    2    0    0  0.00000000000E+00  0.00000000000E+00  0.81722390578E+03  0.31660616673E+04  0.30587728861E+04 0.  0.
        5    1    3    3  502    0  0.13296524484E+04  0.75547872015E+03  0.42584129063E+03  0.15874780707E+04  0.46999998093E+01 0. -1.
       -5    1    3    3    0  502 -0.13296524484E+04 -0.75547872015E+03  0.39138261515E+03  0.15785835966E+04  0.46999998093E+01 0.  1.
</event>
<event>
 5   0  0.2097842E-06  0.3320824E+04  0.7818609E-02  0.8157617E-01
       -1   -1    0    0    0  501  0.00000000000E+00  0.00000000000E+00  0.12454825345E+04  0.12454825345E+04  0.50400001928E-02 0. -1.
        1   -1    0    0  501    0  0.00000000000E+00  0.00000000000E+00 -0.22135748161E+04  0.22135748161E+04  0.50400001928E-02 0.  1.
    10030    2    1    2    0    0  0.00000000000E+00  0.00000000000E+00 -0.96809228159E+03  0.34590573506E+04  0.33208244592E+04 0.  0.
        4    1    3    3  502    0  0.14107400298E+04  0.55219414936E+03 -0.11919391986E+04  0.19276479130E+04  0.12699999809E+01 0.  1.
       -4    1    3    3    0  502 -0.14107400298E+04 -0.55219414936E+03  0.22384691700E+03  0.15314094376E+04  0.12699999809E+01 0. -1.
</event>
<event>
 5   0  0.2164150E-06  0.1679269E+04  0.7818609E-02  0.8773277E-01
        1   -1    0    0  501    0  0.00000000000E+00  0.00000000000E+00  0.12604936078E+04  0.12604936078E+04  0.50400001928E-02 0.  1.
       -1   -1    0    0    0  501  0.00000000000E+00  0.00000000000E+00 -0.55929394696E+03  0.55929394698E+03  0.50400001928E-02 0. -1.
    10030    2    1    2    0    0  0.00000000000E+00  0.00000000000E+00  0.70119966088E+03  0.18197875548E+04  0.16792694186E+04 0.  0.
        1    1    3    3  502    0  0.70645329322E+03 -0.20221797226E+03  0.79081608873E+03  0.10795176932E+04  0.50400001928E-02 0.  1.
       -1    1    3    3    0  502 -0.70645329322E+03  0.20221797226E+03 -0.89616427851E+02  0.74026986158E+03  0.50400001928E-02 0. -1.
</event>
<event>
 5   0  0.1925906E-06  0.2003464E+04  0.7818609E-02  0.8605003E-01
       -1   -1    0    0    0  501  0.00000000000E+00  0.00000000000E+00  0.87384111780E+03  0.87384111781E+03  0.50400001928E-02 0. -1.
        1   -1    0    0  501    0  0.00000000000E+00  0.00000000000E+00 -0.11483406382E+04  0.11483406382E+04  0.50400001928E-02 0.  1.
    10030    2    1    2    0    0  0.00000000000E+00  0.00000000000E+00 -0.27449952040E+03  0.20221817560E+04  0.20034642666E+04 0.  0.
        1    1    3    3  502    0  0.42314417300E+03  0.90090890554E+03 -0.25135199567E+03  0.10265795990E+04  0.50400001928E-02 0. -1.
       -1    1    3    3    0  502 -0.42314417300E+03 -0.90090890554E+03 -0.23147524734E+02  0.99560215707E+03  0.50400001928E-02 0.  1.
</event>
<event>
 5   0  0.2730981E-06  0.3329932E+04  0.7818609E-02  0.8155321E-01
       -1   -1    0    0    0  501  0.00000000000E+00  0.00000000000E+00  0.10653007962E+04  0.10653007962E+04  0.50400001928E-02 0. -1.
        1   -1    0    0  501    0  0.00000000000E+00  0.00000000000E+00 -0.26021862792E+04  0.26021862792E+04  0.50400001928E-02 0.  1.
    10030    2    1    2    0    0  0.00000000000E+00  0.00000000000E+00 -0.15368854830E+04  0.36674870754E+04  0.33299316000E+04 0.  0.
        3    1    3    3  502    0  0.11863905267E+04 -0.58284445736E+03 -0.18834302248E+04  0.23009866504E+04  0.10100000352E+00 0.  1.
       -3    1    3    3    0  502 -0.11863905267E+04  0.58284445736E+03  0.34654474186E+03  0.13665004250E+04  0.10100000352E+00 0. -1.
</event>
<event>
 5   0  0.5755250E-06  0.3119402E+04  0.7818609E-02  0.8210433E-01
       -2   -1    0    0    0  501  0.00000000000E+00  0.00000000000E+00  0.13785581940E+04  0.13785581940E+04  0.25500000920E-02 0. -1.
        2   -1    0    0  501    0  0.00000000000E+00  0.00000000000E+00 -0.17646457345E+04  0.17646457345E+04  0.25500000920E-02 0.  1.
    10030    2    1    2    0    0  0.00000000000E+00  0.00000000000E+00 -0.38608754054E+03  0.31432039285E+04  0.31194017611E+04 0.  0.
        5    1    3    3  502    0  0.71764361727E+03  0.45623140458E+03 -0.15104931270E+04  0.17334275389E+04  0.46999998093E+01 0.  1.
       -5    1    3    3    0  502 -0.71764361727E+03 -0.45623140458E+03  0.11244055864E+04  0.14097763896E+04  0.46999998093E+01 0. -1.
</event>
<event>
 5   0  0.5622811E-06  0.2357255E+04  0.7818609E-02  0.8455682E-01
        2   -1    0    0  501    0  0.00000000000E+00  0.00000000000E+00  0.18970719137E+04  0.18970719137E+04  0.25500000920E-02 0.  1.
       -2   -1    0    0    0  501  0.00000000000E+00  0.00000000000E+00 -0.73226690575E+03  0.73226690576E+03  0.25500000920E-02 0. -1.
    10030    2    1    2    0    0  0.00000000000E+00  0.00000000000E+00  0.11648050079E+04  0.26293388195E+04  0.23572551667E+04 0.  0.
        1    1    3    3  502    0  0.17023740469E+03 -0.72578135087E+03  0.16006957512E+04  0.17657763820E+04  0.50400001928E-02 0.  1.
       -1    1    3    3    0  502 -0.17023740469E+03  0.72578135087E+03 -0.43589074330E+03  0.86356243743E+03  0.50400001928E-02 0. -1.
</event>
<event>
 5   0  0.2097842E-06  0.1983353E+04  0.7818609E-02  0.8614444E-01
        1   -1    0    0  501    0  0.00000000000E+00  0.00000000000E+00  0.17040890921E+04  0.17040890921E+04  0.50400001928E-02 0. -1.
       -1   -1    0    0    0  501  0.00000000000E+00  0.00000000000E+00 -0.57709541327E+03  0.57709541329E+03  0.50400001928E-02 0.  1.
    10030    2    1    2    0    0  0.00000000000E+00  0.00000000000E+00  0.11269936788E+04  0.22811845054E+04  0.19833527159E+04 0.  0.
        4    1    3    3  502    0  0.91050615987E+03  0.51538851126E+02  0.11545939401E+03  0.91924436626E+03  0.12699999809E+01 0.  1.
       -4    1    3    3    0  502 -0.91050615987E+03 -0.51538851126E+02  0.10115342848E+04  0.13619401391E+04  0.12699999809E+01 0. -1.
</event>
<event>
 5   0  0.2730981E-06  0.3392724E+04  0.7818609E-02  0.8139694E-01
        1   -1    0    0  501    0  0.00000000000E+00  0.00000000000E+00  0.16951714283E+04  0.16951714283E+04  0.50400001928E-02 0.  1.
       -1   -1    0    0    0  501  0.00000000000E+00  0.00000000000E+00 -0.16975532423E+04  0.16975532423E+04  0.50400001928E-02 0. -1.
    10030    2    1    2    0    0  0.00000000000E+00  0.00000000000E+00 -0.23818139441E+01  0.33927246706E+04  0.33927238346E+04 0.  0.
        3    1    3    3  502    0 -0.40227100445E+03 -0.15602840589E+04 -0.53160166987E+03  0.16967347026E+04  0.10100000352E+00 0.  1.
       -3    1    3    3    0  502  0.40227100445E+03  0.15602840589E+04  0.52921985592E+03  0.16959899680E+04  0.10100000352E+00 0. -1.
</event>
<event>
 5   0  0.5755250E-06  0.3368399E+04  0.7818609E-02  0.8145706E-01
        2   -1    0    0  501    0  0.00000000000E+00  0.00000000000E+00  0.12043035705E+04  0.12043035705E+04  0.25500000920E-02 0. -1.
       -2   -1    0    0    0  501  0.00000000000E+00  0.00000000000E+00 -0.23553263934E+04  0.23553263934E+04  0.25500000920E-02 0.  1.
    10030    2    1    2    0    0  0.00000000000E+00  0.00000000000E+00 -0.11510228229E+04  0.35596299639E+04  0.33683990175E+04 0.  0.
        5    1    3    3  502    0 -0.84397925118E+03  0.13206363604E+04  0.76033362331E+02  0.15691349640E+04  0.46999998093E+01 0. -1.
       -5    1    3    3    0  502  0.84397925118E+03 -0.13206363604E+04 -0.12270561852E+04  0.19904949999E+04  0.46999998093E+01 0.  1.
</event>
<event>
 5   0  0.1999849E-06  0.3260536E+04  0.7818609E-02  0.8173010E-01
       -1   -1    0    0    0  501  0.00000000000E+00  0.00000000000E+00  0.14330846381E+04  0.14330846381E+04  0.50400001928E-02 0.  1.
        1   -1    0    0  501    0  0.00000000000E+00  0.00000000000E+00 -0.18545820533E+04  0.18545820533E+04  0.50400001928E-02 0. -1.
    10030    2    1    2    0    0  0.00000000000E+00  0.00000000000E+00 -0.42149741522E+03  0.32876666913E+04  0.32605355699E+04 0.  0.
        5    1    3    3  502    0  0.26326938849E+03  0.61453141162E+03 -0.17099940766E+04  0.18360450591E+04  0.46999998093E+01 0. -1.
       -5    1    3    3    0  502 -0.26326938849E+03 -0.61453141162E+03  0.12884966614E+04  0.14516216323E+04  0.46999998093E+01 0.  1.
</event>
<event>
 5   0  0.1925906E-06  0.3429314E+04  0.7818609E-02  0.8130749E-01
        1   -1    0    0  501    0  0.00000000000E+00  0.00000000000E+00  0.24389922060E+04  0.24389922060E+04  0.50400001928E-02 0.  1.
       -1   -1    0    0    0  501  0.00000000000E+00  0.00000000000E+00 -0.12054361449E+04  0.12054361449E+04  0.50400001928E-02 0. -1.
    10030    2    1    2    0    0  0.00000000000E+00  0.00000000000E+00  0.12335560611E+04  0.36444283508E+04  0.34293144284E+04 0.  0.
        1    1    3    3  502    0  0.78516815608E+03  0.60875659361E+03 -0.86837270215E+03  0.13195244497E+04  0.50400001928E-02 0. -1.
       -1    1    3    3    0  502 -0.78516815608E+03 -0.60875659361E+03  0.21019287632E+04  0.23249039011E+04  0.50400001928E-02 0.  1.
</event>
<event>
 5   0  0.5950197E-06  0.1684129E+04  0.7818609E-02  0.8770469E-01
       -2   -1    0    0    0  501  0.00000000000E+00  0.00000000000E+00  0.74955869232E+03  0.74955869232E+03  0.25500000920E-02 0.  1.
        2   -1    0    0  501    0  0.00000000000E+00  0.00000000000E+00 -0.94598623997E+03  0.94598623997E+03  0.25500000920E-02 0. -1.
    10030    2    1    2    0    0  0.00000000000E+00  0.00000000000E+00 -0.19642754765E+03  0.16955449323E+04  0.16841285093E+04 0.  0.
        4    1    3    3  502    0  0.35429665778E+03 -0.73309927410E+03  0.11797408524E+03  0.82272727261E+03  0.12699999809E+01 0. -1.
       -4    1    3    3    0  502 -0.35429665778E+03  0.73309927410E+03 -0.31440163289E+03  0.87281765969E+03  0.12699999809E+01 0.  1.
</event>
<event>
 5   0  0.5637538E-06  0.2546465E+04  0.7818609E-02  0.8386617E-01
        2   -1    0    0  501    0  0.00000000000E+00  0.00000000000E+00  0.13998686579E+04  0.13998686579E+04  0.25500000920E-02 0. -1.
       -2   -1    0    0    0  501  0.00000000000E+00  0.00000000000E+00 -0.11580521494E+04  0.11580521494E+04  0.25500000920E-02 0.  1.
    10030    2    1    2    0    0  0.00000000000E+00  0.00000000000E+00  0.24181650853E+03  0.25579208073E+04  0.25464649286E+04 0.  0.
        2    1    3    3  502    0  0.71385773486E+03 -0.63385157232E+03  0.96717100430E+03  0.13589629991E+04  0.25500000920E-02 0. -1.
       -2    1    3    3    0  502 -0.71385773486E+03  0.63385157232E+03 -0.72535449577E+03  0.11989578082E+04  0.25500000920E-02 0.  1.
</event>
<event>
 5   0  0.2037109E-06  0.3308005E+04  0.7818609E-02  0.8160862E-01
        1   -1    0    0  501    0  0.00000000000E+00  0.00000000000E+00  0.16082906178E+04  0.16082906178E+04  0.50400001928E-02 0.  1.
       -1   -1    0    0    0  501  0.00000000000E+00  0.00000000000E+00 -0.17010134171E+04  0.17010134171E+04  0.50400001928E-02 0. -1.
    10030    2    1    2    0    0  0.00000000000E+00  0.00000000000E+00 -0.92722799299E+02  0.33093040349E+04  0.33080047880E+04 0.  0.
        2    1    3    3  502    0 -0.69258222826E+03  0.14829393279E+04  0.19236326608E+03  0.16479632336E+04  0.25500000920E-02 0.  1.
       -2    1    3    3    0  502  0.69258222826E+03 -0.14829393279E+04 -0.28508606538E+03  0.16613408012E+04  0.25500000920E-02 0. -1.
</event>
<event>
 5   0  0.5637538E-06  0.3333135E+04  0.7818609E-02  0.8154515E-01
       -2   -1    0    0    0  501  0.00000000000E+00  0.00000000000E+00  0.22812005684E+04  0.22812005684E+04  0.25500000920E-02 0. -1.
        2   -1    0    0  501    0  0.00000000000E+00  0.00000000000E+00 -0.12175371406E+04  0.12175371406E+04  0.25500000920E-02 0.  1.
    10030    2    1    2    0    0  0.00000000000E+00  0.00000000000E+00  0.10636634278E+04  0.34987377090E+04  0.33331345110E+04 0.  0.
        2    1    3    3  502    0 -0.46048220867E+02  0.16562973520E+04  0.34404369939E+03  0.16922787666E+04  0.25500000920E-02 0.  1.
       -2    1    3    3    0  502  0.46048220867E+02 -0.16562973520E+04  0.71961972843E+03  0.18064589424E+04  0.25500000920E-02 0. -1.
</event>
<event>
 5   0  0.2037109E-06  0.1850202E+04  0.7818609E-02  0.8680049E-01
        1   -1    0    0  501    0  0.00000000000E+00  0.00000000000E+00  0.12268805604E+04  0.12268805604E+04  0.50400001928E-02 0.  1.
       -1   -1    0    0    0  501  0.00000000000E+00  0.00000000000E+00 -0.69755104974E+03  0.69755104976E+03  0.50400001928E-02 0. -1.
    10030    2    1    2    0    0  0.00000000000E+00  0.00000000000E+00  0.52932951066E+03  0.19244316102E+04  0.18502019596E+04 0.  0.
        2    1    3    3  502    0 -0.88332896549E+03 -0.23862019773E+03  0.40652642450E+03  0.10012359332E+04  0.25500000920E-02 0. -1.
       -2    1    3    3    0  502  0.88332896549E+03  0.23862019773E+03  0.12280308617E+03  0.92319567700E+03  0.25500000920E-02 0.  1.
</event>
<event>
 5   0  0.1925906E-06  0.2488971E+04  0.7818609E-02  0.8406925E-01
        1   -1    0    0  501    0  0.00000000000E+00  0.00000000000E+00  0.16265675108E+04  0.16265675108E+04  0.50400001928E-02 0. -1.
       -1   -1    0    0    0  501  0.00000000000E+00  0.00000000000E+00 -0.95215461535E+03  0.95215461536E+03  0.50400001928E-02 0.  1.
    10030    2    1    2    0    0  0.00000000000E+00  0.00000000000E+00  0.67441289548E+03  0.25787221262E+04  0.24889706809E+04 0.  0.
        1    1    3    3  502    0  0.12145382437E+04  0.10908102274E+03  0.59464579697E+03  0.13566891459E+04  0.50400001928E-02 0. -1.
       -1    1    3    3    0  502 -0.12145382437E+04 -0.10908102274E+03  0.79767098510E+02  0.12220329803E+04  0.50400001928E-02 0.  1.
</event>
<event>
 5   0  0.5637538E-06  0.2577525E+04  0.7818609E-02  0.8375876E-01
        2   -1    0    0  501    0  0.00000000000E+00  0.00000000000E+00  0.11019541167E+04  0.11019541167E+04  0.25500000920E-02 0. -1.
       -2   -1    0    0    0  501  0.00000000000E+00  0.00000000000E+00 -0.15072393530E+04  0.15072393530E+04  0.25500000920E-02 0.  1.
    10030    2    1    2    0    0  0.00000000000E+00  0.00000000000E+00 -0.40528523626E+03  0.26091934697E+04  0.25775248670E+04 0.  0.
        2    1    3    3  502    0  0.63196977057E+03 -0.11103744930E+04 -0.31475474786E+02  0.12780093940E+04  0.25500000920E-02 0. -1.
       -2    1    3    3    0  502 -0.63196977057E+03  0.11103744930E+04 -0.37380976148E+03  0.13311840757E+04  0.25500000920E-02 0.  1.
</event>
<event>
 5   0  0.6264577E-06  0.1780416E+04  0.7818609E-02  0.8716784E-01
        2   -1    0    0  501    0  0.00000000000E+00  0.00000000000E+00  0.16592332775E+04  0.16592332775E+04  0.25500000920E-02 0. -1.
       -2   -1    0    0    0  501  0.00000000000E+00  0.00000000000E+00 -0.47761216977E+03  0.47761216978E+03  0.25500000920E-02 0.  1.
    10030    2    1    2    0    0  0.00000000000E+00  0.00000000000E+00  0.11816211078E+04  0.21368454473E+04  0.17804156884E+04 0.  0.
        4    1    3    3  502    0  0.80686691437E+03 -0.10341719634E+03  0.15684588128E+03  0.82845131261E+03  0.12699999809E+01 0.  1.
       -4    1    3    3    0  502 -0.80686691437E+03  0.10341719634E+03  0.10247752265E+04  0.13083941347E+04  0.12699999809E+01 0. -1.
</event>
<event>
 5   0  0.5622811E-06  0.3317329E+04  0.7818609E-02  0.8158500E-01
        2   -1    0    0  501    0  0.00000000000E+00  0.00000000000E+00  0.13341784775E+04  0.13341784775E+04  0.25500000920E-02 0. -1.
       -2   -1    0    0    0  501  0.00000000000E+00  0.00000000000E+00 -0.20620689165E+04  0.20620689166E+04  0.25500000920E-02 0.  1.
    10030    2    1    2    0    0  0.00000000000E+00  0.00000000000E+00 -0.72789043906E+03  0.33962473940E+04  0.33173290265E+04 0.  0.
        1    1    3    3  502    0  0.35291807614E+03  0.15228580437E+04  0.20379227640E+03  0.15764450773E+04  0.50400001928E-02 0.  1.
       -1    1    3    3    0  502 -0.35291807614E+03 -0.15228580437E+04 -0.93168271545E+03  0.18198023168E+04  0.50400001928E-02 0. -1.
</event>
<event>
 5   0  0.5622811E-06  0.3303168E+04  0.7818609E-02  0.8162090E-01
        2   -1    0    0  501    0  0.00000000000E+00  0.00000000000E+00  0.16745710107E+04  0.16745710107E+04  0.25500000920E-02 0.  1.
       -2   -1    0    0    0  501  0.00000000000E+00  0.00000000000E+00 -0.16289122348E+04  0.16289122348E+04  0.25500000920E-02 0. -1.
    10030    2    1    2    0    0  0.00000000000E+00  0.00000000000E+00  0.45658775851E+02  0.33034832455E+04  0.33031676963E+04 0.  0.
        1    1    3    3  502    0  0.14081674244E+04  0.69946801239E+03  0.52838555390E+03  0.16587291187E+04  0.50400001928E-02 0.  1.
       -1    1    3    3    0  502 -0.14081674244E+04 -0.69946801239E+03 -0.48272677805E+03  0.16447541268E+04  0.50400001928E-02 0. -1.
</event>
<event>
 5   0  0.2037109E-06  0.2132714E+04  0.7818609E-02  0.8546968E-01
        1   -1    0    0  501    0  0.00000000000E+00  0.00000000000E+00  0.10159210324E+04  0.10159210324E+04  0.50400001928E-02 0.  1.
       -1   -1    0    0    0  501  0.00000000000E+00  0.00000000000E+00 -0.11192966517E+04  0.11192966517E+04  0.50400001928E-02 0. -1.
    10030    2    1    2    0    0  0.00000000000E+00  0.00000000000E+00 -0.10337561931E+03  0.21352176842E+04  0.21327137736E+04 0.  0.
        2    1    3    3  502    0  0.87319172973E+03 -0.59880367059E+03  0.75297127130E+02  0.10614609226E+04  0.25500000920E-02 0.  1.
       -2    1    3    3    0  502 -0.87319172973E+03  0.59880367059E+03 -0.17867274644E+03  0.10737567616E+04  0.25500000920E-02 0. -1.
</event>
<event>
 5   0  0.1878000E-06  0.3262518E+04  0.7818609E-02  0.8172499E-01
        4   -1    0    0  501    0  0.00000000000E+00  0.00000000000E+00  0.19245933707E+04  0.19245937897E+04  0.12699999809E+01 0. -1.
       -4   -1    0    0    0  501  0.00000000000E+00  0.00000000000E+00 -0.13826322161E+04  0.13826327994E+04  0.12699999809E+01 0.  1.
    10030    2    1    2    0    0  0.00000000000E+00  0.00000000000E+00  0.54196115454E+03  0.33072265891E+04  0.32625183246E+04 0.  0.
        3    1    3    3  502    0  0.12612876441E+04 -0.70131120564E+03  0.10418770203E+04  0.17799414777E+04  0.10100000352E+00 0. -1.
       -3    1    3    3    0  502 -0.12612876441E+04  0.70131120564E+03 -0.49991586580E+03  0.15272851114E+04  0.10100000352E+00 0.  1.
</event>
<event>
 5   0  0.5622811E-06  0.3094929E+04  0.7818609E-02  0.8217131E-01
       -2   -1    0    0    0  501  0.00000000000E+00  0.00000000000E+00  0.79752193094E+03  0.79752193095E+03  0.25500000920E-02 0.  1.
        2   -1    0    0  501    0  0.00000000000E+00  0.00000000000E+00 -0.30026089715E+04  0.30026089715E+04  0.25500000920E-02 0. -1.
    10030    2    1    2    0    0  0.00000000000E+00  0.00000000000E+00 -0.22050870406E+04  0.38001309024E+04  0.30949290815E+04 0.  0.
        1    1    3    3  502    0  0.13091603044E+04  0.82398793459E+03 -0.11544876234E+04  0.19302068520E+04  0.50400001928E-02 0. -1.
       -1    1    3    3    0  502 -0.13091603044E+04 -0.82398793459E+03 -0.10505994171E+04  0.18699240504E+04  0.50400001928E-02 0.  1.
</event>
<event>
 5   0  0.5755250E-06  0.3315649E+04  0.7818609E-02  0.8158925E-01
        2   -1    0    0  501    0  0.00000000000E+00  0.00000000000E+00  0.83360737651E+03  0.83360737652E+03  0.25500000920E-02 0.  1.
       -2   -1    0    0    0  501  0.00000000000E+00  0.00000000000E+00 -0.32969737758E+04  0.32969737758E+04  0.25500000920E-02 0. -1.
    10030    2    1    2    0    0  0.00000000000E+00  0.00000000000E+00 -0.24633663993E+04  0.41305811523E+04  0.33156487508E+04 0.  0.
        5    1    3    3  502    0 -0.50585910978E+03  0.12246353134E+04  0.95666119205E+01  0.13250429049E+04  0.46999998093E+01 0.  1.
       -5    1    3    3    0  502  0.50585910978E+03 -0.12246353134E+04 -0.24729330112E+04  0.28055382474E+04  0.46999998093E+01 0. -1.
</event>
<event>
 5   0  0.5300268E-06  0.2763776E+04  0.7818609E-02  0.8314603E-01
        2   -1    0    0  501    0  0.00000000000E+00  0.00000000000E+00  0.17547305878E+04  0.17547305878E+04  0.25500000920E-02 0. -1.
       -2   -1    0    0    0  501  0.00000000000E+00  0.00000000000E+00 -0.10882667936E+04  0.10882667936E+04  0.25500000920E-02 0.  1.
    10030    2    1    2    0    0  0.00000000000E+00  0.00000000000E+00  0.66646379412E+03  0.28429973814E+04  0.27637764240E+04 0.  0.
        4    1    3    3  502    0 -0.28797719841E+03 -0.13155048315E+04  0.14296960663E+02  0.13467330264E+04  0.12699999809E+01 0. -1.
       -4    1    3    3    0  502  0.28797719841E+03  0.13155048315E+04  0.65216683345E+03  0.14962643550E+04  0.12699999809E+01 0.  1.
</event>
<event>
 5   0  0.1925906E-06  0.3334951E+04  0.7818609E-02  0.8154059E-01
        1   -1    0    0  501    0  0.00000000000E+00  0.00000000000E+00  0.14835513070E+04  0.14835513070E+04  0.50400001928E-02 0. -1.
       -1   -1    0    0    0  501  0.00000000000E+00  0.00000000000E+00 -0.18742014073E+04  0.18742014073E+04  0.50400001928E-02 0.  1.
    10030    2    1    2    0    0  0.00000000000E+00  0.00000000000E+00 -0.39065010028E+03  0.33577527144E+04  0.33349506428E+04 0.  0.
        1    1    3    3  502    0  0.43275677251E+03 -0.73545156190E+03  0.12470573380E+04  0.15110656598E+04  0.50400001928E-02 0. -1.
       -1    1    3    3    0  502 -0.43275677251E+03  0.73545156190E+03 -0.16377074383E+04  0.18466870546E+04  0.50400001928E-02 0.  1.
</event>
<event>
 5   0  0.5855568E-06  0.3286728E+04  0.7818609E-02  0.8166281E-01
       -2   -1    0    0    0  501  0.00000000000E+00  0.00000000000E+00  0.15160748851E+04  0.15160748851E+04  0.25500000920E-02 0. -1.
        2   -1    0    0  501    0  0.00000000000E+00  0.00000000000E+00 -0.17813398319E+04  0.17813398319E+04  0.25500000920E-02 0.  1.
    10030    2    1    2    0    0  0.00000000000E+00  0.00000000000E+00 -0.26526494685E+03  0.32974147170E+04  0.32867276011E+04 0.  0.
        3    1    3    3  502    0  0.78874691786E+03 -0.12575307305E+04  0.57474124869E+03  0.15918017313E+04  0.10100000352E+00 0. -1.
       -3    1    3    3    0  502 -0.78874691786E+03  0.12575307305E+04 -0.84000619554E+03  0.17056129858E+04  0.10100000352E+00 0.  1.
</event>
<event>
 5   0  0.5622811E-06  0.3257582E+04  0.7818609E-02  0.8173773E-01
       -2   -1    0    0    0  501  0.00000000000E+00  0.00000000000E+00  0.14516973740E+04  0.14516973740E+04  0.25500000920E-02 0.  1.
        2   -1    0    0  501    0  0.00000000000E+00  0.00000000000E+00 -0.18274888487E+04  0.18274888487E+04  0.25500000920E-02 0. -1.
    10030    2    1    2    0    0  0.00000000000E+00  0.00000000000E+00 -0.37579147473E+03  0.32791862228E+04  0.32575823936E+04 0.  0.
        1    1    3    3  502    0 -0.33221003501E+03 -0.22172518549E+03  0.14016378694E+04  0.14574341434E+04  0.50400001928E-02 0.  1.
       -1    1    3    3    0  502  0.33221003501E+03  0.22172518549E+03 -0.17774293442E+04  0.18217520794E+04  0.50400001928E-02 0. -1.
</event>
<event>
 5   0  0.2097842E-06  0.3260978E+04  0.7818609E-02  0.8172896E-01
       -1   -1    0    0    0  501  0.00000000000E+00  0.00000000000E+00  0.22860007409E+04  0.22860007409E+04  0.50400001928E-02 0.  1.
        1   -1    0    0  501    0  0.00000000000E+00  0.00000000000E+00 -0.11629455269E+04  0.11629455269E+04  0.50400001928E-02 0. -1.
    10030    2    1    2    0    0  0.00000000000E+00  0.00000000000E+00  0.11230552140E+04  0.34489462678E+04  0.32609779736E+04 0.  0.
        4    1    3    3  502    0  0.35805230311E+03 -0.78534648193E+03 -0.90150940390E+03  0.12480750645E+04  0.12699999809E+01 0. -1.
       -4    1    3    3    0  502 -0.35805230311E+03  0.78534648193E+03  0.20245646179E+04  0.22008712033E+04  0.12699999809E+01 0.  1.
</event>
<event>
 5   0  0.5855568E-06  0.3287278E+04  0.7818609E-02  0.8166140E-01
        2   -1    0    0  501    0  0.00000000000E+00  0.00000000000E+00  0.17873339008E+04  0.17873339008E+04  0.25500000920E-02 0. -1.
       -2   -1    0    0    0  501  0.00000000000E+00  0.00000000000E+00 -0.15114970226E+04  0.15114970226E+04  0.25500000920E-02 0.  1.
    10030    2    1    2    0    0  0.00000000000E+00  0.00000000000E+00  0.27583687821E+03  0.32988309234E+04  0.32872784302E+04 0.  0.
        3    1    3    3  502    0  0.10002182022E+04 -0.99843205688E+03 -0.70422490176E+03  0.15789983365E+04  0.10100000352E+00 0.  1.
       -3    1    3    3    0  502 -0.10002182022E+04  0.99843205688E+03  0.98006177997E+03  0.17198325869E+04  0.10100000352E+00 0. -1.
</event>
<event>
 5   0  0.5622811E-06  0.3219435E+04  0.7818609E-02  0.8183703E-01
        2   -1    0    0  501    0  0.00000000000E+00  0.00000000000E+00  0.19700401302E+04  0.19700401302E+04  0.25500000920E-02 0. -1.
       -2   -1    0    0    0  501  0.00000000000E+00  0.00000000000E+00 -0.13152985917E+04  0.13152985917E+04  0.25500000920E-02 0.  1.
    10030    2    1    2    0    0  0.00000000000E+00  0.00000000000E+00  0.65474153853E+03  0.32853387219E+04  0.32194353597E+04 0.  0.
        1    1    3    3  502    0  0.42955697838E+02 -0.44179972195E+03  0.19063518315E+04  0.19573475654E+04  0.50400001928E-02 0. -1.
       -1    1    3    3    0  502 -0.42955697838E+02  0.44179972195E+03 -0.12516102930E+04  0.13279911565E+04  0.50400001928E-02 0.  1.
</event>
<event>
 5   0  0.2037109E-06  0.3316123E+04  0.7818609E-02  0.8158805E-01
       -1   -1    0    0    0  501  0.00000000000E+00  0.00000000000E+00  0.12597560197E+04  0.12597560197E+04  0.50400001928E-02 0. -1.
        1   -1    0    0  501    0  0.00000000000E+00  0.00000000000E+00 -0.21823019793E+04  0.21823019793E+04  0.50400001928E-02 0.  1.
    10030    2    1    2    0    0  0.00000000000E+00  0.00000000000E+00 -0.92254595955E+03  0.34420579990E+04  0.33161230708E+04 0.  0.
        2    1    3    3  502    0 -0.64063992410E+03  0.87771328573E+03  0.83863174001E+03  0.13726264312E+04  0.25500000920E-02 0. -1.
       -2    1    3    3    0  502  0.64063992410E+03 -0.87771328573E+03 -0.17611776996E+04  0.20694315678E+04  0.25500000920E-02 0.  1.
</event>
<event>
 5   0  0.5755250E-06  0.3227635E+04  0.7818609E-02  0.8181557E-01
       -2   -1    0    0    0  501  0.00000000000E+00  0.00000000000E+00  0.14229485097E+04  0.14229485097E+04  0.25500000920E-02 0.  1.
        2   -1    0    0  501    0  0.00000000000E+00  0.00000000000E+00 -0.18302886321E+04  0.18302886321E+04  0.25500000920E-02 0. -1.
    10030    2    1    2    0    0  0.00000000000E+00  0.00000000000E+00 -0.40734012235E+03  0.32532371418E+04  0.32276347262E+04 0.  0.
        5    1    3    3  502    0  0.10676227094E+04  0.12087599977E+04 -0.26300474516E+03  0.16340479086E+04  0.46999998093E+01 0. -1.
       -5    1    3    3    0  502 -0.10676227094E+04 -0.12087599977E+04 -0.14433537719E+03  0.16191892332E+04  0.46999998093E+01 0.  1.
</event>
<event>
 5   0  0.1925906E-06  0.3282249E+04  0.7818609E-02  0.8167427E-01
        1   -1    0    0  501    0  0.00000000000E+00  0.00000000000E+00  0.20407585287E+04  0.20407585287E+04  0.50400001928E-02 0. -1.
       -1   -1    0    0    0  501  0.00000000000E+00  0.00000000000E+00 -0.13197492515E+04  0.13197492515E+04  0.50400001928E-02 0.  1.
    10030    2    1    2    0    0  0.00000000000E+00  0.00000000000E+00  0.72100927715E+03  0.33605077802E+04  0.32822489490E+04 0.  0.
        1    1    3    3  502    0  0.14014567833E+04  0.84742067978E+03  0.25270112780E+03  0.16571242512E+04  0.50400001928E-02 0.  1.
       -1    1    3    3    0  502 -0.14014567833E+04 -0.84742067978E+03  0.46830814935E+03  0.17033835290E+04  0.50400001928E-02 0. -1.
</event>
<event>
 5   0  0.5622811E-06  0.3184348E+04  0.7818609E-02  0.8192963E-01
       -2   -1    0    0    0  501  0.00000000000E+00  0.00000000000E+00  0.15681933641E+04  0.15681933641E+04  0.25500000920E-02 0.  1.
        2   -1    0    0  501    0  0.00000000000E+00  0.00000000000E+00 -0.16165211492E+04  0.16165211492E+04  0.25500000920E-02 0. -1.
    10030    2    1    2    0    0  0.00000000000E+00  0.00000000000E+00 -0.48327785059E+02  0.31847145133E+04  0.31843478070E+04 0.  0.
        1    1    3    3  502    0 -0.96523472899E+03  0.80052352723E+03  0.95702081665E+03  0.15774678581E+04  0.50400001928E-02 0.  1.
       -1    1    3    3    0  502  0.96523472899E+03 -0.80052352723E+03 -0.10053486017E+04  0.16072466552E+04  0.50400001928E-02 0. -1.
</event>
<event>
 5   0  0.5637538E-06  0.3226277E+04  0.7818609E-02  0.8181912E-01
        2   -1    0    0  501    0  0.00000000000E+00  0.00000000000E+00  0.12175138018E+04  0.12175138018E+04  0.25500000920E-02 0. -1.
       -2   -1    0    0    0  501  0.00000000000E+00  0.00000000000E+00 -0.21373190082E+04  0.21373190082E+04  0.25500000920E-02 0.  1.
    10030    2    1    2    0    0  0.00000000000E+00  0.00000000000E+00 -0.91980520636E+03  0.33548328100E+04  0.32262767342E+04 0.  0.
        2    1    3    3  502    0  0.26615806750E+03  0.11071069542E+03 -0.21103191033E+04  0.21299163582E+04  0.25500000920E-02 0.  1.
       -2    1    3    3    0  502 -0.26615806750E+03 -0.11071069542E+03  0.11905138970E+04  0.12249164518E+04  0.25500000920E-02 0. -1.
</event>
<event>
 5   0  0.1999849E-06  0.3243574E+04  0.7818609E-02  0.8177403E-01
        1   -1    0    0  501    0  0.00000000000E+00  0.00000000000E+00  0.17609038212E+04  0.17609038212E+04  0.50400001928E-02 0.  1.
       -1   -1    0    0    0  501  0.00000000000E+00  0.00000000000E+00 -0.14936609260E+04  0.14936609260E+04  0.50400001928E-02 0. -1.
    10030    2    1    2    0    0  0.00000000000E+00  0.00000000000E+00  0.26724289521E+03  0.32545647473E+04  0.32435740980E+04 0.  0.
        5    1    3    3  502    0 -0.35821634038E+03  0.22546743454E+03  0.17044985937E+04  0.17562722046E+04  0.46999998093E+01 0.  1.
       -5    1    3    3    0  502  0.35821634038E+03 -0.22546743454E+03 -0.14372556985E+04  0.14982925427E+04  0.46999998093E+01 0. -1.
</event>
<event>
 5   0  0.2730981E-06  0.3392909E+04  0.7818609E-02  0.8139649E-01
        1   -1    0    0  501    0  0.00000000000E+00  0.00000000000E+00  0.22185210320E+04  0.22185210321E+04  0.50400001928E-02 0. -1.
       -1   -1    0    0    0  501  0.00000000000E+00  0.00000000000E+00 -0.12972417415E+04  0.12972417415E+04  0.50400001928E-02 0.  1.
    10030    2    1    2    0    0  0.00000000000E+00  0.00000000000E+00  0.92127929053E+03  0.35157627736E+04  0.33929091277E+04 0.  0.
        3    1    3    3  502    0 -0.48185664309E+03  0.16265175821E+04  0.47575578899E+03  0.17618424590E+04  0.10100000352E+00 0.  1.
       -3    1    3    3    0  502  0.48185664309E+03 -0.16265175821E+04  0.44552350153E+03  0.17539203146E+04  0.10100000352E+00 0. -1.
</event>
<event>
 5   0  0.5622811E-06  0.3384935E+04  0.7818609E-02  0.8141614E-01
        2   -1    0    0  501    0  0.00000000000E+00  0.00000000000E+00  0.18301928288E+04  0.18301928288E+04  0.25500000920E-02 0. -1.
       -2   -1    0    0    0  501  0.00000000000E+00  0.00000000000E+00 -0.15651058427E+04  0.15651058427E+04  0.25500000920E-02 0.  1.
    10030    2    1    2    0    0  0.00000000000E+00  0.00000000000E+00  0.26508698613E+03  0.33952986715E+04  0.33849345575E+04 0.  0.
        1    1    3    3  502    0  0.15161365317E+04  0.70244639539E+03  0.40233649012E+03  0.17187133479E+04  0.50400001928E-02 0.  1.
       -1    1    3    3    0  502 -0.15161365317E+04 -0.70244639539E+03 -0.13724950399E+03  0.16765853236E+04  0.50400001928E-02 0. -1.
</event>
<event>
 5   0  0.5755250E-06  0.3334460E+04  0.7818609E-02  0.8154182E-01
        2   -1    0    0  501    0  0.00000000000E+00  0.00000000000E+00  0.12017645966E+04  0.12017645966E+04  0.25500000920E-02 0. -1.
       -2   -1    0    0    0  501  0.00000000000E+00  0.00000000000E+00 -0.23129780227E+04  0.23129780227E+04  0.25500000920E-02 0.  1.
    10030    2    1    2    0    0  0.00000000000E+00  0.00000000000E+00 -0.11112134262E+04  0.35147426193E+04  0.33344595366E+04 0.  0.
        5    1    3    3  502    0 -0.11787612681E+04  0.34201434383E+03  0.63375283295E+03  0.13813459675E+04  0.46999998093E+01 0.  1.
       -5    1    3    3    0  502  0.11787612681E+04 -0.34201434383E+03 -0.17449662591E+04  0.21333966518E+04  0.46999998093E+01 0. -1.
</event>
<event>
 5   0  0.1999849E-06  0.3137225E+04  0.7818609E-02  0.8205595E-01
        1   -1    0    0  501    0  0.00000000000E+00  0.00000000000E+00  0.76506468432E+03  0.76506468433E+03  0.50400001928E-02 0.  1.
       -1   -1    0    0    0  501  0.00000000000E+00  0.00000000000E+00 -0.32161274150E+04  0.32161274150E+04  0.50400001928E-02 0. -1.
    10030    2    1    2    0    0  0.00000000000E+00  0.00000000000E+00 -0.24510627307E+04  0.39811920994E+04  0.31372252106E+04 0.  0.
        5    1    3    3  502    0  0.54588390631E+02 -0.12825493819E+03 -0.32082436896E+04  0.32112737167E+04  0.46999998093E+01 0. -1.
       -5    1    3    3    0  502 -0.54588390631E+02  0.12825493819E+03  0.75718095887E+03  0.76991838271E+03  0.46999998093E+01 0.  1.
</event>
<event>
 5   0  0.5622811E-06  0.3296030E+04  0.7818609E-02  0.8163906E-01
        2   -1    0    0  501    0  0.00000000000E+00  0.00000000000E+00  0.19225245745E+04  0.19225245745E+04  0.25500000920E-02 0.  1.
       -2   -1    0    0    0  501  0.00000000000E+00  0.00000000000E+00 -0.14127011303E+04  0.14127011303E+04  0.25500000920E-02 0. -1.
    10030    2    1    2    0    0  0.00000000000E+00  0.00000000000E+00  0.50982344416E+03  0.33352257048E+04  0.32960295141E+04 0.  0.
        1    1    3    3  502    0 -0.15439540321E+04 -0.76082769651E+02  0.83299346290E+03  0.17559785734E+04  0.50400001928E-02 0.  1.
       -1    1    3    3    0  502  0.15439540321E+04  0.76082769651E+02 -0.32317001875E+03  0.15792471314E+04  0.50400001928E-02 0. -1.
</event>
<event>
 5   0  0.2174762E-06  0.1690564E+04  0.7818609E-02  0.8766765E-01
        1   -1    0    0  501    0  0.00000000000E+00  0.00000000000E+00  0.14538053626E+04  0.14538053626E+04  0.50400001928E-02 0. -1.
       -1   -1    0    0    0  501  0.00000000000E+00  0.00000000000E+00 -0.49146984528E+03  0.49146984530E+03  0.50400001928E-02 0.  1.
    10030    2    1    2    0    0  0.00000000000E+00  0.00000000000E+00  0.96233551729E+03  0.19452752079E+04  0.16905638073E+04 0.  0.
        1    1    3    3  502    0  0.67351804715E+03 -0.39359396788E+03  0.85572469761E+03  0.11579324374E+04  0.50400001928E-02 0. -1.
       -1    1    3    3    0  502 -0.67351804715E+03  0.39359396788E+03  0.10661081969E+03  0.78734277052E+03  0.50400001928E-02 0.  1.
</event>
<event>
 5   0  0.5855568E-06  0.2893031E+04  0.7818609E-02  0.8274954E-01
        2   -1    0    0  501    0  0.00000000000E+00  0.00000000000E+00  0.17733057522E+04  0.17733057522E+04  0.25500000920E-02 0.  1.
       -2   -1    0    0    0  501  0.00000000000E+00  0.00000000000E+00 -0.11799475609E+04  0.11799475609E+04  0.25500000920E-02 0. -1.
    10030    2    1    2    0    0  0.00000000000E+00  0.00000000000E+00  0.59335819129E+03  0.29532533132E+04  0.28930314876E+04 0.  0.
        3    1    3    3  502    0 -0.21757872423E+03  0.21610131569E+03  0.17397418549E+04  0.17665622015E+04  0.10100000352E+00 0.  1.
       -3    1    3    3    0  502  0.21757872423E+03 -0.21610131569E+03 -0.11463836637E+04  0.11866911116E+04  0.10100000352E+00 0. -1.
</event>
<event>
 5   0  0.5300268E-06  0.3204785E+04  0.7818609E-02  0.8187555E-01
       -2   -1    0    0    0  501  0.00000000000E+00  0.00000000000E+00  0.13340016938E+04  0.13340016938E+04  0.25500000920E-02 0.  1.
        2   -1    0    0  501    0  0.00000000000E+00  0.00000000000E+00 -0.19247819328E+04  0.19247819329E+04  0.25500000920E-02 0. -1.
    10030    2    1    2    0    0  0.00000000000E+00  0.00000000000E+00 -0.59078023904E+03  0.32587836267E+04  0.32047853960E+04 0.  0.
        4    1    3    3  502    0  0.59671728742E+03 -0.48051158580E+03  0.11356957276E+04  0.13699522998E+04  0.12699999809E+01 0.  1.
       -4    1    3    3    0  502 -0.59671728742E+03  0.48051158580E+03 -0.17264759666E+04  0.18888313269E+04  0.12699999809E+01 0. -1.
</event>
<event>
 5   0  0.5637538E-06  0.3235023E+04  0.7818609E-02  0.8179628E-01
        2   -1    0    0  501    0  0.00000000000E+00  0.00000000000E+00  0.24065175737E+04  0.24065175737E+04  0.25500000920E-02 0.  1.
       -2   -1    0    0    0  501  0.00000000000E+00  0.00000000000E+00 -0.10871907699E+04  0.10871907699E+04  0.25500000920E-02 0. -1.
    10030    2    1    2    0    0  0.00000000000E+00  0.00000000000E+00  0.13193268038E+04  0.34937083436E+04  0.32350231491E+04 0.  0.
        2    1    3    3  502    0 -0.14633710822E+04  0.11752814370E+03 -0.73659870887E+02  0.14699297825E+04  0.25500000920E-02 0. -1.
       -2    1    3    3    0  502  0.14633710822E+04 -0.11752814370E+03  0.13929866747E+04  0.20237785611E+04  0.25500000920E-02 0.  1.
</event>
<event>
 5   0  0.5637538E-06  0.2894653E+04  0.7818609E-02  0.8274470E-01
        2   -1    0    0  501    0  0.00000000000E+00  0.00000000000E+00  0.21291024417E+04  0.21291024417E+04  0.25500000920E-02 0. -1.
       -2   -1    0    0    0  501  0.00000000000E+00  0.00000000000E+00 -0.98386747242E+03  0.98386747242E+03  0.25500000920E-02 0.  1.
    10030    2    1    2    0    0  0.00000000000E+00  0.00000000000E+00  0.11452349692E+04  0.31129699141E+04  0.28946534423E+04 0.  0.
        2    1    3    3  502    0 -0.57623174990E+03 -0.27199949434E+03 -0.82490300678E+03  0.10423491378E+04  0.25500000920E-02 0.  1.
       -2    1    3    3    0  502  0.57623174990E+03  0.27199949434E+03  0.19701379760E+04  0.20706207763E+04  0.25500000920E-02 0. -1.
</event>
<event>
 5   0  0.5622811E-06  0.3286318E+04  0.7818609E-02  0.8166385E-01
        2   -1    0    0  501    0  0.00000000000E+00  0.00000000000E+00  0.18542469999E+04  0.18542469999E+04  0.25500000920E-02 0. -1.
       -2   -1    0    0    0  501  0.00000000000E+00  0.00000000000E+00 -0.14561014376E+04  0.14561014376E+04  0.25500000920E-02 0.  1.
    10030    2    1    2    0    0  0.00000000000E+00  0.00000000000E+00  0.39814556233E+03  0.33103484374E+04  0.32863181356E+04 0.  0.
        1    1    3    3  502    0  0.10607880689E+04  0.52312381445E+03 -0.94990000346E+03  0.15169838064E+04  0.50400001928E-02 0.  1.
       -1    1    3    3    0  502 -0.10607880689E+04 -0.52312381445E+03  0.13480455658E+04  0.17933646310E+04  0.50400001928E-02 0. -1.
</event>
<event>
 5   0  0.1999849E-06  0.2665299E+04  0.7818609E-02  0.8346353E-01
       -1   -1    0    0    0  501  0.00000000000E+00  0.00000000000E+00  0.10358121902E+04  0.10358121902E+04  0.50400001928E-02 0. -1.
        1   -1    0    0  501    0  0.00000000000E+00  0.00000000000E+00 -0.17145532283E+04  0.17145532283E+04  0.50400001928E-02 0.  1.
    10030    2    1    2    0    0  0.00000000000E+00  0.00000000000E+00 -0.67874103815E+03  0.27503654185E+04  0.26652993338E+04 0.  0.
        5    1    3    3  502    0  0.12190264230E+04 -0.16903368692E+03  0.18815490373E+03  0.12449988614E+04  0.46999998093E+01 0. -1.
       -5    1    3    3    0  502 -0.12190264230E+04  0.16903368692E+03 -0.86689594188E+03  0.15053665571E+04  0.46999998093E+01 0.  1.
</event>
<event>
 5   0  0.1925906E-06  0.3077788E+04  0.7818609E-02  0.8221860E-01
        1   -1    0    0  501    0  0.00000000000E+00  0.00000000000E+00  0.20217884564E+04  0.20217884564E+04  0.50400001928E-02 0. -1.
       -1   -1    0    0    0  501  0.00000000000E+00  0.00000000000E+00 -0.11713364632E+04  0.11713364632E+04  0.50400001928E-02 0.  1.
    10030    2    1    2    0    0  0.00000000000E+00  0.00000000000E+00  0.85045199321E+03  0.31931249196E+04  0.30777878679E+04 0.  0.
        1    1    3    3  502    0  0.48222648303E+03 -0.33576578749E+03  0.19008166018E+04  0.19895689982E+04  0.50400001928E-02 0. -1.
       -1    1    3    3    0  502 -0.48222648303E+03  0.33576578749E+03 -0.10503646086E+04  0.12035559214E+04  0.50400001928E-02 0.  1.
</event>
<event>
 5   0  0.5622811E-06  0.3092556E+04  0.7818609E-02  0.8217784E-01
       -2   -1    0    0    0  501  0.00000000000E+00  0.00000000000E+00  0.12386008340E+04  0.12386008340E+04  0.25500000920E-02 0. -1.
        2   -1    0    0  501    0  0.00000000000E+00  0.00000000000E+00 -0.19303845339E+04  0.19303845339E+04  0.25500000920E-02 0.  1.
    10030    2    1    2    0    0  0.00000000000E+00  0.00000000000E+00 -0.69178369987E+03  0.31689853679E+04  0.30925561554E+04 0.  0.
        1    1    3    3  502    0  0.12782659189E+04  0.84508487946E+03 -0.55799446671E+03  0.16307942966E+04  0.50400001928E-02 0.  1.
       -1    1    3    3    0  502 -0.12782659189E+04 -0.84508487946E+03 -0.13378923317E+03  0.15381910713E+04  0.50400001928E-02 0. -1.
</event>
<event>
 5   0  0.2037109E-06  0.3226318E+04  0.7818609E-02  0.8181901E-01
       -1   -1    0    0    0  501  0.00000000000E+00  0.00000000000E+00  0.12951329334E+04  0.12951329334E+04  0.50400001928E-02 0. -1.
        1   -1    0    0  501    0  0.00000000000E+00  0.00000000000E+00 -0.20092779728E+04  0.20092779728E+04  0.50400001928E-02 0.  1.
    10030    2    1    2    0    0  0.00000000000E+00  0.00000000000E+00 -0.71414503947E+03  0.33044109062E+04  0.32263180717E+04 0.  0.
        2    1    3    3  502    0  0.10911867409E+03 -0.35663602349E+03  0.12503700454E+04  0.13048070312E+04  0.25500000920E-02 0. -1.
       -2    1    3    3    0  502 -0.10911867409E+03  0.35663602349E+03 -0.19645150848E+04  0.19996038750E+04  0.25500000920E-02 0.  1.
</event>
<event>
 5   0  0.2730981E-06  0.3314778E+04  0.7818609E-02  0.8159145E-01
       -1   -1    0    0    0  501  0.00000000000E+00  0.00000000000E+00  0.10215475201E+04  0.10215475201E+04  0.50400001928E-02 0.  1.
        1   -1    0    0  501    0  0.00000000000E+00  0.00000000000E+00 -0.26889965045E+04  0.26889965045E+04  0.50400001928E-02 0. -1.
    10030    2    1    2    0    0  0.00000000000E+00  0.00000000000E+00 -0.16674489844E+04  0.37105440247E+04  0.33147776462E+04 0.  0.
        3    1    3    3  502    0  0.79470444176E+03  0.47581928589E+03 -0.23722216612E+04  0.25466438233E+04  0.10100000352E+00 0. -1.
       -3    1    3    3    0  502 -0.79470444176E+03 -0.47581928589E+03  0.70477267683E+03  0.11639002014E+04  0.10100000352E+00 0.  1.
</event>
<event>
 5   0  0.2097842E-06  0.3203935E+04  0.7818609E-02  0.8187779E-01
        1   -1    0    0  501    0  0.00000000000E+00  0.00000000000E+00  0.14251016244E+04  0.14251016244E+04  0.50400001928E-02 0.  1.
       -1   -1    0    0    0  501  0.00000000000E+00  0.00000000000E+00 -0.18007841080E+04  0.18007841080E+04  0.50400001928E-02 0. -1.
    10030    2    1    2    0    0  0.00000000000E+00  0.00000000000E+00 -0.37568248352E+03  0.32258857324E+04  0.32039353037E+04 0.  0.
        4    1    3    3  502    0  0.37145503550E+02  0.15402839176E+04  0.25384908818E+03  0.15615041812E+04  0.12699999809E+01 0.  1.
       -4    1    3    3    0  502 -0.37145503550E+02 -0.15402839176E+04 -0.62953157170E+03  0.16643815512E+04  0.12699999809E+01 0. -1.
</event>
<event>
 5   0  0.5622811E-06  0.3130014E+04  0.7818609E-02  0.8207549E-01
        2   -1    0    0  501    0  0.00000000000E+00  0.00000000000E+00  0.14217280257E+04  0.14217280257E+04  0.25500000920E-02 0. -1.
       -2   -1    0    0    0  501  0.00000000000E+00  0.00000000000E+00 -0.17227254704E+04  0.17227254704E+04  0.25500000920E-02 0.  1.
    10030    2    1    2    0    0  0.00000000000E+00  0.00000000000E+00 -0.30099744468E+03  0.31444534960E+04  0.31300141097E+04 0.  0.
        1    1    3    3  502    0  0.45943119819E+03 -0.20617031622E+03 -0.16391117225E+04  0.17147216870E+04  0.50400001928E-02 0.  1.
       -1    1    3    3    0  502 -0.45943119819E+03  0.20617031622E+03  0.13381142778E+04  0.14297318090E+04  0.50400001928E-02 0. -1.
</event>
<event>
 5   0  0.2037109E-06  0.2416651E+04  0.7818609E-02  0.8433296E-01
        1   -1    0    0  501    0  0.00000000000E+00  0.00000000000E+00  0.15445356789E+04  0.15445356789E+04  0.50400001928E-02 0. -1.
       -1   -1    0    0    0  501  0.00000000000E+00  0.00000000000E+00 -0.94530071392E+03  0.94530071393E+03  0.50400001928E-02 0.  1.
    10030    2    1    2    0    0  0.00000000000E+00  0.00000000000E+00  0.59923496502E+03  0.24898363929E+04  0.24166511374E+04 0.  0.
        2    1    3    3  502    0 -0.41679322953E+02 -0.47125228463E+02 -0.94361218635E+03  0.94570709596E+03  0.25500000920E-02 0.  1.
       -2    1    3    3    0  502  0.41679322953E+02  0.47125228463E+02  0.15428471514E+04  0.15441292969E+04  0.25500000920E-02 0. -1.
</event>
<event>
 5   0  0.1999849E-06  0.3337385E+04  0.7818609E-02  0.8153447E-01
        1   -1    0    0  501    0  0.00000000000E+00  0.00000000000E+00  0.21604925761E+04  0.21604925761E+04  0.50400001928E-02 0.  1.
       -1   -1    0    0    0  501  0.00000000000E+00  0.00000000000E+00 -0.12888425479E+04  0.12888425479E+04  0.50400001928E-02 0. -1.
    10030    2    1    2    0    0  0.00000000000E+00  0.00000000000E+00  0.87165002817E+03  0.34493351240E+04  0.33373850581E+04 0.  0.
        5    1    3    3  502    0  0.21347562690E+03  0.13728298189E+04  0.13911012349E+04  0.19660667056E+04  0.46999998093E+01 0.  1.
       -5    1    3    3    0  502 -0.21347562690E+03 -0.13728298189E+04 -0.51945120671E+03  0.14832684185E+04  0.46999998093E+01 0. -1.
</event>
<event>
 5   0  0.1999849E-06  0.3284224E+04  0.7818609E-02  0.8166921E-01
        1   -1    0    0  501    0  0.00000000000E+00  0.00000000000E+00  0.11501342726E+04  0.11501342726E+04  0.50400001928E-02 0.  1.
       -1   -1    0    0    0  501  0.00000000000E+00  0.00000000000E+00 -0.23445372215E+04  0.23445372215E+04  0.50400001928E-02 0. -1.
    10030    2    1    2    0    0  0.00000000000E+00  0.00000000000E+00 -0.11944029489E+04  0.34946714941E+04  0.32842244818E+04 0.  0.
        5    1    3    3  502    0  0.10897336818E+04  0.93418472887E+03  0.25159006864E+03  0.14572372002E+04  0.46999998093E+01 0.  1.
       -5    1    3    3    0  502 -0.10897336818E+04 -0.93418472887E+03 -0.14459930176E+04  0.20374342939E+04  0.46999998093E+01 0. -1.
</event>
<event>
 5   0  0.5622811E-06  0.3205372E+04  0.7818609E-02  0.8187400E-01
        2   -1    0    0  501    0  0.00000000000E+00  0.00000000000E+00  0.19459122282E+04  0.19459122282E+04  0.25500000920E-02 0. -1.
       -2   -1    0    0    0  501  0.00000000000E+00  0.00000000000E+00 -0.13199989648E+04  0.13199989648E+04  0.25500000920E-02 0.  1.
    10030    2    1    2    0    0  0.00000000000E+00  0.00000000000E+00  0.62591326335E+03  0.32659111930E+04  0.32053718204E+04 0.  0.
        1    1    3    3  502    0  0.99179031861E+03 -0.85835029356E+03 -0.62540931704E+03  0.14531173650E+04  0.50400001928E-02 0.  1.
       -1    1    3    3    0  502 -0.99179031861E+03  0.85835029356E+03  0.12513225804E+04  0.18127938280E+04  0.50400001928E-02 0. -1.
</event>
<event>
 5   0  0.1999849E-06  0.3317570E+04  0.7818609E-02  0.8158439E-01
        1   -1    0    0  501    0  0.00000000000E+00  0.00000000000E+00  0.12683130414E+04  0.12683130414E+04  0.50400001928E-02 0.  1.
       -1   -1    0    0    0  501  0.00000000000E+00  0.00000000000E+00 -0.21694707385E+04  0.21694707385E+04  0.50400001928E-02 0. -1.
    10030    2    1    2    0    0  0.00000000000E+00  0.00000000000E+00 -0.90115769708E+03  0.34377837799E+04  0.33175702136E+04 0.  0.
        5    1    3    3  502    0  0.85577966655E+03  0.11393443399E+04  0.42935623830E+03  0.14882315788E+04  0.46999998093E+01 0.  1.
       -5    1    3    3    0  502 -0.85577966655E+03 -0.11393443399E+04 -0.13305139354E+04  0.19495522011E+04  0.46999998093E+01 0. -1.
</event>
<event>
 5   0  0.5637538E-06  0.3384919E+04  0.7818609E-02  0.8141618E-01
        2   -1    0    0  501    0  0.00000000000E+00  0.00000000000E+00  0.99381512286E+03  0.99381512286E+03  0.25500000920E-02 0. -1.
       -2   -1    0    0    0  501  0.00000000000E+00  0.00000000000E+00 -0.28822452558E+04  0.28822452558E+04  0.25500000920E-02 0.  1.
    10030    2    1    2    0    0  0.00000000000E+00  0.00000000000E+00 -0.18884301329E+04  0.38760603786E+04  0.33849188605E+04 0.  0.
        2    1    3    3  502    0 -0.16764360979E+04 -0.22964042407E+03 -0.98463890838E+03  0.19577248261E+04  0.25500000920E-02 0. -1.
       -2    1    3    3    0  502  0.16764360979E+04  0.22964042407E+03 -0.90379122453E+03  0.19183355526E+04  0.25500000920E-02 0.  1.
</event>
<event>
 5   0  0.2037109E-06  0.3357213E+04  0.7818609E-02  0.8148488E-01
        1   -1    0    0  501    0  0.00000000000E+00  0.00000000000E+00  0.12506618156E+04  0.12506618156E+04  0.50400001928E-02 0. -1.
       -1   -1    0    0    0  501  0.00000000000E+00  0.00000000000E+00 -0.22529829545E+04  0.22529829545E+04  0.50400001928E-02 0.  1.
    10030    2    1    2    0    0  0.00000000000E+00  0.00000000000E+00 -0.10023211389E+04  0.35036447702E+04  0.33572129825E+04 0.  0.
        2    1    3    3  502    0  0.15393989470E+04  0.64876740925E+03 -0.32944993265E+03  0.17026994824E+04  0.25500000920E-02 0.  1.
       -2    1    3    3    0  502 -0.15393989470E+04 -0.64876740925E+03 -0.67287120626E+03  0.18009452878E+04  0.25500000920E-02 0. -1.
</event>
<event>
 5   0  0.5755250E-06  0.3087552E+04  0.7818609E-02  0.8219162E-01
        2   -1    0    0  501    0  0.00000000000E+00  0.00000000000E+00  0.20623269591E+04  0.20623269591E+04  0.25500000920E-02 0.  1.
       -2   -1    0    0    0  501  0.00000000000E+00  0.00000000000E+00 -0.11556093209E+04  0.11556093209E+04  0.25500000920E-02 0. -1.
    10030    2    1    2    0    0  0.00000000000E+00  0.00000000000E+00  0.90671763821E+03  0.32179362799E+04  0.30875519471E+04 0.  0.
        5    1    3    3  502    0  0.44144724824E+03  0.11835219173E+04 -0.47159955095E+03  0.13483426969E+04  0.46999998093E+01 0. -1.
       -5    1    3    3    0  502 -0.44144724824E+03 -0.11835219173E+04  0.13783171892E+04  0.18695935830E+04  0.46999998093E+01 0.  1.
</event>
<event>
 5   0  0.5300268E-06  0.3439817E+04  0.7818609E-02  0.8128202E-01
       -2   -1    0    0    0  501  0.00000000000E+00  0.00000000000E+00  0.13189229720E+04  0.13189229720E+04  0.25500000920E-02 0.  1.
        2   -1    0    0  501    0  0.00000000000E+00  0.00000000000E+00 -0.22428037697E+04  0.22428037697E+04  0.25500000920E-02 0. -1.
    10030    2    1    2    0    0  0.00000000000E+00  0.00000000000E+00 -0.92388079771E+03  0.35617267416E+04  0.34398170960E+04 0.  0.
        4    1    3    3  502    0 -0.16782497395E+04 -0.17537816790E+03 -0.11727063847E+03  0.16914590464E+04  0.12699999809E+01 0.  1.
       -4    1    3    3    0  502  0.16782497395E+04  0.17537816790E+03 -0.80661015924E+03  0.18702676953E+04  0.12699999809E+01 0. -1.
</event>
<event>
 5   0  0.5300268E-06  0.3032943E+04  0.7818609E-02  0.8234386E-01
       -2   -1    0    0    0  501  0.00000000000E+00  0.00000000000E+00  0.15248791347E+04  0.15248791347E+04  0.25500000920E-02 0.  1.
        2   -1    0    0  501    0  0.00000000000E+00  0.00000000000E+00 -0.15081101086E+04  0.15081101086E+04  0.25500000920E-02 0. -1.
    10030    2    1    2    0    0  0.00000000000E+00  0.00000000000E+00  0.16769026164E+02  0.30329892433E+04  0.30329428860E+04 0.  0.
        4    1    3    3  502    0 -0.17984458210E+03  0.13582027489E+04 -0.64172175760E+03  0.15129002637E+04  0.12699999809E+01 0. -1.
       -4    1    3    3    0  502  0.17984458210E+03 -0.13582027489E+04  0.65849078376E+03  0.15200889796E+04  0.12699999809E+01 0.  1.
</event>
<event>
 5   0  0.1999849E-06  0.2236168E+04  0.7818609E-02  0.8503523E-01
        1   -1    0    0  501    0  0.00000000000E+00  0.00000000000E+00  0.13775475505E+04  0.13775475506E+04  0.50400001928E-02 0.  1.
       -1   -1    0    0    0  501  0.00000000000E+00  0.00000000000E+00 -0.90749087022E+03  0.90749087023E+03  0.50400001928E-02 0. -1.
    10030    2    1    2    0    0  0.00000000000E+00  0.00000000000E+00  0.47005668033E+03  0.22850384208E+04  0.22361679950E+04 0.  0.
        5    1    3    3  502    0 -0.88038425355E+03 -0.18525064102E+03 -0.44332878042E+03  0.10029739435E+04  0.46999998093E+01 0. -1.
       -5    1    3    3    0  502  0.88038425355E+03  0.18525064102E+03  0.91338546075E+03  0.12820644772E+04  0.46999998093E+01 0.  1.
</event>
<event>
 5   0  0.1878000E-06  0.3367283E+04  0.7818609E-02  0.8145983E-01
       -3   -1    0    0    0  501  0.00000000000E+00  0.00000000000E+00  0.13090416395E+04  0.13090416434E+04  0.10100000352E+00 0.  1.
        3   -1    0    0  501    0  0.00000000000E+00  0.00000000000E+00 -0.21654379017E+04  0.21654379041E+04  0.10100000352E+00 0. -1.
    10030    2    1    2    0    0  0.00000000000E+00  0.00000000000E+00 -0.85639626218E+03  0.34744795475E+04  0.33672828167E+04 0.  0.
        1    1    3    3  502    0  0.47118904790E+03 -0.41259985429E+03 -0.20407649835E+04  0.21347082884E+04  0.50400001928E-02 0. -1.
       -1    1    3    3    0  502 -0.47118904790E+03  0.41259985429E+03  0.11843687213E+04  0.13397712591E+04  0.50400001928E-02 0.  1.
</event>
<event>
 5   0  0.1999849E-06  0.1975183E+04  0.7818609E-02  0.8618312E-01
        1   -1    0    0  501    0  0.00000000000E+00  0.00000000000E+00  0.79026269525E+03  0.79026269527E+03  0.50400001928E-02 0.  1.
       -1   -1    0    0    0  501  0.00000000000E+00  0.00000000000E+00 -0.12341928189E+04  0.12341928190E+04  0.50400001928E-02 0. -1.
    10030    2    1    2    0    0  0.00000000000E+00  0.00000000000E+00 -0.44393012369E+03  0.20244555142E+04  0.19751825673E+04 0.  0.
        5    1    3    3  502    0 -0.10834581609E+03 -0.71386921107E+03  0.46861310379E+03  0.86079521224E+03  0.46999998093E+01 0.  1.
       -5    1    3    3    0  502  0.10834581609E+03  0.71386921107E+03 -0.91254322748E+03  0.11636603020E+04  0.46999998093E+01 0. -1.
</event>
<event>
 5   0  0.5300268E-06  0.3200004E+04  0.7818609E-02  0.8188816E-01
       -2   -1    0    0    0  501  0.00000000000E+00  0.00000000000E+00  0.25936574846E+04  0.25936574846E+04  0.25500000920E-02 0.  1.
        2   -1    0    0  501    0  0.00000000000E+00  0.00000000000E+00 -0.98702533964E+03  0.98702533964E+03  0.25500000920E-02 0. -1.
    10030    2    1    2    0    0  0.00000000000E+00  0.00000000000E+00  0.16066321449E+04  0.35806828242E+04  0.32000035373E+04 0.  0.
        4    1    3    3  502    0  0.11493658452E+04 -0.36940903653E+03  0.19782258801E+04  0.23175168021E+04  0.12699999809E+01 0.  1.
       -4    1    3    3    0  502 -0.11493658452E+04  0.36940903653E+03 -0.37159373515E+03  0.12631660221E+04  0.12699999809E+01 0. -1.
</event>
<event>
 5   0  0.5755250E-06  0.3036601E+04  0.7818609E-02  0.8233356E-01
        2   -1    0    0  501    0  0.00000000000E+00  0.00000000000E+00  0.19525905673E+04  0.19525905673E+04  0.25500000920E-02 0.  1.
       -2   -1    0    0    0  501  0.00000000000E+00  0.00000000000E+00 -0.11806037938E+04  0.11806037938E+04  0.25500000920E-02 0. -1.
    10030    2    1    2    0    0  0.00000000000E+00  0.00000000000E+00  0.77198677351E+03  0.31331943611E+04  0.30366006201E+04 0.  0.
        5    1    3    3  502    0 -0.18981920974E+03 -0.44414176318E+02 -0.11676291555E+04  0.11838006109E+04  0.46999998093E+01 0. -1.
       -5    1    3    3    0  502  0.18981920974E+03  0.44414176318E+02  0.19396159290E+04  0.19493937503E+04  0.46999998093E+01 0.  1.
</event>
<event>
 5   0  0.1999849E-06  0.3313840E+04  0.7818609E-02  0.8159383E-01
       -1   -1    0    0    0  501  0.00000000000E+00  0.00000000000E+00  0.17321967334E+04  0.17321967334E+04  0.50400001928E-02 0. -1.
        1   -1    0    0  501    0  0.00000000000E+00  0.00000000000E+00 -0.15849149190E+04  0.15849149190E+04  0.50400001928E-02 0.  1.
    10030    2    1    2    0    0  0.00000000000E+00  0.00000000000E+00  0.14728181437E+03  0.33171116525E+04  0.33138403374E+04 0.  0.
        5    1    3    3  502    0  0.16497498469E+04  0.14699585242E+03  0.11929313955E+03  0.16605828137E+04  0.46999998093E+01 0. -1.
       -5    1    3    3    0  502 -0.16497498469E+04 -0.14699585242E+03  0.27988674822E+02  0.16565288388E+04  0.46999998093E+01 0.  1.
</event>
<event>
 5   0  0.5300268E-06  0.3246424E+04  0.7818609E-02  0.8176663E-01
        2   -1    0    0  501    0  0.00000000000E+00  0.00000000000E+00  0.15987472841E+04  0.15987472841E+04  0.25500000920E-02 0. -1.
       -2   -1    0    0    0  501  0.00000000000E+00  0.00000000000E+00 -0.16480507793E+04  0.16480507793E+04  0.25500000920E-02 0.  1.
    10030    2    1    2    0    0  0.00000000000E+00  0.00000000000E+00 -0.49303495130E+02  0.32467980634E+04  0.32464236985E+04 0.  0.
        4    1    3    3  502    0  0.11310147848E+04 -0.43525724968E+03 -0.11046706132E+04  0.16397994064E+04  0.12699999809E+01 0.  1.
       -4    1    3    3    0  502 -0.11310147848E+04  0.43525724968E+03  0.10553671181E+04  0.16069986570E+04  0.12699999809E+01 0. -1.
</event>
<event>
 5   0  0.5622811E-06  0.3201943E+04  0.7818609E-02  0.8188304E-01
        2   -1    0    0  501    0  0.00000000000E+00  0.00000000000E+00  0.11963946932E+04  0.11963946932E+04  0.25500000920E-02 0.  1.
       -2   -1    0    0    0  501  0.00000000000E+00  0.00000000000E+00 -0.21423615774E+04  0.21423615774E+04  0.25500000920E-02 0. -1.
    10030    2    1    2    0    0  0.00000000000E+00  0.00000000000E+00 -0.94596688424E+03  0.33387562706E+04  0.32019431738E+04 0.  0.
        1    1    3    3  502    0  0.41291547215E+03 -0.84418671867E+03 -0.18244973463E+04  0.20523013838E+04  0.50400001928E-02 0. -1.
       -1    1    3    3    0  502 -0.41291547215E+03  0.84418671867E+03  0.87853046205E+03  0.12864548869E+04  0.50400001928E-02 0.  1.
</event>
<event>
 5   0  0.1925906E-06  0.3202008E+04  0.7818609E-02  0.8188287E-01
        1   -1    0    0  501    0  0.00000000000E+00  0.00000000000E+00  0.21159927879E+04  0.21159927879E+04  0.50400001928E-02 0. -1.
       -1   -1    0    0    0  501  0.00000000000E+00  0.00000000000E+00 -0.12113531117E+04  0.12113531118E+04  0.50400001928E-02 0.  1.
    10030    2    1    2    0    0  0.00000000000E+00  0.00000000000E+00  0.90463967616E+03  0.33273458997E+04  0.32020083998E+04 0.  0.
        1    1    3    3  502    0  0.81282899653E+03  0.11927771364E+04 -0.26747445644E+03  0.14679750882E+04  0.50400001928E-02 0.  1.
       -1    1    3    3    0  502 -0.81282899653E+03 -0.11927771364E+04  0.11721141326E+04  0.18593708115E+04  0.50400001928E-02 0. -1.
</event>
<event>
 5   0  0.5855568E-06  0.3149365E+04  0.7818609E-02  0.8202319E-01
        2   -1    0    0  501    0  0.00000000000E+00  0.00000000000E+00  0.24946757824E+04  0.24946757824E+04  0.25500000920E-02 0. -1.
       -2   -1    0    0    0  501  0.00000000000E+00  0.00000000000E+00 -0.99396703825E+03  0.99396703826E+03  0.25500000920E-02 0.  1.
    10030    2    1    2    0    0  0.00000000000E+00  0.00000000000E+00  0.15007087441E+04  0.34886428207E+04  0.31493653322E+04 0.  0.
        3    1    3    3  502    0 -0.27387130302E+02 -0.34792242089E+03 -0.95058677690E+03  0.10126279161E+04  0.10100000352E+00 0.  1.
       -3    1    3    3    0  502  0.27387130302E+02  0.34792242089E+03  0.24512955210E+04  0.24760149046E+04  0.10100000352E+00 0. -1.
</event>
<event>
 5   0  0.2730981E-06  0.2668311E+04  0.7818609E-02  0.8345361E-01
       -1   -1    0    0    0  501  0.00000000000E+00  0.00000000000E+00  0.11489560483E+04  0.11489560483E+04  0.50400001928E-02 0.  1.
        1   -1    0    0  501    0  0.00000000000E+00  0.00000000000E+00 -0.15492068991E+04  0.15492068991E+04  0.50400001928E-02 0. -1.
    10030    2    1    2    0    0  0.00000000000E+00  0.00000000000E+00 -0.40025085083E+03  0.26981629474E+04  0.26683108041E+04 0.  0.
        3    1    3    3  502    0  0.31031251062E+03 -0.61268721290E+03 -0.13567274852E+04  0.15206541205E+04  0.10100000352E+00 0. -1.
       -3    1    3    3    0  502 -0.31031251062E+03  0.61268721290E+03  0.95647663434E+03  0.11775088269E+04  0.10100000352E+00 0.  1.
</event>
<event>
 5   0  0.1999849E-06  0.1650516E+04  0.7818609E-02  0.8790101E-01
        1   -1    0    0  501    0  0.00000000000E+00  0.00000000000E+00  0.60779105498E+03  0.60779105501E+03  0.50400001928E-02 0.  1.
       -1   -1    0    0    0  501  0.00000000000E+00  0.00000000000E+00 -0.11205344636E+04  0.11205344636E+04  0.50400001928E-02 0. -1.
    10030    2    1    2    0    0  0.00000000000E+00  0.00000000000E+00 -0.51274340865E+03  0.17283255187E+04  0.16505160694E+04 0.  0.
        5    1    3    3  502    0  0.77960732792E+01 -0.71878249115E+03 -0.68084520488E+03  0.99009157725E+03  0.46999998093E+01 0. -1.
       -5    1    3    3    0  502 -0.77960732792E+01  0.71878249115E+03  0.16810179623E+03  0.73823394140E+03  0.46999998093E+01 0.  1.
</event>
<event>
 5   0  0.1925906E-06  0.2412861E+04  0.7818609E-02  0.8434704E-01
        1   -1    0    0  501    0  0.00000000000E+00  0.00000000000E+00  0.18053846370E+04  0.18053846370E+04  0.50400001928E-02 0.  1.
       -1   -1    0    0    0  501  0.00000000000E+00  0.00000000000E+00 -0.80618497927E+03  0.80618497929E+03  0.50400001928E-02 0. -1.
    10030    2    1    2    0    0  0.00000000000E+00  0.00000000000E+00  0.99919965769E+03  0.26115696163E+04  0.24128605232E+04 0.  0.
        1    1    3    3  502    0 -0.59795627218E+03  0.91715618289E+03 -0.48831071673E+02  0.10959523899E+04  0.50400001928E-02 0. -1.
       -1    1    3    3    0  502  0.59795627218E+03 -0.91715618289E+03  0.10480307294E+04  0.15156172264E+04  0.50400001928E-02 0.  1.
</event>
<event>
 5   0  0.1925906E-06  0.2656303E+04  0.7818609E-02  0.8349324E-01
       -1   -1    0    0    0  501  0.00000000000E+00  0.00000000000E+00  0.73328093216E+03  0.73328093218E+03  0.50400001928E-02 0.  1.
        1   -1    0    0  501    0  0.00000000000E+00  0.00000000000E+00 -0.24056085599E+04  0.24056085599E+04  0.50400001928E-02 0. -1.
    10030    2    1    2    0    0  0.00000000000E+00  0.00000000000E+00 -0.16723276277E+04  0.31388894921E+04  0.26563033616E+04 0.  0.
        1    1    3    3  502    0  0.68872188416E+03  0.71867305516E+03 -0.18752043893E+04  0.21230215014E+04  0.50400001928E-02 0. -1.
       -1    1    3    3    0  502 -0.68872188416E+03 -0.71867305516E+03  0.20287676158E+03  0.10158679906E+04  0.50400001928E-02 0.  1.
</event>
<event>
 5   0  0.5855568E-06  0.3313841E+04  0.7818609E-02  0.8159383E-01
       -2   -1    0    0    0  501  0.00000000000E+00  0.00000000000E+00  0.98392881979E+03  0.98392881980E+03  0.25500000920E-02 0. -1.
        2   -1    0    0  501    0  0.00000000000E+00  0.00000000000E+00 -0.27902273042E+04  0.27902273042E+04  0.25500000920E-02 0.  1.
    10030    2    1    2    0    0  0.00000000000E+00  0.00000000000E+00 -0.18062984844E+04  0.37741561240E+04  0.33138407073E+04 0.  0.
        3    1    3    3  502    0 -0.50542282495E+02 -0.13785222930E+04 -0.19485310639E+04  0.23873943017E+04  0.10100000352E+00 0.  1.
       -3    1    3    3    0  502  0.50542282495E+02  0.13785222930E+04  0.14223257954E+03  0.13867618222E+04  0.10100000352E+00 0. -1.
</event>
<event>
 5   0  0.1925906E-06  0.1918035E+04  0.7818609E-02  0.8645931E-01
        1   -1    0    0  501    0  0.00000000000E+00  0.00000000000E+00  0.27358816640E+04  0.27358816640E+04  0.50400001928E-02 0. -1.
       -1   -1    0    0    0  501  0.00000000000E+00  0.00000000000E+00 -0.33616754031E+03  0.33616754035E+03  0.50400001928E-02 0.  1.
    10030    2    1    2    0    0  0.00000000000E+00  0.00000000000E+00  0.23997141237E+04  0.30720492043E+04  0.19180350462E+04 0.  0.
        1    1    3    3  502    0  0.69122674602E+03 -0.63342812170E+03  0.15229371478E+04  0.17883968117E+04  0.50400001928E-02 0. -1.
       -1    1    3    3    0  502 -0.69122674602E+03  0.63342812170E+03  0.87677697584E+03  0.12836523927E+04  0.50400001928E-02 0.  1.
</event>
<event>
 5   0  0.2037109E-06  0.3274653E+04  0.7818609E-02  0.8169375E-01
        1   -1    0    0  501    0  0.00000000000E+00  0.00000000000E+00  0.16879270662E+04  0.16879270662E+04  0.50400001928E-02 0. -1.
       -1   -1    0    0    0  501  0.00000000000E+00  0.00000000000E+00 -0.15882424258E+04  0.15882424258E+04  0.50400001928E-02 0.  1.
    10030    2    1    2    0    0  0.00000000000E+00  0.00000000000E+00  0.99684640457E+02  0.32761694920E+04  0.32746525790E+04 0.  0.
        2    1    3    3  502    0  0.13228411973E+04 -0.48129335971E+03 -0.78677781748E+03  0.16126287439E+04  0.25500000920E-02 0.  1.
       -2    1    3    3    0  502 -0.13228411973E+04  0.48129335971E+03  0.88646245794E+03  0.16635407482E+04  0.25500000920E-02 0. -1.
</event>
<event>
 5   0  0.1999849E-06  0.2572953E+04  0.7818609E-02  0.8377447E-01
       -1   -1    0    0    0  501  0.00000000000E+00  0.00000000000E+00  0.15295715486E+04  0.15295715486E+04  0.50400001928E-02 0. -1.
        1   -1    0    0  501    0  0.00000000000E+00  0.00000000000E+00 -0.10820162829E+04  0.10820162829E+04  0.50400001928E-02 0.  1.
    10030    2    1    2    0    0  0.00000000000E+00  0.00000000000E+00  0.44755526572E+03  0.26115878315E+04  0.25729526397E+04 0.  0.
        5    1    3    3  502    0 -0.96242022998E+03 -0.75077638790E+03  0.63618066253E+03  0.13764686008E+04  0.46999998093E+01 0. -1.
       -5    1    3    3    0  502  0.96242022998E+03  0.75077638790E+03 -0.18862539681E+03  0.12351192307E+04  0.46999998093E+01 0.  1.
</event>
<event>
 5   0  0.5300268E-06  0.3273439E+04  0.7818609E-02  0.8169687E-01
       -2   -1    0    0    0  501  0.00000000000E+00  0.00000000000E+00  0.17086643905E+04  0.17086643905E+04  0.25500000920E-02 0. -1.
        2   -1    0    0  501    0  0.00000000000E+00  0.00000000000E+00 -0.15678042622E+04  0.15678042622E+04  0.25500000920E-02 0.  1.
    10030    2    1    2    0    0  0.00000000000E+00  0.00000000000E+00  0.14086012831E+03  0.32764686527E+04  0.32734393620E+04 0.  0.
        4    1    3    3  502    0  0.14862001019E+04 -0.48265714692E+03 -0.41695076608E+03  0.16172811192E+04  0.12699999809E+01 0.  1.
       -4    1    3    3    0  502 -0.14862001019E+04  0.48265714692E+03  0.55781089439E+03  0.16591875335E+04  0.12699999809E+01 0. -1.
</event>
<event>
 5   0  0.5855568E-06  0.3344136E+04  0.7818609E-02  0.8151755E-01
       -2   -1    0    0    0  501  0.00000000000E+00  0.00000000000E+00  0.13976779001E+04  0.13976779001E+04  0.25500000920E-02 0.  1.
        2   -1    0    0  501    0  0.00000000000E+00  0.00000000000E+00 -0.20003254653E+04  0.20003254653E+04  0.25500000920E-02 0. -1.
    10030    2    1    2    0    0  0.00000000000E+00  0.00000000000E+00 -0.60264756529E+03  0.33980033654E+04  0.33441355809E+04 0.  0.
        3    1    3    3  502    0 -0.50845329862E+02  0.92879547812E+03 -0.17131527049E+04  0.19493943902E+04  0.10100000352E+00 0. -1.
       -3    1    3    3    0  502  0.50845329862E+02 -0.92879547812E+03  0.11105051397E+04  0.14486089752E+04  0.10100000352E+00 0.  1.
</event>
<event>
 5   0  0.2097842E-06  0.3265269E+04  0.7818609E-02  0.8171789E-01
        1   -1    0    0  501    0  0.00000000000E+00  0.00000000000E+00  0.14378225203E+04  0.14378225203E+04  0.50400001928E-02 0.  1.
       -1   -1    0    0    0  501  0.00000000000E+00  0.00000000000E+00 -0.18538411870E+04  0.18538411870E+04  0.50400001928E-02 0. -1.
    10030    2    1    2    0    0  0.00000000000E+00  0.00000000000E+00 -0.41601866676E+03  0.32916637073E+04  0.32652685083E+04 0.  0.
        4    1    3    3  502    0  0.12278748930E+04 -0.90127503799E+03  0.38455140205E+03  0.15709407502E+04  0.12699999809E+01 0.  1.
       -4    1    3    3    0  502 -0.12278748930E+04  0.90127503799E+03 -0.80057006881E+03  0.17207229571E+04  0.12699999809E+01 0. -1.
</event>
<event>
 5   0  0.2037109E-06  0.3532733E+04  0.7818609E-02  0.8106076E-01
        1   -1    0    0  501    0  0.00000000000E+00  0.00000000000E+00  0.26955513526E+04  0.26955513526E+04  0.50400001928E-02 0. -1.
       -1   -1    0    0    0  501  0.00000000000E+00  0.00000000000E+00 -0.11574816160E+04  0.11574816160E+04  0.50400001928E-02 0.  1.
    10030    2    1    2    0    0  0.00000000000E+00  0.00000000000E+00  0.15380697366E+04  0.38530329687E+04  0.35327332963E+04 0.  0.
        2    1    3    3  502    0  0.45127761745E+03 -0.14868922239E+03  0.26245435161E+04  0.26672061489E+04  0.25500000920E-02 0. -1.
       -2    1    3    3    0  502 -0.45127761745E+03  0.14868922239E+03 -0.10864737795E+04  0.11858268197E+04  0.25500000920E-02 0.  1.
</event>
<event>
 5   0  0.2097842E-06  0.3229234E+04  0.7818609E-02  0.8181139E-01
        1   -1    0    0  501    0  0.00000000000E+00  0.00000000000E+00  0.11619823979E+04  0.11619823980E+04  0.50400001928E-02 0.  1.
       -1   -1    0    0    0  501  0.00000000000E+00  0.00000000000E+00 -0.22435697656E+04  0.22435697656E+04  0.50400001928E-02 0. -1.
    10030    2    1    2    0    0  0.00000000000E+00  0.00000000000E+00 -0.10815873676E+04  0.34055521635E+04  0.32292343217E+04 0.  0.
        4    1    3    3  502    0  0.50435471581E+03  0.44322991954E+03 -0.20893554138E+04  0.21945920120E+04  0.12699999809E+01 0. -1.
       -4    1    3    3    0  502 -0.50435471581E+03 -0.44322991954E+03  0.10077680462E+04  0.12109601516E+04  0.12699999809E+01 0.  1.
</event>
<event>
 5   0  0.1925906E-06  0.3291337E+04  0.7818609E-02  0.8165103E-01
        1   -1    0    0  501    0  0.00000000000E+00  0.00000000000E+00  0.28878246033E+04  0.28878246033E+04  0.50400001928E-02 0. -1.
       -1   -1    0    0    0  501  0.00000000000E+00  0.00000000000E+00 -0.93780787010E+03  0.93780787011E+03  0.50400001928E-02 0.  1.
    10030    2    1    2    0    0  0.00000000000E+00  0.00000000000E+00  0.19500167332E+04  0.38256324734E+04  0.32913368958E+04 0.  0.
        1    1    3    3  502    0  0.71766958591E+03  0.37884277549E+03 -0.68905973205E+03  0.10646007690E+04  0.50400001928E-02 0.  1.
       -1    1    3    3    0  502 -0.71766958591E+03 -0.37884277549E+03  0.26390764652E+04  0.27610317043E+04  0.50400001928E-02 0. -1.
</event>
<event>
 5   0  0.2097842E-06  0.3249447E+04  0.7818609E-02  0.8175879E-01
       -1   -1    0    0    0  501  0.00000000000E+00  0.00000000000E+00  0.12876077772E+04  0.12876077772E+04  0.50400001928E-02 0.  1.
        1   -1    0    0  501    0  0.00000000000E+00  0.00000000000E+00 -0.20501012305E+04  0.20501012305E+04  0.50400001928E-02 0. -1.
    10030    2    1    2    0    0  0.00000000000E+00  0.00000000000E+00 -0.76249345333E+03  0.33377090077E+04  0.32494468996E+04 0.  0.
        4    1    3    3  502    0 -0.21254847770E+03  0.64971017391E+03 -0.18951961727E+04  0.20147134564E+04  0.12699999809E+01 0. -1.
       -4    1    3    3    0  502  0.21254847770E+03 -0.64971017391E+03  0.11327027193E+04  0.13229955513E+04  0.12699999809E+01 0.  1.
</event>
<event>
 5   0  0.5300268E-06  0.2470224E+04  0.7818609E-02  0.8413671E-01
       -2   -1    0    0    0  501  0.00000000000E+00  0.00000000000E+00  0.13834735998E+04  0.13834735998E+04  0.25500000920E-02 0.  1.
        2   -1    0    0  501    0  0.00000000000E+00  0.00000000000E+00 -0.11026608234E+04  0.11026608234E+04  0.25500000920E-02 0. -1.
    10030    2    1    2    0    0  0.00000000000E+00  0.00000000000E+00  0.28081277634E+03  0.24861344232E+04  0.24702243936E+04 0.  0.
        4    1    3    3  502    0  0.40161623033E+03  0.11297585138E+04 -0.15789868597E+03  0.12093731863E+04  0.12699999809E+01 0.  1.
       -4    1    3    3    0  502 -0.40161623033E+03 -0.11297585138E+04  0.43871146231E+03  0.12767612369E+04  0.12699999809E+01 0. -1.
</event>
<event>
 5   0  0.5300268E-06  0.3472262E+04  0.7818609E-02  0.8120395E-01
       -2   -1    0    0    0  501  0.00000000000E+00  0.00000000000E+00  0.15183701861E+04  0.15183701861E+04  0.25500000920E-02 0.  1.
        2   -1    0    0  501    0  0.00000000000E+00  0.00000000000E+00 -0.19851228758E+04  0.19851228758E+04  0.25500000920E-02 0. -1.
    10030    2    1    2    0    0  0.00000000000E+00  0.00000000000E+00 -0.46675268972E+03  0.35034930618E+04  0.34722623117E+04 0.  0.
        4    1    3    3  502    0 -0.89922817817E+03  0.10499673499E+04 -0.12931120340E+04  0.18929297656E+04  0.12699999809E+01 0. -1.
       -4    1    3    3    0  502  0.89922817817E+03 -0.10499673499E+04  0.82635934430E+03  0.16105632962E+04  0.12699999809E+01 0.  1.
</event>
<event>
 5   0  0.1925906E-06  0.3366423E+04  0.7818609E-02  0.8146197E-01
        1   -1    0    0  501    0  0.00000000000E+00  0.00000000000E+00  0.12750405197E+04  0.12750405197E+04  0.50400001928E-02 0. -1.
       -1   -1    0    0    0  501  0.00000000000E+00  0.00000000000E+00 -0.22220474766E+04  0.22220474766E+04  0.50400001928E-02 0.  1.
    10030    2    1    2    0    0  0.00000000000E+00  0.00000000000E+00 -0.94700695693E+03  0.34970879963E+04  0.33664227717E+04 0.  0.
        1    1    3    3  502    0  0.40549820092E+03  0.41178083410E+03  0.11687460048E+04  0.13038249384E+04  0.50400001928E-02 0. -1.
       -1    1    3    3    0  502 -0.40549820092E+03 -0.41178083410E+03 -0.21157529617E+04  0.21932630579E+04  0.50400001928E-02 0.  1.
</event>
<event>
 5   0  0.2097842E-06  0.3267560E+04  0.7818609E-02  0.8171199E-01
       -1   -1    0    0    0  501  0.00000000000E+00  0.00000000000E+00  0.11254441742E+04  0.11254441742E+04  0.50400001928E-02 0.  1.
        1   -1    0    0  501    0  0.00000000000E+00  0.00000000000E+00 -0.23717188380E+04  0.23717188380E+04  0.50400001928E-02 0. -1.
    10030    2    1    2    0    0  0.00000000000E+00  0.00000000000E+00 -0.12462746638E+04  0.34971630122E+04  0.32675600372E+04 0.  0.
        4    1    3    3  502    0  0.94070883596E+03 -0.12179266937E+04 -0.35993478746E+02  0.15393426157E+04  0.12699999809E+01 0.  1.
       -4    1    3    3    0  502 -0.94070883596E+03  0.12179266937E+04 -0.12102811850E+04  0.19578203965E+04  0.12699999809E+01 0. -1.
</event>
<event>
 5   0  0.5300268E-06  0.3263113E+04  0.7818609E-02  0.8172345E-01
        2   -1    0    0  501    0  0.00000000000E+00  0.00000000000E+00  0.19256105738E+04  0.19256105738E+04  0.25500000920E-02 0.  1.
       -2   -1    0    0    0  501  0.00000000000E+00  0.00000000000E+00 -0.13824062673E+04  0.13824062673E+04  0.25500000920E-02 0. -1.
    10030    2    1    2    0    0  0.00000000000E+00  0.00000000000E+00  0.54320430643E+03  0.33080168411E+04  0.32631127015E+04 0.  0.
        4    1    3    3  502    0  0.10044797632E+04 -0.85759787088E+03 -0.69945233460E+03  0.14945530717E+04  0.12699999809E+01 0. -1.
       -4    1    3    3    0  502 -0.10044797632E+04  0.85759787088E+03  0.12426566410E+04  0.18134637695E+04  0.12699999809E+01 0.  1.
</event>
<event>
 5   0  0.5300268E-06  0.3052350E+04  0.7818609E-02  0.8228938E-01
       -2   -1    0    0    0  501  0.00000000000E+00  0.00000000000E+00  0.22313423601E+04  0.22313423601E+04  0.25500000920E-02 0. -1.
        2   -1    0    0  501    0  0.00000000000E+00  0.00000000000E+00 -0.10438602131E+04  0.10438602131E+04  0.25500000920E-02 0.  1.
    10030    2    1    2    0    0  0.00000000000E+00  0.00000000000E+00  0.11874821470E+04  0.32752025732E+04  0.30523495944E+04 0.  0.
        4    1    3    3  502    0 -0.13436520649E+04 -0.69301933004E+03  0.81761544986E+03  0.17187708690E+04  0.12699999809E+01 0.  1.
       -4    1    3    3    0  502  0.13436520649E+04  0.69301933004E+03  0.36986669715E+03  0.15564317042E+04  0.12699999809E+01 0. -1.
</event>
<event>
 5   0  0.5755250E-06  0.3170639E+04  0.7818609E-02  0.8196615E-01
        2   -1    0    0  501    0  0.00000000000E+00  0.00000000000E+00  0.12883662604E+04  0.12883662604E+04  0.25500000920E-02 0. -1.
       -2   -1    0    0    0  501  0.00000000000E+00  0.00000000000E+00 -0.19507170433E+04  0.19507170433E+04  0.25500000920E-02 0.  1.
    10030    2    1    2    0    0  0.00000000000E+00  0.00000000000E+00 -0.66235078291E+03  0.32390833037E+04  0.31706390663E+04 0.  0.
        5    1    3    3  502    0 -0.14871299352E+04  0.45563441901E+03 -0.64448422274E+03  0.16836092692E+04  0.46999998093E+01 0.  1.
       -5    1    3    3    0  502  0.14871299352E+04 -0.45563441901E+03 -0.17866560169E+02  0.15554740345E+04  0.46999998093E+01 0. -1.
</event>
<event>
 5   0  0.5622811E-06  0.3300742E+04  0.7818609E-02  0.8162707E-01
        2   -1    0    0  501    0  0.00000000000E+00  0.00000000000E+00  0.22308988656E+04  0.22308988656E+04  0.25500000920E-02 0. -1.
       -2   -1    0    0    0  501  0.00000000000E+00  0.00000000000E+00 -0.12209092795E+04  0.12209092795E+04  0.25500000920E-02 0.  1.
    10030    2    1    2    0    0  0.00000000000E+00  0.00000000000E+00  0.10099895861E+04  0.34518081451E+04  0.33007424175E+04 0.  0.
        1    1    3    3  502    0 -0.14267340788E+04  0.78568082383E+03  0.78337448107E+03  0.18073572049E+04  0.50400001928E-02 0. -1.
       -1    1    3    3    0  502  0.14267340788E+04 -0.78568082383E+03  0.22661510503E+03  0.16444509401E+04  0.50400001928E-02 0.  1.
</event>
<event>
 5   0  0.1999849E-06  0.3380696E+04  0.7818609E-02  0.8142661E-01
       -1   -1    0    0    0  501  0.00000000000E+00  0.00000000000E+00  0.20237907999E+04  0.20237908000E+04  0.50400001928E-02 0. -1.
        1   -1    0    0  501    0  0.00000000000E+00  0.00000000000E+00 -0.14118434385E+04  0.14118434385E+04  0.50400001928E-02 0.  1.
    10030    2    1    2    0    0  0.00000000000E+00  0.00000000000E+00  0.61194736147E+03  0.34356342384E+04  0.33806956454E+04 0.  0.
        5    1    3    3  502    0 -0.12744789765E+04  0.34207224183E+03  0.13795229216E+04  0.19090352699E+04  0.46999998093E+01 0. -1.
       -5    1    3    3    0  502  0.12744789765E+04 -0.34207224183E+03 -0.76757556016E+03  0.15265989686E+04  0.46999998093E+01 0.  1.
</event>
<event>
 5   0  0.5755250E-06  0.3301247E+04  0.7818609E-02  0.8162578E-01
        2   -1    0    0  501    0  0.00000000000E+00  0.00000000000E+00  0.11511809932E+04  0.11511809932E+04  0.25500000920E-02 0. -1.
       -2   -1    0    0    0  501  0.00000000000E+00  0.00000000000E+00 -0.23667505654E+04  0.23667505654E+04  0.25500000920E-02 0.  1.
    10030    2    1    2    0    0  0.00000000000E+00  0.00000000000E+00 -0.12155695722E+04  0.35179315587E+04  0.33012471986E+04 0.  0.
        5    1    3    3  502    0 -0.57194106674E+03 -0.15479184021E+04 -0.56836754603E+03  0.17453457311E+04  0.46999998093E+01 0. -1.
       -5    1    3    3    0  502  0.57194106674E+03  0.15479184021E+04 -0.64720202618E+03  0.17725858276E+04  0.46999998093E+01 0.  1.
</event>
<event>
 5   0  0.2037109E-06  0.3295275E+04  0.7818609E-02  0.8164099E-01
        1   -1    0    0  501    0  0.00000000000E+00  0.00000000000E+00  0.23370309325E+04  0.23370309325E+04  0.50400001928E-02 0. -1.
       -1   -1    0    0    0  501  0.00000000000E+00  0.00000000000E+00 -0.11616059366E+04  0.11616059366E+04  0.50400001928E-02 0.  1.
    10030    2    1    2    0    0  0.00000000000E+00  0.00000000000E+00  0.11754249959E+04  0.34986368691E+04  0.32952748020E+04 0.  0.
        2    1    3    3  502    0  0.16126846659E+02 -0.13889616490E+04 -0.35310829749E+03  0.14332341077E+04  0.25500000920E-02 0.  1.
       -2    1    3    3    0  502 -0.16126846659E+02  0.13889616490E+04  0.15285332934E+04  0.20654027614E+04  0.25500000920E-02 0. -1.
</event>
<event>
 5   0  0.5755250E-06  0.3322747E+04  0.7818609E-02  0.8157132E-01
       -2   -1    0    0    0  501  0.00000000000E+00  0.00000000000E+00  0.16673632322E+04  0.16673632322E+04  0.25500000920E-02 0. -1.
        2   -1    0    0  501    0  0.00000000000E+00  0.00000000000E+00 -0.16554048464E+04  0.16554048464E+04  0.25500000920E-02 0.  1.
    10030    2    1    2    0    0  0.00000000000E+00  0.00000000000E+00  0.11958385838E+02  0.33227680786E+04  0.33227465598E+04 0.  0.
        5    1    3    3  502    0 -0.13112791510E+04 -0.93615014264E+03 -0.39937387781E+03  0.16599252049E+04  0.46999998093E+01 0. -1.
       -5    1    3    3    0  502  0.13112791510E+04  0.93615014264E+03  0.41133226364E+03  0.16628428737E+04  0.46999998093E+01 0.  1.
</event>
<event>
 5   0  0.2730981E-06  0.1980163E+04  0.7818609E-02  0.8615952E-01
       -1   -1    0    0    0  501  0.00000000000E+00  0.00000000000E+00  0.70870518960E+03  0.70870518961E+03  0.50400001928E-02 0. -1.
        1   -1    0    0  501    0  0.00000000000E+00  0.00000000000E+00 -0.13831716084E+04  0.13831716084E+04  0.50400001928E-02 0.  1.
    10030    2    1    2    0    0  0.00000000000E+00  0.00000000000E+00 -0.67446641881E+03  0.20918767980E+04  0.19801625156E+04 0.  0.
        3    1    3    3  502    0  0.38693984754E+03  0.53186575749E+03 -0.11190224541E+04  0.12980041959E+04  0.10100000352E+00 0.  1.
       -3    1    3    3    0  502 -0.38693984754E+03 -0.53186575749E+03  0.44455603533E+03  0.79387260209E+03  0.10100000352E+00 0. -1.
</event>
<event>
 5   0  0.2097842E-06  0.2149654E+04  0.7818609E-02  0.8539680E-01
        1   -1    0    0  501    0  0.00000000000E+00  0.00000000000E+00  0.11412719196E+04  0.11412719196E+04  0.50400001928E-02 0. -1.
       -1   -1    0    0    0  501  0.00000000000E+00  0.00000000000E+00 -0.10122506088E+04  0.10122506088E+04  0.50400001928E-02 0.  1.
    10030    2    1    2    0    0  0.00000000000E+00  0.00000000000E+00  0.12902131080E+03  0.21535225284E+04  0.21496541075E+04 0.  0.
        4    1    3    3  502    0 -0.35098919549E+03 -0.96151668876E+03  0.39303955025E+03  0.10964440064E+04  0.12699999809E+01 0. -1.
       -4    1    3    3    0  502  0.35098919549E+03  0.96151668876E+03 -0.26401823945E+03  0.10570785221E+04  0.12699999809E+01 0.  1.
</event>
<event>
 5   0  0.2730981E-06  0.3314237E+04  0.7818609E-02  0.8159282E-01
        1   -1    0    0  501    0  0.00000000000E+00  0.00000000000E+00  0.25465141767E+04  0.25465141767E+04  0.50400001928E-02 0.  1.
       -1   -1    0    0    0  501  0.00000000000E+00  0.00000000000E+00 -0.10783534521E+04  0.10783534521E+04  0.50400001928E-02 0. -1.
    10030    2    1    2    0    0  0.00000000000E+00  0.00000000000E+00  0.14681607246E+04  0.36248676288E+04  0.33142373803E+04 0.  0.
        3    1    3    3  502    0 -0.16281588624E+04 -0.20703741863E+03  0.48401008287E+03  0.17111491882E+04  0.10100000352E+00 0.  1.
       -3    1    3    3    0  502  0.16281588624E+04  0.20703741863E+03  0.98415064176E+03  0.19137184406E+04  0.10100000352E+00 0. -1.
</event>
<event>
 5   0  0.2730981E-06  0.3334084E+04  0.7818609E-02  0.8154277E-01
       -1   -1    0    0    0  501  0.00000000000E+00  0.00000000000E+00  0.22595221568E+04  0.22595221568E+04  0.50400001928E-02 0.  1.
        1   -1    0    0  501    0  0.00000000000E+00  0.00000000000E+00 -0.12299187470E+04  0.12299187470E+04  0.50400001928E-02 0. -1.
    10030    2    1    2    0    0  0.00000000000E+00  0.00000000000E+00  0.10296034098E+04  0.34894409038E+04  0.33340837781E+04 0.  0.
        3    1    3    3  502    0  0.44920247525E+03  0.14213762235E+04 -0.26625354816E+03  0.15142602796E+04  0.10100000352E+00 0. -1.
       -3    1    3    3    0  502 -0.44920247525E+03 -0.14213762235E+04  0.12958569579E+04  0.19751806242E+04  0.10100000352E+00 0.  1.
</event>
<event>
 5   0  0.5637538E-06  0.3198464E+04  0.7818609E-02  0.8189223E-01
       -2   -1    0    0    0  501  0.00000000000E+00  0.00000000000E+00  0.18354255735E+04  0.18354255735E+04  0.25500000920E-02 0. -1.
        2   -1    0    0  501    0  0.00000000000E+00  0.00000000000E+00 -0.13934335553E+04  0.13934335553E+04  0.25500000920E-02 0.  1.
    10030    2    1    2    0    0  0.00000000000E+00  0.00000000000E+00  0.44199201816E+03  0.32288591288E+04  0.31984643705E+04 0.  0.
        2    1    3    3  502    0 -0.15789445846E+04  0.12768505489E+03 -0.57575765565E+00  0.15840990519E+04  0.25500000920E-02 0. -1.
       -2    1    3    3    0  502  0.15789445846E+04 -0.12768505489E+03  0.44256777582E+03  0.16447600770E+04  0.25500000920E-02 0.  1.
</event>
<event>
 5   0  0.1999849E-06  0.3302103E+04  0.7818609E-02  0.8162361E-01
       -1   -1    0    0    0  501  0.00000000000E+00  0.00000000000E+00  0.20337556303E+04  0.20337556303E+04  0.50400001928E-02 0.  1.
        1   -1    0    0  501    0  0.00000000000E+00  0.00000000000E+00 -0.13403629688E+04  0.13403629688E+04  0.50400001928E-02 0. -1.
    10030    2    1    2    0    0  0.00000000000E+00  0.00000000000E+00  0.69339266147E+03  0.33741185991E+04  0.33021028055E+04 0.  0.
        5    1    3    3  502    0  0.31684415637E+03  0.97295681358E+03 -0.97729124469E+03  0.14149754229E+04  0.46999998093E+01 0. -1.
       -5    1    3    3    0  502 -0.31684415637E+03 -0.97295681358E+03  0.16706839062E+04  0.19591431762E+04  0.46999998093E+01 0.  1.
</event>
<event>
 5   0  0.2037109E-06  0.2643150E+04  0.7818609E-02  0.8353690E-01
       -1   -1    0    0    0  501  0.00000000000E+00  0.00000000000E+00  0.14324839104E+04  0.14324839104E+04  0.50400001928E-02 0. -1.
        1   -1    0    0  501    0  0.00000000000E+00  0.00000000000E+00 -0.12192531144E+04  0.12192531144E+04  0.50400001928E-02 0.  1.
    10030    2    1    2    0    0  0.00000000000E+00  0.00000000000E+00  0.21323079596E+03  0.26517370248E+04  0.26431499913E+04 0.  0.
        2    1    3    3  502    0 -0.42951009002E+03 -0.72554212520E+02  0.13583938962E+04  0.14265262032E+04  0.25500000920E-02 0. -1.
       -2    1    3    3    0  502  0.42951009002E+03  0.72554212520E+02 -0.11451631002E+04  0.12252108216E+04  0.25500000920E-02 0.  1.
</event>
<event>
 5   0  0.2730981E-06  0.3340236E+04  0.7818609E-02  0.8152732E-01
        1   -1    0    0  501    0  0.00000000000E+00  0.00000000000E+00  0.17757141479E+04  0.17757141479E+04  0.50400001928E-02 0. -1.
       -1   -1    0    0    0  501  0.00000000000E+00  0.00000000000E+00 -0.15708015319E+04  0.15708015319E+04  0.50400001928E-02 0.  1.
    10030    2    1    2    0    0  0.00000000000E+00  0.00000000000E+00  0.20491261597E+03  0.33465156798E+04  0.33402362214E+04 0.  0.
        3    1    3    3  502    0 -0.41305808381E+03  0.14757476540E+04  0.76766715123E+03  0.17139897853E+04  0.10100000352E+00 0. -1.
       -3    1    3    3    0  502  0.41305808381E+03 -0.14757476540E+04 -0.56275453526E+03  0.16325258945E+04  0.10100000352E+00 0.  1.
</event>
<event>
 5   0  0.5622811E-06  0.3272470E+04  0.7818609E-02  0.8169936E-01
       -2   -1    0    0    0  501  0.00000000000E+00  0.00000000000E+00  0.17128066732E+04  0.17128066732E+04  0.25500000920E-02 0.  1.
        2   -1    0    0  501    0  0.00000000000E+00  0.00000000000E+00 -0.15630860241E+04  0.15630860241E+04  0.25500000920E-02 0. -1.
    10030    2    1    2    0    0  0.00000000000E+00  0.00000000000E+00  0.14972064910E+03  0.32758926973E+04  0.32724695096E+04 0.  0.
        1    1    3    3  502    0 -0.35777829991E+03  0.14333854193E+04 -0.62919971347E+03  0.16057681500E+04  0.50400001928E-02 0. -1.
       -1    1    3    3    0  502  0.35777829991E+03 -0.14333854193E+04  0.77892036258E+03  0.16701245473E+04  0.50400001928E-02 0.  1.
</event>
<event>
 5   0  0.5637538E-06  0.3297373E+04  0.7818609E-02  0.8163564E-01
        2   -1    0    0  501    0  0.00000000000E+00  0.00000000000E+00  0.22679318766E+04  0.22679318766E+04  0.25500000920E-02 0. -1.
       -2   -1    0    0    0  501  0.00000000000E+00  0.00000000000E+00 -0.11985222951E+04  0.11985222951E+04  0.25500000920E-02 0.  1.
    10030    2    1    2    0    0  0.00000000000E+00  0.00000000000E+00  0.10694095815E+04  0.34664541717E+04  0.32973728439E+04 0.  0.
        2    1    3    3  502    0 -0.10251628402E+04 -0.12324979876E+04  0.13005607100E+03  0.16083919671E+04  0.25500000920E-02 0.  1.
       -2    1    3    3    0  502  0.10251628402E+04  0.12324979876E+04  0.93935351054E+03  0.18580622046E+04  0.25500000920E-02 0. -1.
</event>
<event>
 5   0  0.2730981E-06  0.3274887E+04  0.7818609E-02  0.8169315E-01
       -1   -1    0    0    0  501  0.00000000000E+00  0.00000000000E+00  0.10942765256E+04  0.10942765257E+04  0.50400001928E-02 0. -1.
        1   -1    0    0  501    0  0.00000000000E+00  0.00000000000E+00 -0.24502225622E+04  0.24502225622E+04  0.50400001928E-02 0.  1.
    10030    2    1    2    0    0  0.00000000000E+00  0.00000000000E+00 -0.13559460365E+04  0.35444990878E+04  0.32748868881E+04 0.  0.
        3    1    3    3  502    0  0.82958377697E+03  0.14116678880E+04 -0.66245555249E+03  0.17663133465E+04  0.10100000352E+00 0.  1.
       -3    1    3    3    0  502 -0.82958377697E+03 -0.14116678880E+04 -0.69349048403E+03  0.17781857413E+04  0.10100000352E+00 0. -1.
</event>
<event>
 5   0  0.5622811E-06  0.3259291E+04  0.7818609E-02  0.8173332E-01
       -2   -1    0    0    0  501  0.00000000000E+00  0.00000000000E+00  0.12845201995E+04  0.12845201995E+04  0.25500000920E-02 0.  1.
        2   -1    0    0  501    0  0.00000000000E+00  0.00000000000E+00 -0.20674988629E+04  0.20674988629E+04  0.25500000920E-02 0. -1.
    10030    2    1    2    0    0  0.00000000000E+00  0.00000000000E+00 -0.78297866335E+03  0.33520190624E+04  0.32592907522E+04 0.  0.
        1    1    3    3  502    0 -0.13801081600E+04  0.48685538075E+03  0.34585826216E+03  0.15037767895E+04  0.50400001928E-02 0.  1.
       -1    1    3    3    0  502  0.13801081600E+04 -0.48685538075E+03 -0.11288369255E+04  0.18482422729E+04  0.50400001928E-02 0. -1.
</event>
<event>
 5   0  0.1925906E-06  0.3301489E+04  0.7818609E-02  0.8162517E-01
        1   -1    0    0  501    0  0.00000000000E+00  0.00000000000E+00  0.24505950261E+04  0.24505950261E+04  0.50400001928E-02 0. -1.
       -1   -1    0    0    0  501  0.00000000000E+00  0.00000000000E+00 -0.11119573310E+04  0.11119573310E+04  0.50400001928E-02 0.  1.
    10030    2    1    2    0    0  0.00000000000E+00  0.00000000000E+00  0.13386376951E+04  0.35625523571E+04  0.33014888185E+04 0.  0.
        1    1    3    3  502    0 -0.96954201518E+03  0.22151808640E+03  0.20910276900E+04  0.23154867268E+04  0.50400001928E-02 0. -1.
       -1    1    3    3    0  502  0.96954201518E+03 -0.22151808640E+03 -0.75238999488E+03  0.12470656303E+04  0.50400001928E-02 0.  1.
</event>
<event>
 5   0  0.3061918E-06  0.1820049E+04  0.7818609E-02  0.8695710E-01
        1   -1    0    0  501    0  0.00000000000E+00  0.00000000000E+00  0.15911696474E+04  0.15911696474E+04  0.50400001928E-02 0.  1.
       -1   -1    0    0    0  501  0.00000000000E+00  0.00000000000E+00 -0.52046268544E+03  0.52046268546E+03  0.50400001928E-02 0. -1.
    10030    2    1    2    0    0  0.00000000000E+00  0.00000000000E+00  0.10707069620E+04  0.21116323329E+04  0.18200488210E+04 0.  0.
        3    1    3    3  502    0 -0.58668446878E+03 -0.38796093415E+03 -0.13459120510E+03  0.71611951170E+03  0.10100000352E+00 0.  1.
       -3    1    3    3    0  502  0.58668446878E+03  0.38796093415E+03  0.12052981671E+04  0.13955128212E+04  0.10100000352E+00 0. -1.
</event>
<event>
 5   0  0.5300268E-06  0.3105980E+04  0.7818609E-02  0.8214099E-01
       -2   -1    0    0    0  501  0.00000000000E+00  0.00000000000E+00  0.18752372591E+04  0.18752372591E+04  0.25500000920E-02 0. -1.
        2   -1    0    0  501    0  0.00000000000E+00  0.00000000000E+00 -0.12861190759E+04  0.12861190759E+04  0.25500000920E-02 0.  1.
    10030    2    1    2    0    0  0.00000000000E+00  0.00000000000E+00  0.58911818317E+03  0.31613563349E+04  0.31059803030E+04 0.  0.
        4    1    3    3  502    0 -0.38213751955E+03  0.14352643216E+04  0.75625868647E+03  0.16667158038E+04  0.12699999809E+01 0. -1.
       -4    1    3    3    0  502  0.38213751955E+03 -0.14352643216E+04 -0.16714050330E+03  0.14946405312E+04  0.12699999809E+01 0.  1.
</event>
<event>
 5   0  0.5755250E-06  0.3252477E+04  0.7818609E-02  0.8175094E-01
        2   -1    0    0  501    0  0.00000000000E+00  0.00000000000E+00  0.16617054155E+04  0.16617054155E+04  0.25500000920E-02 0.  1.
       -2   -1    0    0    0  501  0.00000000000E+00  0.00000000000E+00 -0.15915282194E+04  0.15915282194E+04  0.25500000920E-02 0. -1.
    10030    2    1    2    0    0  0.00000000000E+00  0.00000000000E+00  0.70177196060E+02  0.32532336350E+04  0.32524766325E+04 0.  0.
        5    1    3    3  502    0 -0.14628613843E+04 -0.69274438663E+03 -0.12233531457E+03  0.16232209443E+04  0.46999998093E+01 0. -1.
       -5    1    3    3    0  502  0.14628613843E+04  0.69274438663E+03  0.19251251063E+03  0.16300126906E+04  0.46999998093E+01 0.  1.
</event>
<event>
 5   0  0.5622811E-06  0.3210284E+04  0.7818609E-02  0.8186107E-01
        2   -1    0    0  501    0  0.00000000000E+00  0.00000000000E+00  0.31366486812E+04  0.31366486812E+04  0.25500000920E-02 0.  1.
       -2   -1    0    0    0  501  0.00000000000E+00  0.00000000000E+00 -0.82141189466E+03  0.82141189467E+03  0.25500000920E-02 0. -1.
    10030    2    1    2    0    0  0.00000000000E+00  0.00000000000E+00  0.23152367866E+04  0.39580605759E+04  0.32102838106E+04 0.  0.
        1    1    3    3  502    0  0.61959367712E+03  0.94437100081E+03  0.25637809475E+04  0.28015541506E+04  0.50400001928E-02 0.  1.
       -1    1    3    3    0  502 -0.61959367712E+03 -0.94437100081E+03 -0.24854416090E+03  0.11565064253E+04  0.50400001928E-02 0. -1.
</event>
<event>
 5   0  0.5755250E-06  0.3280976E+04  0.7818609E-02  0.8167753E-01
       -2   -1    0    0    0  501  0.00000000000E+00  0.00000000000E+00  0.13509715177E+04  0.13509715177E+04  0.25500000920E-02 0.  1.
        2   -1    0    0  501    0  0.00000000000E+00  0.00000000000E+00 -0.19920480484E+04  0.19920480484E+04  0.25500000920E-02 0. -1.
    10030    2    1    2    0    0  0.00000000000E+00  0.00000000000E+00 -0.64107653071E+03  0.33430195660E+04  0.32809755715E+04 0.  0.
        5    1    3    3  502    0  0.13431341665E+04  0.51175755663E+03 -0.11262333691E+04  0.18260144791E+04  0.46999998093E+01 0. -1.
       -5    1    3    3    0  502 -0.13431341665E+04 -0.51175755663E+03  0.48515683840E+03  0.15170050870E+04  0.46999998093E+01 0.  1.
</event>
<event>
 5   0  0.5300268E-06  0.2458101E+04  0.7818609E-02  0.8418066E-01
        2   -1    0    0  501    0  0.00000000000E+00  0.00000000000E+00  0.10467346125E+04  0.10467346125E+04  0.25500000920E-02 0. -1.
       -2   -1    0    0    0  501  0.00000000000E+00  0.00000000000E+00 -0.14431213367E+04  0.14431213367E+04  0.25500000920E-02 0.  1.
    10030    2    1    2    0    0  0.00000000000E+00  0.00000000000E+00 -0.39638672421E+03  0.24898559492E+04  0.24581009362E+04 0.  0.
        4    1    3    3  502    0  0.64531215709E+03 -0.58709724513E+03  0.67869955350E+03  0.11053260388E+04  0.12699999809E+01 0. -1.
       -4    1    3    3    0  502 -0.64531215709E+03  0.58709724513E+03 -0.10750862777E+04  0.13845299104E+04  0.12699999809E+01 0.  1.
</event>
<event>
 5   0  0.2730981E-06  0.3057755E+04  0.7818609E-02  0.8227428E-01
       -1   -1    0    0    0  501  0.00000000000E+00  0.00000000000E+00  0.15187710686E+04  0.15187710686E+04  0.50400001928E-02 0.  1.
        1   -1    0    0  501    0  0.00000000000E+00  0.00000000000E+00 -0.15390513431E+04  0.15390513431E+04  0.50400001928E-02 0. -1.
    10030    2    1    2    0    0  0.00000000000E+00  0.00000000000E+00 -0.20280274546E+02  0.30578224117E+04  0.30577551590E+04 0.  0.
        3    1    3    3  502    0 -0.31504994484E+03 -0.40469685334E+03  0.14301799257E+04  0.15193586281E+04  0.10100000352E+00 0.  1.
       -3    1    3    3    0  502  0.31504994484E+03  0.40469685334E+03 -0.14504602002E+04  0.15384637836E+04  0.10100000352E+00 0. -1.
</event>
<event>
 5   0  0.2730981E-06  0.3380598E+04  0.7818609E-02  0.8142685E-01
        1   -1    0    0  501    0  0.00000000000E+00  0.00000000000E+00  0.85633604391E+03  0.85633604393E+03  0.50400001928E-02 0. -1.
       -1   -1    0    0    0  501  0.00000000000E+00  0.00000000000E+00 -0.33364368074E+04  0.33364368074E+04  0.50400001928E-02 0.  1.
    10030    2    1    2    0    0  0.00000000000E+00  0.00000000000E+00 -0.24801007634E+04  0.41927728513E+04  0.33805982290E+04 0.  0.
        3    1    3    3  502    0 -0.14901913994E+04  0.69746837953E+03 -0.17203611622E+04  0.23804989153E+04  0.10100000352E+00 0.  1.
       -3    1    3    3    0  502  0.14901913994E+04 -0.69746837953E+03 -0.75973960129E+03  0.18122739360E+04  0.10100000352E+00 0. -1.
</event>
<event>
 5   0  0.5855568E-06  0.3299044E+04  0.7818609E-02  0.8163139E-01
        2   -1    0    0  501    0  0.00000000000E+00  0.00000000000E+00  0.18778072629E+04  0.18778072629E+04  0.25500000920E-02 0.  1.
       -2   -1    0    0    0  501  0.00000000000E+00  0.00000000000E+00 -0.14489891943E+04  0.14489891944E+04  0.25500000920E-02 0. -1.
    10030    2    1    2    0    0  0.00000000000E+00  0.00000000000E+00  0.42881806858E+03  0.33267964573E+04  0.32990437603E+04 0.  0.
        3    1    3    3  502    0  0.45787861182E+03 -0.37411033056E+03 -0.13384513746E+04  0.14632373201E+04  0.10100000352E+00 0. -1.
       -3    1    3    3    0  502 -0.45787861182E+03  0.37411033056E+03  0.17672694432E+04  0.18635591371E+04  0.10100000352E+00 0.  1.
</event>
<event>
 5   0  0.5300268E-06  0.3282837E+04  0.7818609E-02  0.8167276E-01
        2   -1    0    0  501    0  0.00000000000E+00  0.00000000000E+00  0.21818884486E+04  0.21818884486E+04  0.25500000920E-02 0.  1.
       -2   -1    0    0    0  501  0.00000000000E+00  0.00000000000E+00 -0.12348268059E+04  0.12348268059E+04  0.25500000920E-02 0. -1.
    10030    2    1    2    0    0  0.00000000000E+00  0.00000000000E+00  0.94706164268E+03  0.34167152545E+04  0.32828367878E+04 0.  0.
        4    1    3    3  502    0  0.28427742718E+02 -0.98238467386E+03 -0.89475623929E+03  0.13290892087E+04  0.12699999809E+01 0. -1.
       -4    1    3    3    0  502 -0.28427742718E+02  0.98238467386E+03  0.18418178820E+04  0.20876260458E+04  0.12699999809E+01 0.  1.
</event>
<event>
 5   0  0.2037109E-06  0.3175395E+04  0.7818609E-02  0.8195346E-01
        1   -1    0    0  501    0  0.00000000000E+00  0.00000000000E+00  0.18158412688E+04  0.18158412688E+04  0.50400001928E-02 0. -1.
       -1   -1    0    0    0  501  0.00000000000E+00  0.00000000000E+00 -0.13882178988E+04  0.13882178988E+04  0.50400001928E-02 0.  1.
    10030    2    1    2    0    0  0.00000000000E+00  0.00000000000E+00  0.42762336997E+03  0.32040591676E+04  0.31753949995E+04 0.  0.
        2    1    3    3  502    0 -0.27969726556E+03 -0.13505881383E+04  0.10073358352E+04  0.17079357027E+04  0.25500000920E-02 0. -1.
       -2    1    3    3    0  502  0.27969726556E+03  0.13505881383E+04 -0.57971246521E+03  0.14961234649E+04  0.25500000920E-02 0.  1.
</event>
<event>
 5   0  0.1925906E-06  0.3394611E+04  0.7818609E-02  0.8139230E-01
       -1   -1    0    0    0  501  0.00000000000E+00  0.00000000000E+00  0.94401647354E+03  0.94401647355E+03  0.50400001928E-02 0.  1.
        1   -1    0    0  501    0  0.00000000000E+00  0.00000000000E+00 -0.30516899790E+04  0.30516899790E+04  0.50400001928E-02 0. -1.
    10030    2    1    2    0    0  0.00000000000E+00  0.00000000000E+00 -0.21076735054E+04  0.39957064525E+04  0.33946107950E+04 0.  0.
        1    1    3    3  502    0  0.16217061983E+04 -0.11436125547E+02 -0.16432954170E+04  0.23087835771E+04  0.50400001928E-02 0.  1.
       -1    1    3    3    0  502 -0.16217061983E+04  0.11436125547E+02 -0.46437808842E+03  0.16869228754E+04  0.50400001928E-02 0. -1.
</event>
<event>
 5   0  0.2037109E-06  0.3274164E+04  0.7818609E-02  0.8169501E-01
        1   -1    0    0  501    0  0.00000000000E+00  0.00000000000E+00  0.28359524787E+04  0.28359524788E+04  0.50400001928E-02 0.  1.
       -1   -1    0    0    0  501  0.00000000000E+00  0.00000000000E+00 -0.94502227576E+03  0.94502227578E+03  0.50400001928E-02 0. -1.
    10030    2    1    2    0    0  0.00000000000E+00  0.00000000000E+00  0.18909302030E+04  0.37809747545E+04  0.32741644830E+04 0.  0.
        2    1    3    3  502    0  0.11396377291E+04  0.39126308280E+03 -0.33431048075E+03  0.12504496995E+04  0.25500000920E-02 0. -1.
       -2    1    3    3    0  502 -0.11396377291E+04 -0.39126308280E+03  0.22252406837E+04  0.25305250550E+04  0.25500000920E-02 0.  1.
</event>
<event>
 5   0  0.5300268E-06  0.3294118E+04  0.7818609E-02  0.8164394E-01
       -2   -1    0    0    0  501  0.00000000000E+00  0.00000000000E+00  0.15227646351E+04  0.15227646351E+04  0.25500000920E-02 0.  1.
        2   -1    0    0  501    0  0.00000000000E+00  0.00000000000E+00 -0.17814988487E+04  0.17814988487E+04  0.25500000920E-02 0. -1.
    10030    2    1    2    0    0  0.00000000000E+00  0.00000000000E+00 -0.25873421352E+03  0.33042634838E+04  0.32941180576E+04 0.  0.
        4    1    3    3  502    0 -0.69901534736E+03  0.78581161620E+03  0.11420853772E+04  0.15525730172E+04  0.12699999809E+01 0.  1.
       -4    1    3    3    0  502  0.69901534736E+03 -0.78581161620E+03 -0.14008195908E+04  0.17516904666E+04  0.12699999809E+01 0. -1.
</event>
<event>
 5   0  0.5300268E-06  0.3259840E+04  0.7818609E-02  0.8173190E-01
       -2   -1    0    0    0  501  0.00000000000E+00  0.00000000000E+00  0.11295495139E+04  0.11295495139E+04  0.25500000920E-02 0. -1.
        2   -1    0    0  501    0  0.00000000000E+00  0.00000000000E+00 -0.23519451612E+04  0.23519451612E+04  0.25500000920E-02 0.  1.
    10030    2    1    2    0    0  0.00000000000E+00  0.00000000000E+00 -0.12223956473E+04  0.34814946751E+04  0.32598395749E+04 0.  0.
        4    1    3    3  502    0 -0.60173838947E+03  0.13393397884E+04  0.14453026466E+03  0.14754019006E+04  0.12699999809E+01 0. -1.
       -4    1    3    3    0  502  0.60173838947E+03 -0.13393397884E+04 -0.13669259119E+04  0.20060927745E+04  0.12699999809E+01 0.  1.
</event>
<event>
 5   0  0.5755250E-06  0.3274970E+04  0.7818609E-02  0.8169293E-01
        2   -1    0    0  501    0  0.00000000000E+00  0.00000000000E+00  0.15556409853E+04  0.15556409853E+04  0.25500000920E-02 0.  1.
       -2   -1    0    0    0  501  0.00000000000E+00  0.00000000000E+00 -0.17236354088E+04  0.17236354088E+04  0.25500000920E-02 0. -1.
    10030    2    1    2    0    0  0.00000000000E+00  0.00000000000E+00 -0.16799442354E+03  0.32792763941E+04  0.32749704644E+04 0.  0.
        5    1    3    3  502    0 -0.65078199951E+03 -0.62888625077E+03 -0.14504601804E+04  0.17096408840E+04  0.46999998093E+01 0. -1.
       -5    1    3    3    0  502  0.65078199951E+03  0.62888625077E+03  0.12824657568E+04  0.15696355101E+04  0.46999998093E+01 0.  1.
</event>
<event>
 5   0  0.2730981E-06  0.3327367E+04  0.7818609E-02  0.8155967E-01
        1   -1    0    0  501    0  0.00000000000E+00  0.00000000000E+00  0.11882492253E+04  0.11882492253E+04  0.50400001928E-02 0.  1.
       -1   -1    0    0    0  501  0.00000000000E+00  0.00000000000E+00 -0.23293448384E+04  0.23293448384E+04  0.50400001928E-02 0. -1.
    10030    2    1    2    0    0  0.00000000000E+00  0.00000000000E+00 -0.11410956131E+04  0.35175940637E+04  0.33273666463E+04 0.  0.
        3    1    3    3  502    0  0.10629683413E+04  0.11563565444E+04  0.92406509758E+01  0.15707156178E+04  0.10100000352E+00 0. -1.
       -3    1    3    3    0  502 -0.10629683413E+04 -0.11563565444E+04 -0.11503362640E+04  0.19468784458E+04  0.10100000352E+00 0.  1.
</event>
<event>
 5   0  0.2037109E-06  0.2392756E+04  0.7818609E-02  0.8442221E-01
       -1   -1    0    0    0  501  0.00000000000E+00  0.00000000000E+00  0.14599889628E+04  0.14599889628E+04  0.50400001928E-02 0. -1.
        1   -1    0    0  501    0  0.00000000000E+00  0.00000000000E+00 -0.98036342005E+03  0.98036342006E+03  0.50400001928E-02 0.  1.
    10030    2    1    2    0    0  0.00000000000E+00  0.00000000000E+00  0.47962554274E+03  0.24403523829E+04  0.23927555436E+04 0.  0.
        2    1    3    3  502    0  0.99246285874E+03  0.66797480901E+03  0.22745138620E+03  0.12177466914E+04  0.25500000920E-02 0.  1.
       -2    1    3    3    0  502 -0.99246285874E+03 -0.66797480901E+03  0.25217415654E+03  0.12226056914E+04  0.25500000920E-02 0. -1.
</event>
<event>
 5   0  0.5622811E-06  0.3351487E+04  0.7818609E-02  0.8149917E-01
       -2   -1    0    0    0  501  0.00000000000E+00  0.00000000000E+00  0.21592897930E+04  0.21592897930E+04  0.25500000920E-02 0.  1.
        2   -1    0    0  501    0  0.00000000000E+00  0.00000000000E+00 -0.13004816177E+04  0.13004816177E+04  0.25500000920E-02 0. -1.
    10030    2    1    2    0    0  0.00000000000E+00  0.00000000000E+00  0.85880817539E+03  0.34597714107E+04  0.33514872418E+04 0.  0.
        1    1    3    3  502    0 -0.34747337205E+03  0.16390616190E+04  0.39920223957E+03  0.17223887956E+04  0.50400001928E-02 0. -1.
       -1    1    3    3    0  502  0.34747337205E+03 -0.16390616190E+04  0.45960593582E+03  0.17373826151E+04  0.50400001928E-02 0.  1.
</event>
<event>
 5   0  0.2097842E-06  0.3015499E+04  0.7818609E-02  0.8239319E-01
       -1   -1    0    0    0  501  0.00000000000E+00  0.00000000000E+00  0.10558580594E+04  0.10558580594E+04  0.50400001928E-02 0. -1.
        1   -1    0    0  501    0  0.00000000000E+00  0.00000000000E+00 -0.21530434619E+04  0.21530434619E+04  0.50400001928E-02 0.  1.
    10030    2    1    2    0    0  0.00000000000E+00  0.00000000000E+00 -0.10971854025E+04  0.32089015213E+04  0.30154988254E+04 0.  0.
        4    1    3    3  502    0  0.13385619813E+04  0.50801469204E+03 -0.45536922216E+02  0.14324462744E+04  0.12699999809E+01 0. -1.
       -4    1    3    3    0  502 -0.13385619813E+04 -0.50801469204E+03 -0.10516484803E+04  0.17764552469E+04  0.12699999809E+01 0.  1.
</event>
<event>
 5   0  0.5300268E-06  0.3354661E+04  0.7818609E-02  0.8149124E-01
       -2   -1    0    0    0  501  0.00000000000E+00  0.00000000000E+00  0.11748221192E+04  0.11748221192E+04  0.25500000920E-02 0. -1.
        2   -1    0    0  501    0  0.00000000000E+00  0.00000000000E+00 -0.23947775421E+04  0.23947775421E+04  0.25500000920E-02 0.  1.
    10030    2    1    2    0    0  0.00000000000E+00  0.00000000000E+00 -0.12199554230E+04  0.35695996613E+04  0.33546610124E+04 0.  0.
        4    1    3    3  502    0 -0.71080964478E+03  0.69086609080E+03  0.82982160150E+03  0.12927303701E+04  0.12699999809E+01 0. -1.
       -4    1    3    3    0  502  0.71080964478E+03 -0.69086609080E+03 -0.20497770245E+04  0.22768692912E+04  0.12699999809E+01 0.  1.
</event>
<event>
 5   0  0.5637538E-06  0.3310251E+04  0.7818609E-02  0.8160292E-01
       -2   -1    0    0    0  501  0.00000000000E+00  0.00000000000E+00  0.10677262090E+04  0.10677262090E+04  0.25500000920E-02 0. -1.
        2   -1    0    0  501    0  0.00000000000E+00  0.00000000000E+00 -0.25656769795E+04  0.25656769795E+04  0.25500000920E-02 0.  1.
    10030    2    1    2    0    0  0.00000000000E+00  0.00000000000E+00 -0.14979507705E+04  0.36334031885E+04  0.33102510810E+04 0.  0.
        2    1    3    3  502    0 -0.17917629559E+03 -0.65836398304E+03 -0.24041266705E+04  0.24990742940E+04  0.25500000920E-02 0.  1.
       -2    1    3    3    0  502  0.17917629559E+03  0.65836398304E+03  0.90617590005E+03  0.11343288945E+04  0.25500000920E-02 0. -1.
</event>
<event>
 5   0  0.2097842E-06  0.1854931E+04  0.7818609E-02  0.8677621E-01
       -1   -1    0    0    0  501  0.00000000000E+00  0.00000000000E+00  0.13422851853E+04  0.13422851853E+04  0.50400001928E-02 0. -1.
        1   -1    0    0  501    0  0.00000000000E+00  0.00000000000E+00 -0.64084188896E+03  0.64084188898E+03  0.50400001928E-02 0.  1.
    10030    2    1    2    0    0  0.00000000000E+00  0.00000000000E+00  0.70144329636E+03  0.19831270743E+04  0.18549313451E+04 0.  0.
        4    1    3    3  502    0 -0.25730925434E+03 -0.81344925563E+03  0.73956535767E+03  0.11290997631E+04  0.12699999809E+01 0. -1.
       -4    1    3    3    0  502  0.25730925434E+03  0.81344925563E+03 -0.38122061304E+02  0.85402731122E+03  0.12699999809E+01 0.  1.
</event>
<event>
 5   0  0.5300268E-06  0.3398818E+04  0.7818609E-02  0.8138196E-01
        2   -1    0    0  501    0  0.00000000000E+00  0.00000000000E+00  0.20671147662E+04  0.20671147662E+04  0.25500000920E-02 0.  1.
       -2   -1    0    0    0  501  0.00000000000E+00  0.00000000000E+00 -0.13971119889E+04  0.13971119889E+04  0.25500000920E-02 0. -1.
    10030    2    1    2    0    0  0.00000000000E+00  0.00000000000E+00  0.67000277731E+03  0.34642267551E+04  0.33988179253E+04 0.  0.
        4    1    3    3  502    0  0.12342288350E+04 -0.90066248688E+03 -0.42327512236E+03  0.15854580330E+04  0.12699999809E+01 0. -1.
       -4    1    3    3    0  502 -0.12342288350E+04  0.90066248688E+03  0.10932778997E+04  0.18787687221E+04  0.12699999809E+01 0.  1.
</event>
<event>
 5   0  0.2730981E-06  0.1799929E+04  0.7818609E-02  0.8706337E-01
       -1   -1    0    0    0  501  0.00000000000E+00  0.00000000000E+00  0.53712239574E+03  0.53712239577E+03  0.50400001928E-02 0.  1.
        1   -1    0    0  501    0  0.00000000000E+00  0.00000000000E+00 -0.15079173773E+04  0.15079173773E+04  0.50400001928E-02 0. -1.
    10030    2    1    2    0    0  0.00000000000E+00  0.00000000000E+00 -0.97079498154E+03  0.20450397731E+04  0.17999291034E+04 0.  0.
        3    1    3    3  502    0  0.51240471586E+03  0.52438687990E+03 -0.10783865980E+04  0.13040160496E+04  0.10100000352E+00 0. -1.
       -3    1    3    3    0  502 -0.51240471586E+03 -0.52438687990E+03  0.10759161644E+03  0.74102372349E+03  0.10100000352E+00 0.  1.
</event>
<event>
 5   0  0.5755250E-06  0.3265209E+04  0.7818609E-02  0.8171805E-01
        2   -1    0    0  501    0  0.00000000000E+00  0.00000000000E+00  0.17190409081E+04  0.17190409081E+04  0.25500000920E-02 0.  1.
       -2   -1    0    0    0  501  0.00000000000E+00  0.00000000000E+00 -0.15505143732E+04  0.15505143732E+04  0.25500000920E-02 0. -1.
    10030    2    1    2    0    0  0.00000000000E+00  0.00000000000E+00  0.16852653497E+03  0.32695552813E+04  0.32652091119E+04 0.  0.
        5    1    3    3  502    0 -0.13632634515E+04 -0.42627065483E+03  0.87599999476E+03  0.16755870584E+04  0.46999998093E+01 0.  1.
       -5    1    3    3    0  502  0.13632634515E+04  0.42627065483E+03 -0.70747345979E+03  0.15939682229E+04  0.46999998093E+01 0. -1.
</event>
<event>
 5   0  0.5755250E-06  0.2272954E+04  0.7818609E-02  0.8488662E-01
        2   -1    0    0  501    0  0.00000000000E+00  0.00000000000E+00  0.15936080715E+04  0.15936080715E+04  0.25500000920E-02 0. -1.
       -2   -1    0    0    0  501  0.00000000000E+00  0.00000000000E+00 -0.81047496458E+03  0.81047496458E+03  0.25500000920E-02 0.  1.
    10030    2    1    2    0    0  0.00000000000E+00  0.00000000000E+00  0.78313310695E+03  0.24040830361E+04  0.22729535370E+04 0.  0.
        5    1    3    3  502    0 -0.72203736325E+03  0.79361806720E+03 -0.47357796029E+01  0.10729455290E+04  0.46999998093E+01 0. -1.
       -5    1    3    3    0  502  0.72203736325E+03 -0.79361806720E+03  0.78786888655E+03  0.13311375071E+04  0.46999998093E+01 0.  1.
</event>
<event>
 5   0  0.5622811E-06  0.2128197E+04  0.7818609E-02  0.8548923E-01
       -2   -1    0    0    0  501  0.00000000000E+00  0.00000000000E+00  0.87218614113E+03  0.87218614114E+03  0.25500000920E-02 0.  1.
        2   -1    0    0  501    0  0.00000000000E+00  0.00000000000E+00 -0.12982380345E+04  0.12982380345E+04  0.25500000920E-02 0. -1.
    10030    2    1    2    0    0  0.00000000000E+00  0.00000000000E+00 -0.42605189338E+03  0.21704241757E+04  0.21281966278E+04 0.  0.
        1    1    3    3  502    0 -0.10010297129E+04 -0.34491972755E+03 -0.32131720417E+03  0.11064695433E+04  0.50400001928E-02 0.  1.
       -1    1    3    3    0  502  0.10010297129E+04  0.34491972755E+03 -0.10473468921E+03  0.10639546323E+04  0.50400001928E-02 0. -1.
</event>
<event>
 5   0  0.2037109E-06  0.3074721E+04  0.7818609E-02  0.8222710E-01
        1   -1    0    0  501    0  0.00000000000E+00  0.00000000000E+00  0.13210304229E+04  0.13210304230E+04  0.50400001928E-02 0. -1.
       -1   -1    0    0    0  501  0.00000000000E+00  0.00000000000E+00 -0.17891166416E+04  0.17891166416E+04  0.50400001928E-02 0.  1.
    10030    2    1    2    0    0  0.00000000000E+00  0.00000000000E+00 -0.46808621863E+03  0.31101470645E+04  0.30747211345E+04 0.  0.
        2    1    3    3  502    0  0.12058506188E+04  0.34587493259E+03 -0.11329736781E+04  0.16903652088E+04  0.25500000920E-02 0.  1.
       -2    1    3    3    0  502 -0.12058506188E+04 -0.34587493259E+03  0.66488745951E+03  0.14197818557E+04  0.25500000920E-02 0. -1.
</event>
<event>
 5   0  0.2730981E-06  0.3301080E+04  0.7818609E-02  0.8162621E-01
        1   -1    0    0  501    0  0.00000000000E+00  0.00000000000E+00  0.10380717815E+04  0.10380717815E+04  0.50400001928E-02 0.  1.
       -1   -1    0    0    0  501  0.00000000000E+00  0.00000000000E+00 -0.26243676479E+04  0.26243676479E+04  0.50400001928E-02 0. -1.
    10030    2    1    2    0    0  0.00000000000E+00  0.00000000000E+00 -0.15862958664E+04  0.36624394294E+04  0.33010798231E+04 0.  0.
        3    1    3    3  502    0 -0.13944541569E+04  0.17409035097E+03  0.16734057382E+03  0.14152076611E+04  0.10100000352E+00 0.  1.
       -3    1    3    3    0  502  0.13944541569E+04 -0.17409035097E+03 -0.17536364403E+04  0.22472317684E+04  0.10100000352E+00 0. -1.
</event>
<event>
 5   0  0.1925906E-06  0.3320144E+04  0.7818609E-02  0.8157789E-01
       -1   -1    0    0    0  501  0.00000000000E+00  0.00000000000E+00  0.14762652189E+04  0.14762652189E+04  0.50400001928E-02 0.  1.
        1   -1    0    0  501    0  0.00000000000E+00  0.00000000000E+00 -0.18667642150E+04  0.18667642150E+04  0.50400001928E-02 0. -1.
    10030    2    1    2    0    0  0.00000000000E+00  0.00000000000E+00 -0.39049899616E+03  0.33430294339E+04  0.33201440225E+04 0.  0.
        1    1    3    3  502    0  0.67606087683E+03 -0.33713855310E+03  0.12931542715E+04  0.14976543937E+04  0.50400001928E-02 0.  1.
       -1    1    3    3    0  502 -0.67606087683E+03  0.33713855310E+03 -0.16836532677E+04  0.18453750402E+04  0.50400001928E-02 0. -1.
</event>
<event>
 5   0  0.5300268E-06  0.3337133E+04  0.7818609E-02  0.8153511E-01
        2   -1    0    0  501    0  0.00000000000E+00  0.00000000000E+00  0.23555438435E+04  0.23555438435E+04  0.25500000920E-02 0. -1.
       -2   -1    0    0    0  501  0.00000000000E+00  0.00000000000E+00 -0.11819408174E+04  0.11819408174E+04  0.25500000920E-02 0.  1.
    10030    2    1    2    0    0  0.00000000000E+00  0.00000000000E+00  0.11736030262E+04  0.35374846609E+04  0.33371325510E+04 0.  0.
        4    1    3    3  502    0  0.16227419946E+04  0.36539474434E+03  0.72625545168E+03  0.18150078496E+04  0.12699999809E+01 0. -1.
       -4    1    3    3    0  502 -0.16227419946E+04 -0.36539474434E+03  0.44734757447E+03  0.17224768113E+04  0.12699999809E+01 0.  1.
</event>
<event>
 5   0  0.1999849E-06  0.3275878E+04  0.7818609E-02  0.8169060E-01
       -1   -1    0    0    0  501  0.00000000000E+00  0.00000000000E+00  0.11865373507E+04  0.11865373507E+04  0.50400001928E-02 0. -1.
        1   -1    0    0  501    0  0.00000000000E+00  0.00000000000E+00 -0.22610704328E+04  0.22610704328E+04  0.50400001928E-02 0.  1.
    10030    2    1    2    0    0  0.00000000000E+00  0.00000000000E+00 -0.10745330821E+04  0.34476077836E+04  0.32758782158E+04 0.  0.
        5    1    3    3  502    0  0.31170425067E+03  0.89636351945E+03  0.86770573803E+03  0.12859091868E+04  0.46999998093E+01 0. -1.
       -5    1    3    3    0  502 -0.31170425067E+03 -0.89636351945E+03 -0.19422388201E+04  0.21616985968E+04  0.46999998093E+01 0.  1.
</event>
<event>
 5   0  0.2097842E-06  0.3328178E+04  0.7818609E-02  0.8155762E-01
       -1   -1    0    0    0  501  0.00000000000E+00  0.00000000000E+00  0.13025674281E+04  0.13025674281E+04  0.50400001928E-02 0. -1.
        1   -1    0    0  501    0  0.00000000000E+00  0.00000000000E+00 -0.21259495656E+04  0.21259495656E+04  0.50400001928E-02 0.  1.
    10030    2    1    2    0    0  0.00000000000E+00  0.00000000000E+00 -0.82338213744E+03  0.34285169937E+04  0.33281782753E+04 0.  0.
        4    1    3    3  502    0 -0.72827343235E+03 -0.14868811781E+04 -0.23933518435E+03  0.16728660357E+04  0.12699999809E+01 0. -1.
       -4    1    3    3    0  502  0.72827343235E+03  0.14868811781E+04 -0.58404695310E+03  0.17556509580E+04  0.12699999809E+01 0.  1.
</event>
<event>
 5   0  0.2037109E-06  0.2579132E+04  0.7818609E-02  0.8375324E-01
       -1   -1    0    0    0  501  0.00000000000E+00  0.00000000000E+00  0.73836622656E+03  0.73836622658E+03  0.50400001928E-02 0.  1.
        1   -1    0    0  501    0  0.00000000000E+00  0.00000000000E+00 -0.22522428366E+04  0.22522428366E+04  0.50400001928E-02 0. -1.
    10030    2    1    2    0    0  0.00000000000E+00  0.00000000000E+00 -0.15138766101E+04  0.29906090632E+04  0.25791316714E+04 0.  0.
        2    1    3    3  502    0 -0.22286823552E+03 -0.14018184483E+03  0.70686865989E+03  0.75431061398E+03  0.25500000920E-02 0.  1.
       -2    1    3    3    0  502  0.22286823552E+03  0.14018184483E+03 -0.22207452700E+04  0.22362984492E+04  0.25500000920E-02 0. -1.
</event>
<event>
 5   0  0.5855568E-06  0.3332653E+04  0.7818609E-02  0.8154636E-01
       -2   -1    0    0    0  501  0.00000000000E+00  0.00000000000E+00  0.11173550895E+04  0.11173550895E+04  0.25500000920E-02 0.  1.
        2   -1    0    0  501    0  0.00000000000E+00  0.00000000000E+00 -0.24850146539E+04  0.24850146539E+04  0.25500000920E-02 0. -1.
    10030    2    1    2    0    0  0.00000000000E+00  0.00000000000E+00 -0.13676595644E+04  0.36023697434E+04  0.33326528598E+04 0.  0.
        3    1    3    3  502    0  0.40101994324E+03  0.10765082121E+04  0.62090292800E+03  0.13058358939E+04  0.10100000352E+00 0.  1.
       -3    1    3    3    0  502 -0.40101994324E+03 -0.10765082121E+04 -0.19885624924E+04  0.22965338495E+04  0.10100000352E+00 0. -1.
</event>
<event>
 5   0  0.5300268E-06  0.2449684E+04  0.7818609E-02  0.8421133E-01
       -2   -1    0    0    0  501  0.00000000000E+00  0.00000000000E+00  0.59725879750E+03  0.59725879751E+03  0.25500000920E-02 0. -1.
        2   -1    0    0  501    0  0.00000000000E+00  0.00000000000E+00 -0.25118734205E+04  0.25118734205E+04  0.25500000920E-02 0.  1.
    10030    2    1    2    0    0  0.00000000000E+00  0.00000000000E+00 -0.19146146230E+04  0.31091322180E+04  0.24496844684E+04 0.  0.
        4    1    3    3  502    0  0.78527182299E+03  0.91071384225E+03 -0.66186684998E+03  0.13726328272E+04  0.12699999809E+01 0. -1.
       -4    1    3    3    0  502 -0.78527182299E+03 -0.91071384225E+03 -0.12527477731E+04  0.17364993908E+04  0.12699999809E+01 0.  1.
</event>
<event>
 5   0  0.5622811E-06  0.3282276E+04  0.7818609E-02  0.8167420E-01
        2   -1    0    0  501    0  0.00000000000E+00  0.00000000000E+00  0.16707162462E+04  0.16707162462E+04  0.25500000920E-02 0.  1.
       -2   -1    0    0    0  501  0.00000000000E+00  0.00000000000E+00 -0.16120836960E+04  0.16120836960E+04  0.25500000920E-02 0. -1.
    10030    2    1    2    0    0  0.00000000000E+00  0.00000000000E+00  0.58632550204E+02  0.32827999421E+04  0.32822762961E+04 0.  0.
        1    1    3    3  502    0  0.11262247625E+03 -0.13923494580E+04 -0.83222325527E+03  0.16260124175E+04  0.50400001928E-02 0. -1.
       -1    1    3    3    0  502 -0.11262247625E+03  0.13923494580E+04  0.89085580547E+03  0.16567875246E+04  0.50400001928E-02 0.  1.
</event>
<event>
 5   0  0.5855568E-06  0.2043415E+04  0.7818609E-02  0.8586588E-01
        2   -1    0    0  501    0  0.00000000000E+00  0.00000000000E+00  0.75881572195E+03  0.75881572195E+03  0.25500000920E-02 0. -1.
       -2   -1    0    0    0  501  0.00000000000E+00  0.00000000000E+00 -0.13756779073E+04  0.13756779073E+04  0.25500000920E-02 0.  1.
    10030    2    1    2    0    0  0.00000000000E+00  0.00000000000E+00 -0.61686218532E+03  0.21344936292E+04  0.20434148129E+04 0.  0.
        3    1    3    3  502    0 -0.39833701866E+03  0.39562331935E+03 -0.12001161023E+04  0.13249410781E+04  0.10100000352E+00 0.  1.
       -3    1    3    3    0  502  0.39833701866E+03 -0.39562331935E+03  0.58325391694E+03  0.80955255115E+03  0.10100000352E+00 0. -1.
</event>
<event>
 5   0  0.1999849E-06  0.3277538E+04  0.7818609E-02  0.8168634E-01
       -1   -1    0    0    0  501  0.00000000000E+00  0.00000000000E+00  0.20134487269E+04  0.20134487269E+04  0.50400001928E-02 0.  1.
        1   -1    0    0  501    0  0.00000000000E+00  0.00000000000E+00 -0.13338131927E+04  0.13338131927E+04  0.50400001928E-02 0. -1.
    10030    2    1    2    0    0  0.00000000000E+00  0.00000000000E+00  0.67963553427E+03  0.33472619196E+04  0.32775383902E+04 0.  0.
        5    1    3    3  502    0 -0.89320939089E+03  0.15705308556E+03  0.17337915171E+04  0.19566665026E+04  0.46999998093E+01 0.  1.
       -5    1    3    3    0  502  0.89320939089E+03 -0.15705308556E+03 -0.10541559828E+04  0.13905954170E+04  0.46999998093E+01 0. -1.
</event>
<event>
 5   0  0.2097842E-06  0.3361462E+04  0.7818609E-02  0.8147430E-01
        1   -1    0    0  501    0  0.00000000000E+00  0.00000000000E+00  0.16567213983E+04  0.16567213983E+04  0.50400001928E-02 0.  1.
       -1   -1    0    0    0  501  0.00000000000E+00  0.00000000000E+00 -0.17050882711E+04  0.17050882711E+04  0.50400001928E-02 0. -1.
    10030    2    1    2    0    0  0.00000000000E+00  0.00000000000E+00 -0.48366872858E+02  0.33618096694E+04  0.33614617206E+04 0.  0.
        4    1    3    3  502    0  0.48389619600E+03 -0.11660003874E+03 -0.16296855572E+04  0.17040034407E+04  0.12699999809E+01 0. -1.
       -4    1    3    3    0  502 -0.48389619600E+03  0.11660003874E+03  0.15813186844E+04  0.16578062287E+04  0.12699999809E+01 0.  1.
</event>
<event>
 5   0  0.1999849E-06  0.3216206E+04  0.7818609E-02  0.8184550E-01
       -1   -1    0    0    0  501  0.00000000000E+00  0.00000000000E+00  0.10874679106E+04  0.10874679106E+04  0.50400001928E-02 0. -1.
        1   -1    0    0  501    0  0.00000000000E+00  0.00000000000E+00 -0.23779970038E+04  0.23779970038E+04  0.50400001928E-02 0.  1.
    10030    2    1    2    0    0  0.00000000000E+00  0.00000000000E+00 -0.12905290932E+04  0.34654649144E+04  0.32162061085E+04 0.  0.
        5    1    3    3  502    0  0.72807690512E+03  0.28710890840E+03  0.86840209353E+03  0.11690473862E+04  0.46999998093E+01 0. -1.
       -5    1    3    3    0  502 -0.72807690512E+03 -0.28710890840E+03 -0.21589311867E+04  0.22964175282E+04  0.46999998093E+01 0.  1.
</event>
<event>
 5   0  0.1925906E-06  0.3195792E+04  0.7818609E-02  0.8189929E-01
       -1   -1    0    0    0  501  0.00000000000E+00  0.00000000000E+00  0.12913371332E+04  0.12913371332E+04  0.50400001928E-02 0.  1.
        1   -1    0    0  501    0  0.00000000000E+00  0.00000000000E+00 -0.19772313421E+04  0.19772313421E+04  0.50400001928E-02 0. -1.
    10030    2    1    2    0    0  0.00000000000E+00  0.00000000000E+00 -0.68589420893E+03  0.32685684753E+04  0.31957923918E+04 0.  0.
        1    1    3    3  502    0 -0.15703660993E+04 -0.29525986357E+03 -0.33614893707E+03  0.16328576732E+04  0.50400001928E-02 0. -1.
       -1    1    3    3    0  502  0.15703660993E+04  0.29525986357E+03 -0.34974527186E+03  0.16357108021E+04  0.50400001928E-02 0.  1.
</event>
<event>
 5   0  0.5300268E-06  0.3115891E+04  0.7818609E-02  0.8211390E-01
       -2   -1    0    0    0  501  0.00000000000E+00  0.00000000000E+00  0.13788186823E+04  0.13788186823E+04  0.25500000920E-02 0.  1.
        2   -1    0    0  501    0  0.00000000000E+00  0.00000000000E+00 -0.17603436521E+04  0.17603436521E+04  0.25500000920E-02 0. -1.
    10030    2    1    2    0    0  0.00000000000E+00  0.00000000000E+00 -0.38152496986E+03  0.31391623344E+04  0.31158913427E+04 0.  0.
        4    1    3    3  502    0  0.77553672465E+03  0.12441158158E+04  0.34034803920E+03  0.15050314864E+04  0.12699999809E+01 0. -1.
       -4    1    3    3    0  502 -0.77553672465E+03 -0.12441158158E+04 -0.72187300905E+03  0.16341308480E+04  0.12699999809E+01 0.  1.
</event>
<event>
 5   0  0.5622811E-06  0.3133362E+04  0.7818609E-02  0.8206641E-01
       -2   -1    0    0    0  501  0.00000000000E+00  0.00000000000E+00  0.10007845182E+04  0.10007845182E+04  0.25500000920E-02 0.  1.
        2   -1    0    0  501    0  0.00000000000E+00  0.00000000000E+00 -0.24525656594E+04  0.24525656594E+04  0.25500000920E-02 0. -1.
    10030    2    1    2    0    0  0.00000000000E+00  0.00000000000E+00 -0.14517811412E+04  0.34533501776E+04  0.31333622464E+04 0.  0.
        1    1    3    3  502    0  0.22503380551E+03  0.18049892114E+02  0.98276379205E+03  0.10083603935E+04  0.50400001928E-02 0.  1.
       -1    1    3    3    0  502 -0.22503380551E+03 -0.18049892114E+02 -0.24345449333E+04  0.24449897841E+04  0.50400001928E-02 0. -1.
</event>
<event>
 5   0  0.5637538E-06  0.3324602E+04  0.7818609E-02  0.8156664E-01
        2   -1    0    0  501    0  0.00000000000E+00  0.00000000000E+00  0.28856586438E+04  0.28856586438E+04  0.25500000920E-02 0.  1.
       -2   -1    0    0    0  501  0.00000000000E+00  0.00000000000E+00 -0.95757840338E+03  0.95757840338E+03  0.25500000920E-02 0. -1.
    10030    2    1    2    0    0  0.00000000000E+00  0.00000000000E+00  0.19280802404E+04  0.38432370472E+04  0.33246018690E+04 0.  0.
        2    1    3    3  502    0 -0.86890923661E+03 -0.18227223700E+03 -0.66054717606E+03  0.11065934220E+04  0.25500000920E-02 0. -1.
       -2    1    3    3    0  502  0.86890923661E+03  0.18227223700E+03  0.25886274165E+04  0.27366436252E+04  0.25500000920E-02 0.  1.
</event>
<event>
 5   0  0.2730981E-06  0.3043991E+04  0.7818609E-02  0.8231280E-01
        1   -1    0    0  501    0  0.00000000000E+00  0.00000000000E+00  0.17834076162E+04  0.17834076162E+04  0.50400001928E-02 0. -1.
       -1   -1    0    0    0  501  0.00000000000E+00  0.00000000000E+00 -0.12989007870E+04  0.12989007870E+04  0.50400001928E-02 0.  1.
    10030    2    1    2    0    0  0.00000000000E+00  0.00000000000E+00  0.48450682921E+03  0.30823084032E+04  0.30439905100E+04 0.  0.
        3    1    3    3  502    0  0.10215643754E+04 -0.35632144382E+03 -0.84169397238E+03  0.13707689439E+04  0.10100000352E+00 0.  1.
       -3    1    3    3    0  502 -0.10215643754E+04  0.35632144382E+03  0.13262008016E+04  0.17115394593E+04  0.10100000352E+00 0. -1.
</event>
<event>
 5   0  0.5855568E-06  0.3285560E+04  0.7818609E-02  0.8166579E-01
       -2   -1    0    0    0  501  0.00000000000E+00  0.00000000000E+00  0.10027941012E+04  0.10027941012E+04  0.25500000920E-02 0. -1.
        2   -1    0    0  501    0  0.00000000000E+00  0.00000000000E+00 -0.26912060331E+04  0.26912060331E+04  0.25500000920E-02 0.  1.
    10030    2    1    2    0    0  0.00000000000E+00  0.00000000000E+00 -0.16884119320E+04  0.36940001343E+04  0.32855596388E+04 0.  0.
        3    1    3    3  502    0 -0.63201730094E+03 -0.14868640783E+04 -0.50970631619E+03  0.16941107387E+04  0.10100000352E+00 0. -1.
       -3    1    3    3    0  502  0.63201730094E+03  0.14868640783E+04 -0.11787056158E+04  0.19998893956E+04  0.10100000352E+00 0.  1.
</event>
<event>
 5   0  0.5755250E-06  0.3068153E+04  0.7818609E-02  0.8224533E-01
        2   -1    0    0  501    0  0.00000000000E+00  0.00000000000E+00  0.10811795594E+04  0.10811795594E+04  0.25500000920E-02 0.  1.
       -2   -1    0    0    0  501  0.00000000000E+00  0.00000000000E+00 -0.21766879652E+04  0.21766879652E+04  0.25500000920E-02 0. -1.
    10030    2    1    2    0    0  0.00000000000E+00  0.00000000000E+00 -0.10955084059E+04  0.32578675246E+04  0.30681528874E+04 0.  0.
        5    1    3    3  502    0 -0.12825348416E+04  0.11227621291E+03  0.33801281708E+03  0.13310808850E+04  0.46999998093E+01 0.  1.
       -5    1    3    3    0  502  0.12825348416E+04 -0.11227621291E+03 -0.14335212230E+04  0.19267866396E+04  0.46999998093E+01 0. -1.
</event>
<event>
 5   0  0.5622811E-06  0.3215967E+04  0.7818609E-02  0.8184613E-01
        2   -1    0    0  501    0  0.00000000000E+00  0.00000000000E+00  0.93664016985E+03  0.93664016985E+03  0.25500000920E-02 0.  1.
       -2   -1    0    0    0  501  0.00000000000E+00  0.00000000000E+00 -0.27605175490E+04  0.27605175490E+04  0.25500000920E-02 0. -1.
    10030    2    1    2    0    0  0.00000000000E+00  0.00000000000E+00 -0.18238773791E+04  0.36971577188E+04  0.32159674289E+04 0.  0.
        1    1    3    3  502    0 -0.48717485256E+03 -0.10628172855E+03 -0.26693908309E+04  0.27155630265E+04  0.50400001928E-02 0. -1.
       -1    1    3    3    0  502  0.48717485256E+03  0.10628172855E+03  0.84551345179E+03  0.98159469231E+03  0.50400001928E-02 0.  1.
</event>
<event>
 5   0  0.2730981E-06  0.3153915E+04  0.7818609E-02  0.8201095E-01
        1   -1    0    0  501    0  0.00000000000E+00  0.00000000000E+00  0.25114135165E+04  0.25114135165E+04  0.50400001928E-02 0. -1.
       -1   -1    0    0    0  501  0.00000000000E+00  0.00000000000E+00 -0.99019760679E+03  0.99019760680E+03  0.50400001928E-02 0.  1.
    10030    2    1    2    0    0  0.00000000000E+00  0.00000000000E+00  0.15212159097E+04  0.35016111233E+04  0.31539154419E+04 0.  0.
        3    1    3    3  502    0  0.65063440876E+03 -0.13915993193E+04  0.11561439888E+04  0.19226395222E+04  0.10100000352E+00 0.  1.
       -3    1    3    3    0  502 -0.65063440876E+03  0.13915993193E+04  0.36507192090E+03  0.15789716011E+04  0.10100000352E+00 0. -1.
</event>
<event>
 5   0  0.2097842E-06  0.3277416E+04  0.7818609E-02  0.8168666E-01
        1   -1    0    0  501    0  0.00000000000E+00  0.00000000000E+00  0.14733385905E+04  0.14733385905E+04  0.50400001928E-02 0.  1.
       -1   -1    0    0    0  501  0.00000000000E+00  0.00000000000E+00 -0.18226389029E+04  0.18226389029E+04  0.50400001928E-02 0. -1.
    10030    2    1    2    0    0  0.00000000000E+00  0.00000000000E+00 -0.34930031240E+03  0.32959774934E+04  0.32774161971E+04 0.  0.
        4    1    3    3  502    0  0.65431760375E+03  0.13341302211E+04 -0.86945195803E+03  0.17216222855E+04  0.12699999809E+01 0. -1.
       -4    1    3    3    0  502 -0.65431760375E+03 -0.13341302211E+04  0.52015164563E+03  0.15743552080E+04  0.12699999809E+01 0.  1.
</event>
<event>
 5   0  0.2730981E-06  0.3365269E+04  0.7818609E-02  0.8146483E-01
        1   -1    0    0  501    0  0.00000000000E+00  0.00000000000E+00  0.20531213029E+04  0.20531213029E+04  0.50400001928E-02 0.  1.
       -1   -1    0    0    0  501  0.00000000000E+00  0.00000000000E+00 -0.13790020961E+04  0.13790020961E+04  0.50400001928E-02 0. -1.
    10030    2    1    2    0    0  0.00000000000E+00  0.00000000000E+00  0.67411920679E+03  0.34321233991E+04  0.33652688335E+04 0.  0.
        3    1    3    3  502    0  0.14706178122E+04  0.25966863982E+03  0.11277774822E+04  0.18713702497E+04  0.10100000352E+00 0.  1.
       -3    1    3    3    0  502 -0.14706178122E+04 -0.25966863982E+03 -0.45365827542E+03  0.15607531493E+04  0.10100000352E+00 0. -1.
</event>
<event>
 5   0  0.5300268E-06  0.3281623E+04  0.7818609E-02  0.8167587E-01
       -2   -1    0    0    0  501  0.00000000000E+00  0.00000000000E+00  0.11410165954E+04  0.11410165954E+04  0.25500000920E-02 0.  1.
        2   -1    0    0  501    0  0.00000000000E+00  0.00000000000E+00 -0.23595289692E+04  0.23595289692E+04  0.25500000920E-02 0. -1.
    10030    2    1    2    0    0  0.00000000000E+00  0.00000000000E+00 -0.12185123737E+04  0.35005455646E+04  0.32816225933E+04 0.  0.
        4    1    3    3  502    0  0.13570620390E+04  0.67162774892E+03 -0.12835318730E+04  0.19849828444E+04  0.12699999809E+01 0. -1.
       -4    1    3    3    0  502 -0.13570620390E+04 -0.67162774892E+03  0.65019499266E+02  0.15155627202E+04  0.12699999809E+01 0.  1.
</event>
<event>
 5   0  0.5755250E-06  0.3292886E+04  0.7818609E-02  0.8164708E-01
       -2   -1    0    0    0  501  0.00000000000E+00  0.00000000000E+00  0.11165533421E+04  0.11165533421E+04  0.25500000920E-02 0. -1.
        2   -1    0    0  501    0  0.00000000000E+00  0.00000000000E+00 -0.24278051597E+04  0.24278051597E+04  0.25500000920E-02 0.  1.
    10030    2    1    2    0    0  0.00000000000E+00  0.00000000000E+00 -0.13112518176E+04  0.35443585019E+04  0.32928856434E+04 0.  0.
        5    1    3    3  502    0  0.12847935634E+04 -0.10087343297E+03  0.44726161517E+03  0.13641609115E+04  0.46999998093E+01 0. -1.
       -5    1    3    3    0  502 -0.12847935634E+04  0.10087343297E+03 -0.17585134328E+04  0.21801975904E+04  0.46999998093E+01 0.  1.
</event>
<event>
 5   0  0.5637538E-06  0.3425759E+04  0.7818609E-02  0.8131613E-01
        2   -1    0    0  501    0  0.00000000000E+00  0.00000000000E+00  0.12891652504E+04  0.12891652504E+04  0.25500000920E-02 0. -1.
       -2   -1    0    0    0  501  0.00000000000E+00  0.00000000000E+00 -0.22758567055E+04  0.22758567055E+04  0.25500000920E-02 0.  1.
    10030    2    1    2    0    0  0.00000000000E+00  0.00000000000E+00 -0.98669145512E+03  0.35650219560E+04  0.34257585319E+04 0.  0.
        2    1    3    3  502    0  0.15977436919E+04 -0.61013628673E+03 -0.39514774112E+03  0.17553327122E+04  0.25500000920E-02 0. -1.
       -2    1    3    3    0  502 -0.15977436919E+04  0.61013628673E+03 -0.59154371400E+03  0.18096892437E+04  0.25500000920E-02 0.  1.
</event>
<event>
 5   0  0.5855568E-06  0.3367956E+04  0.7818609E-02  0.8145816E-01
        2   -1    0    0  501    0  0.00000000000E+00  0.00000000000E+00  0.21805097727E+04  0.21805097727E+04  0.25500000920E-02 0. -1.
       -2   -1    0    0    0  501  0.00000000000E+00  0.00000000000E+00 -0.13005134295E+04  0.13005134295E+04  0.25500000920E-02 0.  1.
    10030    2    1    2    0    0  0.00000000000E+00  0.00000000000E+00  0.87999634321E+03  0.34810232021E+04  0.33679562007E+04 0.  0.
        3    1    3    3  502    0 -0.11302294753E+03 -0.72790478802E+03  0.20051551944E+04  0.21361804538E+04  0.10100000352E+00 0. -1.
       -3    1    3    3    0  502  0.11302294753E+03  0.72790478802E+03 -0.11251588512E+04  0.13448427484E+04  0.10100000352E+00 0.  1.
</event>
<event>
 5   0  0.5637538E-06  0.2170654E+04  0.7818609E-02  0.8530743E-01
        2   -1    0    0  501    0  0.00000000000E+00  0.00000000000E+00  0.12287083555E+04  0.12287083555E+04  0.25500000920E-02 0.  1.
       -2   -1    0    0    0  501  0.00000000000E+00  0.00000000000E+00 -0.95867750997E+03  0.95867750998E+03  0.25500000920E-02 0. -1.
    10030    2    1    2    0    0  0.00000000000E+00  0.00000000000E+00  0.27003084554E+03  0.21873858655E+04  0.21706543407E+04 0.  0.
        2    1    3    3  502    0  0.72797706064E+03  0.38761079267E+03 -0.57593124450E+03  0.10059271971E+04  0.25500000920E-02 0. -1.
       -2    1    3    3    0  502 -0.72797706064E+03 -0.38761079267E+03  0.84596209004E+03  0.11814586684E+04  0.25500000920E-02 0.  1.
</event>
<event>
 5   0  0.5855568E-06  0.3302427E+04  0.7818609E-02  0.8162278E-01
        2   -1    0    0  501    0  0.00000000000E+00  0.00000000000E+00  0.99416534890E+03  0.99416534890E+03  0.25500000920E-02 0.  1.
       -2   -1    0    0    0  501  0.00000000000E+00  0.00000000000E+00 -0.27425080785E+04  0.27425080785E+04  0.25500000920E-02 0. -1.
    10030    2    1    2    0    0  0.00000000000E+00  0.00000000000E+00 -0.17483427296E+04  0.37366734274E+04  0.33024272896E+04 0.  0.
        3    1    3    3  502    0 -0.13511024560E+04  0.83398784010E+03 -0.13870921728E+04  0.21083259402E+04  0.10100000352E+00 0. -1.
       -3    1    3    3    0  502  0.13511024560E+04 -0.83398784010E+03 -0.36125055678E+03  0.16283474872E+04  0.10100000352E+00 0.  1.
</event>
<event>
 5   0  0.5855568E-06  0.3264638E+04  0.7818609E-02  0.8171952E-01
        2   -1    0    0  501    0  0.00000000000E+00  0.00000000000E+00  0.19758323632E+04  0.19758323632E+04  0.25500000920E-02 0. -1.
       -2   -1    0    0    0  501  0.00000000000E+00  0.00000000000E+00 -0.13485277245E+04  0.13485277245E+04  0.25500000920E-02 0.  1.
    10030    2    1    2    0    0  0.00000000000E+00  0.00000000000E+00  0.62730463867E+03  0.33243600877E+04  0.32646376343E+04 0.  0.
        3    1    3    3  502    0 -0.14265637565E+04 -0.68767034601E+03  0.71647734895E+03  0.17381928713E+04  0.10100000352E+00 0. -1.
       -3    1    3    3    0  502  0.14265637565E+04  0.68767034601E+03 -0.89172710275E+02  0.15861672164E+04  0.10100000352E+00 0.  1.
</event>
<event>
 5   0  0.5300268E-06  0.3269559E+04  0.7818609E-02  0.8170685E-01
        2   -1    0    0  501    0  0.00000000000E+00  0.00000000000E+00  0.18679841997E+04  0.18679841997E+04  0.25500000920E-02 0. -1.
       -2   -1    0    0    0  501  0.00000000000E+00  0.00000000000E+00 -0.14306886996E+04  0.14306886996E+04  0.25500000920E-02 0.  1.
    10030    2    1    2    0    0  0.00000000000E+00  0.00000000000E+00  0.43729550007E+03  0.32986728994E+04  0.32695589217E+04 0.  0.
        4    1    3    3  502    0  0.40140059694E+03 -0.14868868621E+04 -0.33445586153E+03  0.15760131079E+04  0.12699999809E+01 0.  1.
       -4    1    3    3    0  502 -0.40140059694E+03  0.14868868621E+04  0.77175136160E+03  0.17226597915E+04  0.12699999809E+01 0. -1.
</event>
<event>
 5   0  0.1999849E-06  0.3071081E+04  0.7818609E-02  0.8223720E-01
       -1   -1    0    0    0  501  0.00000000000E+00  0.00000000000E+00  0.83472205744E+03  0.83472205746E+03  0.50400001928E-02 0.  1.
        1   -1    0    0  501    0  0.00000000000E+00  0.00000000000E+00 -0.28247539665E+04  0.28247539665E+04  0.50400001928E-02 0. -1.
    10030    2    1    2    0    0  0.00000000000E+00  0.00000000000E+00 -0.19900319091E+04  0.36594760240E+04  0.30710808799E+04 0.  0.
        5    1    3    3  502    0 -0.56980828966E+03 -0.83154668769E+03  0.38523208065E+03  0.10791557935E+04  0.46999998093E+01 0.  1.
       -5    1    3    3    0  502  0.56980828966E+03  0.83154668769E+03 -0.23752639897E+04  0.25803202305E+04  0.46999998093E+01 0. -1.
</event>
<event>
 5   0  0.2037109E-06  0.2790520E+04  0.7818609E-02  0.8306218E-01
       -1   -1    0    0    0  501  0.00000000000E+00  0.00000000000E+00  0.82586247314E+03  0.82586247316E+03  0.50400001928E-02 0.  1.
        1   -1    0    0  501    0  0.00000000000E+00  0.00000000000E+00 -0.23572329249E+04  0.23572329249E+04  0.50400001928E-02 0. -1.
    10030    2    1    2    0    0  0.00000000000E+00  0.00000000000E+00 -0.15313704517E+04  0.31830953980E+04  0.27905198176E+04 0.  0.
        2    1    3    3  502    0 -0.19721618812E+03 -0.12291261846E+04 -0.14845002035E+04  0.19373658035E+04  0.25500000920E-02 0. -1.
       -2    1    3    3    0  502  0.19721618812E+03  0.12291261846E+04 -0.46870248240E+02  0.12457295945E+04  0.25500000920E-02 0.  1.
</event>
<event>
 5   0  0.2037109E-06  0.3299651E+04  0.7818609E-02  0.8162984E-01
        1   -1    0    0  501    0  0.00000000000E+00  0.00000000000E+00  0.20978972811E+04  0.20978972811E+04  0.50400001928E-02 0. -1.
       -1   -1    0    0    0  501  0.00000000000E+00  0.00000000000E+00 -0.12974538639E+04  0.12974538639E+04  0.50400001928E-02 0.  1.
    10030    2    1    2    0    0  0.00000000000E+00  0.00000000000E+00  0.80044341719E+03  0.33953511451E+04  0.32996514565E+04 0.  0.
        2    1    3    3  502    0  0.11134438960E+03 -0.16078668676E+04  0.76299669640E+03  0.17831986417E+04  0.25500000920E-02 0. -1.
       -2    1    3    3    0  502 -0.11134438960E+03  0.16078668676E+04  0.37446720791E+02  0.16121525033E+04  0.25500000920E-02 0.  1.
</event>
<event>
 5   0  0.2730981E-06  0.2121841E+04  0.7818609E-02  0.8551683E-01
        1   -1    0    0  501    0  0.00000000000E+00  0.00000000000E+00  0.19012607309E+04  0.19012607309E+04  0.50400001928E-02 0. -1.
       -1   -1    0    0    0  501  0.00000000000E+00  0.00000000000E+00 -0.59200293532E+03  0.59200293535E+03  0.50400001928E-02 0.  1.
    10030    2    1    2    0    0  0.00000000000E+00  0.00000000000E+00  0.13092577956E+04  0.24932636663E+04  0.21218406477E+04 0.  0.
        3    1    3    3  502    0 -0.22840960600E+03 -0.36442238264E+03  0.17942295536E+04  0.18450567260E+04  0.10100000352E+00 0. -1.
       -3    1    3    3    0  502  0.22840960600E+03  0.36442238264E+03 -0.48497175802E+03  0.64820694022E+03  0.10100000352E+00 0.  1.
</event>
<event>
 5   0  0.5622811E-06  0.3312278E+04  0.7818609E-02  0.8159778E-01
       -2   -1    0    0    0  501  0.00000000000E+00  0.00000000000E+00  0.15743424178E+04  0.15743424178E+04  0.25500000920E-02 0.  1.
        2   -1    0    0  501    0  0.00000000000E+00  0.00000000000E+00 -0.17421853492E+04  0.17421853492E+04  0.25500000920E-02 0. -1.
    10030    2    1    2    0    0  0.00000000000E+00  0.00000000000E+00 -0.16784293142E+03  0.33165277670E+04  0.33122779442E+04 0.  0.
        1    1    3    3  502    0  0.11524440931E+04  0.23889744837E+03 -0.12505760352E+04  0.17173059711E+04  0.50400001928E-02 0. -1.
       -1    1    3    3    0  502 -0.11524440931E+04 -0.23889744837E+03  0.10827331037E+04  0.15992217959E+04  0.50400001928E-02 0.  1.
</event>
<event>
 5   0  0.2730981E-06  0.3279463E+04  0.7818609E-02  0.8168141E-01
        1   -1    0    0  501    0  0.00000000000E+00  0.00000000000E+00  0.23738439166E+04  0.23738439166E+04  0.50400001928E-02 0. -1.
       -1   -1    0    0    0  501  0.00000000000E+00  0.00000000000E+00 -0.11326434778E+04  0.11326434778E+04  0.50400001928E-02 0.  1.
    10030    2    1    2    0    0  0.00000000000E+00  0.00000000000E+00  0.12412004388E+04  0.35064873945E+04  0.32794626569E+04 0.  0.
        3    1    3    3  502    0 -0.13838907319E+04  0.63243122020E+03  0.12741380146E+04  0.19845781659E+04  0.10100000352E+00 0. -1.
       -3    1    3    3    0  502  0.13838907319E+04 -0.63243122020E+03 -0.32937575803E+02  0.15219092286E+04  0.10100000352E+00 0.  1.
</event>
<event>
 5   0  0.5855568E-06  0.3347727E+04  0.7818609E-02  0.8150856E-01
        2   -1    0    0  501    0  0.00000000000E+00  0.00000000000E+00  0.23760779843E+04  0.23760779843E+04  0.25500000920E-02 0. -1.
       -2   -1    0    0    0  501  0.00000000000E+00  0.00000000000E+00 -0.11791782418E+04  0.11791782418E+04  0.25500000920E-02 0.  1.
    10030    2    1    2    0    0  0.00000000000E+00  0.00000000000E+00  0.11968997425E+04  0.35552562261E+04  0.33477272648E+04 0.  0.
        3    1    3    3  502    0 -0.75394072429E+03 -0.23263384278E+03 -0.96930005085E+03  0.12498350768E+04  0.10100000352E+00 0.  1.
       -3    1    3    3    0  502  0.75394072429E+03  0.23263384278E+03  0.21661997933E+04  0.23054211492E+04  0.10100000352E+00 0. -1.
</event>
<event>
 5   0  0.1925906E-06  0.2341094E+04  0.7818609E-02  0.8461892E-01
       -1   -1    0    0    0  501  0.00000000000E+00  0.00000000000E+00  0.10481844250E+04  0.10481844250E+04  0.50400001928E-02 0. -1.
        1   -1    0    0  501    0  0.00000000000E+00  0.00000000000E+00 -0.13071937553E+04  0.13071937553E+04  0.50400001928E-02 0.  1.
    10030    2    1    2    0    0  0.00000000000E+00  0.00000000000E+00 -0.25900933026E+03  0.23553781803E+04  0.23410938766E+04 0.  0.
        1    1    3    3  502    0 -0.22734566492E+03  0.47836048641E+03  0.92073492310E+03  0.10621994186E+04  0.50400001928E-02 0. -1.
       -1    1    3    3    0  502  0.22734566492E+03 -0.47836048641E+03 -0.11797442534E+04  0.12931787617E+04  0.50400001928E-02 0.  1.
</event>
<event>
 5   0  0.5300268E-06  0.3453463E+04  0.7818609E-02  0.8124908E-01
        2   -1    0    0  501    0  0.00000000000E+00  0.00000000000E+00  0.20564838202E+04  0.20564838202E+04  0.25500000920E-02 0. -1.
       -2   -1    0    0    0  501  0.00000000000E+00  0.00000000000E+00 -0.14498545187E+04  0.14498545187E+04  0.25500000920E-02 0.  1.
    10030    2    1    2    0    0  0.00000000000E+00  0.00000000000E+00  0.60662930158E+03  0.35063383389E+04  0.34534633974E+04 0.  0.
        4    1    3    3  502    0  0.12660799137E+04  0.18298311543E+03  0.14808823033E+04  0.19568993785E+04  0.12699999809E+01 0. -1.
       -4    1    3    3    0  502 -0.12660799137E+04 -0.18298311543E+03 -0.87425300171E+03  0.15494389605E+04  0.12699999809E+01 0.  1.
</event>
<event>
 5   0  0.5300268E-06  0.3235784E+04  0.7818609E-02  0.8179430E-01
       -2   -1    0    0    0  501  0.00000000000E+00  0.00000000000E+00  0.11466421096E+04  0.11466421097E+04  0.25500000920E-02 0. -1.
        2   -1    0    0  501    0  0.00000000000E+00  0.00000000000E+00 -0.22828173672E+04  0.22828173672E+04  0.25500000920E-02 0.  1.
    10030    2    1    2    0    0  0.00000000000E+00  0.00000000000E+00 -0.11361752575E+04  0.34294594768E+04  0.32357839989E+04 0.  0.
        4    1    3    3  502    0  0.83154479813E+03 -0.10836666549E+04 -0.14870324591E+04  0.20191749101E+04  0.12699999809E+01 0.  1.
       -4    1    3    3    0  502 -0.83154479813E+03  0.10836666549E+04  0.35085720159E+03  0.14102845667E+04  0.12699999809E+01 0. -1.
</event>
<event>
 5   0  0.1999849E-06  0.3288725E+04  0.7818609E-02  0.8165770E-01
       -1   -1    0    0    0  501  0.00000000000E+00  0.00000000000E+00  0.17548181676E+04  0.17548181676E+04  0.50400001928E-02 0. -1.
        1   -1    0    0  501    0  0.00000000000E+00  0.00000000000E+00 -0.15408591438E+04  0.15408591438E+04  0.50400001928E-02 0.  1.
    10030    2    1    2    0    0  0.00000000000E+00  0.00000000000E+00  0.21395902379E+03  0.32956773114E+04  0.32887247493E+04 0.  0.
        5    1    3    3  502    0  0.95686132443E+03 -0.11874305517E+04  0.72336570433E+03  0.16878551305E+04  0.46999998093E+01 0.  1.
       -5    1    3    3    0  502 -0.95686132443E+03  0.11874305517E+04 -0.50940668054E+03  0.16078221809E+04  0.46999998093E+01 0. -1.
</event>
<event>
 5   0  0.2730981E-06  0.3112528E+04  0.7818609E-02  0.8212308E-01
       -1   -1    0    0    0  501  0.00000000000E+00  0.00000000000E+00  0.30607957493E+04  0.30607957493E+04  0.50400001928E-02 0.  1.
        1   -1    0    0  501    0  0.00000000000E+00  0.00000000000E+00 -0.79128352162E+03  0.79128352163E+03  0.50400001928E-02 0. -1.
    10030    2    1    2    0    0  0.00000000000E+00  0.00000000000E+00  0.22695122276E+04  0.38520792709E+04  0.31125277441E+04 0.  0.
        3    1    3    3  502    0 -0.45090947308E+03  0.90544794121E+02 -0.70525862788E+03  0.84196642157E+03  0.10100000352E+00 0. -1.
       -3    1    3    3    0  502  0.45090947308E+03 -0.90544794121E+02  0.29747708555E+04  0.30101128493E+04  0.10100000352E+00 0.  1.
</event>
<event>
 5   0  0.2037109E-06  0.3088606E+04  0.7818609E-02  0.8218872E-01
        1   -1    0    0  501    0  0.00000000000E+00  0.00000000000E+00  0.19016014522E+04  0.19016014523E+04  0.50400001928E-02 0. -1.
       -1   -1    0    0    0  501  0.00000000000E+00  0.00000000000E+00 -0.12541383974E+04  0.12541383974E+04  0.50400001928E-02 0.  1.
    10030    2    1    2    0    0  0.00000000000E+00  0.00000000000E+00  0.64746305484E+03  0.31557398497E+04  0.30886057682E+04 0.  0.
        2    1    3    3  502    0 -0.12823089048E+04 -0.79040611685E+02 -0.55181212130E+03  0.13982346594E+04  0.25500000920E-02 0.  1.
       -2    1    3    3    0  502  0.12823089048E+04  0.79040611685E+02  0.11992751761E+04  0.17575051902E+04  0.25500000920E-02 0. -1.
</event>
<event>
 5   0  0.5300268E-06  0.3194875E+04  0.7818609E-02  0.8190172E-01
       -2   -1    0    0    0  501  0.00000000000E+00  0.00000000000E+00  0.16654116134E+04  0.16654116135E+04  0.25500000920E-02 0.  1.
        2   -1    0    0  501    0  0.00000000000E+00  0.00000000000E+00 -0.15322373659E+04  0.15322373659E+04  0.25500000920E-02 0. -1.
    10030    2    1    2    0    0  0.00000000000E+00  0.00000000000E+00  0.13317424756E+03  0.31976489793E+04  0.31948745852E+04 0.  0.
        4    1    3    3  502    0 -0.64249651454E+03  0.13799900735E+04 -0.41821963546E+03  0.15786334756E+04  0.12699999809E+01 0. -1.
       -4    1    3    3    0  502  0.64249651454E+03 -0.13799900735E+04  0.55139388303E+03  0.16190155037E+04  0.12699999809E+01 0.  1.
</event>
<event>
 5   0  0.2730981E-06  0.3099137E+04  0.7818609E-02  0.8215975E-01
       -1   -1    0    0    0  501  0.00000000000E+00  0.00000000000E+00  0.14409058636E+04  0.14409058636E+04  0.50400001928E-02 0. -1.
        1   -1    0    0  501    0  0.00000000000E+00  0.00000000000E+00 -0.16664254991E+04  0.16664254991E+04  0.50400001928E-02 0.  1.
    10030    2    1    2    0    0  0.00000000000E+00  0.00000000000E+00 -0.22551963546E+03  0.31073313627E+04  0.30991368301E+04 0.  0.
        3    1    3    3  502    0  0.12585420032E+03  0.14191753775E+04  0.49816584980E+03  0.15093267559E+04  0.10100000352E+00 0. -1.
       -3    1    3    3    0  502 -0.12585420032E+03 -0.14191753775E+04 -0.72368548526E+03  0.15980046069E+04  0.10100000352E+00 0.  1.
</event>
<event>
 5   0  0.5637538E-06  0.2190085E+04  0.7818609E-02  0.8522566E-01
        2   -1    0    0  501    0  0.00000000000E+00  0.00000000000E+00  0.22728984751E+04  0.22728984751E+04  0.25500000920E-02 0. -1.
       -2   -1    0    0    0  501  0.00000000000E+00  0.00000000000E+00 -0.52757205623E+03  0.52757205623E+03  0.25500000920E-02 0.  1.
    10030    2    1    2    0    0  0.00000000000E+00  0.00000000000E+00  0.17453264189E+04  0.28004705313E+04  0.21900846761E+04 0.  0.
        2    1    3    3  502    0  0.50224256034E+03  0.30787031533E+03 -0.30768953978E+03  0.66460858659E+03  0.25500000920E-02 0.  1.
       -2    1    3    3    0  502 -0.50224256034E+03 -0.30787031533E+03  0.20530159587E+04  0.21358619447E+04  0.25500000920E-02 0. -1.
</event>
<event>
 5   0  0.5300268E-06  0.3242635E+04  0.7818609E-02  0.8177647E-01
       -2   -1    0    0    0  501  0.00000000000E+00  0.00000000000E+00  0.10693685888E+04  0.10693685888E+04  0.25500000920E-02 0.  1.
        2   -1    0    0  501    0  0.00000000000E+00  0.00000000000E+00 -0.24581521841E+04  0.24581521841E+04  0.25500000920E-02 0. -1.
    10030    2    1    2    0    0  0.00000000000E+00  0.00000000000E+00 -0.13887835953E+04  0.35275207730E+04  0.32426351829E+04 0.  0.
        4    1    3    3  502    0  0.23134785971E+03  0.16634421199E+03  0.10419156012E+04  0.10801768197E+04  0.12699999809E+01 0.  1.
       -4    1    3    3    0  502 -0.23134785971E+03 -0.16634421199E+03 -0.24306991964E+04  0.24473439533E+04  0.12699999809E+01 0. -1.
</event>
<event>
 5   0  0.1999849E-06  0.2928613E+04  0.7818609E-02  0.8264415E-01
       -1   -1    0    0    0  501  0.00000000000E+00  0.00000000000E+00  0.14528731482E+04  0.14528731482E+04  0.50400001928E-02 0. -1.
        1   -1    0    0  501    0  0.00000000000E+00  0.00000000000E+00 -0.14758298519E+04  0.14758298519E+04  0.50400001928E-02 0.  1.
    10030    2    1    2    0    0  0.00000000000E+00  0.00000000000E+00 -0.22956703666E+02  0.29287030001E+04  0.29286130254E+04 0.  0.
        5    1    3    3  502    0 -0.10019680000E+04 -0.92314948771E+03 -0.54817595913E+03  0.14685584162E+04  0.46999998093E+01 0.  1.
       -5    1    3    3    0  502  0.10019680000E+04  0.92314948771E+03  0.52521925547E+03  0.14601445839E+04  0.46999998093E+01 0. -1.
</event>
<event>
 5   0  0.2037109E-06  0.3286571E+04  0.7818609E-02  0.8166321E-01
        1   -1    0    0  501    0  0.00000000000E+00  0.00000000000E+00  0.11588442683E+04  0.11588442683E+04  0.50400001928E-02 0. -1.
       -1   -1    0    0    0  501  0.00000000000E+00  0.00000000000E+00 -0.23302411249E+04  0.23302411249E+04  0.50400001928E-02 0.  1.
    10030    2    1    2    0    0  0.00000000000E+00  0.00000000000E+00 -0.11713968566E+04  0.34890853932E+04  0.32865705964E+04 0.  0.
        2    1    3    3  502    0  0.33587738265E+03  0.89751151645E+03 -0.20028884712E+04  0.22203384351E+04  0.25500000920E-02 0.  1.
       -2    1    3    3    0  502 -0.33587738265E+03 -0.89751151645E+03  0.83149161461E+03  0.12687469580E+04  0.25500000920E-02 0. -1.
</event>
<event>
 5   0  0.5637538E-06  0.3301851E+04  0.7818609E-02  0.8162425E-01
       -2   -1    0    0    0  501  0.00000000000E+00  0.00000000000E+00  0.12444631939E+04  0.12444631939E+04  0.25500000920E-02 0. -1.
        2   -1    0    0  501    0  0.00000000000E+00  0.00000000000E+00 -0.21901452017E+04  0.21901452017E+04  0.25500000920E-02 0.  1.
    10030    2    1    2    0    0  0.00000000000E+00  0.00000000000E+00 -0.94568200786E+03  0.34346083956E+04  0.33018510523E+04 0.  0.
        2    1    3    3  502    0  0.14849464039E+04  0.78429368450E+02  0.27316805120E+03  0.15118987309E+04  0.25500000920E-02 0. -1.
       -2    1    3    3    0  502 -0.14849464039E+04 -0.78429368450E+02 -0.12188500591E+04  0.19227096647E+04  0.25500000920E-02 0.  1.
</event>
<event>
 5   0  0.5855568E-06  0.3298446E+04  0.7818609E-02  0.8163291E-01
        2   -1    0    0  501    0  0.00000000000E+00  0.00000000000E+00  0.24767452595E+04  0.24767452595E+04  0.25500000920E-02 0.  1.
       -2   -1    0    0    0  501  0.00000000000E+00  0.00000000000E+00 -0.10981899625E+04  0.10981899625E+04  0.25500000920E-02 0. -1.
    10030    2    1    2    0    0  0.00000000000E+00  0.00000000000E+00  0.13785552970E+04  0.35749352219E+04  0.32984461697E+04 0.  0.
        3    1    3    3  502    0  0.99964659496E+03 -0.10833326325E+04  0.14908927362E+04  0.20965839045E+04  0.10100000352E+00 0. -1.
       -3    1    3    3    0  502 -0.99964659496E+03  0.10833326325E+04 -0.11233743918E+03  0.14783513175E+04  0.10100000352E+00 0.  1.
</event>
<event>
 5   0  0.5755250E-06  0.3295150E+04  0.7818609E-02  0.8164131E-01
       -2   -1    0    0    0  501  0.00000000000E+00  0.00000000000E+00  0.11078063157E+04  0.11078063157E+04  0.25500000920E-02 0.  1.
        2   -1    0    0  501    0  0.00000000000E+00  0.00000000000E+00 -0.24503406113E+04  0.24503406113E+04  0.25500000920E-02 0. -1.
    10030    2    1    2    0    0  0.00000000000E+00  0.00000000000E+00 -0.13425342956E+04  0.35581469269E+04  0.32951496504E+04 0.  0.
        5    1    3    3  502    0  0.37753281435E+02  0.15898107226E+04 -0.11364114684E+04  0.19545783585E+04  0.46999998093E+01 0.  1.
       -5    1    3    3    0  502 -0.37753281435E+02 -0.15898107226E+04 -0.20612282723E+03  0.16035685685E+04  0.46999998093E+01 0. -1.
</event>
<event>
 5   0  0.2037109E-06  0.2376188E+04  0.7818609E-02  0.8448473E-01
        1   -1    0    0  501    0  0.00000000000E+00  0.00000000000E+00  0.22496893355E+04  0.22496893355E+04  0.50400001928E-02 0.  1.
       -1   -1    0    0    0  501  0.00000000000E+00  0.00000000000E+00 -0.62744966304E+03  0.62744966306E+03  0.50400001928E-02 0. -1.
    10030    2    1    2    0    0  0.00000000000E+00  0.00000000000E+00  0.16222396724E+04  0.28771389985E+04  0.23761875478E+04 0.  0.
        2    1    3    3  502    0  0.76615491173E+03 -0.84325817477E+02 -0.28362796199E+03  0.82130932850E+03  0.25500000920E-02 0. -1.
       -2    1    3    3    0  502 -0.76615491173E+03  0.84325817477E+02  0.19058676344E+04  0.20558296700E+04  0.25500000920E-02 0.  1.
</event>
<event>
 5   0  0.5637538E-06  0.3343519E+04  0.7818609E-02  0.8151909E-01
       -2   -1    0    0    0  501  0.00000000000E+00  0.00000000000E+00  0.18755588899E+04  0.18755588899E+04  0.25500000920E-02 0. -1.
        2   -1    0    0  501    0  0.00000000000E+00  0.00000000000E+00 -0.14901049364E+04  0.14901049364E+04  0.25500000920E-02 0.  1.
    10030    2    1    2    0    0  0.00000000000E+00  0.00000000000E+00  0.38545395357E+03  0.33656638263E+04  0.33435188412E+04 0.  0.
        2    1    3    3  502    0  0.34651460624E+03 -0.16312891166E+04  0.31013138520E+03  0.16962776985E+04  0.25500000920E-02 0.  1.
       -2    1    3    3    0  502 -0.34651460624E+03  0.16312891166E+04  0.75322568369E+02  0.16693861278E+04  0.25500000920E-02 0. -1.
</event>
<event>
 5   0  0.2037109E-06  0.2276305E+04  0.7818609E-02  0.8487323E-01
       -1   -1    0    0    0  501  0.00000000000E+00  0.00000000000E+00  0.95209462200E+03  0.95209462201E+03  0.50400001928E-02 0.  1.
        1   -1    0    0  501    0  0.00000000000E+00  0.00000000000E+00 -0.13605696315E+04  0.13605696315E+04  0.50400001928E-02 0. -1.
    10030    2    1    2    0    0  0.00000000000E+00  0.00000000000E+00 -0.40847500953E+03  0.23126642535E+04  0.22763049260E+04 0.  0.
        2    1    3    3  502    0 -0.24887283630E+02  0.10913884330E+04  0.12284100669E+03  0.10985617877E+04  0.25500000920E-02 0.  1.
       -2    1    3    3    0  502  0.24887283630E+02 -0.10913884330E+04 -0.53131601623E+03  0.12141024658E+04  0.25500000920E-02 0. -1.
</event>
<event>
 5   0  0.5755250E-06  0.3315399E+04  0.7818609E-02  0.8158988E-01
       -2   -1    0    0    0  501  0.00000000000E+00  0.00000000000E+00  0.14022911715E+04  0.14022911715E+04  0.25500000920E-02 0. -1.
        2   -1    0    0  501    0  0.00000000000E+00  0.00000000000E+00 -0.19596270496E+04  0.19596270496E+04  0.25500000920E-02 0.  1.
    10030    2    1    2    0    0  0.00000000000E+00  0.00000000000E+00 -0.55733587803E+03  0.33619182211E+04  0.33153990475E+04 0.  0.
        5    1    3    3  502    0  0.15824454605E+04 -0.42346961508E+03 -0.53617092781E+03  0.17236477320E+04  0.46999998093E+01 0.  1.
       -5    1    3    3    0  502 -0.15824454605E+04  0.42346961508E+03 -0.21164950218E+02  0.16382704891E+04  0.46999998093E+01 0. -1.
</event>
<event>
 5   0  0.1925906E-06  0.3277470E+04  0.7818609E-02  0.8168652E-01
        1   -1    0    0  501    0  0.00000000000E+00  0.00000000000E+00  0.18897817834E+04  0.18897817834E+04  0.50400001928E-02 0.  1.
       -1   -1    0    0    0  501  0.00000000000E+00  0.00000000000E+00 -0.14210384791E+04  0.14210384791E+04  0.50400001928E-02 0. -1.
    10030    2    1    2    0    0  0.00000000000E+00  0.00000000000E+00  0.46874330430E+03  0.33108202624E+04  0.32774701409E+04 0.  0.
        1    1    3    3  502    0 -0.12041351528E+04 -0.62120735174E+02  0.13554627408E+04  0.18141333175E+04  0.50400001928E-02 0.  1.
       -1    1    3    3    0  502  0.12041351528E+04  0.62120735174E+02 -0.88671943651E+03  0.14966869449E+04  0.50400001928E-02 0. -1.
</event>
<event>
 5   0  0.2037109E-06  0.1977951E+04  0.7818609E-02  0.8616999E-01
       -1   -1    0    0    0  501  0.00000000000E+00  0.00000000000E+00  0.68601088493E+03  0.68601088495E+03  0.50400001928E-02 0.  1.
        1   -1    0    0  501    0  0.00000000000E+00  0.00000000000E+00 -0.14257384954E+04  0.14257384954E+04  0.50400001928E-02 0. -1.
    10030    2    1    2    0    0  0.00000000000E+00  0.00000000000E+00 -0.73972761044E+03  0.21117493803E+04  0.19779505827E+04 0.  0.
        2    1    3    3  502    0  0.69288290279E+03 -0.69338535868E+03 -0.50989292468E+03  0.11049256840E+04  0.25500000920E-02 0. -1.
       -2    1    3    3    0  502 -0.69288290279E+03  0.69338535868E+03 -0.22983468576E+03  0.10068236963E+04  0.25500000920E-02 0.  1.
</event>
<event>
 5   0  0.1925906E-06  0.3151531E+04  0.7818609E-02  0.8201736E-01
        1   -1    0    0  501    0  0.00000000000E+00  0.00000000000E+00  0.12634810821E+04  0.12634810822E+04  0.50400001928E-02 0. -1.
       -1   -1    0    0    0  501  0.00000000000E+00  0.00000000000E+00 -0.19652345426E+04  0.19652345426E+04  0.50400001928E-02 0.  1.
    10030    2    1    2    0    0  0.00000000000E+00  0.00000000000E+00 -0.70175346044E+03  0.32287156247E+04  0.31515308449E+04 0.  0.
        1    1    3    3  502    0  0.84537819598E+03  0.13134628166E+04 -0.56378316253E+03  0.16606325058E+04  0.50400001928E-02 0. -1.
       -1    1    3    3    0  502 -0.84537819598E+03 -0.13134628166E+04 -0.13797029792E+03  0.15680831190E+04  0.50400001928E-02 0.  1.
</event>
<event>
 5   0  0.5755250E-06  0.3321614E+04  0.7818609E-02  0.8157417E-01
       -2   -1    0    0    0  501  0.00000000000E+00  0.00000000000E+00  0.96643761098E+03  0.96643761098E+03  0.25500000920E-02 0.  1.
        2   -1    0    0  501    0  0.00000000000E+00  0.00000000000E+00 -0.28540695499E+04  0.28540695499E+04  0.25500000920E-02 0. -1.
    10030    2    1    2    0    0  0.00000000000E+00  0.00000000000E+00 -0.18876319389E+04  0.38205071609E+04  0.33216141602E+04 0.  0.
        5    1    3    3  502    0  0.13858479703E+04  0.70580588957E+03 -0.27361432987E+03  0.15791210980E+04  0.46999998093E+01 0.  1.
       -5    1    3    3    0  502 -0.13858479703E+04 -0.70580588957E+03 -0.16140176091E+04  0.22413860629E+04  0.46999998093E+01 0. -1.
</event>
<event>
 5   0  0.1999849E-06  0.3387725E+04  0.7818609E-02  0.8140926E-01
        1   -1    0    0  501    0  0.00000000000E+00  0.00000000000E+00  0.24172983141E+04  0.24172983142E+04  0.50400001928E-02 0.  1.
       -1   -1    0    0    0  501  0.00000000000E+00  0.00000000000E+00 -0.11869323742E+04  0.11869323742E+04  0.50400001928E-02 0. -1.
    10030    2    1    2    0    0  0.00000000000E+00  0.00000000000E+00  0.12303659399E+04  0.36042306884E+04  0.33877246802E+04 0.  0.
        5    1    3    3  502    0  0.94693550842E+03 -0.47810782671E+03 -0.78977059917E+03  0.13225103555E+04  0.46999998093E+01 0. -1.
       -5    1    3    3    0  502 -0.94693550842E+03  0.47810782671E+03  0.20201365391E+04  0.22817203329E+04  0.46999998093E+01 0.  1.
</event>
<event>
 5   0  0.2730981E-06  0.1952436E+04  0.7818609E-02  0.8629187E-01
        1   -1    0    0  501    0  0.00000000000E+00  0.00000000000E+00  0.26230457816E+04  0.26230457816E+04  0.50400001928E-02 0. -1.
       -1   -1    0    0    0  501  0.00000000000E+00  0.00000000000E+00 -0.36331853990E+03  0.36331853994E+03  0.50400001928E-02 0.  1.
    10030    2    1    2    0    0  0.00000000000E+00  0.00000000000E+00  0.22597272417E+04  0.29863643216E+04  0.19524355698E+04 0.  0.
        3    1    3    3  502    0  0.34967156056E+03  0.86338151468E+03  0.68312960023E+03  0.11551467011E+04  0.10100000352E+00 0.  1.
       -3    1    3    3    0  502 -0.34967156056E+03 -0.86338151468E+03  0.15765976415E+04  0.18312176205E+04  0.10100000352E+00 0. -1.
</event>
<event>
 5   0  0.5622811E-06  0.3317373E+04  0.7818609E-02  0.8158489E-01
       -2   -1    0    0    0  501  0.00000000000E+00  0.00000000000E+00  0.10842099483E+04  0.10842099483E+04  0.25500000920E-02 0.  1.
        2   -1    0    0  501    0  0.00000000000E+00  0.00000000000E+00 -0.25375538155E+04  0.25375538155E+04  0.25500000920E-02 0. -1.
    10030    2    1    2    0    0  0.00000000000E+00  0.00000000000E+00 -0.14533438672E+04  0.36217637638E+04  0.33173731120E+04 0.  0.
        1    1    3    3  502    0  0.31141457266E+02 -0.14645059865E+03  0.10768171753E+04  0.10871765254E+04  0.50400001928E-02 0.  1.
       -1    1    3    3    0  502 -0.31141457266E+02  0.14645059865E+03 -0.25301610425E+04  0.25345872384E+04  0.50400001928E-02 0. -1.
</event>
<event>
 5   0  0.1925906E-06  0.3360110E+04  0.7818609E-02  0.8147767E-01
        1   -1    0    0  501    0  0.00000000000E+00  0.00000000000E+00  0.20645031628E+04  0.20645031628E+04  0.50400001928E-02 0.  1.
       -1   -1    0    0    0  501  0.00000000000E+00  0.00000000000E+00 -0.13671977971E+04  0.13671977971E+04  0.50400001928E-02 0. -1.
    10030    2    1    2    0    0  0.00000000000E+00  0.00000000000E+00  0.69730536568E+03  0.34317009600E+04  0.33601096270E+04 0.  0.
        1    1    3    3  502    0 -0.42401203755E+03 -0.72394554241E+03  0.18352413121E+04  0.20179182417E+04  0.50400001928E-02 0.  1.
       -1    1    3    3    0  502  0.42401203755E+03  0.72394554241E+03 -0.11379359464E+04  0.14137827183E+04  0.50400001928E-02 0. -1.
</event>
<event>
 5   0  0.5855568E-06  0.3328426E+04  0.7818609E-02  0.8155700E-01
        2   -1    0    0  501    0  0.00000000000E+00  0.00000000000E+00  0.21371748233E+04  0.21371748233E+04  0.25500000920E-02 0. -1.
       -2   -1    0    0    0  501  0.00000000000E+00  0.00000000000E+00 -0.12959187163E+04  0.12959187163E+04  0.25500000920E-02 0.  1.
    10030    2    1    2    0    0  0.00000000000E+00  0.00000000000E+00  0.84125610703E+03  0.34330935396E+04  0.33284259664E+04 0.  0.
        3    1    3    3  502    0  0.52539714210E+03 -0.91363963166E+03  0.17490837078E+04  0.20420757480E+04  0.10100000352E+00 0. -1.
       -3    1    3    3    0  502 -0.52539714210E+03  0.91363963166E+03 -0.90782760077E+03  0.13910177915E+04  0.10100000352E+00 0.  1.
</event>
<event>
 5   0  0.1925906E-06  0.1827079E+04  0.7818609E-02  0.8692030E-01
       -1   -1    0    0    0  501  0.00000000000E+00  0.00000000000E+00  0.72983209315E+03  0.72983209317E+03  0.50400001928E-02 0. -1.
        1   -1    0    0  501    0  0.00000000000E+00  0.00000000000E+00 -0.11434885226E+04  0.11434885226E+04  0.50400001928E-02 0.  1.
    10030    2    1    2    0    0  0.00000000000E+00  0.00000000000E+00 -0.41365642945E+03  0.18733206158E+04  0.18270792232E+04 0.  0.
        1    1    3    3  502    0 -0.66045030622E+03 -0.32799978864E+03  0.34605591921E+03  0.81457545236E+03  0.50400001928E-02 0. -1.
       -1    1    3    3    0  502  0.66045030622E+03  0.32799978864E+03 -0.75971234866E+03  0.10587451634E+04  0.50400001928E-02 0.  1.
</event>
<event>
 5   0  0.1925906E-06  0.3289563E+04  0.7818609E-02  0.8165556E-01
        1   -1    0    0  501    0  0.00000000000E+00  0.00000000000E+00  0.16162657054E+04  0.16162657054E+04  0.50400001928E-02 0.  1.
       -1   -1    0    0    0  501  0.00000000000E+00  0.00000000000E+00 -0.16737999441E+04  0.16737999441E+04  0.50400001928E-02 0. -1.
    10030    2    1    2    0    0  0.00000000000E+00  0.00000000000E+00 -0.57534238734E+02  0.32900656496E+04  0.32895625530E+04 0.  0.
        1    1    3    3  502    0  0.14211411754E+04 -0.55238264507E+03  0.58820372733E+03  0.16342436942E+04  0.50400001928E-02 0.  1.
       -1    1    3    3    0  502 -0.14211411754E+04  0.55238264507E+03 -0.64573796606E+03  0.16558219554E+04  0.50400001928E-02 0. -1.
</event>
<event>
 5   0  0.5622811E-06  0.3150389E+04  0.7818609E-02  0.8202044E-01
       -2   -1    0    0    0  501  0.00000000000E+00  0.00000000000E+00  0.87673773644E+03  0.87673773644E+03  0.25500000920E-02 0. -1.
        2   -1    0    0  501    0  0.00000000000E+00  0.00000000000E+00 -0.28300791360E+04  0.28300791360E+04  0.25500000920E-02 0.  1.
    10030    2    1    2    0    0  0.00000000000E+00  0.00000000000E+00 -0.19533413995E+04  0.37068168724E+04  0.31503886590E+04 0.  0.
        1    1    3    3  502    0  0.14766747130E+04 -0.17965784498E+03 -0.15862381947E+04  0.21746256597E+04  0.50400001928E-02 0.  1.
       -1    1    3    3    0  502 -0.14766747130E+04  0.17965784498E+03 -0.36710320479E+03  0.15321912127E+04  0.50400001928E-02 0. -1.
</event>
<event>
 5   0  0.1925906E-06  0.2293736E+04  0.7818609E-02  0.8480395E-01
        1   -1    0    0  501    0  0.00000000000E+00  0.00000000000E+00  0.12365585685E+04  0.12365585685E+04  0.50400001928E-02 0.  1.
       -1   -1    0    0    0  501  0.00000000000E+00  0.00000000000E+00 -0.10636827403E+04  0.10636827403E+04  0.50400001928E-02 0. -1.
    10030    2    1    2    0    0  0.00000000000E+00  0.00000000000E+00  0.17287582823E+03  0.23002413088E+04  0.22937358233E+04 0.  0.
        1    1    3    3  502    0 -0.55505156482E+03 -0.48217395906E+03  0.96912294111E+03  0.12164593053E+04  0.50400001928E-02 0.  1.
       -1    1    3    3    0  502  0.55505156482E+03  0.48217395906E+03 -0.79624711289E+03  0.10837820035E+04  0.50400001928E-02 0. -1.
</event>
<event>
 5   0  0.1925906E-06  0.3221832E+04  0.7818609E-02  0.8183075E-01
        1   -1    0    0  501    0  0.00000000000E+00  0.00000000000E+00  0.19798167847E+04  0.19798167847E+04  0.50400001928E-02 0. -1.
       -1   -1    0    0    0  501  0.00000000000E+00  0.00000000000E+00 -0.13107524500E+04  0.13107524500E+04  0.50400001928E-02 0.  1.
    10030    2    1    2    0    0  0.00000000000E+00  0.00000000000E+00  0.66906433471E+03  0.32905692347E+04  0.32218315915E+04 0.  0.
        1    1    3    3  502    0 -0.25358914723E+03 -0.15023888099E+03  0.19520412468E+04  0.19741692446E+04  0.50400001928E-02 0. -1.
       -1    1    3    3    0  502  0.25358914723E+03  0.15023888099E+03 -0.12829769121E+04  0.13163999901E+04  0.50400001928E-02 0.  1.
</event>
<event>
 5   0  0.5855568E-06  0.3269097E+04  0.7818609E-02  0.8170803E-01
        2   -1    0    0  501    0  0.00000000000E+00  0.00000000000E+00  0.18691117344E+04  0.18691117344E+04  0.25500000920E-02 0. -1.
       -2   -1    0    0    0  501  0.00000000000E+00  0.00000000000E+00 -0.14294218393E+04  0.14294218393E+04  0.25500000920E-02 0.  1.
    10030    2    1    2    0    0  0.00000000000E+00  0.00000000000E+00  0.43968989519E+03  0.32985335737E+04  0.32690972046E+04 0.  0.
        3    1    3    3  502    0 -0.66964685857E+03 -0.14022754437E+04  0.73130748149E+03  0.17174440247E+04  0.10100000352E+00 0.  1.
       -3    1    3    3    0  502  0.66964685857E+03  0.14022754437E+04 -0.29161758631E+03  0.15810895490E+04  0.10100000352E+00 0. -1.
</event>
<event>
 5   0  0.5755250E-06  0.3343505E+04  0.7818609E-02  0.8151913E-01
       -2   -1    0    0    0  501  0.00000000000E+00  0.00000000000E+00  0.14134706685E+04  0.14134706685E+04  0.25500000920E-02 0.  1.
        2   -1    0    0  501    0  0.00000000000E+00  0.00000000000E+00 -0.19772299853E+04  0.19772299853E+04  0.25500000920E-02 0. -1.
    10030    2    1    2    0    0  0.00000000000E+00  0.00000000000E+00 -0.56375931683E+03  0.33907006538E+04  0.33435051004E+04 0.  0.
        5    1    3    3  502    0 -0.37930718129E+03  0.54729818514E+03  0.12731683970E+04  0.14367982107E+04  0.46999998093E+01 0.  1.
       -5    1    3    3    0  502  0.37930718129E+03 -0.54729818514E+03 -0.18369277138E+04  0.19539024431E+04  0.46999998093E+01 0. -1.
</event>
<event>
 5   0  0.5637538E-06  0.3215222E+04  0.7818609E-02  0.8184809E-01
       -2   -1    0    0    0  501  0.00000000000E+00  0.00000000000E+00  0.16950297972E+04  0.16950297972E+04  0.25500000920E-02 0.  1.
        2   -1    0    0  501    0  0.00000000000E+00  0.00000000000E+00 -0.15247005201E+04  0.15247005201E+04  0.25500000920E-02 0. -1.
    10030    2    1    2    0    0  0.00000000000E+00  0.00000000000E+00  0.17032927714E+03  0.32197303174E+04  0.32152218048E+04 0.  0.
        2    1    3    3  502    0 -0.15481158396E+04  0.29363594194E+03  0.40424617595E+03  0.16267451214E+04  0.25500000920E-02 0.  1.
       -2    1    3    3    0  502  0.15481158396E+04 -0.29363594194E+03 -0.23391689881E+03  0.15929851960E+04  0.25500000920E-02 0. -1.
</event>
<event>
 5   0  0.5637538E-06  0.1951422E+04  0.7818609E-02  0.8629675E-01
        2   -1    0    0  501    0  0.00000000000E+00  0.00000000000E+00  0.17255413581E+04  0.17255413581E+04  0.25500000920E-02 0. -1.
       -2   -1    0    0    0  501  0.00000000000E+00  0.00000000000E+00 -0.55171786234E+03  0.55171786235E+03  0.25500000920E-02 0.  1.
    10030    2    1    2    0    0  0.00000000000E+00  0.00000000000E+00  0.11738234957E+04  0.22772592204E+04  0.19514220348E+04 0.  0.
        2    1    3    3  502    0  0.86639867690E+02 -0.38265717140E+03  0.16294313017E+04  0.16760009977E+04  0.25500000920E-02 0. -1.
       -2    1    3    3    0  502 -0.86639867690E+02  0.38265717140E+03 -0.45560780595E+03  0.60125822269E+03  0.25500000920E-02 0.  1.
</event>
<event>
 5   0  0.5855568E-06  0.3166866E+04  0.7818609E-02  0.8197623E-01
       -2   -1    0    0    0  501  0.00000000000E+00  0.00000000000E+00  0.11728368487E+04  0.11728368487E+04  0.25500000920E-02 0. -1.
        2   -1    0    0  501    0  0.00000000000E+00  0.00000000000E+00 -0.21377733462E+04  0.21377733462E+04  0.25500000920E-02 0.  1.
    10030    2    1    2    0    0  0.00000000000E+00  0.00000000000E+00 -0.96493649747E+03  0.33106101949E+04  0.31668655510E+04 0.  0.
        3    1    3    3  502    0  0.10576044652E+04  0.21181647908E+03 -0.16943392470E+04  0.20085265544E+04  0.10100000352E+00 0.  1.
       -3    1    3    3    0  502 -0.10576044652E+04 -0.21181647908E+03  0.72940274954E+03  0.13020836405E+04  0.10100000352E+00 0. -1.
</event>
<event>
 5   0  0.2037109E-06  0.1837686E+04  0.7818609E-02  0.8686511E-01
       -1   -1    0    0    0  501  0.00000000000E+00  0.00000000000E+00  0.60054398782E+03  0.60054398784E+03  0.50400001928E-02 0.  1.
        1   -1    0    0  501    0  0.00000000000E+00  0.00000000000E+00 -0.14058465177E+04  0.14058465177E+04  0.50400001928E-02 0. -1.
    10030    2    1    2    0    0  0.00000000000E+00  0.00000000000E+00 -0.80530252991E+03  0.20063905056E+04  0.18376862344E+04 0.  0.
        2    1    3    3  502    0 -0.71965170202E+03  0.53205349752E+03 -0.17547977140E+03  0.91201570525E+03  0.25500000920E-02 0.  1.
       -2    1    3    3    0  502  0.71965170202E+03 -0.53205349752E+03 -0.62982275851E+03  0.10943748003E+04  0.25500000920E-02 0. -1.
</event>
<event>
 5   0  0.5622811E-06  0.3053094E+04  0.7818609E-02  0.8228730E-01
       -2   -1    0    0    0  501  0.00000000000E+00  0.00000000000E+00  0.18298113801E+04  0.18298113802E+04  0.25500000920E-02 0.  1.
        2   -1    0    0  501    0  0.00000000000E+00  0.00000000000E+00 -0.12735438991E+04  0.12735438991E+04  0.25500000920E-02 0. -1.
    10030    2    1    2    0    0  0.00000000000E+00  0.00000000000E+00  0.55626748103E+03  0.31033552793E+04  0.30530935916E+04 0.  0.
        1    1    3    3  502    0 -0.19992278034E+03  0.10303995431E+04 -0.84856021440E+03  0.13497209986E+04  0.50400001928E-02 0. -1.
       -1    1    3    3    0  502  0.19992278034E+03 -0.10303995431E+04  0.14048276954E+04  0.17536342807E+04  0.50400001928E-02 0.  1.
</event>
<event>
 5   0  0.1925906E-06  0.3242576E+04  0.7818609E-02  0.8177663E-01
       -1   -1    0    0    0  501  0.00000000000E+00  0.00000000000E+00  0.82574046567E+03  0.82574046569E+03  0.50400001928E-02 0. -1.
        1   -1    0    0  501    0  0.00000000000E+00  0.00000000000E+00 -0.31832947764E+04  0.31832947764E+04  0.50400001928E-02 0.  1.
    10030    2    1    2    0    0  0.00000000000E+00  0.00000000000E+00 -0.23575543107E+04  0.40090352421E+04  0.32425763282E+04 0.  0.
        1    1    3    3  502    0  0.83793149062E+03 -0.44775426166E+03 -0.28030736697E+04  0.29597018532E+04  0.50400001928E-02 0.  1.
       -1    1    3    3    0  502 -0.83793149062E+03  0.44775426166E+03  0.44551935900E+03  0.10493333889E+04  0.50400001928E-02 0. -1.
</event>
<event>
 5   0  0.2730981E-06  0.2219471E+04  0.7818609E-02  0.8510368E-01
        1   -1    0    0  501    0  0.00000000000E+00  0.00000000000E+00  0.11667561925E+04  0.11667561925E+04  0.50400001928E-02 0.  1.
       -1   -1    0    0    0  501  0.00000000000E+00  0.00000000000E+00 -0.10555010184E+04  0.10555010185E+04  0.50400001928E-02 0. -1.
    10030    2    1    2    0    0  0.00000000000E+00  0.00000000000E+00  0.11125517408E+03  0.22222572110E+04  0.22194705220E+04 0.  0.
        3    1    3    3  502    0 -0.17896729340E+03  0.25225532366E+02  0.11519209187E+04  0.11660134788E+04  0.10100000352E+00 0.  1.
       -3    1    3    3    0  502  0.17896729340E+03 -0.25225532366E+02 -0.10406657446E+04  0.10562437322E+04  0.10100000352E+00 0. -1.
</event>
<event>
 5   0  0.2097842E-06  0.3142508E+04  0.7818609E-02  0.8204168E-01
       -1   -1    0    0    0  501  0.00000000000E+00  0.00000000000E+00  0.12176585007E+04  0.12176585007E+04  0.50400001928E-02 0. -1.
        1   -1    0    0  501    0  0.00000000000E+00  0.00000000000E+00 -0.20275296325E+04  0.20275296325E+04  0.50400001928E-02 0.  1.
    10030    2    1    2    0    0  0.00000000000E+00  0.00000000000E+00 -0.80987113185E+03  0.32451881332E+04  0.31425077199E+04 0.  0.
        4    1    3    3  502    0  0.11850487454E+02 -0.26347606257E+03  0.11946361722E+04  0.12234039670E+04  0.12699999809E+01 0. -1.
       -4    1    3    3    0  502 -0.11850487454E+02  0.26347606257E+03 -0.20045073041E+04  0.20217841662E+04  0.12699999809E+01 0.  1.
</event>
<event>
 5   0  0.5300268E-06  0.3340110E+04  0.7818609E-02  0.8152764E-01
        2   -1    0    0  501    0  0.00000000000E+00  0.00000000000E+00  0.29496351694E+04  0.29496351694E+04  0.25500000920E-02 0. -1.
       -2   -1    0    0    0  501  0.00000000000E+00  0.00000000000E+00 -0.94556900991E+03  0.94556900992E+03  0.25500000920E-02 0.  1.
    10030    2    1    2    0    0  0.00000000000E+00  0.00000000000E+00  0.20040661595E+04  0.38952041793E+04  0.33401099424E+04 0.  0.
        4    1    3    3  502    0 -0.94450130877E+03 -0.15305288794E+03  0.25982977465E+04  0.27688735437E+04  0.12699999809E+01 0. -1.
       -4    1    3    3    0  502  0.94450130877E+03  0.15305288794E+03 -0.59423158701E+03  0.11263306356E+04  0.12699999809E+01 0.  1.
</event>
<event>
 5   0  0.2730981E-06  0.3401161E+04  0.7818609E-02  0.8137622E-01
        1   -1    0    0  501    0  0.00000000000E+00  0.00000000000E+00  0.16384603407E+04  0.16384603407E+04  0.50400001928E-02 0. -1.
       -1   -1    0    0    0  501  0.00000000000E+00  0.00000000000E+00 -0.17650554486E+04  0.17650554486E+04  0.50400001928E-02 0.  1.
    10030    2    1    2    0    0  0.00000000000E+00  0.00000000000E+00 -0.12659510792E+03  0.34035157892E+04  0.34011605970E+04 0.  0.
        3    1    3    3  502    0  0.42034331050E+03  0.16439010024E+04 -0.17684126010E+03  0.17059811974E+04  0.10100000352E+00 0.  1.
       -3    1    3    3    0  502 -0.42034331050E+03 -0.16439010024E+04  0.50246152177E+02  0.16975345918E+04  0.10100000352E+00 0. -1.
</event>
<event>
 5   0  0.5755250E-06  0.3312254E+04  0.7818609E-02  0.8159784E-01
        2   -1    0    0  501    0  0.00000000000E+00  0.00000000000E+00  0.18585748394E+04  0.18585748394E+04  0.25500000920E-02 0. -1.
       -2   -1    0    0    0  501  0.00000000000E+00  0.00000000000E+00 -0.14757307846E+04  0.14757307846E+04  0.25500000920E-02 0.  1.
    10030    2    1    2    0    0  0.00000000000E+00  0.00000000000E+00  0.38284405480E+03  0.33343056240E+04  0.33122536774E+04 0.  0.
        5    1    3    3  502    0 -0.36744292314E+03  0.25953230757E+03 -0.14130408651E+04  0.14829288239E+04  0.46999998093E+01 0.  1.
       -5    1    3    3    0  502  0.36744292314E+03 -0.25953230757E+03  0.17958849199E+04  0.18513768001E+04  0.46999998093E+01 0. -1.
</event>
<event>
 5   0  0.2730981E-06  0.2100888E+04  0.7818609E-02  0.8560852E-01
        1   -1    0    0  501    0  0.00000000000E+00  0.00000000000E+00  0.20323148731E+04  0.20323148731E+04  0.50400001928E-02 0. -1.
       -1   -1    0    0    0  501  0.00000000000E+00  0.00000000000E+00 -0.54294387180E+03  0.54294387182E+03  0.50400001928E-02 0.  1.
    10030    2    1    2    0    0  0.00000000000E+00  0.00000000000E+00  0.14893710013E+04  0.25752587449E+04  0.21008882940E+04 0.  0.
        3    1    3    3  502    0 -0.21575871564E+03 -0.38860874506E+03 -0.42198840778E+03  0.61289706038E+03  0.10100000352E+00 0.  1.
       -3    1    3    3    0  502  0.21575871564E+03  0.38860874506E+03  0.19113594091E+04  0.19623616845E+04  0.10100000352E+00 0. -1.
</event>
<event>
 5   0  0.5622811E-06  0.3317223E+04  0.7818609E-02  0.8158527E-01
        2   -1    0    0  501    0  0.00000000000E+00  0.00000000000E+00  0.15778343777E+04  0.15778343777E+04  0.25500000920E-02 0.  1.
       -2   -1    0    0    0  501  0.00000000000E+00  0.00000000000E+00 -0.17435240970E+04  0.17435240970E+04  0.25500000920E-02 0. -1.
    10030    2    1    2    0    0  0.00000000000E+00  0.00000000000E+00 -0.16568971933E+03  0.33213584748E+04  0.33172230909E+04 0.  0.
        1    1    3    3  502    0  0.67585951975E+02 -0.17719446697E+03 -0.17326327433E+04  0.17429807696E+04  0.50400001928E-02 0. -1.
       -1    1    3    3    0  502 -0.67585951975E+02  0.17719446697E+03  0.15669430239E+04  0.15783777052E+04  0.50400001928E-02 0.  1.
</event>
<event>
 5   0  0.2730981E-06  0.3290459E+04  0.7818609E-02  0.8165327E-01
       -1   -1    0    0    0  501  0.00000000000E+00  0.00000000000E+00  0.11096768904E+04  0.11096768904E+04  0.50400001928E-02 0.  1.
        1   -1    0    0  501    0  0.00000000000E+00  0.00000000000E+00 -0.24392507083E+04  0.24392507083E+04  0.50400001928E-02 0. -1.
    10030    2    1    2    0    0  0.00000000000E+00  0.00000000000E+00 -0.13295738179E+04  0.35489275987E+04  0.32904590202E+04 0.  0.
        3    1    3    3  502    0 -0.10377132266E+03  0.14629035248E+04  0.13938467762E+03  0.14731881444E+04  0.10100000352E+00 0.  1.
       -3    1    3    3    0  502  0.10377132266E+03 -0.14629035248E+04 -0.14689584955E+04  0.20757394543E+04  0.10100000352E+00 0. -1.
</event>
<event>
 5   0  0.5755250E-06  0.2043751E+04  0.7818609E-02  0.8586435E-01
       -2   -1    0    0    0  501  0.00000000000E+00  0.00000000000E+00  0.15958858339E+04  0.15958858339E+04  0.25500000920E-02 0. -1.
        2   -1    0    0  501    0  0.00000000000E+00  0.00000000000E+00 -0.65432593966E+03  0.65432593966E+03  0.25500000920E-02 0.  1.
    10030    2    1    2    0    0  0.00000000000E+00  0.00000000000E+00  0.94155989421E+03  0.22502117735E+04  0.20437509612E+04 0.  0.
        5    1    3    3  502    0  0.39406813885E+03 -0.57973104004E+03 -0.34785649709E+03  0.78256246358E+03  0.46999998093E+01 0.  1.
       -5    1    3    3    0  502 -0.39406813885E+03  0.57973104004E+03  0.12894163913E+04  0.14676493099E+04  0.46999998093E+01 0. -1.
</event>
<event>
 5   0  0.5855568E-06  0.2924947E+04  0.7818609E-02  0.8265494E-01
       -2   -1    0    0    0  501  0.00000000000E+00  0.00000000000E+00  0.10227798620E+04  0.10227798620E+04  0.25500000920E-02 0.  1.
        2   -1    0    0  501    0  0.00000000000E+00  0.00000000000E+00 -0.20911910900E+04  0.20911910900E+04  0.25500000920E-02 0. -1.
    10030    2    1    2    0    0  0.00000000000E+00  0.00000000000E+00 -0.10684112279E+04  0.31139709520E+04  0.29249465872E+04 0.  0.
        3    1    3    3  502    0 -0.13981298184E+04 -0.28247372100E+03 -0.87798176627E+03  0.16749359343E+04  0.10100000352E+00 0. -1.
       -3    1    3    3    0  502  0.13981298184E+04  0.28247372100E+03 -0.19042946166E+03  0.14390350177E+04  0.10100000352E+00 0.  1.
</event>
<event>
 5   0  0.5855568E-06  0.3314045E+04  0.7818609E-02  0.8159331E-01
        2   -1    0    0  501    0  0.00000000000E+00  0.00000000000E+00  0.20035860935E+04  0.20035860935E+04  0.25500000920E-02 0.  1.
       -2   -1    0    0    0  501  0.00000000000E+00  0.00000000000E+00 -0.13704044594E+04  0.13704044594E+04  0.25500000920E-02 0. -1.
    10030    2    1    2    0    0  0.00000000000E+00  0.00000000000E+00  0.63318163411E+03  0.33739905528E+04  0.33140448502E+04 0.  0.
        3    1    3    3  502    0 -0.95402069048E+03  0.47345405022E+03 -0.97578369820E+03  0.14444611630E+04  0.10100000352E+00 0. -1.
       -3    1    3    3    0  502  0.95402069048E+03 -0.47345405022E+03  0.16089653323E+04  0.19295293899E+04  0.10100000352E+00 0.  1.
</event>
<event>
 5   0  0.1925906E-06  0.3224503E+04  0.7818609E-02  0.8182376E-01
        1   -1    0    0  501    0  0.00000000000E+00  0.00000000000E+00  0.17365805869E+04  0.17365805869E+04  0.50400001928E-02 0. -1.
       -1   -1    0    0    0  501  0.00000000000E+00  0.00000000000E+00 -0.14968239960E+04  0.14968239960E+04  0.50400001928E-02 0.  1.
    10030    2    1    2    0    0  0.00000000000E+00  0.00000000000E+00  0.23975659084E+03  0.32334045829E+04  0.32245033686E+04 0.  0.
        1    1    3    3  502    0  0.12144527087E+04  0.10064279147E+04  0.45481075369E+03  0.16415374961E+04  0.50400001928E-02 0. -1.
       -1    1    3    3    0  502 -0.12144527087E+04 -0.10064279147E+04 -0.21505416285E+03  0.15918670869E+04  0.50400001928E-02 0.  1.
</event>
<event>
 5   0  0.2097842E-06  0.2567503E+04  0.7818609E-02  0.8379324E-01
        1   -1    0    0  501    0  0.00000000000E+00  0.00000000000E+00  0.13293770387E+04  0.13293770387E+04  0.50400001928E-02 0.  1.
       -1   -1    0    0    0  501  0.00000000000E+00  0.00000000000E+00 -0.12396922587E+04  0.12396922588E+04  0.50400001928E-02 0. -1.
    10030    2    1    2    0    0  0.00000000000E+00  0.00000000000E+00  0.89684779950E+02  0.25690692975E+04  0.25675033973E+04 0.  0.
        4    1    3    3  502    0  0.12098891894E+04 -0.22421166723E+03 -0.32132353523E+03  0.12717520000E+04  0.12699999809E+01 0. -1.
       -4    1    3    3    0  502 -0.12098891894E+04  0.22421166723E+03  0.41100831518E+03  0.12973172975E+04  0.12699999809E+01 0.  1.
</event>
<event>
 5   0  0.1925906E-06  0.2764124E+04  0.7818609E-02  0.8314494E-01
        1   -1    0    0  501    0  0.00000000000E+00  0.00000000000E+00  0.14562008357E+04  0.14562008357E+04  0.50400001928E-02 0. -1.
       -1   -1    0    0    0  501  0.00000000000E+00  0.00000000000E+00 -0.13116979372E+04  0.13116979372E+04  0.50400001928E-02 0.  1.
    10030    2    1    2    0    0  0.00000000000E+00  0.00000000000E+00  0.14450289847E+03  0.27678987729E+04  0.27641241885E+04 0.  0.
        1    1    3    3  502    0 -0.53650545195E+03  0.11978380056E+04 -0.36128507840E+03  0.13613158691E+04  0.50400001928E-02 0.  1.
       -1    1    3    3    0  502  0.53650545195E+03 -0.11978380056E+04  0.50578797687E+03  0.14065829038E+04  0.50400001928E-02 0. -1.
</event>
<event>
 5   0  0.1878000E-06  0.2553685E+04  0.7818609E-02  0.8384106E-01
        3   -1    0    0  501    0  0.00000000000E+00  0.00000000000E+00  0.14931411844E+04  0.14931411878E+04  0.10100000352E+00 0. -1.
       -3   -1    0    0    0  501  0.00000000000E+00  0.00000000000E+00 -0.10918770637E+04  0.10918770684E+04  0.10100000352E+00 0.  1.
    10030    2    1    2    0    0  0.00000000000E+00  0.00000000000E+00  0.40126412071E+03  0.25850182562E+04  0.25536848847E+04 0.  0.
        1    1    3    3  502    0  0.12360306334E+03 -0.62972009709E+02 -0.10842265058E+04  0.10930646400E+04  0.50400001928E-02 0.  1.
       -1    1    3    3    0  502 -0.12360306334E+03  0.62972009709E+02  0.14854906265E+04  0.14919536162E+04  0.50400001928E-02 0. -1.
</event>
<event>
 5   0  0.1999849E-06  0.3266722E+04  0.7818609E-02  0.8171415E-01
        1   -1    0    0  501    0  0.00000000000E+00  0.00000000000E+00  0.14605928749E+04  0.14605928749E+04  0.50400001928E-02 0.  1.
       -1   -1    0    0    0  501  0.00000000000E+00  0.00000000000E+00 -0.18265647818E+04  0.18265647818E+04  0.50400001928E-02 0. -1.
    10030    2    1    2    0    0  0.00000000000E+00  0.00000000000E+00 -0.36597190685E+03  0.32871576567E+04  0.32667216018E+04 0.  0.
        5    1    3    3  502    0  0.68544494193E+03 -0.13518980545E+03  0.13026424537E+04  0.14781781029E+04  0.46999998093E+01 0.  1.
       -5    1    3    3    0  502 -0.68544494193E+03  0.13518980545E+03 -0.16686143605E+04  0.18089795538E+04  0.46999998093E+01 0. -1.
</event>
<event>
 5   0  0.2097842E-06  0.3332218E+04  0.7818609E-02  0.8154746E-01
       -1   -1    0    0    0  501  0.00000000000E+00  0.00000000000E+00  0.12270988249E+04  0.12270988249E+04  0.50400001928E-02 0. -1.
        1   -1    0    0  501    0  0.00000000000E+00  0.00000000000E+00 -0.22621801808E+04  0.22621801808E+04  0.50400001928E-02 0.  1.
    10030    2    1    2    0    0  0.00000000000E+00  0.00000000000E+00 -0.10350813559E+04  0.34892790057E+04  0.33322176649E+04 0.  0.
        4    1    3    3  502    0  0.21985010444E+02 -0.15767745648E+04 -0.10806766076E+04  0.19116916362E+04  0.12699999809E+01 0.  1.
       -4    1    3    3    0  502 -0.21985010444E+02  0.15767745648E+04  0.45595251634E+02  0.15775873696E+04  0.12699999809E+01 0. -1.
</event>
<event>
 5   0  0.2037109E-06  0.3296916E+04  0.7818609E-02  0.8163681E-01
        1   -1    0    0  501    0  0.00000000000E+00  0.00000000000E+00  0.23176448149E+04  0.23176448149E+04  0.50400001928E-02 0.  1.
       -1   -1    0    0    0  501  0.00000000000E+00  0.00000000000E+00 -0.11724891527E+04  0.11724891527E+04  0.50400001928E-02 0. -1.
    10030    2    1    2    0    0  0.00000000000E+00  0.00000000000E+00  0.11451556622E+04  0.34901339676E+04  0.32969157741E+04 0.  0.
        2    1    3    3  502    0 -0.11883621727E+04  0.29793386499E+03 -0.59498519825E+03  0.13619752669E+04  0.25500000920E-02 0. -1.
       -2    1    3    3    0  502  0.11883621727E+04 -0.29793386499E+03  0.17401408604E+04  0.21281587007E+04  0.25500000920E-02 0.  1.
</event>
<event>
 5   0  0.5637538E-06  0.3287482E+04  0.7818609E-02  0.8166088E-01
        2   -1    0    0  501    0  0.00000000000E+00  0.00000000000E+00  0.18640995643E+04  0.18640995643E+04  0.25500000920E-02 0. -1.
       -2   -1    0    0    0  501  0.00000000000E+00  0.00000000000E+00 -0.14494317865E+04  0.14494317865E+04  0.25500000920E-02 0.  1.
    10030    2    1    2    0    0  0.00000000000E+00  0.00000000000E+00  0.41466777783E+03  0.33135313509E+04  0.32874824178E+04 0.  0.
        2    1    3    3  502    0  0.82577119300E+03  0.56456947183E+03  0.15219880228E+04  0.18212864391E+04  0.25500000920E-02 0. -1.
       -2    1    3    3    0  502 -0.82577119300E+03 -0.56456947183E+03 -0.11073202450E+04  0.14922449118E+04  0.25500000920E-02 0.  1.
</event>
<event>
 5   0  0.1999849E-06  0.2759290E+04  0.7818609E-02  0.8316020E-01
       -1   -1    0    0    0  501  0.00000000000E+00  0.00000000000E+00  0.19370389977E+04  0.19370389978E+04  0.50400001928E-02 0. -1.
        1   -1    0    0  501    0  0.00000000000E+00  0.00000000000E+00 -0.98264451728E+03  0.98264451729E+03  0.50400001928E-02 0.  1.
    10030    2    1    2    0    0  0.00000000000E+00  0.00000000000E+00  0.95439448047E+03  0.29196835150E+04  0.27592903080E+04 0.  0.
        5    1    3    3  502    0  0.12654637727E+04  0.49340012187E+03  0.22114673111E+03  0.13761432363E+04  0.46999998093E+01 0. -1.
       -5    1    3    3    0  502 -0.12654637727E+04 -0.49340012187E+03  0.73324774936E+03  0.15435402787E+04  0.46999998093E+01 0.  1.
</event>
<event>
 5   0  0.2730981E-06  0.3292270E+04  0.7818609E-02  0.8164865E-01
        1   -1    0    0  501    0  0.00000000000E+00  0.00000000000E+00  0.23217158589E+04  0.23217158589E+04  0.50400001928E-02 0. -1.
       -1   -1    0    0    0  501  0.00000000000E+00  0.00000000000E+00 -0.11671367379E+04  0.11671367379E+04  0.50400001928E-02 0.  1.
    10030    2    1    2    0    0  0.00000000000E+00  0.00000000000E+00  0.11545791211E+04  0.34888525968E+04  0.32922696572E+04 0.  0.
        3    1    3    3  502    0 -0.42251998904E+03  0.85148235285E+03  0.20014925297E+04  0.22157431474E+04  0.10100000352E+00 0. -1.
       -3    1    3    3    0  502  0.42251998904E+03 -0.85148235285E+03 -0.84691340864E+03  0.12731094495E+04  0.10100000352E+00 0.  1.
</event>
<event>
 5   0  0.5637538E-06  0.3109166E+04  0.7818609E-02  0.8213227E-01
       -2   -1    0    0    0  501  0.00000000000E+00  0.00000000000E+00  0.19270498444E+04  0.19270498444E+04  0.25500000920E-02 0.  1.
        2   -1    0    0  501    0  0.00000000000E+00  0.00000000000E+00 -0.12541076899E+04  0.12541076899E+04  0.25500000920E-02 0. -1.
    10030    2    1    2    0    0  0.00000000000E+00  0.00000000000E+00  0.67294215454E+03  0.31811575343E+04  0.31091658230E+04 0.  0.
        2    1    3    3  502    0 -0.53800607329E+03  0.33579652592E+03  0.17886725989E+04  0.18977775180E+04  0.25500000920E-02 0.  1.
       -2    1    3    3    0  502  0.53800607329E+03 -0.33579652592E+03 -0.11157304444E+04  0.12833800163E+04  0.25500000920E-02 0. -1.
</event>
<event>
 5   0  0.2037109E-06  0.3366033E+04  0.7818609E-02  0.8146294E-01
        1   -1    0    0  501    0  0.00000000000E+00  0.00000000000E+00  0.18400313711E+04  0.18400313712E+04  0.50400001928E-02 0. -1.
       -1   -1    0    0    0  501  0.00000000000E+00  0.00000000000E+00 -0.15394003422E+04  0.15394003423E+04  0.50400001928E-02 0.  1.
    10030    2    1    2    0    0  0.00000000000E+00  0.00000000000E+00  0.30063102890E+03  0.33794317134E+04  0.33660332277E+04 0.  0.
        2    1    3    3  502    0 -0.87120168732E+03 -0.14336696367E+04  0.28555103647E+03  0.17017462800E+04  0.25500000920E-02 0.  1.
       -2    1    3    3    0  502  0.87120168732E+03  0.14336696367E+04  0.15079992437E+02  0.16776854334E+04  0.25500000920E-02 0. -1.
</event>
<event>
 5   0  0.1999849E-06  0.3411160E+04  0.7818609E-02  0.8135173E-01
       -1   -1    0    0    0  501  0.00000000000E+00  0.00000000000E+00  0.11558075739E+04  0.11558075739E+04  0.50400001928E-02 0.  1.
        1   -1    0    0  501    0  0.00000000000E+00  0.00000000000E+00 -0.25168575023E+04  0.25168575023E+04  0.50400001928E-02 0. -1.
    10030    2    1    2    0    0  0.00000000000E+00  0.00000000000E+00 -0.13610499284E+04  0.36726650763E+04  0.34111598987E+04 0.  0.
        5    1    3    3  502    0  0.88552218121E+02  0.15884412938E+04 -0.18580597026E+02  0.15910231198E+04  0.46999998093E+01 0.  1.
       -5    1    3    3    0  502 -0.88552218121E+02 -0.15884412938E+04 -0.13424693314E+04  0.20816419564E+04  0.46999998093E+01 0. -1.
</event>
<event>
 5   0  0.5622811E-06  0.3319793E+04  0.7818609E-02  0.8157877E-01
        2   -1    0    0  501    0  0.00000000000E+00  0.00000000000E+00  0.17810932744E+04  0.17810932744E+04  0.25500000920E-02 0. -1.
       -2   -1    0    0    0  501  0.00000000000E+00  0.00000000000E+00 -0.15469464051E+04  0.15469464051E+04  0.25500000920E-02 0.  1.
    10030    2    1    2    0    0  0.00000000000E+00  0.00000000000E+00  0.23414686936E+03  0.33280396795E+04  0.33197926670E+04 0.  0.
        1    1    3    3  502    0  0.50696582125E+03  0.14141274447E+04  0.82486210986E+03  0.17138168730E+04  0.50400001928E-02 0. -1.
       -1    1    3    3    0  502 -0.50696582125E+03 -0.14141274447E+04 -0.59071524050E+03  0.16142228065E+04  0.50400001928E-02 0.  1.
</event>
<event>
 5   0  0.5637538E-06  0.3258135E+04  0.7818609E-02  0.8173630E-01
        2   -1    0    0  501    0  0.00000000000E+00  0.00000000000E+00  0.20742074220E+04  0.20742074220E+04  0.25500000920E-02 0. -1.
       -2   -1    0    0    0  501  0.00000000000E+00  0.00000000000E+00 -0.12794581784E+04  0.12794581784E+04  0.25500000920E-02 0.  1.
    10030    2    1    2    0    0  0.00000000000E+00  0.00000000000E+00  0.79474924352E+03  0.33536656004E+04  0.32581354483E+04 0.  0.
        2    1    3    3  502    0  0.31314329938E+03 -0.14447745098E+04 -0.30711201330E+03  0.15098840680E+04  0.25500000920E-02 0.  1.
       -2    1    3    3    0  502 -0.31314329938E+03  0.14447745098E+04  0.11018612568E+04  0.18437815324E+04  0.25500000920E-02 0. -1.
</event>
<event>
 5   0  0.5300268E-06  0.3278156E+04  0.7818609E-02  0.8168476E-01
        2   -1    0    0  501    0  0.00000000000E+00  0.00000000000E+00  0.25002716426E+04  0.25002716426E+04  0.25500000920E-02 0.  1.
       -2   -1    0    0    0  501  0.00000000000E+00  0.00000000000E+00 -0.10745139311E+04  0.10745139311E+04  0.25500000920E-02 0. -1.
    10030    2    1    2    0    0  0.00000000000E+00  0.00000000000E+00  0.14257577115E+04  0.35747855737E+04  0.32781560131E+04 0.  0.
        4    1    3    3  502    0  0.81734973819E+03  0.48343276490E+03 -0.74397517783E+03  0.12063451044E+04  0.12699999809E+01 0. -1.
       -4    1    3    3    0  502 -0.81734973819E+03 -0.48343276490E+03  0.21697328894E+04  0.23684404694E+04  0.12699999809E+01 0.  1.
</event>
<event>
 5   0  0.5755250E-06  0.2801710E+04  0.7818609E-02  0.8302738E-01
       -2   -1    0    0    0  501  0.00000000000E+00  0.00000000000E+00  0.15981869513E+04  0.15981869513E+04  0.25500000920E-02 0.  1.
        2   -1    0    0  501    0  0.00000000000E+00  0.00000000000E+00 -0.12278879887E+04  0.12278879887E+04  0.25500000920E-02 0. -1.
    10030    2    1    2    0    0  0.00000000000E+00  0.00000000000E+00  0.37029896267E+03  0.28260749400E+04  0.28017098788E+04 0.  0.
        5    1    3    3  502    0 -0.79940065233E+03 -0.62659794049E+03  0.11582703592E+04  0.15405449350E+04  0.46999998093E+01 0.  1.
       -5    1    3    3    0  502  0.79940065233E+03  0.62659794049E+03 -0.78797139650E+03  0.12855300050E+04  0.46999998093E+01 0. -1.
</event>
<event>
 5   0  0.5300268E-06  0.3266152E+04  0.7818609E-02  0.8171562E-01
       -2   -1    0    0    0  501  0.00000000000E+00  0.00000000000E+00  0.10773857677E+04  0.10773857677E+04  0.25500000920E-02 0. -1.
        2   -1    0    0  501    0  0.00000000000E+00  0.00000000000E+00 -0.24753780554E+04  0.24753780554E+04  0.25500000920E-02 0.  1.
    10030    2    1    2    0    0  0.00000000000E+00  0.00000000000E+00 -0.13979922876E+04  0.35527638231E+04  0.32661519172E+04 0.  0.
        4    1    3    3  502    0  0.11608620704E+04 -0.51258286610E+03 -0.18171045970E+04  0.22163512065E+04  0.12699999809E+01 0.  1.
       -4    1    3    3    0  502 -0.11608620704E+04  0.51258286610E+03  0.41911230936E+03  0.13364126166E+04  0.12699999809E+01 0. -1.
</event>
<event>
 5   0  0.5622811E-06  0.3259426E+04  0.7818609E-02  0.8173297E-01
        2   -1    0    0  501    0  0.00000000000E+00  0.00000000000E+00  0.23190626414E+04  0.23190626414E+04  0.25500000920E-02 0. -1.
       -2   -1    0    0    0  501  0.00000000000E+00  0.00000000000E+00 -0.11452749785E+04  0.11452749785E+04  0.25500000920E-02 0.  1.
    10030    2    1    2    0    0  0.00000000000E+00  0.00000000000E+00  0.11737876628E+04  0.34643376199E+04  0.32594259720E+04 0.  0.
        1    1    3    3  502    0  0.14259329463E+04 -0.77929133032E+03  0.71872654962E+03  0.17768364016E+04  0.50400001928E-02 0.  1.
       -1    1    3    3    0  502 -0.14259329463E+04  0.77929133032E+03  0.45506111322E+03  0.16875012183E+04  0.50400001928E-02 0. -1.
</event>
<event>
 5   0  0.2037109E-06  0.3439110E+04  0.7818609E-02  0.8128374E-01
       -1   -1    0    0    0  501  0.00000000000E+00  0.00000000000E+00  0.14908479084E+04  0.14908479084E+04  0.50400001928E-02 0.  1.
        1   -1    0    0  501    0  0.00000000000E+00  0.00000000000E+00 -0.19833471237E+04  0.19833471237E+04  0.50400001928E-02 0. -1.
    10030    2    1    2    0    0  0.00000000000E+00  0.00000000000E+00 -0.49249921533E+03  0.34741950321E+04  0.34391097168E+04 0.  0.
        2    1    3    3  502    0  0.16242408391E+04 -0.55803805587E+03 -0.33258573878E+03  0.17493364596E+04  0.25500000920E-02 0.  1.
       -2    1    3    3    0  502 -0.16242408391E+04  0.55803805587E+03 -0.15991347655E+03  0.17248585725E+04  0.25500000920E-02 0. -1.
</event>
<event>
 5   0  0.5637538E-06  0.2270902E+04  0.7818609E-02  0.8489483E-01
        2   -1    0    0  501    0  0.00000000000E+00  0.00000000000E+00  0.17777503574E+04  0.17777503574E+04  0.25500000920E-02 0. -1.
       -2   -1    0    0    0  501  0.00000000000E+00  0.00000000000E+00 -0.72521370155E+03  0.72521370155E+03  0.25500000920E-02 0.  1.
    10030    2    1    2    0    0  0.00000000000E+00  0.00000000000E+00  0.10525366559E+04  0.25029640590E+04  0.22709019505E+04 0.  0.
        2    1    3    3  502    0  0.52699102985E+03 -0.58585687420E+03 -0.37476803143E+03  0.87258174400E+03  0.25500000920E-02 0.  1.
       -2    1    3    3    0  502 -0.52699102985E+03  0.58585687420E+03  0.14273046873E+04  0.16303823150E+04  0.25500000920E-02 0. -1.
</event>
<event>
 5   0  0.5855568E-06  0.2481128E+04  0.7818609E-02  0.8409740E-01
        2   -1    0    0  501    0  0.00000000000E+00  0.00000000000E+00  0.17998743969E+04  0.17998743969E+04  0.25500000920E-02 0. -1.
       -2   -1    0    0    0  501  0.00000000000E+00  0.00000000000E+00 -0.85505941632E+03  0.85505941632E+03  0.25500000920E-02 0.  1.
    10030    2    1    2    0    0  0.00000000000E+00  0.00000000000E+00  0.94481498060E+03  0.26549338132E+04  0.24811284137E+04 0.  0.
        3    1    3    3  502    0  0.73689301875E+03 -0.40278054617E+03  0.14494736142E+04  0.16751767841E+04  0.10100000352E+00 0. -1.
       -3    1    3    3    0  502 -0.73689301875E+03  0.40278054617E+03 -0.50465863363E+03  0.97975702914E+03  0.10100000352E+00 0.  1.
</event>
<event>
 5   0  0.5755250E-06  0.2897354E+04  0.7818609E-02  0.8273665E-01
       -2   -1    0    0    0  501  0.00000000000E+00  0.00000000000E+00  0.12990964617E+04  0.12990964618E+04  0.25500000920E-02 0.  1.
        2   -1    0    0  501    0  0.00000000000E+00  0.00000000000E+00 -0.16154809247E+04  0.16154809247E+04  0.25500000920E-02 0. -1.
    10030    2    1    2    0    0  0.00000000000E+00  0.00000000000E+00 -0.31638446299E+03  0.29145773865E+04  0.28973543472E+04 0.  0.
        5    1    3    3  502    0  0.53085904272E+03 -0.13204089442E+04 -0.43063860070E+03  0.14868634092E+04  0.46999998093E+01 0. -1.
       -5    1    3    3    0  502 -0.53085904272E+03  0.13204089442E+04  0.11425413772E+03  0.14277139773E+04  0.46999998093E+01 0.  1.
</event>
<event>
 5   0  0.5622811E-06  0.3201820E+04  0.7818609E-02  0.8188337E-01
        2   -1    0    0  501    0  0.00000000000E+00  0.00000000000E+00  0.14454791824E+04  0.14454791824E+04  0.25500000920E-02 0.  1.
       -2   -1    0    0    0  501  0.00000000000E+00  0.00000000000E+00 -0.17730537961E+04  0.17730537961E+04  0.25500000920E-02 0. -1.
    10030    2    1    2    0    0  0.00000000000E+00  0.00000000000E+00 -0.32757461368E+03  0.32185329785E+04  0.32018197023E+04 0.  0.
        1    1    3    3  502    0  0.24214474641E+03  0.30383574348E+03 -0.17249434116E+04  0.17681572358E+04  0.50400001928E-02 0. -1.
       -1    1    3    3    0  502 -0.24214474641E+03 -0.30383574348E+03  0.13973687980E+04  0.14503757426E+04  0.50400001928E-02 0.  1.
</event>
<event>
 5   0  0.1925906E-06  0.3310452E+04  0.7818609E-02  0.8160241E-01
       -1   -1    0    0    0  501  0.00000000000E+00  0.00000000000E+00  0.10475428555E+04  0.10475428555E+04  0.50400001928E-02 0.  1.
        1   -1    0    0  501    0  0.00000000000E+00  0.00000000000E+00 -0.26154285746E+04  0.26154285746E+04  0.50400001928E-02 0. -1.
    10030    2    1    2    0    0  0.00000000000E+00  0.00000000000E+00 -0.15678857192E+04  0.36629714301E+04  0.33104522455E+04 0.  0.
        1    1    3    3  502    0 -0.42852634200E+03  0.14999197247E+04 -0.17148521022E+03  0.15693314449E+04  0.50400001928E-02 0. -1.
       -1    1    3    3    0  502  0.42852634200E+03 -0.14999197247E+04 -0.13964005090E+04  0.20936399853E+04  0.50400001928E-02 0.  1.
</event>
<event>
 5   0  0.5637538E-06  0.3315732E+04  0.7818609E-02  0.8158904E-01
        2   -1    0    0  501    0  0.00000000000E+00  0.00000000000E+00  0.17551044508E+04  0.17551044508E+04  0.25500000920E-02 0. -1.
       -2   -1    0    0    0  501  0.00000000000E+00  0.00000000000E+00 -0.15660152443E+04  0.15660152443E+04  0.25500000920E-02 0.  1.
    10030    2    1    2    0    0  0.00000000000E+00  0.00000000000E+00  0.18908920644E+03  0.33211196951E+04  0.33157323929E+04 0.  0.
        2    1    3    3  502    0  0.89012230238E+03  0.13490648886E+04 -0.27514387593E+03  0.16395114941E+04  0.25500000920E-02 0.  1.
       -2    1    3    3    0  502 -0.89012230238E+03 -0.13490648886E+04  0.46423308237E+03  0.16816082010E+04  0.25500000920E-02 0. -1.
</event>
<event>
 5   0  0.1999849E-06  0.3299559E+04  0.7818609E-02  0.8163008E-01
       -1   -1    0    0    0  501  0.00000000000E+00  0.00000000000E+00  0.14862922296E+04  0.14862922296E+04  0.50400001928E-02 0.  1.
        1   -1    0    0  501    0  0.00000000000E+00  0.00000000000E+00 -0.18312495751E+04  0.18312495751E+04  0.50400001928E-02 0. -1.
    10030    2    1    2    0    0  0.00000000000E+00  0.00000000000E+00 -0.34495734545E+03  0.33175418047E+04  0.32995587668E+04 0.  0.
        5    1    3    3  502    0 -0.78077041526E+03 -0.91021240927E+03  0.96668383987E+03  0.15403210080E+04  0.46999998093E+01 0. -1.
       -5    1    3    3    0  502  0.78077041526E+03  0.91021240927E+03 -0.13116411853E+04  0.17772207967E+04  0.46999998093E+01 0.  1.
</event>
<event>
 5   0  0.5755250E-06  0.3110282E+04  0.7818609E-02  0.8212922E-01
        2   -1    0    0  501    0  0.00000000000E+00  0.00000000000E+00  0.90568416049E+03  0.90568416049E+03  0.25500000920E-02 0.  1.
       -2   -1    0    0    0  501  0.00000000000E+00  0.00000000000E+00 -0.26703159620E+04  0.26703159620E+04  0.25500000920E-02 0. -1.
    10030    2    1    2    0    0  0.00000000000E+00  0.00000000000E+00 -0.17646318016E+04  0.35760001225E+04  0.31102815759E+04 0.  0.
        5    1    3    3  502    0 -0.11920144067E+03  0.38270306920E+03 -0.26098939667E+04  0.26404998069E+04  0.46999998093E+01 0. -1.
       -5    1    3    3    0  502  0.11920144067E+03 -0.38270306920E+03  0.84526216519E+03  0.93550031562E+03  0.46999998093E+01 0.  1.
</event>
<event>
 5   0  0.2097842E-06  0.3358344E+04  0.7818609E-02  0.8148206E-01
       -1   -1    0    0    0  501  0.00000000000E+00  0.00000000000E+00  0.18267636724E+04  0.18267636724E+04  0.50400001928E-02 0.  1.
        1   -1    0    0  501    0  0.00000000000E+00  0.00000000000E+00 -0.15435047233E+04  0.15435047233E+04  0.50400001928E-02 0. -1.
    10030    2    1    2    0    0  0.00000000000E+00  0.00000000000E+00  0.28325894909E+03  0.33702683957E+04  0.33583438517E+04 0.  0.
        4    1    3    3  502    0 -0.10223500729E+04  0.13182968834E+04 -0.50125932328E+02  0.16690178449E+04  0.12699999809E+01 0. -1.
       -4    1    3    3    0  502  0.10223500729E+04 -0.13182968834E+04  0.33338488142E+03  0.17012505508E+04  0.12699999809E+01 0.  1.
</event>
<event>
 5   0  0.5300268E-06  0.3279022E+04  0.7818609E-02  0.8168254E-01
        2   -1    0    0  501    0  0.00000000000E+00  0.00000000000E+00  0.19376186790E+04  0.19376186790E+04  0.25500000920E-02 0.  1.
       -2   -1    0    0    0  501  0.00000000000E+00  0.00000000000E+00 -0.13872677287E+04  0.13872677287E+04  0.25500000920E-02 0. -1.
    10030    2    1    2    0    0  0.00000000000E+00  0.00000000000E+00  0.55035095026E+03  0.33248864077E+04  0.32790217224E+04 0.  0.
        4    1    3    3  502    0  0.12318171597E+04 -0.42802210857E+03 -0.73241254934E+03  0.14956624605E+04  0.12699999809E+01 0.  1.
       -4    1    3    3    0  502 -0.12318171597E+04  0.42802210857E+03  0.12827634996E+04  0.18292239472E+04  0.12699999809E+01 0. -1.
</event>
<event>
 5   0  0.1925906E-06  0.3364050E+04  0.7818609E-02  0.8146786E-01
       -1   -1    0    0    0  501  0.00000000000E+00  0.00000000000E+00  0.21948193163E+04  0.21948193163E+04  0.50400001928E-02 0.  1.
        1   -1    0    0  501    0  0.00000000000E+00  0.00000000000E+00 -0.12890393280E+04  0.12890393280E+04  0.50400001928E-02 0. -1.
    10030    2    1    2    0    0  0.00000000000E+00  0.00000000000E+00  0.90577998827E+03  0.34838586443E+04  0.33640501879E+04 0.  0.
        1    1    3    3  502    0 -0.31757352628E+03  0.94995836385E+03  0.18522861149E+04  0.21057629708E+04  0.50400001928E-02 0.  1.
       -1    1    3    3    0  502  0.31757352628E+03 -0.94995836385E+03 -0.94650612663E+03  0.13780956735E+04  0.50400001928E-02 0. -1.
</event>
<event>
 5   0  0.5622811E-06  0.3223129E+04  0.7818609E-02  0.8182736E-01
       -2   -1    0    0    0  501  0.00000000000E+00  0.00000000000E+00  0.16048769373E+04  0.16048769373E+04  0.25500000920E-02 0. -1.
        2   -1    0    0  501    0  0.00000000000E+00  0.00000000000E+00 -0.16182795892E+04  0.16182795892E+04  0.25500000920E-02 0.  1.
    10030    2    1    2    0    0  0.00000000000E+00  0.00000000000E+00 -0.13402651873E+02  0.32231565264E+04  0.32231286606E+04 0.  0.
        1    1    3    3  502    0  0.10866980245E+04 -0.98011547577E+03  0.66828647115E+03  0.16087715033E+04  0.50400001928E-02 0. -1.
       -1    1    3    3    0  502 -0.10866980245E+04  0.98011547577E+03 -0.68168912302E+03  0.16143850231E+04  0.50400001928E-02 0.  1.
</event>
<event>
 5   0  0.2097842E-06  0.2309763E+04  0.7818609E-02  0.8474082E-01
       -1   -1    0    0    0  501  0.00000000000E+00  0.00000000000E+00  0.11372850431E+04  0.11372850431E+04  0.50400001928E-02 0. -1.
        1   -1    0    0  501    0  0.00000000000E+00  0.00000000000E+00 -0.11727498501E+04  0.11727498501E+04  0.50400001928E-02 0.  1.
    10030    2    1    2    0    0  0.00000000000E+00  0.00000000000E+00 -0.35464806985E+02  0.23100348932E+04  0.23097626405E+04 0.  0.
        4    1    3    3  502    0  0.46008343998E+03  0.90681251820E+03 -0.56530359224E+03  0.11634240324E+04  0.12699999809E+01 0.  1.
       -4    1    3    3    0  502 -0.46008343998E+03 -0.90681251820E+03  0.52983878525E+03  0.11466108608E+04  0.12699999809E+01 0. -1.
</event>
<event>
 5   0  0.5855568E-06  0.3059341E+04  0.7818609E-02  0.8226986E-01
       -2   -1    0    0    0  501  0.00000000000E+00  0.00000000000E+00  0.90790606366E+03  0.90790606366E+03  0.25500000920E-02 0.  1.
        2   -1    0    0  501    0  0.00000000000E+00  0.00000000000E+00 -0.25772401770E+04  0.25772401770E+04  0.25500000920E-02 0. -1.
    10030    2    1    2    0    0  0.00000000000E+00  0.00000000000E+00 -0.16693341133E+04  0.34851462406E+04  0.30593410952E+04 0.  0.
        3    1    3    3  502    0  0.49060817583E+03  0.30033461256E+03  0.77999820798E+03  0.96917205714E+03  0.10100000352E+00 0.  1.
       -3    1    3    3    0  502 -0.49060817583E+03 -0.30033461256E+03 -0.24493323213E+04  0.25159741835E+04  0.10100000352E+00 0. -1.
</event>
<event>
 5   0  0.2730981E-06  0.3134224E+04  0.7818609E-02  0.8206408E-01
        1   -1    0    0  501    0  0.00000000000E+00  0.00000000000E+00  0.21967979122E+04  0.21967979122E+04  0.50400001928E-02 0. -1.
       -1   -1    0    0    0  501  0.00000000000E+00  0.00000000000E+00 -0.11179180255E+04  0.11179180256E+04  0.50400001928E-02 0.  1.
    10030    2    1    2    0    0  0.00000000000E+00  0.00000000000E+00  0.10788798866E+04  0.33147159377E+04  0.31342239770E+04 0.  0.
        3    1    3    3  502    0  0.29902445273E+02 -0.99957311756E+03  0.18154880748E+04  0.20726884796E+04  0.10100000352E+00 0. -1.
       -3    1    3    3    0  502 -0.29902445273E+02  0.99957311756E+03 -0.73660818819E+03  0.12420274581E+04  0.10100000352E+00 0.  1.
</event>
<event>
 5   0  0.5622811E-06  0.3283929E+04  0.7818609E-02  0.8166997E-01
       -2   -1    0    0    0  501  0.00000000000E+00  0.00000000000E+00  0.17630053535E+04  0.17630053535E+04  0.25500000920E-02 0.  1.
        2   -1    0    0  501    0  0.00000000000E+00  0.00000000000E+00 -0.15292337445E+04  0.15292337445E+04  0.25500000920E-02 0. -1.
    10030    2    1    2    0    0  0.00000000000E+00  0.00000000000E+00  0.23377160904E+03  0.32922390980E+04  0.32839289142E+04 0.  0.
        1    1    3    3  502    0 -0.25840177335E+03  0.45737690880E+03  0.16764838283E+04  0.17568617304E+04  0.50400001928E-02 0.  1.
       -1    1    3    3    0  502  0.25840177335E+03 -0.45737690880E+03 -0.14427122193E+04  0.15353773676E+04  0.50400001928E-02 0. -1.
</event>
<event>
 5   0  0.2097842E-06  0.2493818E+04  0.7818609E-02  0.8405191E-01
        1   -1    0    0  501    0  0.00000000000E+00  0.00000000000E+00  0.88423642525E+03  0.88423642526E+03  0.50400001928E-02 0.  1.
       -1   -1    0    0    0  501  0.00000000000E+00  0.00000000000E+00 -0.17583328134E+04  0.17583328134E+04  0.50400001928E-02 0. -1.
    10030    2    1    2    0    0  0.00000000000E+00  0.00000000000E+00 -0.87409638817E+03  0.26425692387E+04  0.24938178934E+04 0.  0.
        4    1    3    3  502    0 -0.11616186105E+03  0.11109295525E+04 -0.10242904330E+04  0.15155297928E+04  0.12699999809E+01 0. -1.
       -4    1    3    3    0  502  0.11616186105E+03 -0.11109295525E+04  0.15019404485E+03  0.11270394459E+04  0.12699999809E+01 0.  1.
</event>
<event>
 5   0  0.5855568E-06  0.3522415E+04  0.7818609E-02  0.8108498E-01
       -2   -1    0    0    0  501  0.00000000000E+00  0.00000000000E+00  0.10440349197E+04  0.10440349197E+04  0.25500000920E-02 0.  1.
        2   -1    0    0  501    0  0.00000000000E+00  0.00000000000E+00 -0.29710228478E+04  0.29710228478E+04  0.25500000920E-02 0. -1.
    10030    2    1    2    0    0  0.00000000000E+00  0.00000000000E+00 -0.19269879281E+04  0.40150577675E+04  0.35224148537E+04 0.  0.
        3    1    3    3  502    0 -0.17244404302E+03 -0.13666722489E+04  0.28740586536E+03  0.14071716759E+04  0.10100000352E+00 0.  1.
       -3    1    3    3    0  502  0.17244404302E+03  0.13666722489E+04 -0.22143937935E+04  0.26078860916E+04  0.10100000352E+00 0. -1.
</event>
<event>
 5   0  0.2097842E-06  0.2944223E+04  0.7818609E-02  0.8259840E-01
        1   -1    0    0  501    0  0.00000000000E+00  0.00000000000E+00  0.13910835580E+04  0.13910835580E+04  0.50400001928E-02 0. -1.
       -1   -1    0    0    0  501  0.00000000000E+00  0.00000000000E+00 -0.15578589642E+04  0.15578589642E+04  0.50400001928E-02 0.  1.
    10030    2    1    2    0    0  0.00000000000E+00  0.00000000000E+00 -0.16677540615E+03  0.29489425222E+04  0.29442228114E+04 0.  0.
        4    1    3    3  502    0  0.14633539717E+04  0.15157398161E+03 -0.13572910001E+03  0.14774313926E+04  0.12699999809E+01 0.  1.
       -4    1    3    3    0  502 -0.14633539717E+04 -0.15157398161E+03 -0.31046306141E+02  0.14715111296E+04  0.12699999809E+01 0. -1.
</event>
<event>
 5   0  0.1878000E-06  0.2085555E+04  0.7818609E-02  0.8567633E-01
        3   -1    0    0  501    0  0.00000000000E+00  0.00000000000E+00  0.85892265307E+03  0.85892265901E+03  0.10100000352E+00 0.  1.
       -3   -1    0    0    0  501  0.00000000000E+00  0.00000000000E+00 -0.12659868957E+04  0.12659868998E+04  0.10100000352E+00 0. -1.
    10030    2    1    2    0    0  0.00000000000E+00  0.00000000000E+00 -0.40706424266E+03  0.21249095588E+04  0.20855549226E+04 0.  0.
        1    1    3    3  502    0  0.54628003898E+03  0.11749002555E+03 -0.11005771191E+04  0.12342997133E+04  0.50400001928E-02 0. -1.
       -1    1    3    3    0  502 -0.54628003898E+03 -0.11749002555E+03  0.69351287643E+03  0.89060984550E+03  0.50400001928E-02 0.  1.
</event>
<event>
 5   0  0.2097842E-06  0.3479683E+04  0.7818609E-02  0.8118622E-01
       -1   -1    0    0    0  501  0.00000000000E+00  0.00000000000E+00  0.15385466083E+04  0.15385466083E+04  0.50400001928E-02 0.  1.
        1   -1    0    0  501    0  0.00000000000E+00  0.00000000000E+00 -0.19674726294E+04  0.19674726294E+04  0.50400001928E-02 0. -1.
    10030    2    1    2    0    0  0.00000000000E+00  0.00000000000E+00 -0.42892602105E+03  0.35060192377E+04  0.34796829401E+04 0.  0.
        4    1    3    3  502    0 -0.71956477827E+03 -0.91128298745E+03 -0.15199688894E+04  0.19127250694E+04  0.12699999809E+01 0. -1.
       -4    1    3    3    0  502  0.71956477827E+03  0.91128298745E+03  0.10910428684E+04  0.15932941683E+04  0.12699999809E+01 0.  1.
</event>
<event>
 5   0  0.1999849E-06  0.2876520E+04  0.7818609E-02  0.8279898E-01
       -1   -1    0    0    0  501  0.00000000000E+00  0.00000000000E+00  0.11733690522E+04  0.11733690522E+04  0.50400001928E-02 0. -1.
        1   -1    0    0  501    0  0.00000000000E+00  0.00000000000E+00 -0.17629506820E+04  0.17629506820E+04  0.50400001928E-02 0.  1.
    10030    2    1    2    0    0  0.00000000000E+00  0.00000000000E+00 -0.58958162984E+03  0.29363197342E+04  0.28765199605E+04 0.  0.
        5    1    3    3  502    0 -0.46986244617E+03 -0.38566682993E+03  0.10357871201E+04  0.12009940342E+04  0.46999998093E+01 0. -1.
       -5    1    3    3    0  502  0.46986244617E+03  0.38566682993E+03 -0.16253687499E+04  0.17353257000E+04  0.46999998093E+01 0.  1.
</event>
<event>
 5   0  0.5637538E-06  0.3511940E+04  0.7818609E-02  0.8110966E-01
        2   -1    0    0  501    0  0.00000000000E+00  0.00000000000E+00  0.14874158794E+04  0.14874158794E+04  0.25500000920E-02 0.  1.
       -2   -1    0    0    0  501  0.00000000000E+00  0.00000000000E+00 -0.20730116658E+04  0.20730116658E+04  0.25500000920E-02 0. -1.
    10030    2    1    2    0    0  0.00000000000E+00  0.00000000000E+00 -0.58559578640E+03  0.35604275453E+04  0.35119399027E+04 0.  0.
        2    1    3    3  502    0  0.11124942001E+04 -0.11941311765E+04 -0.94969277114E+03  0.18882555366E+04  0.25500000920E-02 0.  1.
       -2    1    3    3    0  502 -0.11124942001E+04  0.11941311765E+04  0.36409698473E+03  0.16721720086E+04  0.25500000920E-02 0. -1.
</event>
<event>
 5   0  0.5300268E-06  0.3199022E+04  0.7818609E-02  0.8189076E-01
       -2   -1    0    0    0  501  0.00000000000E+00  0.00000000000E+00  0.14456332725E+04  0.14456332725E+04  0.25500000920E-02 0. -1.
        2   -1    0    0  501    0  0.00000000000E+00  0.00000000000E+00 -0.17697679875E+04  0.17697679875E+04  0.25500000920E-02 0.  1.
    10030    2    1    2    0    0  0.00000000000E+00  0.00000000000E+00 -0.32413471509E+03  0.32154012600E+04  0.31990220301E+04 0.  0.
        4    1    3    3  502    0  0.14423838318E+03  0.12391911016E+04  0.84407469412E+03  0.15062745432E+04  0.12699999809E+01 0. -1.
       -4    1    3    3    0  502 -0.14423838318E+03 -0.12391911016E+04 -0.11682094092E+04  0.17091267168E+04  0.12699999809E+01 0.  1.
</event>
<event>
 5   0  0.5755250E-06  0.3125846E+04  0.7818609E-02  0.8208680E-01
        2   -1    0    0  501    0  0.00000000000E+00  0.00000000000E+00  0.27641647688E+04  0.27641647688E+04  0.25500000920E-02 0.  1.
       -2   -1    0    0    0  501  0.00000000000E+00  0.00000000000E+00 -0.88371274235E+03  0.88371274235E+03  0.25500000920E-02 0. -1.
    10030    2    1    2    0    0  0.00000000000E+00  0.00000000000E+00  0.18804520264E+04  0.36478775111E+04  0.31258455676E+04 0.  0.
        5    1    3    3  502    0  0.21814032928E+03 -0.17705865302E+03 -0.85399273185E+03  0.89903317287E+03  0.46999998093E+01 0. -1.
       -5    1    3    3    0  502 -0.21814032928E+03  0.17705865302E+03  0.27344447583E+04  0.27488443383E+04  0.46999998093E+01 0.  1.
</event>
<event>
 5   0  0.5755250E-06  0.3321118E+04  0.7818609E-02  0.8157543E-01
       -2   -1    0    0    0  501  0.00000000000E+00  0.00000000000E+00  0.13181835342E+04  0.13181835342E+04  0.25500000920E-02 0. -1.
        2   -1    0    0  501    0  0.00000000000E+00  0.00000000000E+00 -0.20918602410E+04  0.20918602410E+04  0.25500000920E-02 0.  1.
    10030    2    1    2    0    0  0.00000000000E+00  0.00000000000E+00 -0.77367670682E+03  0.34100437753E+04  0.33211177189E+04 0.  0.
        5    1    3    3  502    0 -0.12407036979E+04  0.80164153550E+03  0.39206362909E+03  0.15283032410E+04  0.46999998093E+01 0. -1.
       -5    1    3    3    0  502  0.12407036979E+04 -0.80164153550E+03 -0.11657403359E+04  0.18817405342E+04  0.46999998093E+01 0.  1.
</event>
<event>
 5   0  0.2097842E-06  0.3306838E+04  0.7818609E-02  0.8161158E-01
       -1   -1    0    0    0  501  0.00000000000E+00  0.00000000000E+00  0.12397269631E+04  0.12397269631E+04  0.50400001928E-02 0.  1.
        1   -1    0    0  501    0  0.00000000000E+00  0.00000000000E+00 -0.22051580950E+04  0.22051580950E+04  0.50400001928E-02 0. -1.
    10030    2    1    2    0    0  0.00000000000E+00  0.00000000000E+00 -0.96543113187E+03  0.34448850581E+04  0.33068377331E+04 0.  0.
        4    1    3    3  502    0  0.42306324613E+03  0.35144335691E+03 -0.21070703557E+04  0.21776689464E+04  0.12699999809E+01 0. -1.
       -4    1    3    3    0  502 -0.42306324613E+03 -0.35144335691E+03  0.11416392238E+04  0.12672161117E+04  0.12699999809E+01 0.  1.
</event>
<event>
 5   0  0.1925906E-06  0.3288032E+04  0.7818609E-02  0.8165947E-01
       -1   -1    0    0    0  501  0.00000000000E+00  0.00000000000E+00  0.98359352776E+03  0.98359352777E+03  0.50400001928E-02 0. -1.
        1   -1    0    0  501    0  0.00000000000E+00  0.00000000000E+00 -0.27478719196E+04  0.27478719196E+04  0.50400001928E-02 0.  1.
    10030    2    1    2    0    0  0.00000000000E+00  0.00000000000E+00 -0.17642783918E+04  0.37314654474E+04  0.32880322597E+04 0.  0.
        1    1    3    3  502    0  0.98131462686E+02  0.73455214881E+01  0.98024819007E+03  0.98517524066E+03  0.50400001928E-02 0. -1.
       -1    1    3    3    0  502 -0.98131462686E+02 -0.73455214881E+01 -0.27445265819E+04  0.27462902067E+04  0.50400001928E-02 0.  1.
</event>
<event>
 5   0  0.5855568E-06  0.3284238E+04  0.7818609E-02  0.8166918E-01
        2   -1    0    0  501    0  0.00000000000E+00  0.00000000000E+00  0.31625615390E+04  0.31625615390E+04  0.25500000920E-02 0.  1.
       -2   -1    0    0    0  501  0.00000000000E+00  0.00000000000E+00 -0.85264879914E+03  0.85264879914E+03  0.25500000920E-02 0. -1.
    10030    2    1    2    0    0  0.00000000000E+00  0.00000000000E+00  0.23099127398E+04  0.40152103381E+04  0.32842376884E+04 0.  0.
        3    1    3    3  502    0 -0.28543122299E+03 -0.60662156011E+03 -0.67771375612E+03  0.95328728392E+03  0.10100000352E+00 0. -1.
       -3    1    3    3    0  502  0.28543122299E+03  0.60662156011E+03  0.29876264960E+04  0.30619230542E+04  0.10100000352E+00 0.  1.
</event>
<event>
 5   0  0.5622811E-06  0.3123284E+04  0.7818609E-02  0.8209377E-01
        2   -1    0    0  501    0  0.00000000000E+00  0.00000000000E+00  0.17469423363E+04  0.17469423363E+04  0.25500000920E-02 0. -1.
       -2   -1    0    0    0  501  0.00000000000E+00  0.00000000000E+00 -0.13959966594E+04  0.13959966594E+04  0.25500000920E-02 0.  1.
    10030    2    1    2    0    0  0.00000000000E+00  0.00000000000E+00  0.35094567681E+03  0.31429389957E+04  0.31232839549E+04 0.  0.
        1    1    3    3  502    0 -0.13035307592E+04 -0.61240108989E+03  0.78300900140E+03  0.16393079733E+04  0.50400001928E-02 0. -1.
       -1    1    3    3    0  502  0.13035307592E+04  0.61240108989E+03 -0.43206332460E+03  0.15036310224E+04  0.50400001928E-02 0.  1.
</event>
<event>
 5   0  0.5755250E-06  0.2765594E+04  0.7818609E-02  0.8314030E-01
       -2   -1    0    0    0  501  0.00000000000E+00  0.00000000000E+00  0.12040282123E+04  0.12040282123E+04  0.25500000920E-02 0.  1.
        2   -1    0    0  501    0  0.00000000000E+00  0.00000000000E+00 -0.15881085761E+04  0.15881085761E+04  0.25500000920E-02 0. -1.
    10030    2    1    2    0    0  0.00000000000E+00  0.00000000000E+00 -0.38408036378E+03  0.27921367884E+04  0.27655939904E+04 0.  0.
        5    1    3    3  502    0 -0.40171916247E+03 -0.70344053489E+03 -0.13234646087E+04  0.15517047181E+04  0.46999998093E+01 0. -1.
       -5    1    3    3    0  502  0.40171916247E+03  0.70344053489E+03  0.93938424490E+03  0.12404320704E+04  0.46999998093E+01 0.  1.
</event>
<event>
 5   0  0.2730981E-06  0.3286998E+04  0.7818609E-02  0.8166212E-01
       -1   -1    0    0    0  501  0.00000000000E+00  0.00000000000E+00  0.17125862835E+04  0.17125862836E+04  0.50400001928E-02 0. -1.
        1   -1    0    0  501    0  0.00000000000E+00  0.00000000000E+00 -0.15771989697E+04  0.15771989697E+04  0.50400001928E-02 0.  1.
    10030    2    1    2    0    0  0.00000000000E+00  0.00000000000E+00  0.13538731388E+03  0.32897852532E+04  0.32869982184E+04 0.  0.
        3    1    3    3  502    0  0.47564521683E+03 -0.11241468495E+04 -0.10337597112E+04  0.15995635849E+04  0.10100000352E+00 0.  1.
       -3    1    3    3    0  502 -0.47564521683E+03  0.11241468495E+04  0.11691470251E+04  0.16902216683E+04  0.10100000352E+00 0. -1.
</event>
<event>
 5   0  0.5637538E-06  0.2960793E+04  0.7818609E-02  0.8255016E-01
        2   -1    0    0  501    0  0.00000000000E+00  0.00000000000E+00  0.22800227493E+04  0.22800227493E+04  0.25500000920E-02 0.  1.
       -2   -1    0    0    0  501  0.00000000000E+00  0.00000000000E+00 -0.96120678246E+03  0.96120678246E+03  0.25500000920E-02 0. -1.
    10030    2    1    2    0    0  0.00000000000E+00  0.00000000000E+00  0.13188159669E+04  0.32412295318E+04  0.29607926850E+04 0.  0.
        2    1    3    3  502    0  0.81709713166E+03  0.77460386600E+03  0.17116549199E+04  0.20487609516E+04  0.25500000920E-02 0.  1.
       -2    1    3    3    0  502 -0.81709713166E+03 -0.77460386600E+03 -0.39283895305E+03  0.11924685802E+04  0.25500000920E-02 0. -1.
</event>
<event>
 5   0  0.1925906E-06  0.1941205E+04  0.7818609E-02  0.8634613E-01
       -1   -1    0    0    0  501  0.00000000000E+00  0.00000000000E+00  0.75004294892E+03  0.75004294894E+03  0.50400001928E-02 0.  1.
        1   -1    0    0  501    0  0.00000000000E+00  0.00000000000E+00 -0.12560208856E+04  0.12560208856E+04  0.50400001928E-02 0. -1.
    10030    2    1    2    0    0  0.00000000000E+00  0.00000000000E+00 -0.50597793664E+03  0.20060638345E+04  0.19412054079E+04 0.  0.
        1    1    3    3  502    0 -0.73251662503E+03 -0.29593541183E+03  0.32968577570E+03  0.85606721970E+03  0.50400001928E-02 0.  1.
       -1    1    3    3    0  502  0.73251662503E+03  0.29593541183E+03 -0.83566371233E+03  0.11499966148E+04  0.50400001928E-02 0. -1.
</event>
<event>
 5   0  0.5855568E-06  0.1704196E+04  0.7818609E-02  0.8758975E-01
        2   -1    0    0  501    0  0.00000000000E+00  0.00000000000E+00  0.16855704425E+04  0.16855704425E+04  0.25500000920E-02 0.  1.
       -2   -1    0    0    0  501  0.00000000000E+00  0.00000000000E+00 -0.43075669353E+03  0.43075669354E+03  0.25500000920E-02 0. -1.
    10030    2    1    2    0    0  0.00000000000E+00  0.00000000000E+00  0.12548137490E+04  0.21163271360E+04  0.17041957053E+04 0.  0.
        3    1    3    3  502    0  0.11886313223E+03  0.47169671296E+03  0.14961973748E+04  0.15732872680E+04  0.10100000352E+00 0.  1.
       -3    1    3    3    0  502 -0.11886313223E+03 -0.47169671296E+03 -0.24138362583E+03  0.54303986800E+03  0.10100000352E+00 0. -1.
</event>
<event>
 5   0  0.5637538E-06  0.3295759E+04  0.7818609E-02  0.8163975E-01
        2   -1    0    0  501    0  0.00000000000E+00  0.00000000000E+00  0.16136387000E+04  0.16136387000E+04  0.25500000920E-02 0.  1.
       -2   -1    0    0    0  501  0.00000000000E+00  0.00000000000E+00 -0.16828470685E+04  0.16828470685E+04  0.25500000920E-02 0. -1.
    10030    2    1    2    0    0  0.00000000000E+00  0.00000000000E+00 -0.69208368504E+02  0.32964857686E+04  0.32957591878E+04 0.  0.
        2    1    3    3  502    0  0.48285118790E+03 -0.10159018678E+04 -0.12391558928E+04  0.16735319540E+04  0.25500000920E-02 0. -1.
       -2    1    3    3    0  502 -0.48285118790E+03  0.10159018678E+04  0.11699475243E+04  0.16229538145E+04  0.25500000920E-02 0.  1.
</event>
<event>
 5   0  0.1925906E-06  0.1664495E+04  0.7818609E-02  0.8781877E-01
        1   -1    0    0  501    0  0.00000000000E+00  0.00000000000E+00  0.68010899508E+03  0.68010899510E+03  0.50400001928E-02 0.  1.
       -1   -1    0    0    0  501  0.00000000000E+00  0.00000000000E+00 -0.10184189070E+04  0.10184189070E+04  0.50400001928E-02 0. -1.
    10030    2    1    2    0    0  0.00000000000E+00  0.00000000000E+00 -0.33830991191E+03  0.16985279021E+04  0.16644949497E+04 0.  0.
        1    1    3    3  502    0 -0.76849948891E+03  0.25395586834E+03 -0.36689738712E+03  0.88864995371E+03  0.50400001928E-02 0. -1.
       -1    1    3    3    0  502  0.76849948891E+03 -0.25395586834E+03  0.28587475216E+02  0.80987794839E+03  0.50400001928E-02 0.  1.
</event>
<event>
 5   0  0.5755250E-06  0.3246091E+04  0.7818609E-02  0.8176750E-01
        2   -1    0    0  501    0  0.00000000000E+00  0.00000000000E+00  0.25150377781E+04  0.25150377781E+04  0.25500000920E-02 0.  1.
       -2   -1    0    0    0  501  0.00000000000E+00  0.00000000000E+00 -0.10474104490E+04  0.10474104490E+04  0.25500000920E-02 0. -1.
    10030    2    1    2    0    0  0.00000000000E+00  0.00000000000E+00  0.14676273291E+04  0.35624482272E+04  0.32460910946E+04 0.  0.
        5    1    3    3  502    0 -0.14886139393E+04 -0.59077194668E+03  0.10226595008E+04  0.19002203814E+04  0.46999998093E+01 0.  1.
       -5    1    3    3    0  502  0.14886139393E+04  0.59077194668E+03  0.44496782826E+03  0.16622278458E+04  0.46999998093E+01 0. -1.
</event>
<event>
 5   0  0.5637538E-06  0.2756869E+04  0.7818609E-02  0.8316785E-01
       -2   -1    0    0    0  501  0.00000000000E+00  0.00000000000E+00  0.13901910382E+04  0.13901910382E+04  0.25500000920E-02 0.  1.
        2   -1    0    0  501    0  0.00000000000E+00  0.00000000000E+00 -0.13667777631E+04  0.13667777631E+04  0.25500000920E-02 0. -1.
    10030    2    1    2    0    0  0.00000000000E+00  0.00000000000E+00  0.23413275110E+02  0.27569688013E+04  0.27568693821E+04 0.  0.
        2    1    3    3  502    0 -0.23287582592E+03 -0.13586142328E+04  0.74153704832E+01  0.13784479575E+04  0.25500000920E-02 0.  1.
       -2    1    3    3    0  502  0.23287582592E+03  0.13586142328E+04  0.15997904627E+02  0.13785208438E+04  0.25500000920E-02 0. -1.
</event>
<event>
 5   0  0.5755250E-06  0.3332868E+04  0.7818609E-02  0.8154582E-01
        2   -1    0    0  501    0  0.00000000000E+00  0.00000000000E+00  0.10957454808E+04  0.10957454808E+04  0.25500000920E-02 0.  1.
       -2   -1    0    0    0  501  0.00000000000E+00  0.00000000000E+00 -0.25343502215E+04  0.25343502215E+04  0.25500000920E-02 0. -1.
    10030    2    1    2    0    0  0.00000000000E+00  0.00000000000E+00 -0.14386047407E+04  0.36300957023E+04  0.33328683154E+04 0.  0.
        5    1    3    3  502    0  0.32479847293E+03  0.99704895677E+03 -0.21299406204E+04  0.23740829401E+04  0.46999998093E+01 0. -1.
       -5    1    3    3    0  502 -0.32479847293E+03 -0.99704895677E+03  0.69133587970E+03  0.12560127622E+04  0.46999998093E+01 0.  1.
</event>
<event>
 5   0  0.1925906E-06  0.3339080E+04  0.7818609E-02  0.8153022E-01
        1   -1    0    0  501    0  0.00000000000E+00  0.00000000000E+00  0.24122712642E+04  0.24122712642E+04  0.50400001928E-02 0. -1.
       -1   -1    0    0    0  501  0.00000000000E+00  0.00000000000E+00 -0.11554936903E+04  0.11554936903E+04  0.50400001928E-02 0.  1.
    10030    2    1    2    0    0  0.00000000000E+00  0.00000000000E+00  0.12567775739E+04  0.35677649545E+04  0.33390802477E+04 0.  0.
        1    1    3    3  502    0  0.16493146344E+03 -0.15572607727E+04  0.98640670630E+01  0.15660015331E+04  0.50400001928E-02 0.  1.
       -1    1    3    3    0  502 -0.16493146344E+03  0.15572607727E+04  0.12469135068E+04  0.20017634214E+04  0.50400001928E-02 0. -1.
</event>
<event>
 5   0  0.5300268E-06  0.3267813E+04  0.7818609E-02  0.8171134E-01
        2   -1    0    0  501    0  0.00000000000E+00  0.00000000000E+00  0.13699715134E+04  0.13699715134E+04  0.25500000920E-02 0. -1.
       -2   -1    0    0    0  501  0.00000000000E+00  0.00000000000E+00 -0.19486910321E+04  0.19486910321E+04  0.25500000920E-02 0.  1.
    10030    2    1    2    0    0  0.00000000000E+00  0.00000000000E+00 -0.57871951869E+03  0.33186625455E+04  0.32678134601E+04 0.  0.
        4    1    3    3  502    0 -0.48956285290E+03  0.97792998924E+02  0.12906169847E+04  0.13838096226E+04  0.12699999809E+01 0. -1.
       -4    1    3    3    0  502  0.48956285290E+03 -0.97792998924E+02 -0.18693365034E+04  0.19348529229E+04  0.12699999809E+01 0.  1.
</event>
<event>
 5   0  0.5855568E-06  0.3258471E+04  0.7818609E-02  0.8173543E-01
       -2   -1    0    0    0  501  0.00000000000E+00  0.00000000000E+00  0.13770026900E+04  0.13770026900E+04  0.25500000920E-02 0. -1.
        2   -1    0    0  501    0  0.00000000000E+00  0.00000000000E+00 -0.19276714969E+04  0.19276714969E+04  0.25500000920E-02 0.  1.
    10030    2    1    2    0    0  0.00000000000E+00  0.00000000000E+00 -0.55066880686E+03  0.33046741870E+04  0.32584713206E+04 0.  0.
        3    1    3    3  502    0  0.85009174483E+03  0.12093782320E+02 -0.16848636278E+04  0.18872116174E+04  0.10100000352E+00 0.  1.
       -3    1    3    3    0  502 -0.85009174483E+03 -0.12093782320E+02  0.11341948209E+04  0.14174625696E+04  0.10100000352E+00 0. -1.
</event>
<event>
 5   0  0.5755250E-06  0.3294111E+04  0.7818609E-02  0.8164396E-01
        2   -1    0    0  501    0  0.00000000000E+00  0.00000000000E+00  0.23073868459E+04  0.23073868459E+04  0.25500000920E-02 0.  1.
       -2   -1    0    0    0  501  0.00000000000E+00  0.00000000000E+00 -0.11756984936E+04  0.11756984936E+04  0.25500000920E-02 0. -1.
    10030    2    1    2    0    0  0.00000000000E+00  0.00000000000E+00  0.11316883523E+04  0.34830853395E+04  0.32941106471E+04 0.  0.
        5    1    3    3  502    0  0.13238333658E+04  0.32631081027E+02 -0.46971192353E+03  0.14050804065E+04  0.46999998093E+01 0. -1.
       -5    1    3    3    0  502 -0.13238333658E+04 -0.32631081027E+02  0.16014002759E+04  0.20780049329E+04  0.46999998093E+01 0.  1.
</event>
<event>
 5   0  0.5855568E-06  0.3350450E+04  0.7818609E-02  0.8150176E-01
        2   -1    0    0  501    0  0.00000000000E+00  0.00000000000E+00  0.22831462957E+04  0.22831462957E+04  0.25500000920E-02 0. -1.
       -2   -1    0    0    0  501  0.00000000000E+00  0.00000000000E+00 -0.12291716674E+04  0.12291716674E+04  0.25500000920E-02 0.  1.
    10030    2    1    2    0    0  0.00000000000E+00  0.00000000000E+00  0.10539746283E+04  0.35123179631E+04  0.33504499634E+04 0.  0.
        3    1    3    3  502    0 -0.34596185172E+03  0.19540411116E+03  0.22330351275E+04  0.22681089613E+04  0.10100000352E+00 0. -1.
       -3    1    3    3    0  502  0.34596185172E+03 -0.19540411116E+03 -0.11790604991E+04  0.12442090019E+04  0.10100000352E+00 0.  1.
</event>
<event>
 5   0  0.2730981E-06  0.2043795E+04  0.7818609E-02  0.8586415E-01
       -1   -1    0    0    0  501  0.00000000000E+00  0.00000000000E+00  0.60199199978E+03  0.60199199980E+03  0.50400001928E-02 0.  1.
        1   -1    0    0  501    0  0.00000000000E+00  0.00000000000E+00 -0.17346974712E+04  0.17346974712E+04  0.50400001928E-02 0. -1.
    10030    2    1    2    0    0  0.00000000000E+00  0.00000000000E+00 -0.11327054714E+04  0.23366894710E+04  0.20437945099E+04 0.  0.
        3    1    3    3  502    0  0.20441853780E+03  0.92243720223E+02 -0.17062145151E+04  0.17208904161E+04  0.10100000352E+00 0. -1.
       -3    1    3    3    0  502 -0.20441853780E+03 -0.92243720223E+02  0.57350904373E+03  0.61579905485E+03  0.10100000352E+00 0.  1.
</event>
<event>
 5   0  0.2730981E-06  0.3289163E+04  0.7818609E-02  0.8165658E-01
        1   -1    0    0  501    0  0.00000000000E+00  0.00000000000E+00  0.25874272352E+04  0.25874272353E+04  0.50400001928E-02 0.  1.
       -1   -1    0    0    0  501  0.00000000000E+00  0.00000000000E+00 -0.10453043317E+04  0.10453043317E+04  0.50400001928E-02 0. -1.
    10030    2    1    2    0    0  0.00000000000E+00  0.00000000000E+00  0.15421229036E+04  0.36327315669E+04  0.32891633568E+04 0.  0.
        3    1    3    3  502    0 -0.58274679003E+03  0.74006133266E+03  0.22599728666E+04  0.24484203000E+04  0.10100000352E+00 0.  1.
       -3    1    3    3    0  502  0.58274679003E+03 -0.74006133266E+03 -0.71784996303E+03  0.11843112669E+04  0.10100000352E+00 0. -1.
</event>
<event>
 5   0  0.5300268E-06  0.3291432E+04  0.7818609E-02  0.8165079E-01
       -2   -1    0    0    0  501  0.00000000000E+00  0.00000000000E+00  0.23467989796E+04  0.23467989796E+04  0.25500000920E-02 0. -1.
        2   -1    0    0  501    0  0.00000000000E+00  0.00000000000E+00 -0.11540744285E+04  0.11540744285E+04  0.25500000920E-02 0.  1.
    10030    2    1    2    0    0  0.00000000000E+00  0.00000000000E+00  0.11927245511E+04  0.35008734081E+04  0.32914317196E+04 0.  0.
        4    1    3    3  502    0 -0.16682145084E+01  0.13170043761E+03  0.23411834803E+04  0.23448858159E+04  0.12699999809E+01 0. -1.
       -4    1    3    3    0  502  0.16682145084E+01 -0.13170043761E+03 -0.11484589293E+04  0.11559875922E+04  0.12699999809E+01 0.  1.
</event>
<event>
 5   0  0.1999849E-06  0.3292234E+04  0.7818609E-02  0.8164874E-01
       -1   -1    0    0    0  501  0.00000000000E+00  0.00000000000E+00  0.99265713382E+03  0.99265713383E+03  0.50400001928E-02 0.  1.
        1   -1    0    0  501    0  0.00000000000E+00  0.00000000000E+00 -0.27297455363E+04  0.27297455363E+04  0.50400001928E-02 0. -1.
    10030    2    1    2    0    0  0.00000000000E+00  0.00000000000E+00 -0.17370884025E+04  0.37224026702E+04  0.32922341230E+04 0.  0.
        5    1    3    3  502    0 -0.77270745335E+03 -0.11316446629E+04  0.16276721013E+03  0.13799317759E+04  0.46999998093E+01 0.  1.
       -5    1    3    3    0  502  0.77270745335E+03  0.11316446629E+04 -0.18998556126E+04  0.23424708942E+04  0.46999998093E+01 0. -1.
</event>
<event>
 5   0  0.1999849E-06  0.2444617E+04  0.7818609E-02  0.8422986E-01
        1   -1    0    0  501    0  0.00000000000E+00  0.00000000000E+00  0.97535372051E+03  0.97535372052E+03  0.50400001928E-02 0. -1.
       -1   -1    0    0    0  501  0.00000000000E+00  0.00000000000E+00 -0.15317916080E+04  0.15317916080E+04  0.50400001928E-02 0.  1.
    10030    2    1    2    0    0  0.00000000000E+00  0.00000000000E+00 -0.55643788752E+03  0.25071453286E+04  0.24446174702E+04 0.  0.
        5    1    3    3  502    0  0.31568263449E+02 -0.74046982477E+03  0.71861122324E+03  0.10323353606E+04  0.46999998093E+01 0. -1.
       -5    1    3    3    0  502 -0.31568263449E+02  0.74046982477E+03 -0.12750491108E+04  0.14748099679E+04  0.46999998093E+01 0.  1.
</event>
<event>
 5   0  0.1878000E-06  0.3232259E+04  0.7818609E-02  0.8180349E-01
        3   -1    0    0  501    0  0.00000000000E+00  0.00000000000E+00  0.17723215527E+04  0.17723215556E+04  0.10100000352E+00 0. -1.
       -3   -1    0    0    0  501  0.00000000000E+00  0.00000000000E+00 -0.14737028028E+04  0.14737028063E+04  0.10100000352E+00 0.  1.
    10030    2    1    2    0    0  0.00000000000E+00  0.00000000000E+00  0.29861874990E+03  0.32460243618E+04  0.32322594265E+04 0.  0.
        3    1    3    3  502    0 -0.73429830973E+03  0.87209831473E+03 -0.10010493622E+04  0.15171846671E+04  0.10100000352E+00 0.  1.
       -3    1    3    3    0  502  0.73429830973E+03 -0.87209831473E+03  0.12996681121E+04  0.17288396948E+04  0.10100000352E+00 0. -1.
</event>
<event>
 5   0  0.2730981E-06  0.1624345E+04  0.7818609E-02  0.8805730E-01
       -1   -1    0    0    0  501  0.00000000000E+00  0.00000000000E+00  0.87044694704E+03  0.87044694705E+03  0.50400001928E-02 0. -1.
        1   -1    0    0  501    0  0.00000000000E+00  0.00000000000E+00 -0.75779979550E+03  0.75779979552E+03  0.50400001928E-02 0.  1.
    10030    2    1    2    0    0  0.00000000000E+00  0.00000000000E+00  0.11264715154E+03  0.16282467426E+04  0.16243454294E+04 0.  0.
        3    1    3    3  502    0 -0.22001298612E+03  0.75285810253E+03  0.26759855857E+03  0.82874002881E+03  0.10100000352E+00 0.  1.
       -3    1    3    3    0  502  0.22001298612E+03 -0.75285810253E+03 -0.15495140703E+03  0.79950671376E+03  0.10100000352E+00 0. -1.
</event>
<event>
 5   0  0.5622811E-06  0.3038272E+04  0.7818609E-02  0.8232886E-01
       -2   -1    0    0    0  501  0.00000000000E+00  0.00000000000E+00  0.19445713319E+04  0.19445713319E+04  0.25500000920E-02 0. -1.
        2   -1    0    0  501    0  0.00000000000E+00  0.00000000000E+00 -0.11867775837E+04  0.11867775837E+04  0.25500000920E-02 0.  1.
    10030    2    1    2    0    0  0.00000000000E+00  0.00000000000E+00  0.75779374817E+03  0.31313489155E+04  0.30382716577E+04 0.  0.
        1    1    3    3  502    0 -0.29278942182E+03  0.25512557288E+03  0.18925480450E+04  0.19319815750E+04  0.50400001928E-02 0. -1.
       -1    1    3    3    0  502  0.29278942182E+03 -0.25512557288E+03 -0.11347542968E+04  0.11993673406E+04  0.50400001928E-02 0.  1.
</event>
<event>
 5   0  0.2037109E-06  0.3310917E+04  0.7818609E-02  0.8160123E-01
        1   -1    0    0  501    0  0.00000000000E+00  0.00000000000E+00  0.21093317305E+04  0.21093317305E+04  0.50400001928E-02 0.  1.
       -1   -1    0    0    0  501  0.00000000000E+00  0.00000000000E+00 -0.12992473440E+04  0.12992473440E+04  0.50400001928E-02 0. -1.
    10030    2    1    2    0    0  0.00000000000E+00  0.00000000000E+00  0.81008438648E+03  0.34085790746E+04  0.33109174853E+04 0.  0.
        2    1    3    3  502    0 -0.10433918124E+04 -0.19208086166E+03 -0.90326242657E+03  0.13933572919E+04  0.25500000920E-02 0. -1.
       -2    1    3    3    0  502  0.10433918124E+04  0.19208086166E+03  0.17133468130E+04  0.20152217827E+04  0.25500000920E-02 0.  1.
</event>
<event>
 5   0  0.2730981E-06  0.3283488E+04  0.7818609E-02  0.8167110E-01
       -1   -1    0    0    0  501  0.00000000000E+00  0.00000000000E+00  0.11933145178E+04  0.11933145178E+04  0.50400001928E-02 0.  1.
        1   -1    0    0  501    0  0.00000000000E+00  0.00000000000E+00 -0.22586869008E+04  0.22586869008E+04  0.50400001928E-02 0. -1.
    10030    2    1    2    0    0  0.00000000000E+00  0.00000000000E+00 -0.10653723830E+04  0.34520014186E+04  0.32834883096E+04 0.  0.
        3    1    3    3  502    0  0.95648309109E+03 -0.64090455075E+03  0.69772156797E+03  0.13462666687E+04  0.10100000352E+00 0.  1.
       -3    1    3    3    0  502 -0.95648309109E+03  0.64090455075E+03 -0.17630939509E+04  0.21057347498E+04  0.10100000352E+00 0. -1.
</event>
<event>
 5   0  0.2037109E-06  0.2511143E+04  0.7818609E-02  0.8399026E-01
       -1   -1    0    0    0  501  0.00000000000E+00  0.00000000000E+00  0.12858967690E+04  0.12858967690E+04  0.50400001928E-02 0.  1.
        1   -1    0    0  501    0  0.00000000000E+00  0.00000000000E+00 -0.12259615398E+04  0.12259615399E+04  0.50400001928E-02 0. -1.
    10030    2    1    2    0    0  0.00000000000E+00  0.00000000000E+00  0.59935229149E+02  0.25118583089E+04  0.25111431524E+04 0.  0.
        2    1    3    3  502    0 -0.12081870763E+03  0.52259773975E+03  0.11655241243E+04  0.12830245680E+04  0.25500000920E-02 0.  1.
       -2    1    3    3    0  502  0.12081870763E+03 -0.52259773975E+03 -0.11055888951E+04  0.12288337409E+04  0.25500000920E-02 0. -1.
</event>
<event>
 5   0  0.2730981E-06  0.3265644E+04  0.7818609E-02  0.8171693E-01
       -1   -1    0    0    0  501  0.00000000000E+00  0.00000000000E+00  0.17798414759E+04  0.17798414759E+04  0.50400001928E-02 0. -1.
        1   -1    0    0  501    0  0.00000000000E+00  0.00000000000E+00 -0.14979463308E+04  0.14979463308E+04  0.50400001928E-02 0.  1.
    10030    2    1    2    0    0  0.00000000000E+00  0.00000000000E+00  0.28189514508E+03  0.32777878067E+04  0.32656435863E+04 0.  0.
        3    1    3    3  502    0  0.14676359900E+04  0.18622381274E+03 -0.55261578115E+03  0.15792463137E+04  0.10100000352E+00 0.  1.
       -3    1    3    3    0  502 -0.14676359900E+04 -0.18622381274E+03  0.83451092623E+03  0.16985414931E+04  0.10100000352E+00 0. -1.
</event>
<event>
 5   0  0.5755250E-06  0.2580209E+04  0.7818609E-02  0.8374955E-01
        2   -1    0    0  501    0  0.00000000000E+00  0.00000000000E+00  0.15211918717E+04  0.15211918717E+04  0.25500000920E-02 0.  1.
       -2   -1    0    0    0  501  0.00000000000E+00  0.00000000000E+00 -0.10941219692E+04  0.10941219692E+04  0.25500000920E-02 0. -1.
    10030    2    1    2    0    0  0.00000000000E+00  0.00000000000E+00  0.42706990244E+03  0.26153138409E+04  0.25802088646E+04 0.  0.
        5    1    3    3  502    0  0.10041874579E+04  0.74761721481E+02 -0.60388969324E+03  0.11741748665E+04  0.46999998093E+01 0. -1.
       -5    1    3    3    0  502 -0.10041874579E+04 -0.74761721481E+02  0.10309595957E+04  0.14411389744E+04  0.46999998093E+01 0.  1.
</event>
<event>
 5   0  0.5622811E-06  0.2133689E+04  0.7818609E-02  0.8546547E-01
       -2   -1    0    0    0  501  0.00000000000E+00  0.00000000000E+00  0.50467710290E+03  0.50467710290E+03  0.25500000920E-02 0.  1.
        2   -1    0    0  501    0  0.00000000000E+00  0.00000000000E+00 -0.22552177624E+04  0.22552177624E+04  0.25500000920E-02 0. -1.
    10030    2    1    2    0    0  0.00000000000E+00  0.00000000000E+00 -0.17505406595E+04  0.27598948653E+04  0.21336886059E+04 0.  0.
        1    1    3    3  502    0  0.69938695227E+03  0.79953972980E+03 -0.74754313753E+03  0.12989328817E+04  0.50400001928E-02 0.  1.
       -1    1    3    3    0  502 -0.69938695227E+03 -0.79953972980E+03 -0.10029975219E+04  0.14609619836E+04  0.50400001928E-02 0. -1.
</event>
<event>
 5   0  0.1925906E-06  0.3280240E+04  0.7818609E-02  0.8167941E-01
       -1   -1    0    0    0  501  0.00000000000E+00  0.00000000000E+00  0.12066018312E+04  0.12066018312E+04  0.50400001928E-02 0.  1.
        1   -1    0    0  501    0  0.00000000000E+00  0.00000000000E+00 -0.22293969392E+04  0.22293969392E+04  0.50400001928E-02 0. -1.
    10030    2    1    2    0    0  0.00000000000E+00  0.00000000000E+00 -0.10227951080E+04  0.34359987704E+04  0.32802404968E+04 0.  0.
        1    1    3    3  502    0 -0.10244052114E+03 -0.93363842830E+03  0.89699871389E+03  0.12987615131E+04  0.50400001928E-02 0.  1.
       -1    1    3    3    0  502  0.10244052114E+03  0.93363842830E+03 -0.19197938219E+04  0.21372372573E+04  0.50400001928E-02 0. -1.
</event>
<event>
 5   0  0.5637538E-06  0.3190509E+04  0.7818609E-02  0.8191328E-01
       -2   -1    0    0    0  501  0.00000000000E+00  0.00000000000E+00  0.11886950607E+04  0.11886950607E+04  0.25500000920E-02 0.  1.
        2   -1    0    0  501    0  0.00000000000E+00  0.00000000000E+00 -0.21408660652E+04  0.21408660652E+04  0.25500000920E-02 0. -1.
    10030    2    1    2    0    0  0.00000000000E+00  0.00000000000E+00 -0.95217100455E+03  0.33295611259E+04  0.31905089984E+04 0.  0.
        2    1    3    3  502    0 -0.80062639847E+03 -0.13489640737E+04 -0.77877894882E+03  0.17513432996E+04  0.25500000920E-02 0. -1.
       -2    1    3    3    0  502  0.80062639847E+03  0.13489640737E+04 -0.17339205573E+03  0.15782178262E+04  0.25500000920E-02 0.  1.
</event>
<event>
 5   0  0.5755250E-06  0.3218834E+04  0.7818609E-02  0.8183861E-01
        2   -1    0    0  501    0  0.00000000000E+00  0.00000000000E+00  0.10484133169E+04  0.10484133169E+04  0.25500000920E-02 0. -1.
       -2   -1    0    0    0  501  0.00000000000E+00  0.00000000000E+00 -0.24706127577E+04  0.24706127577E+04  0.25500000920E-02 0.  1.
    10030    2    1    2    0    0  0.00000000000E+00  0.00000000000E+00 -0.14221994408E+04  0.35190260746E+04  0.32188341468E+04 0.  0.
        5    1    3    3  502    0 -0.93980889790E+03  0.13059465977E+04 -0.75292957293E+03  0.17764183945E+04  0.46999998093E+01 0.  1.
       -5    1    3    3    0  502  0.93980889790E+03 -0.13059465977E+04 -0.66926986789E+03  0.17426076801E+04  0.46999998093E+01 0. -1.
</event>
<event>
 5   0  0.2037109E-06  0.3347388E+04  0.7818609E-02  0.8150941E-01
       -1   -1    0    0    0  501  0.00000000000E+00  0.00000000000E+00  0.19193552371E+04  0.19193552371E+04  0.50400001928E-02 0. -1.
        1   -1    0    0  501    0  0.00000000000E+00  0.00000000000E+00 -0.14594754206E+04  0.14594754206E+04  0.50400001928E-02 0.  1.
    10030    2    1    2    0    0  0.00000000000E+00  0.00000000000E+00  0.45987981655E+03  0.33788306577E+04  0.33473881113E+04 0.  0.
        2    1    3    3  502    0  0.92553833690E+03 -0.13924882391E+04  0.30552372876E+03  0.16997027558E+04  0.25500000920E-02 0.  1.
       -2    1    3    3    0  502 -0.92553833690E+03  0.13924882391E+04  0.15435608779E+03  0.16791279019E+04  0.25500000920E-02 0. -1.
</event>
<event>
 5   0  0.5637538E-06  0.1827211E+04  0.7818609E-02  0.8691961E-01
        2   -1    0    0  501    0  0.00000000000E+00  0.00000000000E+00  0.18177348859E+04  0.18177348859E+04  0.25500000920E-02 0. -1.
       -2   -1    0    0    0  501  0.00000000000E+00  0.00000000000E+00 -0.45918433733E+03  0.45918433734E+03  0.25500000920E-02 0.  1.
    10030    2    1    2    0    0  0.00000000000E+00  0.00000000000E+00  0.13585505486E+04  0.22769192232E+04  0.18272114153E+04 0.  0.
        2    1    3    3  502    0  0.52451899830E+03  0.74199188522E+03  0.79751366769E+03  0.12090079352E+04  0.25500000920E-02 0. -1.
       -2    1    3    3    0  502 -0.52451899830E+03 -0.74199188522E+03  0.56103688086E+03  0.10679112880E+04  0.25500000920E-02 0.  1.
</event>
<event>
 5   0  0.5855568E-06  0.2748858E+04  0.7818609E-02  0.8319324E-01
        2   -1    0    0  501    0  0.00000000000E+00  0.00000000000E+00  0.13575466061E+04  0.13575466061E+04  0.25500000920E-02 0. -1.
       -2   -1    0    0    0  501  0.00000000000E+00  0.00000000000E+00 -0.13915209860E+04  0.13915209860E+04  0.25500000920E-02 0.  1.
    10030    2    1    2    0    0  0.00000000000E+00  0.00000000000E+00 -0.33974379826E+02  0.27490675921E+04  0.27488576477E+04 0.  0.
        3    1    3    3  502    0 -0.42958885675E+03  0.39754440874E+01  0.12886745440E+04  0.13583977622E+04  0.10100000352E+00 0. -1.
       -3    1    3    3    0  502  0.42958885675E+03 -0.39754440874E+01 -0.13226489238E+04  0.13906698299E+04  0.10100000352E+00 0.  1.
</event>
<event>
 5   0  0.1878000E-06  0.2854077E+04  0.7818609E-02  0.8286673E-01
        3   -1    0    0  501    0  0.00000000000E+00  0.00000000000E+00  0.17458071889E+04  0.17458071918E+04  0.10100000352E+00 0. -1.
       -3   -1    0    0    0  501  0.00000000000E+00  0.00000000000E+00 -0.11664742473E+04  0.11664742517E+04  0.10100000352E+00 0.  1.
    10030    2    1    2    0    0  0.00000000000E+00  0.00000000000E+00  0.57933294161E+03  0.29122814435E+04  0.28540771799E+04 0.  0.
        4    1    3    3  502    0  0.98019416813E+02 -0.13370523543E+04  0.78863853882E+03  0.15554000006E+04  0.12699999809E+01 0. -1.
       -4    1    3    3    0  502 -0.98019416813E+02  0.13370523543E+04 -0.20930559721E+03  0.13568814429E+04  0.12699999809E+01 0.  1.
</event>
<event>
 5   0  0.1999849E-06  0.3383300E+04  0.7818609E-02  0.8142017E-01
       -1   -1    0    0    0  501  0.00000000000E+00  0.00000000000E+00  0.15832821088E+04  0.15832821088E+04  0.50400001928E-02 0.  1.
        1   -1    0    0  501    0  0.00000000000E+00  0.00000000000E+00 -0.18074347479E+04  0.18074347479E+04  0.50400001928E-02 0. -1.
    10030    2    1    2    0    0  0.00000000000E+00  0.00000000000E+00 -0.22415263914E+03  0.33907168567E+04  0.33832996316E+04 0.  0.
        5    1    3    3  502    0  0.90643417031E+03  0.58340923574E+03 -0.14186475260E+04  0.17817329021E+04  0.46999998093E+01 0. -1.
       -5    1    3    3    0  502 -0.90643417031E+03 -0.58340923574E+03  0.11944948869E+04  0.16089839546E+04  0.46999998093E+01 0.  1.
</event>
<event>
 5   0  0.5622811E-06  0.2972663E+04  0.7818609E-02  0.8251581E-01
        2   -1    0    0  501    0  0.00000000000E+00  0.00000000000E+00  0.21731724383E+04  0.21731724383E+04  0.25500000920E-02 0.  1.
       -2   -1    0    0    0  501  0.00000000000E+00  0.00000000000E+00 -0.10165696165E+04  0.10165696165E+04  0.25500000920E-02 0. -1.
    10030    2    1    2    0    0  0.00000000000E+00  0.00000000000E+00  0.11566028217E+04  0.31897420548E+04  0.29726628280E+04 0.  0.
        1    1    3    3  502    0  0.40136761110E+03  0.18790346821E+03  0.21006278340E+04  0.21468677112E+04  0.50400001928E-02 0.  1.
       -1    1    3    3    0  502 -0.40136761110E+03 -0.18790346821E+03 -0.94402501227E+03  0.10428743435E+04  0.50400001928E-02 0. -1.
</event>
<event>
 5   0  0.2097842E-06  0.3338237E+04  0.7818609E-02  0.8153233E-01
        1   -1    0    0  501    0  0.00000000000E+00  0.00000000000E+00  0.23713496012E+04  0.23713496012E+04  0.50400001928E-02 0.  1.
       -1   -1    0    0    0  501  0.00000000000E+00  0.00000000000E+00 -0.11748403278E+04  0.11748403278E+04  0.50400001928E-02 0. -1.
    10030    2    1    2    0    0  0.00000000000E+00  0.00000000000E+00  0.11965092734E+04  0.35461899290E+04  0.33382373449E+04 0.  0.
        4    1    3    3  502    0  0.76464717596E+03 -0.18712677616E+03 -0.96525099232E+03  0.12455572348E+04  0.12699999809E+01 0. -1.
       -4    1    3    3    0  502 -0.76464717596E+03  0.18712677616E+03  0.21617602657E+04  0.23006326942E+04  0.12699999809E+01 0.  1.
</event>
<event>
 5   0  0.2037109E-06  0.3574021E+04  0.7818609E-02  0.8096469E-01
        1   -1    0    0  501    0  0.00000000000E+00  0.00000000000E+00  0.19968226510E+04  0.19968226510E+04  0.50400001928E-02 0.  1.
       -1   -1    0    0    0  501  0.00000000000E+00  0.00000000000E+00 -0.15992437310E+04  0.15992437311E+04  0.50400001928E-02 0. -1.
    10030    2    1    2    0    0  0.00000000000E+00  0.00000000000E+00  0.39757891993E+03  0.35960663820E+04  0.35740207647E+04 0.  0.
        2    1    3    3  502    0  0.83431048339E+03 -0.11867840069E+04 -0.85113924753E+03  0.16819537094E+04  0.25500000920E-02 0. -1.
       -2    1    3    3    0  502 -0.83431048339E+03  0.11867840069E+04  0.12487181675E+04  0.19141126727E+04  0.25500000920E-02 0.  1.
</event>
<event>
 5   0  0.5300268E-06  0.3115784E+04  0.7818609E-02  0.8211419E-01
        2   -1    0    0  501    0  0.00000000000E+00  0.00000000000E+00  0.17242149714E+04  0.17242149714E+04  0.25500000920E-02 0. -1.
       -2   -1    0    0    0  501  0.00000000000E+00  0.00000000000E+00 -0.14076129211E+04  0.14076129211E+04  0.25500000920E-02 0.  1.
    10030    2    1    2    0    0  0.00000000000E+00  0.00000000000E+00  0.31660205028E+03  0.31318278924E+04  0.31157838644E+04 0.  0.
        4    1    3    3  502    0 -0.78679264099E+03  0.80452437458E+03 -0.92461544270E+03  0.14564399950E+04  0.12699999809E+01 0.  1.
       -4    1    3    3    0  502  0.78679264099E+03 -0.80452437458E+03  0.12412174930E+04  0.16753878975E+04  0.12699999809E+01 0. -1.
</event>
<event>
 5   0  0.5637538E-06  0.2100330E+04  0.7818609E-02  0.8561098E-01
        2   -1    0    0  501    0  0.00000000000E+00  0.00000000000E+00  0.11587831163E+04  0.11587831163E+04  0.25500000920E-02 0. -1.
       -2   -1    0    0    0  501  0.00000000000E+00  0.00000000000E+00 -0.95172791371E+03  0.95172791371E+03  0.25500000920E-02 0.  1.
    10030    2    1    2    0    0  0.00000000000E+00  0.00000000000E+00  0.20705520263E+03  0.21105110300E+04  0.21003297244E+04 0.  0.
        2    1    3    3  502    0 -0.67883538109E+03 -0.80044075145E+03  0.66973153783E+02  0.10516692800E+04  0.25500000920E-02 0. -1.
       -2    1    3    3    0  502  0.67883538109E+03  0.80044075145E+03  0.14008204885E+03  0.10588417500E+04  0.25500000920E-02 0.  1.
</event>
<event>
 5   0  0.5855568E-06  0.1794655E+04  0.7818609E-02  0.8709147E-01
       -2   -1    0    0    0  501  0.00000000000E+00  0.00000000000E+00  0.10961498038E+04  0.10961498038E+04  0.25500000920E-02 0. -1.
        2   -1    0    0  501    0  0.00000000000E+00  0.00000000000E+00 -0.73456809368E+03  0.73456809368E+03  0.25500000920E-02 0.  1.
    10030    2    1    2    0    0  0.00000000000E+00  0.00000000000E+00  0.36158171011E+03  0.18307178975E+04  0.17946550329E+04 0.  0.
        3    1    3    3  502    0 -0.53707548870E+03  0.58431872731E+03  0.60791483534E+03  0.99971941707E+03  0.10100000352E+00 0. -1.
       -3    1    3    3    0  502  0.53707548870E+03 -0.58431872731E+03 -0.24633312523E+03  0.83099848040E+03  0.10100000352E+00 0.  1.
</event>
<event>
 5   0  0.2037109E-06  0.3276039E+04  0.7818609E-02  0.8169019E-01
       -1   -1    0    0    0  501  0.00000000000E+00  0.00000000000E+00  0.13228322899E+04  0.13228322899E+04  0.50400001928E-02 0. -1.
        1   -1    0    0  501    0  0.00000000000E+00  0.00000000000E+00 -0.20283053692E+04  0.20283053692E+04  0.50400001928E-02 0.  1.
    10030    2    1    2    0    0  0.00000000000E+00  0.00000000000E+00 -0.70547307930E+03  0.33511376592E+04  0.32760389719E+04 0.  0.
        2    1    3    3  502    0  0.10610141424E+04 -0.10279932099E+04 -0.10764770788E+04  0.18279288693E+04  0.25500000920E-02 0.  1.
       -2    1    3    3    0  502 -0.10610141424E+04  0.10279932099E+04  0.37100399953E+03  0.15232087899E+04  0.25500000920E-02 0. -1.
</event>
<event>
 5   0  0.5300268E-06  0.3267860E+04  0.7818609E-02  0.8171122E-01
        2   -1    0    0  501    0  0.00000000000E+00  0.00000000000E+00  0.26706915045E+04  0.26706915045E+04  0.25500000920E-02 0. -1.
       -2   -1    0    0    0  501  0.00000000000E+00  0.00000000000E+00 -0.99963917406E+03  0.99963917407E+03  0.25500000920E-02 0.  1.
    10030    2    1    2    0    0  0.00000000000E+00  0.00000000000E+00  0.16710523304E+04  0.36703306785E+04  0.32678603702E+04 0.  0.
        4    1    3    3  502    0  0.12596946509E+02 -0.16298661857E+04  0.70695610768E+03  0.17766291165E+04  0.12699999809E+01 0.  1.
       -4    1    3    3    0  502 -0.12596946509E+02  0.16298661857E+04  0.96409622272E+03  0.18937015620E+04  0.12699999809E+01 0. -1.
</event>
<event>
 5   0  0.5855568E-06  0.3096888E+04  0.7818609E-02  0.8216593E-01
        2   -1    0    0  501    0  0.00000000000E+00  0.00000000000E+00  0.13971363944E+04  0.13971363944E+04  0.25500000920E-02 0. -1.
       -2   -1    0    0    0  501  0.00000000000E+00  0.00000000000E+00 -0.17161374835E+04  0.17161374835E+04  0.25500000920E-02 0.  1.
    10030    2    1    2    0    0  0.00000000000E+00  0.00000000000E+00 -0.31900108916E+03  0.31132738779E+04  0.30968875575E+04 0.  0.
        3    1    3    3  502    0 -0.37045160783E+03  0.60639429529E+03 -0.15425451528E+04  0.16983503743E+04  0.10100000352E+00 0.  1.
       -3    1    3    3    0  502  0.37045160783E+03 -0.60639429529E+03  0.12235440637E+04  0.14149235036E+04  0.10100000352E+00 0. -1.
</event>
<event>
 5   0  0.2730981E-06  0.1906279E+04  0.7818609E-02  0.8651737E-01
       -1   -1    0    0    0  501  0.00000000000E+00  0.00000000000E+00  0.59119650862E+03  0.59119650864E+03  0.50400001928E-02 0. -1.
        1   -1    0    0  501    0  0.00000000000E+00  0.00000000000E+00 -0.15366723583E+04  0.15366723583E+04  0.50400001928E-02 0.  1.
    10030    2    1    2    0    0  0.00000000000E+00  0.00000000000E+00 -0.94547584971E+03  0.21278688670E+04  0.19062794477E+04 0.  0.
        3    1    3    3  502    0  0.62773825525E+03 -0.36987535112E+02  0.32679979416E+03  0.70867588538E+03  0.10100000352E+00 0. -1.
       -3    1    3    3    0  502 -0.62773825525E+03  0.36987535112E+02 -0.12722756439E+04  0.14191929816E+04  0.10100000352E+00 0.  1.
</event>
<event>
 5   0  0.5622811E-06  0.3276473E+04  0.7818609E-02  0.8168908E-01
       -2   -1    0    0    0  501  0.00000000000E+00  0.00000000000E+00  0.14930389880E+04  0.14930389880E+04  0.25500000920E-02 0.  1.
        2   -1    0    0  501    0  0.00000000000E+00  0.00000000000E+00 -0.17975544875E+04  0.17975544875E+04  0.25500000920E-02 0. -1.
    10030    2    1    2    0    0  0.00000000000E+00  0.00000000000E+00 -0.30451549946E+03  0.32905934755E+04  0.32764730629E+04 0.  0.
        1    1    3    3  502    0 -0.22745709494E+03  0.15644488946E+04 -0.58373920857E+03  0.16852265538E+04  0.50400001928E-02 0. -1.
       -1    1    3    3    0  502  0.22745709494E+03 -0.15644488946E+04  0.27922370911E+03  0.16053669218E+04  0.50400001928E-02 0.  1.
</event>
<event>
 5   0  0.2037109E-06  0.2693906E+04  0.7818609E-02  0.8336985E-01
        1   -1    0    0  501    0  0.00000000000E+00  0.00000000000E+00  0.16607928979E+04  0.16607928979E+04  0.50400001928E-02 0.  1.
       -1   -1    0    0    0  501  0.00000000000E+00  0.00000000000E+00 -0.10924190819E+04  0.10924190820E+04  0.50400001928E-02 0. -1.
    10030    2    1    2    0    0  0.00000000000E+00  0.00000000000E+00  0.56837381596E+03  0.27532119799E+04  0.26939056055E+04 0.  0.
        2    1    3    3  502    0 -0.16117139665E+02  0.65381170386E+03 -0.91925577773E+03  0.11281669607E+04  0.25500000920E-02 0. -1.
       -2    1    3    3    0  502  0.16117139665E+02 -0.65381170386E+03  0.14876295937E+04  0.16250450192E+04  0.25500000920E-02 0.  1.
</event>
<event>
 5   0  0.1925906E-06  0.3097658E+04  0.7818609E-02  0.8216381E-01
       -1   -1    0    0    0  501  0.00000000000E+00  0.00000000000E+00  0.10775482728E+04  0.10775482728E+04  0.50400001928E-02 0. -1.
        1   -1    0    0  501    0  0.00000000000E+00  0.00000000000E+00 -0.22262306967E+04  0.22262306967E+04  0.50400001928E-02 0.  1.
    10030    2    1    2    0    0  0.00000000000E+00  0.00000000000E+00 -0.11486824240E+04  0.33037789695E+04  0.30976578520E+04 0.  0.
        1    1    3    3  502    0 -0.94098392797E+03 -0.12228588505E+04 -0.43110463786E+03  0.16020879282E+04  0.50400001928E-02 0.  1.
       -1    1    3    3    0  502  0.94098392797E+03  0.12228588505E+04 -0.71757778609E+03  0.17016910413E+04  0.50400001928E-02 0. -1.
</event>
<event>
 5   0  0.5300268E-06  0.3243669E+04  0.7818609E-02  0.8177378E-01
        2   -1    0    0  501    0  0.00000000000E+00  0.00000000000E+00  0.20540078312E+04  0.20540078312E+04  0.25500000920E-02 0. -1.
       -2   -1    0    0    0  501  0.00000000000E+00  0.00000000000E+00 -0.12805929236E+04  0.12805929236E+04  0.25500000920E-02 0.  1.
    10030    2    1    2    0    0  0.00000000000E+00  0.00000000000E+00  0.77341490756E+03  0.33346007548E+04  0.32436694613E+04 0.  0.
        4    1    3    3  502    0  0.15929544015E+04 -0.19421881046E+03  0.14534584295E+03  0.16113198623E+04  0.12699999809E+01 0.  1.
       -4    1    3    3    0  502 -0.15929544015E+04  0.19421881046E+03  0.62806906460E+03  0.17232808925E+04  0.12699999809E+01 0. -1.
</event>
<event>
 5   0  0.5300268E-06  0.3276559E+04  0.7818609E-02  0.8168886E-01
        2   -1    0    0  501    0  0.00000000000E+00  0.00000000000E+00  0.23635199988E+04  0.23635199988E+04  0.25500000920E-02 0. -1.
       -2   -1    0    0    0  501  0.00000000000E+00  0.00000000000E+00 -0.11355775452E+04  0.11355775452E+04  0.25500000920E-02 0.  1.
    10030    2    1    2    0    0  0.00000000000E+00  0.00000000000E+00  0.12279424536E+04  0.34990975440E+04  0.32765593163E+04 0.  0.
        4    1    3    3  502    0 -0.38436678777E+03  0.83377126800E+03 -0.83503538368E+03  0.12410471626E+04  0.12699999809E+01 0.  1.
       -4    1    3    3    0  502  0.38436678777E+03 -0.83377126800E+03  0.20629778373E+04  0.22580503814E+04  0.12699999809E+01 0. -1.
</event>
<event>
 5   0  0.5300268E-06  0.3277557E+04  0.7818609E-02  0.8168630E-01
       -2   -1    0    0    0  501  0.00000000000E+00  0.00000000000E+00  0.17951037513E+04  0.17951037513E+04  0.25500000920E-02 0. -1.
        2   -1    0    0  501    0  0.00000000000E+00  0.00000000000E+00 -0.14960663323E+04  0.14960663323E+04  0.25500000920E-02 0.  1.
    10030    2    1    2    0    0  0.00000000000E+00  0.00000000000E+00  0.29903741900E+03  0.32911700836E+04  0.32775565809E+04 0.  0.
        4    1    3    3  502    0  0.10730709602E+04  0.75403047096E+03  0.11362238394E+04  0.17352375811E+04  0.12699999809E+01 0. -1.
       -4    1    3    3    0  502 -0.10730709602E+04 -0.75403047096E+03 -0.83718642043E+03  0.15559325025E+04  0.12699999809E+01 0.  1.
</event>
<event>
 5   0  0.1925906E-06  0.3290306E+04  0.7818609E-02  0.8165366E-01
       -1   -1    0    0    0  501  0.00000000000E+00  0.00000000000E+00  0.15498978014E+04  0.15498978014E+04  0.50400001928E-02 0.  1.
        1   -1    0    0  501    0  0.00000000000E+00  0.00000000000E+00 -0.17462622131E+04  0.17462622131E+04  0.50400001928E-02 0. -1.
    10030    2    1    2    0    0  0.00000000000E+00  0.00000000000E+00 -0.19636441174E+03  0.32961600146E+04  0.32903057395E+04 0.  0.
        1    1    3    3  502    0 -0.57639011430E+03 -0.97557126898E+03  0.10966524242E+04  0.15768993006E+04  0.50400001928E-02 0.  1.
       -1    1    3    3    0  502  0.57639011430E+03  0.97557126898E+03 -0.12930168359E+04  0.17192607140E+04  0.50400001928E-02 0. -1.
</event>
<event>
 5   0  0.5855568E-06  0.3252034E+04  0.7818609E-02  0.8175209E-01
        2   -1    0    0  501    0  0.00000000000E+00  0.00000000000E+00  0.11524932913E+04  0.11524932913E+04  0.25500000920E-02 0. -1.
       -2   -1    0    0    0  501  0.00000000000E+00  0.00000000000E+00 -0.22940975647E+04  0.22940975647E+04  0.25500000920E-02 0.  1.
    10030    2    1    2    0    0  0.00000000000E+00  0.00000000000E+00 -0.11416042735E+04  0.34465908560E+04  0.32520344727E+04 0.  0.
        3    1    3    3  502    0  0.11174776266E+04  0.10772744160E+04 -0.57408975148E+02  0.15532457030E+04  0.10100000352E+00 0. -1.
       -3    1    3    3    0  502 -0.11174776266E+04 -0.10772744160E+04 -0.10841952983E+04  0.18933451530E+04  0.10100000352E+00 0.  1.
</event>
<event>
 5   0  0.5622811E-06  0.3410214E+04  0.7818609E-02  0.8135404E-01
        2   -1    0    0  501    0  0.00000000000E+00  0.00000000000E+00  0.19838500678E+04  0.19838500678E+04  0.25500000920E-02 0.  1.
       -2   -1    0    0    0  501  0.00000000000E+00  0.00000000000E+00 -0.14655294160E+04  0.14655294160E+04  0.25500000920E-02 0. -1.
    10030    2    1    2    0    0  0.00000000000E+00  0.00000000000E+00  0.51832065173E+03  0.34493794838E+04  0.34102144398E+04 0.  0.
        1    1    3    3  502    0 -0.75282684067E+03  0.14778193379E+03  0.17994102726E+04  0.19561352410E+04  0.50400001928E-02 0.  1.
       -1    1    3    3    0  502  0.75282684067E+03 -0.14778193379E+03 -0.12810896208E+04  0.14932442428E+04  0.50400001928E-02 0. -1.
</event>
<event>
 5   0  0.2037109E-06  0.2353110E+04  0.7818609E-02  0.8457270E-01
        1   -1    0    0  501    0  0.00000000000E+00  0.00000000000E+00  0.92181237663E+03  0.92181237664E+03  0.50400001928E-02 0.  1.
       -1   -1    0    0    0  501  0.00000000000E+00  0.00000000000E+00 -0.15016950825E+04  0.15016950825E+04  0.50400001928E-02 0. -1.
    10030    2    1    2    0    0  0.00000000000E+00  0.00000000000E+00 -0.57988270589E+03  0.24235074592E+04  0.23531095283E+04 0.  0.
        2    1    3    3  502    0 -0.50595311834E+03  0.16735069138E+03  0.79038525155E+03  0.95325949129E+03  0.25500000920E-02 0.  1.
       -2    1    3    3    0  502  0.50595311834E+03 -0.16735069138E+03 -0.13702679574E+04  0.14702479679E+04  0.25500000920E-02 0. -1.
</event>
<event>
 5   0  0.1925906E-06  0.1879247E+04  0.7818609E-02  0.8665256E-01
       -1   -1    0    0    0  501  0.00000000000E+00  0.00000000000E+00  0.86502953774E+03  0.86502953776E+03  0.50400001928E-02 0.  1.
        1   -1    0    0  501    0  0.00000000000E+00  0.00000000000E+00 -0.10206503329E+04  0.10206503329E+04  0.50400001928E-02 0. -1.
    10030    2    1    2    0    0  0.00000000000E+00  0.00000000000E+00 -0.15562079519E+03  0.18856798707E+04  0.18792473874E+04 0.  0.
        1    1    3    3  502    0  0.62936840043E+03  0.30868208962E+03  0.55003370273E+03  0.89102541494E+03  0.50400001928E-02 0.  1.
       -1    1    3    3    0  502 -0.62936840043E+03 -0.30868208962E+03 -0.70565449791E+03  0.99465445576E+03  0.50400001928E-02 0. -1.
</event>
<event>
 5   0  0.2037109E-06  0.3549762E+04  0.7818609E-02  0.8102097E-01
        1   -1    0    0  501    0  0.00000000000E+00  0.00000000000E+00  0.24698490104E+04  0.24698490104E+04  0.50400001928E-02 0.  1.
       -1   -1    0    0    0  501  0.00000000000E+00  0.00000000000E+00 -0.12754636704E+04  0.12754636704E+04  0.50400001928E-02 0. -1.
    10030    2    1    2    0    0  0.00000000000E+00  0.00000000000E+00  0.11943853400E+04  0.37453126808E+04  0.35497620676E+04 0.  0.
        2    1    3    3  502    0 -0.33119067654E+02  0.17741709979E+04  0.63699456558E+03  0.18853492194E+04  0.25500000920E-02 0. -1.
       -2    1    3    3    0  502  0.33119067654E+02 -0.17741709979E+04  0.55739077446E+03  0.18599634614E+04  0.25500000920E-02 0.  1.
</event>
<event>
 5   0  0.5855568E-06  0.3297637E+04  0.7818609E-02  0.8163497E-01
        2   -1    0    0  501    0  0.00000000000E+00  0.00000000000E+00  0.19263614469E+04  0.19263614469E+04  0.25500000920E-02 0. -1.
       -2   -1    0    0    0  501  0.00000000000E+00  0.00000000000E+00 -0.14112632342E+04  0.14112632342E+04  0.25500000920E-02 0.  1.
    10030    2    1    2    0    0  0.00000000000E+00  0.00000000000E+00  0.51509821269E+03  0.33376246812E+04  0.32976373881E+04 0.  0.
        3    1    3    3  502    0 -0.20711226223E+03  0.12958798557E+04  0.12678531939E+04  0.18247333561E+04  0.10100000352E+00 0. -1.
       -3    1    3    3    0  502  0.20711226223E+03 -0.12958798557E+04 -0.75275498120E+03  0.15128913250E+04  0.10100000352E+00 0.  1.
</event>
<event>
 5   0  0.2037109E-06  0.3272226E+04  0.7818609E-02  0.8169999E-01
       -1   -1    0    0    0  501  0.00000000000E+00  0.00000000000E+00  0.15346004341E+04  0.15346004341E+04  0.50400001928E-02 0. -1.
        1   -1    0    0  501    0  0.00000000000E+00  0.00000000000E+00 -0.17443410171E+04  0.17443410172E+04  0.50400001928E-02 0.  1.
    10030    2    1    2    0    0  0.00000000000E+00  0.00000000000E+00 -0.20974058302E+03  0.32789414513E+04  0.32722264483E+04 0.  0.
        2    1    3    3  502    0  0.22823739942E+03  0.12404143298E+04  0.93945190161E+03  0.15726696714E+04  0.25500000920E-02 0. -1.
       -2    1    3    3    0  502 -0.22823739942E+03 -0.12404143298E+04 -0.11491924846E+04  0.17062717799E+04  0.25500000920E-02 0.  1.
</event>
<event>
 5   0  0.5637538E-06  0.2950518E+04  0.7818609E-02  0.8258004E-01
       -2   -1    0    0    0  501  0.00000000000E+00  0.00000000000E+00  0.18236586709E+04  0.18236586709E+04  0.25500000920E-02 0.  1.
        2   -1    0    0  501    0  0.00000000000E+00  0.00000000000E+00 -0.11934191173E+04  0.11934191173E+04  0.25500000920E-02 0. -1.
    10030    2    1    2    0    0  0.00000000000E+00  0.00000000000E+00  0.63023955354E+03  0.30170777882E+04  0.29505180028E+04 0.  0.
        2    1    3    3  502    0 -0.12804635948E+03 -0.49742797443E+03 -0.10990306893E+04  0.12131359841E+04  0.25500000920E-02 0. -1.
       -2    1    3    3    0  502  0.12804635948E+03  0.49742797443E+03  0.17292702428E+04  0.18039418041E+04  0.25500000920E-02 0.  1.
</event>
<event>
 5   0  0.2730981E-06  0.3329225E+04  0.7818609E-02  0.8155499E-01
        1   -1    0    0  501    0  0.00000000000E+00  0.00000000000E+00  0.19811049802E+04  0.19811049802E+04  0.50400001928E-02 0. -1.
       -1   -1    0    0    0  501  0.00000000000E+00  0.00000000000E+00 -0.13986818522E+04  0.13986818522E+04  0.50400001928E-02 0.  1.
    10030    2    1    2    0    0  0.00000000000E+00  0.00000000000E+00  0.58242312798E+03  0.33797868324E+04  0.33292254854E+04 0.  0.
        3    1    3    3  502    0 -0.17300740933E+03  0.15341491512E+04  0.92307106641E+03  0.17987788596E+04  0.10100000352E+00 0. -1.
       -3    1    3    3    0  502  0.17300740933E+03 -0.15341491512E+04 -0.34064793842E+03  0.15810079728E+04  0.10100000352E+00 0.  1.
</event>
<event>
 5   0  0.1925906E-06  0.3214372E+04  0.7818609E-02  0.8185032E-01
       -1   -1    0    0    0  501  0.00000000000E+00  0.00000000000E+00  0.19050893638E+04  0.19050893638E+04  0.50400001928E-02 0.  1.
        1   -1    0    0  501    0  0.00000000000E+00  0.00000000000E+00 -0.13558665173E+04  0.13558665173E+04  0.50400001928E-02 0. -1.
    10030    2    1    2    0    0  0.00000000000E+00  0.00000000000E+00  0.54922284651E+03  0.32609558811E+04  0.32143720263E+04 0.  0.
        1    1    3    3  502    0 -0.22378500675E+03 -0.75345919911E+03 -0.11475847191E+04  0.13909461462E+04  0.50400001928E-02 0. -1.
       -1    1    3    3    0  502  0.22378500675E+03  0.75345919911E+03  0.16968075656E+04  0.18700097349E+04  0.50400001928E-02 0.  1.
</event>
<event>
 5   0  0.5300268E-06  0.3257928E+04  0.7818609E-02  0.8173684E-01
       -2   -1    0    0    0  501  0.00000000000E+00  0.00000000000E+00  0.15495260294E+04  0.15495260294E+04  0.25500000920E-02 0. -1.
        2   -1    0    0  501    0  0.00000000000E+00  0.00000000000E+00 -0.17124745729E+04  0.17124745729E+04  0.25500000920E-02 0.  1.
    10030    2    1    2    0    0  0.00000000000E+00  0.00000000000E+00 -0.16294854346E+03  0.32620006023E+04  0.32579281302E+04 0.  0.
        4    1    3    3  502    0  0.94585755214E+03 -0.83328379592E+03 -0.11145168205E+04  0.16826044543E+04  0.12699999809E+01 0.  1.
       -4    1    3    3    0  502 -0.94585755214E+03  0.83328379592E+03  0.95156827704E+03  0.15793961480E+04  0.12699999809E+01 0. -1.
</event>
<event>
 5   0  0.5755250E-06  0.2876783E+04  0.7818609E-02  0.8279819E-01
       -2   -1    0    0    0  501  0.00000000000E+00  0.00000000000E+00  0.15895315324E+04  0.15895315324E+04  0.25500000920E-02 0.  1.
        2   -1    0    0  501    0  0.00000000000E+00  0.00000000000E+00 -0.13016228519E+04  0.13016228519E+04  0.25500000920E-02 0. -1.
    10030    2    1    2    0    0  0.00000000000E+00  0.00000000000E+00  0.28790868045E+03  0.28911543843E+04  0.28767833192E+04 0.  0.
        5    1    3    3  502    0  0.22167948671E+03  0.40827340032E+02 -0.12837548529E+04  0.13034021938E+04  0.46999998093E+01 0. -1.
       -5    1    3    3    0  502 -0.22167948671E+03 -0.40827340032E+02  0.15716635333E+04  0.15877521905E+04  0.46999998093E+01 0.  1.
</event>
<event>
 5   0  0.2037109E-06  0.2368249E+04  0.7818609E-02  0.8451487E-01
       -1   -1    0    0    0  501  0.00000000000E+00  0.00000000000E+00  0.96767844965E+03  0.96767844966E+03  0.50400001928E-02 0.  1.
        1   -1    0    0  501    0  0.00000000000E+00  0.00000000000E+00 -0.14489838475E+04  0.14489838475E+04  0.50400001928E-02 0. -1.
    10030    2    1    2    0    0  0.00000000000E+00  0.00000000000E+00 -0.48130539787E+03  0.24166622972E+04  0.23682486720E+04 0.  0.
        2    1    3    3  502    0  0.67382013181E+03 -0.71512278376E+03 -0.91500734467E+03  0.13426364388E+04  0.25500000920E-02 0. -1.
       -2    1    3    3    0  502 -0.67382013181E+03  0.71512278376E+03  0.43370194680E+03  0.10740258584E+04  0.25500000920E-02 0.  1.
</event>
<event>
 5   0  0.2037109E-06  0.3166393E+04  0.7818609E-02  0.8197749E-01
        1   -1    0    0  501    0  0.00000000000E+00  0.00000000000E+00  0.15277216229E+04  0.15277216229E+04  0.50400001928E-02 0. -1.
       -1   -1    0    0    0  501  0.00000000000E+00  0.00000000000E+00 -0.16406858460E+04  0.16406858460E+04  0.50400001928E-02 0.  1.
    10030    2    1    2    0    0  0.00000000000E+00  0.00000000000E+00 -0.11296422314E+03  0.31684074689E+04  0.31663930542E+04 0.  0.
        2    1    3    3  502    0 -0.11984755251E+04  0.13436861886E+03 -0.10828601306E+04  0.16207975112E+04  0.25500000920E-02 0.  1.
       -2    1    3    3    0  502  0.11984755251E+04 -0.13436861886E+03  0.96989590746E+03  0.15476099577E+04  0.25500000920E-02 0. -1.
</event>
<event>
 5   0  0.2389543E-06  0.1758904E+04  0.7818609E-02  0.8728464E-01
       -1   -1    0    0    0  501  0.00000000000E+00  0.00000000000E+00  0.60693948340E+03  0.60693948342E+03  0.50400001928E-02 0. -1.
        1   -1    0    0  501    0  0.00000000000E+00  0.00000000000E+00 -0.12743214943E+04  0.12743214943E+04  0.50400001928E-02 0.  1.
    10030    2    1    2    0    0  0.00000000000E+00  0.00000000000E+00 -0.66738201086E+03  0.18812609777E+04  0.17589042378E+04 0.  0.
        1    1    3    3  502    0  0.15728417666E+02  0.17824991725E+03  0.58726252199E+03  0.61391993442E+03  0.50400001928E-02 0. -1.
       -1    1    3    3    0  502 -0.15728417666E+02 -0.17824991725E+03 -0.12546445329E+04  0.12673410433E+04  0.50400001928E-02 0.  1.
</event>
<event>
 5   0  0.1999849E-06  0.3323595E+04  0.7818609E-02  0.8156918E-01
       -1   -1    0    0    0  501  0.00000000000E+00  0.00000000000E+00  0.14011434333E+04  0.14011434333E+04  0.50400001928E-02 0.  1.
        1   -1    0    0  501    0  0.00000000000E+00  0.00000000000E+00 -0.19709404592E+04  0.19709404592E+04  0.50400001928E-02 0. -1.
    10030    2    1    2    0    0  0.00000000000E+00  0.00000000000E+00 -0.56979702589E+03  0.33720838925E+04  0.33235946093E+04 0.  0.
        5    1    3    3  502    0  0.78757799610E+03  0.57126432226E+03  0.10819481782E+04  0.14550793711E+04  0.46999998093E+01 0. -1.
       -5    1    3    3    0  502 -0.78757799610E+03 -0.57126432226E+03 -0.16517452041E+04  0.19170045214E+04  0.46999998093E+01 0.  1.
</event>
<event>
 5   0  0.2730981E-06  0.3365815E+04  0.7818609E-02  0.8146348E-01
       -1   -1    0    0    0  501  0.00000000000E+00  0.00000000000E+00  0.14722393153E+04  0.14722393153E+04  0.50400001928E-02 0. -1.
        1   -1    0    0  501    0  0.00000000000E+00  0.00000000000E+00 -0.19237206420E+04  0.19237206420E+04  0.50400001928E-02 0.  1.
    10030    2    1    2    0    0  0.00000000000E+00  0.00000000000E+00 -0.45148132671E+03  0.33959599573E+04  0.33658147072E+04 0.  0.
        3    1    3    3  502    0 -0.80845661748E+03  0.69821666090E+03  0.10863171214E+04  0.15235463584E+04  0.10100000352E+00 0. -1.
       -3    1    3    3    0  502  0.80845661748E+03 -0.69821666090E+03 -0.15377984481E+04  0.18724135988E+04  0.10100000352E+00 0.  1.
</event>
<event>
 5   0  0.5622811E-06  0.3226700E+04  0.7818609E-02  0.8181801E-01
        2   -1    0    0  501    0  0.00000000000E+00  0.00000000000E+00  0.15682229258E+04  0.15682229258E+04  0.25500000920E-02 0. -1.
       -2   -1    0    0    0  501  0.00000000000E+00  0.00000000000E+00 -0.16597760298E+04  0.16597760298E+04  0.25500000920E-02 0.  1.
    10030    2    1    2    0    0  0.00000000000E+00  0.00000000000E+00 -0.91553103938E+02  0.32279989556E+04  0.32267003714E+04 0.  0.
        1    1    3    3  502    0 -0.16240997319E+03 -0.57505912612E+03  0.14534355255E+04  0.15714785473E+04  0.50400001928E-02 0. -1.
       -1    1    3    3    0  502  0.16240997319E+03  0.57505912612E+03 -0.15449886294E+04  0.16565204083E+04  0.50400001928E-02 0.  1.
</event>
<event>
 5   0  0.1999849E-06  0.3202283E+04  0.7818609E-02  0.8188215E-01
        1   -1    0    0  501    0  0.00000000000E+00  0.00000000000E+00  0.16873324956E+04  0.16873324956E+04  0.50400001928E-02 0. -1.
       -1   -1    0    0    0  501  0.00000000000E+00  0.00000000000E+00 -0.15193530058E+04  0.15193530058E+04  0.50400001928E-02 0.  1.
    10030    2    1    2    0    0  0.00000000000E+00  0.00000000000E+00  0.16797948982E+03  0.32066855014E+04  0.32022827477E+04 0.  0.
        5    1    3    3  502    0 -0.52202105823E+03  0.45721011418E+03 -0.13609371400E+04  0.15276514861E+04  0.46999998093E+01 0.  1.
       -5    1    3    3    0  502  0.52202105823E+03 -0.45721011418E+03  0.15289166299E+04  0.16790340154E+04  0.46999998093E+01 0. -1.
</event>
<event>
 5   0  0.1925906E-06  0.3056588E+04  0.7818609E-02  0.8227754E-01
        1   -1    0    0  501    0  0.00000000000E+00  0.00000000000E+00  0.21897479918E+04  0.21897479918E+04  0.50400001928E-02 0.  1.
       -1   -1    0    0    0  501  0.00000000000E+00  0.00000000000E+00 -0.10666442597E+04  0.10666442597E+04  0.50400001928E-02 0. -1.
    10030    2    1    2    0    0  0.00000000000E+00  0.00000000000E+00  0.11231037321E+04  0.32563922516E+04  0.30565877221E+04 0.  0.
        1    1    3    3  502    0  0.13383888624E+04  0.18233393208E+03 -0.20013200613E+03  0.13654974294E+04  0.50400001928E-02 0. -1.
       -1    1    3    3    0  502 -0.13383888624E+04 -0.18233393208E+03  0.13232357382E+04  0.18908948222E+04  0.50400001928E-02 0.  1.
</event>
<event>
 5   0  0.1925906E-06  0.3425632E+04  0.7818609E-02  0.8131644E-01
       -1   -1    0    0    0  501  0.00000000000E+00  0.00000000000E+00  0.10335943152E+04  0.10335943152E+04  0.50400001928E-02 0.  1.
        1   -1    0    0  501    0  0.00000000000E+00  0.00000000000E+00 -0.28383846868E+04  0.28383846869E+04  0.50400001928E-02 0. -1.
    10030    2    1    2    0    0  0.00000000000E+00  0.00000000000E+00 -0.18047903717E+04  0.38719790020E+04  0.34256317821E+04 0.  0.
        1    1    3    3  502    0 -0.77986085018E+03  0.71993000285E+02  0.81935902582E+03  0.11334527564E+04  0.50400001928E-02 0.  1.
       -1    1    3    3    0  502  0.77986085018E+03 -0.71993000285E+02 -0.26241493975E+04  0.27385262457E+04  0.50400001928E-02 0. -1.
</event>
<event>
 5   0  0.2097842E-06  0.2830129E+04  0.7818609E-02  0.8293975E-01
       -1   -1    0    0    0  501  0.00000000000E+00  0.00000000000E+00  0.72383574882E+03  0.72383574883E+03  0.50400001928E-02 0. -1.
        1   -1    0    0  501    0  0.00000000000E+00  0.00000000000E+00 -0.27663840690E+04  0.27663840690E+04  0.50400001928E-02 0.  1.
    10030    2    1    2    0    0  0.00000000000E+00  0.00000000000E+00 -0.20425483202E+04  0.34902198178E+04  0.28301291024E+04 0.  0.
        4    1    3    3  502    0  0.89855999470E+01  0.11809980424E+04 -0.60006526023E+02  0.11825563468E+04  0.12699999809E+01 0. -1.
       -4    1    3    3    0  502 -0.89855999470E+01 -0.11809980424E+04 -0.19825417941E+04  0.23076634710E+04  0.12699999809E+01 0.  1.
</event>
<event>
 5   0  0.2730981E-06  0.2732204E+04  0.7818609E-02  0.8324631E-01
       -1   -1    0    0    0  501  0.00000000000E+00  0.00000000000E+00  0.14956580210E+04  0.14956580211E+04  0.50400001928E-02 0.  1.
        1   -1    0    0  501    0  0.00000000000E+00  0.00000000000E+00 -0.12477679986E+04  0.12477679986E+04  0.50400001928E-02 0. -1.
    10030    2    1    2    0    0  0.00000000000E+00  0.00000000000E+00  0.24789002243E+03  0.27434260197E+04  0.27322036641E+04 0.  0.
        3    1    3    3  502    0 -0.63175799357E+03 -0.80143920022E+03  0.10358665472E+04  0.14541122611E+04  0.10100000352E+00 0.  1.
       -3    1    3    3    0  502  0.63175799357E+03  0.80143920022E+03 -0.78797652482E+03  0.12893137585E+04  0.10100000352E+00 0. -1.
</event>
<event>
 5   0  0.5622811E-06  0.3327378E+04  0.7818609E-02  0.8155964E-01
        2   -1    0    0  501    0  0.00000000000E+00  0.00000000000E+00  0.17964951607E+04  0.17964951607E+04  0.25500000920E-02 0. -1.
       -2   -1    0    0    0  501  0.00000000000E+00  0.00000000000E+00 -0.15407000990E+04  0.15407000990E+04  0.25500000920E-02 0.  1.
    10030    2    1    2    0    0  0.00000000000E+00  0.00000000000E+00  0.25579506172E+03  0.33371952597E+04  0.33273775091E+04 0.  0.
        1    1    3    3  502    0 -0.36469290662E+03 -0.72207979113E+03 -0.13301664149E+04  0.15568374457E+04  0.50400001928E-02 0.  1.
       -1    1    3    3    0  502  0.36469290662E+03  0.72207979113E+03  0.15859614766E+04  0.17803578141E+04  0.50400001928E-02 0. -1.
</event>
<event>
 5   0  0.5855568E-06  0.3255892E+04  0.7818609E-02  0.8174210E-01
        2   -1    0    0  501    0  0.00000000000E+00  0.00000000000E+00  0.23332073788E+04  0.23332073788E+04  0.25500000920E-02 0.  1.
       -2   -1    0    0    0  501  0.00000000000E+00  0.00000000000E+00 -0.11358645732E+04  0.11358645732E+04  0.25500000920E-02 0. -1.
    10030    2    1    2    0    0  0.00000000000E+00  0.00000000000E+00  0.11973428056E+04  0.34690719520E+04  0.32558916465E+04 0.  0.
        3    1    3    3  502    0 -0.10534974272E+03 -0.77702740310E+03 -0.92139155151E+03  0.12098894804E+04  0.10100000352E+00 0. -1.
       -3    1    3    3    0  502  0.10534974272E+03  0.77702740310E+03  0.21187343571E+04  0.22591824716E+04  0.10100000352E+00 0.  1.
</event>
<event>
 5   0  0.2730981E-06  0.3966182E+04  0.7818609E-02  0.8011404E-01
        1   -1    0    0  501    0  0.00000000000E+00  0.00000000000E+00  0.23580825477E+04  0.23580825477E+04  0.50400001928E-02 0.  1.
       -1   -1    0    0    0  501  0.00000000000E+00  0.00000000000E+00 -0.16677320342E+04  0.16677320342E+04  0.50400001928E-02 0. -1.
    10030    2    1    2    0    0  0.00000000000E+00  0.00000000000E+00  0.69035051355E+03  0.40258145819E+04  0.39661819444E+04 0.  0.
        3    1    3    3  502    0 -0.26007267042E+03  0.13009180482E+04  0.18413194280E+04  0.22694675165E+04  0.10100000352E+00 0.  1.
       -3    1    3    3    0  502  0.26007267042E+03 -0.13009180482E+04 -0.11509689145E+04  0.17563470655E+04  0.10100000352E+00 0. -1.
</event>
<event>
 5   0  0.5755250E-06  0.3362095E+04  0.7818609E-02  0.8147273E-01
       -2   -1    0    0    0  501  0.00000000000E+00  0.00000000000E+00  0.11330396752E+04  0.11330396752E+04  0.25500000920E-02 0. -1.
        2   -1    0    0  501    0  0.00000000000E+00  0.00000000000E+00 -0.24941059916E+04  0.24941059916E+04  0.25500000920E-02 0.  1.
    10030    2    1    2    0    0  0.00000000000E+00  0.00000000000E+00 -0.13610663165E+04  0.36271456668E+04  0.33620952054E+04 0.  0.
        5    1    3    3  502    0  0.11858115177E+04 -0.98086569309E+03  0.49298846869E+02  0.15397074169E+04  0.46999998093E+01 0. -1.
       -5    1    3    3    0  502 -0.11858115177E+04  0.98086569309E+03 -0.14103651633E+04  0.20874382499E+04  0.46999998093E+01 0.  1.
</event>
<event>
 5   0  0.2097842E-06  0.2156595E+04  0.7818609E-02  0.8536715E-01
       -1   -1    0    0    0  501  0.00000000000E+00  0.00000000000E+00  0.88304486001E+03  0.88304486002E+03  0.50400001928E-02 0. -1.
        1   -1    0    0  501    0  0.00000000000E+00  0.00000000000E+00 -0.13167224299E+04  0.13167224299E+04  0.50400001928E-02 0.  1.
    10030    2    1    2    0    0  0.00000000000E+00  0.00000000000E+00 -0.43367756989E+03  0.21997672899E+04  0.21565945134E+04 0.  0.
        4    1    3    3  502    0  0.46034272457E+03  0.39269407358E+03 -0.11272303065E+04  0.12793646221E+04  0.12699999809E+01 0.  1.
       -4    1    3    3    0  502 -0.46034272457E+03 -0.39269407358E+03  0.69355273664E+03  0.92040266780E+03  0.12699999809E+01 0. -1.
</event>
<event>
 5   0  0.2037109E-06  0.3168825E+04  0.7818609E-02  0.8197099E-01
        1   -1    0    0  501    0  0.00000000000E+00  0.00000000000E+00  0.25677535017E+04  0.25677535017E+04  0.50400001928E-02 0.  1.
       -1   -1    0    0    0  501  0.00000000000E+00  0.00000000000E+00 -0.97764961334E+03  0.97764961336E+03  0.50400001928E-02 0. -1.
    10030    2    1    2    0    0  0.00000000000E+00  0.00000000000E+00  0.15901038884E+04  0.35454031151E+04  0.31688251565E+04 0.  0.
        2    1    3    3  502    0  0.94277710874E+03 -0.88007858232E+03 -0.23464182198E+03  0.13108866360E+04  0.25500000920E-02 0. -1.
       -2    1    3    3    0  502 -0.94277710874E+03  0.88007858232E+03  0.18247457104E+04  0.22345164791E+04  0.25500000920E-02 0.  1.
</event>
<event>
 5   0  0.1925906E-06  0.3241860E+04  0.7818609E-02  0.8177849E-01
        1   -1    0    0  501    0  0.00000000000E+00  0.00000000000E+00  0.17827789446E+04  0.17827789446E+04  0.50400001928E-02 0.  1.
       -1   -1    0    0    0  501  0.00000000000E+00  0.00000000000E+00 -0.14737748496E+04  0.14737748496E+04  0.50400001928E-02 0. -1.
    10030    2    1    2    0    0  0.00000000000E+00  0.00000000000E+00  0.30900409494E+03  0.32565537942E+04  0.32418604356E+04 0.  0.
        1    1    3    3  502    0  0.56498617069E+03  0.67140395613E+03 -0.12145477635E+04  0.14983720884E+04  0.50400001928E-02 0. -1.
       -1    1    3    3    0  502 -0.56498617069E+03 -0.67140395613E+03  0.15235518584E+04  0.17581817058E+04  0.50400001928E-02 0.  1.
</event>
<event>
 5   0  0.1999849E-06  0.3350372E+04  0.7818609E-02  0.8150195E-01
       -1   -1    0    0    0  501  0.00000000000E+00  0.00000000000E+00  0.14364980455E+04  0.14364980455E+04  0.50400001928E-02 0.  1.
        1   -1    0    0  501    0  0.00000000000E+00  0.00000000000E+00 -0.19535347148E+04  0.19535347148E+04  0.50400001928E-02 0. -1.
    10030    2    1    2    0    0  0.00000000000E+00  0.00000000000E+00 -0.51703666925E+03  0.33900327603E+04  0.33503723970E+04 0.  0.
        5    1    3    3  502    0  0.78053703606E+03 -0.14386290003E+04 -0.61958311380E+03  0.17500847951E+04  0.46999998093E+01 0. -1.
       -5    1    3    3    0  502 -0.78053703606E+03  0.14386290003E+04  0.10254644455E+03  0.16399479652E+04  0.46999998093E+01 0.  1.
</event>
<event>
 5   0  0.5755250E-06  0.3232783E+04  0.7818609E-02  0.8180213E-01
        2   -1    0    0  501    0  0.00000000000E+00  0.00000000000E+00  0.19800354017E+04  0.19800354017E+04  0.25500000920E-02 0.  1.
       -2   -1    0    0    0  501  0.00000000000E+00  0.00000000000E+00 -0.13195323594E+04  0.13195323594E+04  0.25500000920E-02 0. -1.
    10030    2    1    2    0    0  0.00000000000E+00  0.00000000000E+00  0.66050304234E+03  0.32995677611E+04  0.32327825694E+04 0.  0.
        5    1    3    3  502    0  0.85346627652E+03  0.56525786027E+03 -0.94650140161E+03  0.13942051954E+04  0.46999998093E+01 0. -1.
       -5    1    3    3    0  502 -0.85346627652E+03 -0.56525786027E+03  0.16070044439E+04  0.19053625657E+04  0.46999998093E+01 0.  1.
</event>
<event>
 5   0  0.5300268E-06  0.3149865E+04  0.7818609E-02  0.8202185E-01
       -2   -1    0    0    0  501  0.00000000000E+00  0.00000000000E+00  0.11039575542E+04  0.11039575542E+04  0.25500000920E-02 0. -1.
        2   -1    0    0  501    0  0.00000000000E+00  0.00000000000E+00 -0.22468362027E+04  0.22468362027E+04  0.25500000920E-02 0.  1.
    10030    2    1    2    0    0  0.00000000000E+00  0.00000000000E+00 -0.11428786485E+04  0.33507937569E+04  0.31498646314E+04 0.  0.
        4    1    3    3  502    0  0.13863025119E+03  0.85666687385E+03  0.82667091812E+03  0.11985336454E+04  0.12699999809E+01 0. -1.
       -4    1    3    3    0  502 -0.13863025119E+03 -0.85666687385E+03 -0.19695495667E+04  0.21522601115E+04  0.12699999809E+01 0.  1.
</event>
<event>
 5   0  0.1999849E-06  0.3405737E+04  0.7818609E-02  0.8136500E-01
        1   -1    0    0  501    0  0.00000000000E+00  0.00000000000E+00  0.16169583895E+04  0.16169583895E+04  0.50400001928E-02 0. -1.
       -1   -1    0    0    0  501  0.00000000000E+00  0.00000000000E+00 -0.17933431799E+04  0.17933431799E+04  0.50400001928E-02 0.  1.
    10030    2    1    2    0    0  0.00000000000E+00  0.00000000000E+00 -0.17638479036E+03  0.34103015694E+04  0.34057371008E+04 0.  0.
        5    1    3    3  502    0  0.30583995885E+03 -0.16405418961E+04 -0.42750258127E+03  0.17227003048E+04  0.46999998093E+01 0.  1.
       -5    1    3    3    0  502 -0.30583995885E+03  0.16405418961E+04  0.25111779091E+03  0.16876012646E+04  0.46999998093E+01 0. -1.
</event>
<event>
 5   0  0.1878000E-06  0.2103773E+04  0.7818609E-02  0.8559583E-01
       -3   -1    0    0    0  501  0.00000000000E+00  0.00000000000E+00  0.48554415694E+03  0.48554416744E+03  0.10100000352E+00 0.  1.
        3   -1    0    0  501    0  0.00000000000E+00  0.00000000000E+00 -0.22788150543E+04  0.22788150565E+04  0.10100000352E+00 0. -1.
    10030    2    1    2    0    0  0.00000000000E+00  0.00000000000E+00 -0.17932708974E+04  0.27643592240E+04  0.21037731360E+04 0.  0.
        3    1    3    3  502    0 -0.18021186491E+03 -0.90484985558E+03 -0.23279098518E+03  0.95153624754E+03  0.10100000352E+00 0.  1.
       -3    1    3    3    0  502  0.18021186491E+03  0.90484985558E+03 -0.15604799122E+04  0.18128229764E+04  0.10100000352E+00 0. -1.
</event>
<event>
 5   0  0.5622811E-06  0.3254743E+04  0.7818609E-02  0.8174507E-01
       -2   -1    0    0    0  501  0.00000000000E+00  0.00000000000E+00  0.12264828216E+04  0.12264828216E+04  0.25500000920E-02 0.  1.
        2   -1    0    0  501    0  0.00000000000E+00  0.00000000000E+00 -0.21592949278E+04  0.21592949278E+04  0.25500000920E-02 0. -1.
    10030    2    1    2    0    0  0.00000000000E+00  0.00000000000E+00 -0.93281210622E+03  0.33857777494E+04  0.32547430840E+04 0.  0.
        1    1    3    3  502    0 -0.14739505478E+04  0.14942923163E+03  0.23411346320E+03  0.14998894714E+04  0.50400001928E-02 0.  1.
       -1    1    3    3    0  502  0.14739505478E+04 -0.14942923163E+03 -0.11669255694E+04  0.18858882780E+04  0.50400001928E-02 0. -1.
</event>
<event>
 5   0  0.5300268E-06  0.3261476E+04  0.7818609E-02  0.8172767E-01
       -2   -1    0    0    0  501  0.00000000000E+00  0.00000000000E+00  0.17770408950E+04  0.17770408950E+04  0.25500000920E-02 0.  1.
        2   -1    0    0  501    0  0.00000000000E+00  0.00000000000E+00 -0.14964805629E+04  0.14964805629E+04  0.25500000920E-02 0. -1.
    10030    2    1    2    0    0  0.00000000000E+00  0.00000000000E+00  0.28056033211E+03  0.32735214578E+04  0.32614764502E+04 0.  0.
        4    1    3    3  502    0 -0.57515868702E+03 -0.10324411482E+03  0.16683476993E+04  0.17677252392E+04  0.12699999809E+01 0.  1.
       -4    1    3    3    0  502  0.57515868702E+03  0.10324411482E+03 -0.13877873672E+04  0.15057962186E+04  0.12699999809E+01 0. -1.
</event>
<event>
 5   0  0.5300268E-06  0.3253821E+04  0.7818609E-02  0.8174746E-01
        2   -1    0    0  501    0  0.00000000000E+00  0.00000000000E+00  0.24787588312E+04  0.24787588312E+04  0.25500000920E-02 0. -1.
       -2   -1    0    0    0  501  0.00000000000E+00  0.00000000000E+00 -0.10678079355E+04  0.10678079355E+04  0.25500000920E-02 0.  1.
    10030    2    1    2    0    0  0.00000000000E+00  0.00000000000E+00  0.14109508957E+04  0.35465667667E+04  0.32538213535E+04 0.  0.
        4    1    3    3  502    0 -0.48022667424E+03 -0.10304252427E+03 -0.98506770732E+03  0.11007249526E+04  0.12699999809E+01 0.  1.
       -4    1    3    3    0  502  0.48022667424E+03  0.10304252427E+03  0.23960186030E+04  0.24458418140E+04  0.12699999809E+01 0. -1.
</event>
<event>
 5   0  0.2097842E-06  0.3192950E+04  0.7818609E-02  0.8190682E-01
        1   -1    0    0  501    0  0.00000000000E+00  0.00000000000E+00  0.93006357958E+03  0.93006357960E+03  0.50400001928E-02 0.  1.
       -1   -1    0    0    0  501  0.00000000000E+00  0.00000000000E+00 -0.27403853087E+04  0.27403853087E+04  0.50400001928E-02 0. -1.
    10030    2    1    2    0    0  0.00000000000E+00  0.00000000000E+00 -0.18103217291E+04  0.36704488883E+04  0.31929500902E+04 0.  0.
        4    1    3    3  502    0  0.10101687472E+03 -0.14513222855E+04 -0.14943463840E+03  0.14624886698E+04  0.12699999809E+01 0.  1.
       -4    1    3    3    0  502 -0.10101687472E+03  0.14513222855E+04 -0.16608870907E+04  0.22079602184E+04  0.12699999809E+01 0. -1.
</event>
<event>
 5   0  0.1999849E-06  0.3394423E+04  0.7818609E-02  0.8139276E-01
       -1   -1    0    0    0  501  0.00000000000E+00  0.00000000000E+00  0.19660557648E+04  0.19660557648E+04  0.50400001928E-02 0.  1.
        1   -1    0    0  501    0  0.00000000000E+00  0.00000000000E+00 -0.14651296476E+04  0.14651296476E+04  0.50400001928E-02 0. -1.
    10030    2    1    2    0    0  0.00000000000E+00  0.00000000000E+00  0.50092611721E+03  0.34311854124E+04  0.33944228316E+04 0.  0.
        5    1    3    3  502    0 -0.74073074906E+03  0.58139332551E+03 -0.11768508786E+04  0.15072160834E+04  0.46999998093E+01 0. -1.
       -5    1    3    3    0  502  0.74073074906E+03 -0.58139332551E+03  0.16777769958E+04  0.19239693291E+04  0.46999998093E+01 0.  1.
</event>
<event>
 5   0  0.2730981E-06  0.2581200E+04  0.7818609E-02  0.8374615E-01
        1   -1    0    0  501    0  0.00000000000E+00  0.00000000000E+00  0.23466611743E+04  0.23466611744E+04  0.50400001928E-02 0.  1.
       -1   -1    0    0    0  501  0.00000000000E+00  0.00000000000E+00 -0.70979510077E+03  0.70979510078E+03  0.50400001928E-02 0. -1.
    10030    2    1    2    0    0  0.00000000000E+00  0.00000000000E+00  0.16368660736E+04  0.30564562751E+04  0.25812001896E+04 0.  0.
        3    1    3    3  502    0  0.11819193395E+04 -0.50661998554E+03  0.94842494633E+03  0.15978444930E+04  0.10100000352E+00 0.  1.
       -3    1    3    3    0  502 -0.11819193395E+04  0.50661998554E+03  0.68844112725E+03  0.14586117821E+04  0.10100000352E+00 0. -1.
</event>
<event>
 5   0  0.5300268E-06  0.3279410E+04  0.7818609E-02  0.8168154E-01
        2   -1    0    0  501    0  0.00000000000E+00  0.00000000000E+00  0.17855193989E+04  0.17855193989E+04  0.25500000920E-02 0. -1.
       -2   -1    0    0    0  501  0.00000000000E+00  0.00000000000E+00 -0.15057985447E+04  0.15057985447E+04  0.25500000920E-02 0.  1.
    10030    2    1    2    0    0  0.00000000000E+00  0.00000000000E+00  0.27972085418E+03  0.32913179436E+04  0.32794100155E+04 0.  0.
        4    1    3    3  502    0 -0.12998946775E+04 -0.93946959315E+03  0.48212896778E+03  0.16747475163E+04  0.12699999809E+01 0. -1.
       -4    1    3    3    0  502  0.12998946775E+04  0.93946959315E+03 -0.20240811361E+03  0.16165704273E+04  0.12699999809E+01 0.  1.
</event>
<event>
 5   0  0.2097842E-06  0.3240479E+04  0.7818609E-02  0.8178208E-01
       -1   -1    0    0    0  501  0.00000000000E+00  0.00000000000E+00  0.10663865783E+04  0.10663865783E+04  0.50400001928E-02 0. -1.
        1   -1    0    0  501    0  0.00000000000E+00  0.00000000000E+00 -0.24617483606E+04  0.24617483606E+04  0.50400001928E-02 0.  1.
    10030    2    1    2    0    0  0.00000000000E+00  0.00000000000E+00 -0.13953617823E+04  0.35281349388E+04  0.32404786133E+04 0.  0.
        4    1    3    3  502    0 -0.58803673835E+03  0.15027722519E+04 -0.53966986635E+03  0.17015748071E+04  0.12699999809E+01 0. -1.
       -4    1    3    3    0  502  0.58803673835E+03 -0.15027722519E+04 -0.85569191595E+03  0.18265601317E+04  0.12699999809E+01 0.  1.
</event>
<event>
 5   0  0.5622811E-06  0.1661735E+04  0.7818609E-02  0.8783495E-01
       -2   -1    0    0    0  501  0.00000000000E+00  0.00000000000E+00  0.16873138491E+04  0.16873138491E+04  0.25500000920E-02 0.  1.
        2   -1    0    0  501    0  0.00000000000E+00  0.00000000000E+00 -0.40913577954E+03  0.40913577954E+03  0.25500000920E-02 0. -1.
    10030    2    1    2    0    0  0.00000000000E+00  0.00000000000E+00  0.12781780695E+04  0.20964496286E+04  0.16617345961E+04 0.  0.
        1    1    3    3  502    0 -0.93291012764E+02  0.68141156232E+03  0.50966041758E+02  0.68965387533E+03  0.50400001928E-02 0. -1.
       -1    1    3    3    0  502  0.93291012764E+02 -0.68141156232E+03  0.12272120278E+04  0.14067957533E+04  0.50400001928E-02 0.  1.
</event>
<event>
 5   0  0.1999849E-06  0.1710623E+04  0.7818609E-02  0.8755329E-01
        1   -1    0    0  501    0  0.00000000000E+00  0.00000000000E+00  0.13501637340E+04  0.13501637340E+04  0.50400001928E-02 0.  1.
       -1   -1    0    0    0  501  0.00000000000E+00  0.00000000000E+00 -0.54182866390E+03  0.54182866392E+03  0.50400001928E-02 0. -1.
    10030    2    1    2    0    0  0.00000000000E+00  0.00000000000E+00  0.80833507008E+03  0.18919923979E+04  0.17106225908E+04 0.  0.
        5    1    3    3  502    0  0.16106918823E+03  0.35619624762E+03 -0.43722379147E+03  0.58652006278E+03  0.46999998093E+01 0. -1.
       -5    1    3    3    0  502 -0.16106918823E+03 -0.35619624762E+03  0.12455588616E+04  0.13054723351E+04  0.46999998093E+01 0.  1.
</event>
<event>
 5   0  0.5855568E-06  0.3277495E+04  0.7818609E-02  0.8168646E-01
        2   -1    0    0  501    0  0.00000000000E+00  0.00000000000E+00  0.17839666417E+04  0.17839666417E+04  0.25500000920E-02 0.  1.
       -2   -1    0    0    0  501  0.00000000000E+00  0.00000000000E+00 -0.15053492542E+04  0.15053492542E+04  0.25500000920E-02 0. -1.
    10030    2    1    2    0    0  0.00000000000E+00  0.00000000000E+00  0.27861738754E+03  0.32893158959E+04  0.32774946856E+04 0.  0.
        3    1    3    3  502    0 -0.54503491386E+03 -0.44241422555E+03  0.16254261667E+04  0.17705376691E+04  0.10100000352E+00 0.  1.
       -3    1    3    3    0  502  0.54503491386E+03  0.44241422555E+03 -0.13468087791E+04  0.15187782267E+04  0.10100000352E+00 0. -1.
</event>
<event>
 5   0  0.5622811E-06  0.3314238E+04  0.7818609E-02  0.8159282E-01
        2   -1    0    0  501    0  0.00000000000E+00  0.00000000000E+00  0.23550132361E+04  0.23550132361E+04  0.25500000920E-02 0. -1.
       -2   -1    0    0    0  501  0.00000000000E+00  0.00000000000E+00 -0.11660419076E+04  0.11660419076E+04  0.25500000920E-02 0.  1.
    10030    2    1    2    0    0  0.00000000000E+00  0.00000000000E+00  0.11889713286E+04  0.35210551437E+04  0.33142384502E+04 0.  0.
        1    1    3    3  502    0 -0.12137106350E+04 -0.15071902544E+03  0.17823991062E+04  0.21616559171E+04  0.50400001928E-02 0. -1.
       -1    1    3    3    0  502  0.12137106350E+04  0.15071902544E+03 -0.59342777761E+03  0.13593992267E+04  0.50400001928E-02 0.  1.
</event>
<event>
 5   0  0.1999849E-06  0.3187190E+04  0.7818609E-02  0.8192209E-01
       -1   -1    0    0    0  501  0.00000000000E+00  0.00000000000E+00  0.22812780862E+04  0.22812780862E+04  0.50400001928E-02 0.  1.
        1   -1    0    0  501    0  0.00000000000E+00  0.00000000000E+00 -0.11132113657E+04  0.11132113657E+04  0.50400001928E-02 0. -1.
    10030    2    1    2    0    0  0.00000000000E+00  0.00000000000E+00  0.11680667206E+04  0.33944894519E+04  0.31871897928E+04 0.  0.
        5    1    3    3  502    0 -0.78304091543E+03 -0.39201580567E+03  0.20020565045E+04  0.21851960562E+04  0.46999998093E+01 0.  1.
       -5    1    3    3    0  502  0.78304091543E+03  0.39201580567E+03 -0.83398978390E+03  0.12092933957E+04  0.46999998093E+01 0. -1.
</event>
<event>
 5   0  0.2037109E-06  0.3284911E+04  0.7818609E-02  0.8166745E-01
       -1   -1    0    0    0  501  0.00000000000E+00  0.00000000000E+00  0.15054022287E+04  0.15054022287E+04  0.50400001928E-02 0.  1.
        1   -1    0    0  501    0  0.00000000000E+00  0.00000000000E+00 -0.17919862346E+04  0.17919862347E+04  0.50400001928E-02 0. -1.
    10030    2    1    2    0    0  0.00000000000E+00  0.00000000000E+00 -0.28658400593E+03  0.32973884634E+04  0.32849110012E+04 0.  0.
        2    1    3    3  502    0  0.14996277116E+04 -0.19809157357E+03  0.49908920513E+03  0.15928633273E+04  0.25500000920E-02 0.  1.
       -2    1    3    3    0  502 -0.14996277116E+04  0.19809157357E+03 -0.78567321106E+03  0.17045251361E+04  0.25500000920E-02 0. -1.
</event>
<event>
 5   0  0.5637538E-06  0.3252438E+04  0.7818609E-02  0.8175104E-01
       -2   -1    0    0    0  501  0.00000000000E+00  0.00000000000E+00  0.11165122223E+04  0.11165122223E+04  0.25500000920E-02 0. -1.
        2   -1    0    0  501    0  0.00000000000E+00  0.00000000000E+00 -0.23686148619E+04  0.23686148619E+04  0.25500000920E-02 0.  1.
    10030    2    1    2    0    0  0.00000000000E+00  0.00000000000E+00 -0.12521026396E+04  0.34851270843E+04  0.32524375126E+04 0.  0.
        2    1    3    3  502    0  0.12846861123E+04  0.93591974207E+03 -0.25761609391E+03  0.16101957094E+04  0.25500000920E-02 0. -1.
       -2    1    3    3    0  502 -0.12846861123E+04 -0.93591974207E+03 -0.99448654569E+03  0.18749313748E+04  0.25500000920E-02 0.  1.
</event>
<event>
 5   0  0.5637538E-06  0.3270950E+04  0.7818609E-02  0.8170327E-01
        2   -1    0    0  501    0  0.00000000000E+00  0.00000000000E+00  0.20544749470E+04  0.20544749470E+04  0.25500000920E-02 0.  1.
       -2   -1    0    0    0  501  0.00000000000E+00  0.00000000000E+00 -0.13019283846E+04  0.13019283846E+04  0.25500000920E-02 0. -1.
    10030    2    1    2    0    0  0.00000000000E+00  0.00000000000E+00  0.75254656242E+03  0.33564033316E+04  0.32709504728E+04 0.  0.
        2    1    3    3  502    0 -0.23324925946E+02 -0.11576357781E+04  0.15614872026E+04  0.19439410821E+04  0.25500000920E-02 0.  1.
       -2    1    3    3    0  502  0.23324925946E+02  0.11576357781E+04 -0.80894064017E+03  0.14124622495E+04  0.25500000920E-02 0. -1.
</event>
<event>
 5   0  0.2730981E-06  0.2679461E+04  0.7818609E-02  0.8341700E-01
        1   -1    0    0  501    0  0.00000000000E+00  0.00000000000E+00  0.21092781606E+04  0.21092781606E+04  0.50400001928E-02 0. -1.
       -1   -1    0    0    0  501  0.00000000000E+00  0.00000000000E+00 -0.85094437232E+03  0.85094437233E+03  0.50400001928E-02 0.  1.
    10030    2    1    2    0    0  0.00000000000E+00  0.00000000000E+00  0.12583337883E+04  0.29602225330E+04  0.26794614238E+04 0.  0.
        3    1    3    3  502    0 -0.75123987968E+03  0.80331258406E+03 -0.21597805698E+03  0.11208563672E+04  0.10100000352E+00 0.  1.
       -3    1    3    3    0  502  0.75123987968E+03 -0.80331258406E+03  0.14743118453E+04  0.18393661658E+04  0.10100000352E+00 0. -1.
</event>
<event>
 5   0  0.2037109E-06  0.1879606E+04  0.7818609E-02  0.8665075E-01
        1   -1    0    0  501    0  0.00000000000E+00  0.00000000000E+00  0.65836792308E+03  0.65836792310E+03  0.50400001928E-02 0. -1.
       -1   -1    0    0    0  501  0.00000000000E+00  0.00000000000E+00 -0.13415446939E+04  0.13415446940E+04  0.50400001928E-02 0.  1.
    10030    2    1    2    0    0  0.00000000000E+00  0.00000000000E+00 -0.68317677086E+03  0.19999126171E+04  0.18796063353E+04 0.  0.
        2    1    3    3  502    0 -0.50099697749E+03 -0.53903428512E+03 -0.96353072854E+03  0.12124138719E+04  0.25500000920E-02 0.  1.
       -2    1    3    3    0  502  0.50099697749E+03  0.53903428512E+03  0.28035395768E+03  0.78749874513E+03  0.25500000920E-02 0. -1.
</event>
<event>
 5   0  0.5622811E-06  0.3300127E+04  0.7818609E-02  0.8162863E-01
       -2   -1    0    0    0  501  0.00000000000E+00  0.00000000000E+00  0.15145914688E+04  0.15145914688E+04  0.25500000920E-02 0. -1.
        2   -1    0    0  501    0  0.00000000000E+00  0.00000000000E+00 -0.17976523581E+04  0.17976523581E+04  0.25500000920E-02 0.  1.
    10030    2    1    2    0    0  0.00000000000E+00  0.00000000000E+00 -0.28306088927E+03  0.33122438269E+04  0.33001266191E+04 0.  0.
        1    1    3    3  502    0 -0.16980622289E+03  0.15916695317E+04 -0.54357943844E+03  0.16904805995E+04  0.50400001928E-02 0.  1.
       -1    1    3    3    0  502  0.16980622289E+03 -0.15916695317E+04  0.26051854917E+03  0.16217632274E+04  0.50400001928E-02 0. -1.
</event>
<event>
 5   0  0.2097842E-06  0.2843816E+04  0.7818609E-02  0.8289793E-01
       -1   -1    0    0    0  501  0.00000000000E+00  0.00000000000E+00  0.19362658312E+04  0.19362658312E+04  0.50400001928E-02 0. -1.
        1   -1    0    0  501    0  0.00000000000E+00  0.00000000000E+00 -0.10441862613E+04  0.10441862613E+04  0.50400001928E-02 0.  1.
    10030    2    1    2    0    0  0.00000000000E+00  0.00000000000E+00  0.89207956991E+03  0.29804520925E+04  0.28438158725E+04 0.  0.
        4    1    3    3  502    0 -0.31830364671E+03 -0.11191791448E+04 -0.41050455906E+03  0.12338536281E+04  0.12699999809E+01 0.  1.
       -4    1    3    3    0  502  0.31830364671E+03  0.11191791448E+04  0.13025841290E+04  0.17465984643E+04  0.12699999809E+01 0. -1.
</event>
<event>
 5   0  0.5622811E-06  0.3293410E+04  0.7818609E-02  0.8164574E-01
       -2   -1    0    0    0  501  0.00000000000E+00  0.00000000000E+00  0.20670245925E+04  0.20670245925E+04  0.25500000920E-02 0.  1.
        2   -1    0    0  501    0  0.00000000000E+00  0.00000000000E+00 -0.13118555924E+04  0.13118555924E+04  0.25500000920E-02 0. -1.
    10030    2    1    2    0    0  0.00000000000E+00  0.00000000000E+00  0.75516900011E+03  0.33788801850E+04  0.32934102517E+04 0.  0.
        1    1    3    3  502    0 -0.45996630357E+03 -0.12461510642E+04  0.13760713957E+04  0.19125987454E+04  0.50400001928E-02 0.  1.
       -1    1    3    3    0  502  0.45996630357E+03  0.12461510642E+04 -0.62090239555E+03  0.14662814395E+04  0.50400001928E-02 0. -1.
</event>
<event>
 5   0  0.1925906E-06  0.2291832E+04  0.7818609E-02  0.8481149E-01
       -1   -1    0    0    0  501  0.00000000000E+00  0.00000000000E+00  0.14216227976E+04  0.14216227976E+04  0.50400001928E-02 0.  1.
        1   -1    0    0  501    0  0.00000000000E+00  0.00000000000E+00 -0.92367905631E+03  0.92367905632E+03  0.50400001928E-02 0. -1.
    10030    2    1    2    0    0  0.00000000000E+00  0.00000000000E+00  0.49794374133E+03  0.23453018540E+04  0.22918317601E+04 0.  0.
        1    1    3    3  502    0 -0.58721893622E+03  0.48163752750E+03 -0.62914035685E+03  0.98621416315E+03  0.50400001928E-02 0. -1.
       -1    1    3    3    0  502  0.58721893622E+03 -0.48163752750E+03  0.11270840982E+04  0.13590876908E+04  0.50400001928E-02 0.  1.
</event>
<event>
 5   0  0.5300268E-06  0.3286491E+04  0.7818609E-02  0.8166341E-01
        2   -1    0    0  501    0  0.00000000000E+00  0.00000000000E+00  0.22122563688E+04  0.22122563688E+04  0.25500000920E-02 0. -1.
       -2   -1    0    0    0  501  0.00000000000E+00  0.00000000000E+00 -0.12205888167E+04  0.12205888167E+04  0.25500000920E-02 0.  1.
    10030    2    1    2    0    0  0.00000000000E+00  0.00000000000E+00  0.99166755212E+03  0.34328451855E+04  0.32864907627E+04 0.  0.
        4    1    3    3  502    0 -0.24326626387E+02  0.29215066162E+03  0.21847198016E+04  0.22043017077E+04  0.12699999809E+01 0. -1.
       -4    1    3    3    0  502  0.24326626387E+02 -0.29215066162E+03 -0.11930522495E+04  0.12285434778E+04  0.12699999809E+01 0.  1.
</event>
<event>
 5   0  0.1878000E-06  0.2179783E+04  0.7818609E-02  0.8526890E-01
       -3   -1    0    0    0  501  0.00000000000E+00  0.00000000000E+00  0.10848488631E+04  0.10848488678E+04  0.10100000352E+00 0.  1.
        3   -1    0    0  501    0  0.00000000000E+00  0.00000000000E+00 -0.10949574600E+04  0.10949574647E+04  0.10100000352E+00 0. -1.
    10030    2    1    2    0    0  0.00000000000E+00  0.00000000000E+00 -0.10108596876E+02  0.21798063325E+04  0.21797828936E+04 0.  0.
        1    1    3    3  502    0  0.42025327656E+02 -0.99957687962E+03 -0.43742834918E+03  0.10919082503E+04  0.50400001928E-02 0. -1.
       -1    1    3    3    0  502 -0.42025327656E+02  0.99957687962E+03  0.42731975230E+03  0.10878980822E+04  0.50400001928E-02 0.  1.
</event>
<event>
 5   0  0.5855568E-06  0.3203233E+04  0.7818609E-02  0.8187964E-01
       -2   -1    0    0    0  501  0.00000000000E+00  0.00000000000E+00  0.93873934470E+03  0.93873934471E+03  0.25500000920E-02 0. -1.
        2   -1    0    0  501    0  0.00000000000E+00  0.00000000000E+00 -0.27325743275E+04  0.27325743275E+04  0.25500000920E-02 0.  1.
    10030    2    1    2    0    0  0.00000000000E+00  0.00000000000E+00 -0.17938349828E+04  0.36713136722E+04  0.32032327631E+04 0.  0.
        3    1    3    3  502    0  0.61472521280E+03 -0.13189549064E+04 -0.13008537265E+03  0.14609761623E+04  0.10100000352E+00 0. -1.
       -3    1    3    3    0  502 -0.61472521280E+03  0.13189549064E+04 -0.16637496102E+04  0.22103375100E+04  0.10100000352E+00 0.  1.
</event>
<event>
 5   0  0.5637538E-06  0.3509233E+04  0.7818609E-02  0.8111605E-01
        2   -1    0    0  501    0  0.00000000000E+00  0.00000000000E+00  0.28815245414E+04  0.28815245414E+04  0.25500000920E-02 0.  1.
       -2   -1    0    0    0  501  0.00000000000E+00  0.00000000000E+00 -0.10684199777E+04  0.10684199777E+04  0.25500000920E-02 0. -1.
    10030    2    1    2    0    0  0.00000000000E+00  0.00000000000E+00  0.18131045637E+04  0.39499445191E+04  0.35092326149E+04 0.  0.
        2    1    3    3  502    0  0.22059161356E+02  0.11544301295E+04 -0.58053559208E+03  0.12923687957E+04  0.25500000920E-02 0. -1.
       -2    1    3    3    0  502 -0.22059161356E+02 -0.11544301295E+04  0.23936401557E+04  0.26575757234E+04  0.25500000920E-02 0.  1.
</event>
<event>
 5   0  0.5622811E-06  0.3555572E+04  0.7818609E-02  0.8100745E-01
        2   -1    0    0  501    0  0.00000000000E+00  0.00000000000E+00  0.14532680161E+04  0.14532680161E+04  0.25500000920E-02 0.  1.
       -2   -1    0    0    0  501  0.00000000000E+00  0.00000000000E+00 -0.21747696551E+04  0.21747696551E+04  0.25500000920E-02 0. -1.
    10030    2    1    2    0    0  0.00000000000E+00  0.00000000000E+00 -0.72150163899E+03  0.36280376713E+04  0.35555720678E+04 0.  0.
        1    1    3    3  502    0  0.95947626536E+03  0.14481605600E+04  0.24785029273E+02  0.17373479816E+04  0.50400001928E-02 0.  1.
       -1    1    3    3    0  502 -0.95947626536E+03 -0.14481605600E+04 -0.74628666826E+03  0.18906896897E+04  0.50400001928E-02 0. -1.
</event>
<event>
 5   0  0.2037109E-06  0.1968757E+04  0.7818609E-02  0.8621369E-01
        1   -1    0    0  501    0  0.00000000000E+00  0.00000000000E+00  0.67329622933E+03  0.67329622935E+03  0.50400001928E-02 0. -1.
       -1   -1    0    0    0  501  0.00000000000E+00  0.00000000000E+00 -0.14391902106E+04  0.14391902106E+04  0.50400001928E-02 0.  1.
    10030    2    1    2    0    0  0.00000000000E+00  0.00000000000E+00 -0.76589398129E+03  0.21124864400E+04  0.19687573158E+04 0.  0.
        2    1    3    3  502    0  0.78962649650E+03  0.20728013984E+03 -0.97312537587E+03  0.12702157524E+04  0.25500000920E-02 0.  1.
       -2    1    3    3    0  502 -0.78962649650E+03 -0.20728013984E+03  0.20723139458E+03  0.84227068764E+03  0.25500000920E-02 0. -1.
</event>
<event>
 5   0  0.5637538E-06  0.3313548E+04  0.7818609E-02  0.8159457E-01
       -2   -1    0    0    0  501  0.00000000000E+00  0.00000000000E+00  0.11850811533E+04  0.11850811533E+04  0.25500000920E-02 0. -1.
        2   -1    0    0  501    0  0.00000000000E+00  0.00000000000E+00 -0.23162129714E+04  0.23162129714E+04  0.25500000920E-02 0.  1.
    10030    2    1    2    0    0  0.00000000000E+00  0.00000000000E+00 -0.11311318181E+04  0.35012941248E+04  0.33135481524E+04 0.  0.
        2    1    3    3  502    0 -0.26581731395E+03  0.15851709228E+04 -0.99017322473E+03  0.18878211551E+04  0.25500000920E-02 0.  1.
       -2    1    3    3    0  502  0.26581731395E+03 -0.15851709228E+04 -0.14095859338E+03  0.16134729696E+04  0.25500000920E-02 0. -1.
</event>
<event>
 5   0  0.1999849E-06  0.3239803E+04  0.7818609E-02  0.8178384E-01
       -1   -1    0    0    0  501  0.00000000000E+00  0.00000000000E+00  0.12069202532E+04  0.12069202532E+04  0.50400001928E-02 0. -1.
        1   -1    0    0  501    0  0.00000000000E+00  0.00000000000E+00 -0.21741955499E+04  0.21741955499E+04  0.50400001928E-02 0.  1.
    10030    2    1    2    0    0  0.00000000000E+00  0.00000000000E+00 -0.96727529668E+03  0.33811158032E+04  0.32398028605E+04 0.  0.
        5    1    3    3  502    0  0.11399041339E+04  0.99402282925E+03 -0.10891120196E+04  0.18637730282E+04  0.46999998093E+01 0.  1.
       -5    1    3    3    0  502 -0.11399041339E+04 -0.99402282925E+03  0.12183672290E+03  0.15173427749E+04  0.46999998093E+01 0. -1.
</event>
<event>
 5   0  0.2097842E-06  0.3101592E+04  0.7818609E-02  0.8215301E-01
       -1   -1    0    0    0  501  0.00000000000E+00  0.00000000000E+00  0.91431401885E+03  0.91431401886E+03  0.50400001928E-02 0. -1.
        1   -1    0    0  501    0  0.00000000000E+00  0.00000000000E+00 -0.26303530072E+04  0.26303530072E+04  0.50400001928E-02 0.  1.
    10030    2    1    2    0    0  0.00000000000E+00  0.00000000000E+00 -0.17160389883E+04  0.35446670260E+04  0.31015922549E+04 0.  0.
        4    1    3    3  502    0 -0.72762153592E+02 -0.11649666811E+04  0.30888159963E+03  0.12074150714E+04  0.12699999809E+01 0. -1.
       -4    1    3    3    0  502  0.72762153592E+02  0.11649666811E+04 -0.20249205879E+04  0.23372519546E+04  0.12699999809E+01 0.  1.
</event>
<event>
 5   0  0.2037109E-06  0.1639515E+04  0.7818609E-02  0.8796634E-01
        1   -1    0    0  501    0  0.00000000000E+00  0.00000000000E+00  0.94706825585E+03  0.94706825587E+03  0.50400001928E-02 0.  1.
       -1   -1    0    0    0  501  0.00000000000E+00  0.00000000000E+00 -0.70956057840E+03  0.70956057842E+03  0.50400001928E-02 0. -1.
    10030    2    1    2    0    0  0.00000000000E+00  0.00000000000E+00  0.23750767746E+03  0.16566288343E+04  0.16395149276E+04 0.  0.
        2    1    3    3  502    0 -0.38795216781E+03 -0.46138753436E+03  0.68008575238E+03  0.90879148982E+03  0.25500000920E-02 0.  1.
       -2    1    3    3    0  502  0.38795216781E+03  0.46138753436E+03 -0.44257807492E+03  0.74783734447E+03  0.25500000920E-02 0. -1.
</event>
<event>
 5   0  0.1999849E-06  0.2275676E+04  0.7818609E-02  0.8487574E-01
        1   -1    0    0  501    0  0.00000000000E+00  0.00000000000E+00  0.11223701999E+04  0.11223701999E+04  0.50400001928E-02 0.  1.
       -1   -1    0    0    0  501  0.00000000000E+00  0.00000000000E+00 -0.11535187032E+04  0.11535187032E+04  0.50400001928E-02 0. -1.
    10030    2    1    2    0    0  0.00000000000E+00  0.00000000000E+00 -0.31148503257E+02  0.22758889031E+04  0.22756757392E+04 0.  0.
        5    1    3    3  502    0  0.39699152935E+02  0.61618245503E+03  0.94023284795E+03  0.11248629868E+04  0.46999998093E+01 0.  1.
       -5    1    3    3    0  502 -0.39699152935E+02 -0.61618245503E+03 -0.97138135121E+03  0.11510259164E+04  0.46999998093E+01 0. -1.
</event>
<event>
 5   0  0.5622811E-06  0.3140170E+04  0.7818609E-02  0.8204799E-01
       -2   -1    0    0    0  501  0.00000000000E+00  0.00000000000E+00  0.11346378891E+04  0.11346378891E+04  0.25500000920E-02 0. -1.
        2   -1    0    0  501    0  0.00000000000E+00  0.00000000000E+00 -0.21726467899E+04  0.21726467899E+04  0.25500000920E-02 0.  1.
    10030    2    1    2    0    0  0.00000000000E+00  0.00000000000E+00 -0.10380089008E+04  0.33072846790E+04  0.31401702932E+04 0.  0.
        1    1    3    3  502    0  0.21839585041E+03  0.10055056292E+04  0.73003826931E+03  0.12616236334E+04  0.50400001928E-02 0. -1.
       -1    1    3    3    0  502 -0.21839585041E+03 -0.10055056292E+04 -0.17680471701E+04  0.20456610456E+04  0.50400001928E-02 0.  1.
</event>
<event>
 5   0  0.5300268E-06  0.2468481E+04  0.7818609E-02  0.8414301E-01
       -2   -1    0    0    0  501  0.00000000000E+00  0.00000000000E+00  0.64678138605E+03  0.64678138606E+03  0.25500000920E-02 0.  1.
        2   -1    0    0  501    0  0.00000000000E+00  0.00000000000E+00 -0.23552778394E+04  0.23552778394E+04  0.25500000920E-02 0. -1.
    10030    2    1    2    0    0  0.00000000000E+00  0.00000000000E+00 -0.17084964533E+04  0.30020592254E+04  0.24684812055E+04 0.  0.
        4    1    3    3  502    0  0.86527348757E+03  0.87025319166E+03 -0.69424425121E+03  0.14099700419E+04  0.12699999809E+01 0. -1.
       -4    1    3    3    0  502 -0.86527348757E+03 -0.87025319166E+03 -0.10142522021E+04  0.15920891835E+04  0.12699999809E+01 0.  1.
</event>
<event>
 5   0  0.5855568E-06  0.3402540E+04  0.7818609E-02  0.8137283E-01
        2   -1    0    0  501    0  0.00000000000E+00  0.00000000000E+00  0.26403887567E+04  0.26403887567E+04  0.25500000920E-02 0. -1.
       -2   -1    0    0    0  501  0.00000000000E+00  0.00000000000E+00 -0.10961717116E+04  0.10961717116E+04  0.25500000920E-02 0.  1.
    10030    2    1    2    0    0  0.00000000000E+00  0.00000000000E+00  0.15442170451E+04  0.37365604684E+04  0.34025399118E+04 0.  0.
        3    1    3    3  502    0 -0.14017227552E+04  0.65034678571E+03  0.15536939320E+04  0.21912878562E+04  0.10100000352E+00 0. -1.
       -3    1    3    3    0  502  0.14017227552E+04 -0.65034678571E+03 -0.94768869276E+01  0.15452726121E+04  0.10100000352E+00 0.  1.
</event>
<event>
 5   0  0.2037109E-06  0.3303417E+04  0.7818609E-02  0.8162027E-01
       -1   -1    0    0    0  501  0.00000000000E+00  0.00000000000E+00  0.21093293635E+04  0.21093293635E+04  0.50400001928E-02 0. -1.
        1   -1    0    0  501    0  0.00000000000E+00  0.00000000000E+00 -0.12933687493E+04  0.12933687493E+04  0.50400001928E-02 0.  1.
    10030    2    1    2    0    0  0.00000000000E+00  0.00000000000E+00  0.81596061424E+03  0.34026981128E+04  0.33034168255E+04 0.  0.
        2    1    3    3  502    0 -0.16235118753E+04 -0.19292408283E+03  0.16612550885E+03  0.16433527302E+04  0.25500000920E-02 0.  1.
       -2    1    3    3    0  502  0.16235118753E+04  0.19292408283E+03  0.64983510539E+03  0.17593453826E+04  0.25500000920E-02 0. -1.
</event>
<event>
 5   0  0.2037109E-06  0.2939205E+04  0.7818609E-02  0.8261308E-01
        1   -1    0    0  501    0  0.00000000000E+00  0.00000000000E+00  0.24715790257E+04  0.24715790257E+04  0.50400001928E-02 0.  1.
       -1   -1    0    0    0  501  0.00000000000E+00  0.00000000000E+00 -0.87382650909E+03  0.87382650911E+03  0.50400001928E-02 0. -1.
    10030    2    1    2    0    0  0.00000000000E+00  0.00000000000E+00  0.15977525166E+04  0.33454055348E+04  0.29392048394E+04 0.  0.
        2    1    3    3  502    0 -0.78828755687E+03 -0.44020450370E+03 -0.52092348852E+03  0.10423716028E+04  0.25500000920E-02 0. -1.
       -2    1    3    3    0  502  0.78828755687E+03  0.44020450370E+03  0.21186760052E+04  0.23030339321E+04  0.25500000920E-02 0.  1.
</event>
<event>
 5   0  0.1878000E-06  0.3284244E+04  0.7818609E-02  0.8166916E-01
        3   -1    0    0  501    0  0.00000000000E+00  0.00000000000E+00  0.19324897450E+04  0.19324897476E+04  0.10100000352E+00 0.  1.
       -3   -1    0    0    0  501  0.00000000000E+00  0.00000000000E+00 -0.13953837616E+04  0.13953837652E+04  0.10100000352E+00 0. -1.
    10030    2    1    2    0    0  0.00000000000E+00  0.00000000000E+00  0.53710598340E+03  0.33278735128E+04  0.32842440956E+04 0.  0.
        5    1    3    3  502    0  0.10852816544E+04 -0.97236430282E+03  0.10357198348E+04  0.17877545338E+04  0.46999998093E+01 0.  1.
       -5    1    3    3    0  502 -0.10852816544E+04  0.97236430282E+03 -0.49861385141E+03  0.15401189790E+04  0.46999998093E+01 0. -1.
</event>
<event>
 5   0  0.1878000E-06  0.2099407E+04  0.7818609E-02  0.8561505E-01
        3   -1    0    0  501    0  0.00000000000E+00  0.00000000000E+00  0.13302013133E+04  0.13302013171E+04  0.10100000352E+00 0.  1.
       -3   -1    0    0    0  501  0.00000000000E+00  0.00000000000E+00 -0.82835381826E+03  0.82835382442E+03  0.10100000352E+00 0. -1.
    10030    2    1    2    0    0  0.00000000000E+00  0.00000000000E+00  0.50184749505E+03  0.21585551416E+04  0.20994069141E+04 0.  0.
        1    1    3    3  502    0 -0.10180207743E+04 -0.25358609155E+03  0.28661700273E+03  0.10875759785E+04  0.50400001928E-02 0.  1.
       -1    1    3    3    0  502  0.10180207743E+04  0.25358609155E+03  0.21523049232E+03  0.10709791630E+04  0.50400001928E-02 0. -1.
</event>
<event>
 5   0  0.2097842E-06  0.3290916E+04  0.7818609E-02  0.8165211E-01
        1   -1    0    0  501    0  0.00000000000E+00  0.00000000000E+00  0.19110397975E+04  0.19110397975E+04  0.50400001928E-02 0.  1.
       -1   -1    0    0    0  501  0.00000000000E+00  0.00000000000E+00 -0.14167844047E+04  0.14167844047E+04  0.50400001928E-02 0. -1.
    10030    2    1    2    0    0  0.00000000000E+00  0.00000000000E+00  0.49425539282E+03  0.33278242023E+04  0.32909156063E+04 0.  0.
        4    1    3    3  502    0  0.12800392826E+04 -0.79397726978E+03  0.91684643362E+03  0.17633801251E+04  0.12699999809E+01 0.  1.
       -4    1    3    3    0  502 -0.12800392826E+04  0.79397726978E+03 -0.42259104080E+03  0.15644440771E+04  0.12699999809E+01 0. -1.
</event>
<event>
 5   0  0.1925906E-06  0.2114948E+04  0.7818609E-02  0.8554687E-01
        1   -1    0    0  501    0  0.00000000000E+00  0.00000000000E+00  0.16347581477E+04  0.16347581478E+04  0.50400001928E-02 0.  1.
       -1   -1    0    0    0  501  0.00000000000E+00  0.00000000000E+00 -0.68404703664E+03  0.68404703666E+03  0.50400001928E-02 0. -1.
    10030    2    1    2    0    0  0.00000000000E+00  0.00000000000E+00  0.95071111110E+03  0.23188051844E+04  0.21149481947E+04 0.  0.
        1    1    3    3  502    0 -0.72667420448E+03 -0.75030746899E+03  0.29441897533E+03  0.10852185174E+04  0.50400001928E-02 0.  1.
       -1    1    3    3    0  502  0.72667420448E+03  0.75030746899E+03  0.65629213577E+03  0.12335866670E+04  0.50400001928E-02 0. -1.
</event>
<event>
 5   0  0.5300268E-06  0.3256447E+04  0.7818609E-02  0.8174067E-01
       -2   -1    0    0    0  501  0.00000000000E+00  0.00000000000E+00  0.12665336602E+04  0.12665336602E+04  0.25500000920E-02 0.  1.
        2   -1    0    0  501    0  0.00000000000E+00  0.00000000000E+00 -0.20932029619E+04  0.20932029619E+04  0.25500000920E-02 0. -1.
    10030    2    1    2    0    0  0.00000000000E+00  0.00000000000E+00 -0.82666930175E+03  0.33597366221E+04  0.32564471492E+04 0.  0.
        4    1    3    3  502    0 -0.30936314413E+03 -0.97774074468E+03  0.89146409266E+03  0.13588202089E+04  0.12699999809E+01 0.  1.
       -4    1    3    3    0  502  0.30936314413E+03  0.97774074468E+03 -0.17181333944E+04  0.20009164132E+04  0.12699999809E+01 0. -1.
</event>
<event>
 5   0  0.5755250E-06  0.3235496E+04  0.7818609E-02  0.8179505E-01
       -2   -1    0    0    0  501  0.00000000000E+00  0.00000000000E+00  0.13372268105E+04  0.13372268105E+04  0.25500000920E-02 0.  1.
        2   -1    0    0  501    0  0.00000000000E+00  0.00000000000E+00 -0.19571167817E+04  0.19571167817E+04  0.25500000920E-02 0. -1.
    10030    2    1    2    0    0  0.00000000000E+00  0.00000000000E+00 -0.61988997125E+03  0.32943435922E+04  0.32354962722E+04 0.  0.
        5    1    3    3  502    0 -0.29314044032E+02  0.15766758449E+04 -0.67751073753E+03  0.17163359003E+04  0.46999998093E+01 0. -1.
       -5    1    3    3    0  502  0.29314044032E+02 -0.15766758449E+04  0.57620766283E+02  0.15780076920E+04  0.46999998093E+01 0.  1.
</event>
<event>
 5   0  0.1999849E-06  0.2399953E+04  0.7818609E-02  0.8439521E-01
       -1   -1    0    0    0  501  0.00000000000E+00  0.00000000000E+00  0.91044740927E+03  0.91044740928E+03  0.50400001928E-02 0. -1.
        1   -1    0    0  501    0  0.00000000000E+00  0.00000000000E+00 -0.15815784375E+04  0.15815784376E+04  0.50400001928E-02 0.  1.
    10030    2    1    2    0    0  0.00000000000E+00  0.00000000000E+00 -0.67113102828E+03  0.24920258468E+04  0.23999533254E+04 0.  0.
        5    1    3    3  502    0  0.10791164241E+04  0.51139958678E+03 -0.45798732987E+03  0.12789825169E+04  0.46999998093E+01 0.  1.
       -5    1    3    3    0  502 -0.10791164241E+04 -0.51139958678E+03 -0.21314369841E+03  0.12130433300E+04  0.46999998093E+01 0. -1.
</event>
<event>
 5   0  0.5622811E-06  0.3303341E+04  0.7818609E-02  0.8162046E-01
        2   -1    0    0  501    0  0.00000000000E+00  0.00000000000E+00  0.15270982859E+04  0.15270982859E+04  0.25500000920E-02 0. -1.
       -2   -1    0    0    0  501  0.00000000000E+00  0.00000000000E+00 -0.17864045792E+04  0.17864045792E+04  0.25500000920E-02 0.  1.
    10030    2    1    2    0    0  0.00000000000E+00  0.00000000000E+00 -0.25930629329E+03  0.33135028651E+04  0.33033409577E+04 0.  0.
        1    1    3    3  502    0  0.79462891103E+03 -0.82827299413E+03  0.10616637032E+04  0.15635220107E+04  0.50400001928E-02 0. -1.
       -1    1    3    3    0  502 -0.79462891103E+03  0.82827299413E+03 -0.13209699965E+04  0.17499808544E+04  0.50400001928E-02 0.  1.
</event>
<event>
 5   0  0.5637538E-06  0.3231890E+04  0.7818609E-02  0.8180446E-01
        2   -1    0    0  501    0  0.00000000000E+00  0.00000000000E+00  0.18699313854E+04  0.18699313854E+04  0.25500000920E-02 0. -1.
       -2   -1    0    0    0  501  0.00000000000E+00  0.00000000000E+00 -0.13964566755E+04  0.13964566755E+04  0.25500000920E-02 0.  1.
    10030    2    1    2    0    0  0.00000000000E+00  0.00000000000E+00  0.47347470989E+03  0.32663880609E+04  0.32318899522E+04 0.  0.
        2    1    3    3  502    0 -0.58956568960E+03 -0.96031226818E+03 -0.93385333637E+03  0.14635126951E+04  0.25500000920E-02 0.  1.
       -2    1    3    3    0  502  0.58956568960E+03  0.96031226818E+03  0.14073280463E+04  0.18028753658E+04  0.25500000920E-02 0. -1.
</event>
<event>
 5   0  0.5637538E-06  0.3384950E+04  0.7818609E-02  0.8141610E-01
        2   -1    0    0  501    0  0.00000000000E+00  0.00000000000E+00  0.10177510859E+04  0.10177510859E+04  0.25500000920E-02 0. -1.
       -2   -1    0    0    0  501  0.00000000000E+00  0.00000000000E+00 -0.28145108369E+04  0.28145108369E+04  0.25500000920E-02 0.  1.
    10030    2    1    2    0    0  0.00000000000E+00  0.00000000000E+00 -0.17967597510E+04  0.38322619228E+04  0.33849499024E+04 0.  0.
        2    1    3    3  502    0 -0.83467188187E+03  0.69026712441E+03 -0.23707484880E+04  0.26064524255E+04  0.25500000920E-02 0.  1.
       -2    1    3    3    0  502  0.83467188187E+03 -0.69026712441E+03  0.57398873694E+03  0.12258094973E+04  0.25500000920E-02 0. -1.
</event>
<event>
 5   0  0.2097842E-06  0.3754119E+04  0.7818609E-02  0.8056073E-01
       -1   -1    0    0    0  501  0.00000000000E+00  0.00000000000E+00  0.11933648255E+04  0.11933648256E+04  0.50400001928E-02 0. -1.
        1   -1    0    0  501    0  0.00000000000E+00  0.00000000000E+00 -0.29524524951E+04  0.29524524951E+04  0.50400001928E-02 0.  1.
    10030    2    1    2    0    0  0.00000000000E+00  0.00000000000E+00 -0.17590876696E+04  0.41458173207E+04  0.37541193145E+04 0.  0.
        4    1    3    3  502    0 -0.14195482609E+04 -0.15246580252E+02 -0.22356790525E+04  0.26483225185E+04  0.12699999809E+01 0.  1.
       -4    1    3    3    0  502  0.14195482609E+04  0.15246580252E+02  0.47659138297E+03  0.14974948022E+04  0.12699999809E+01 0. -1.
</event>
<event>
 5   0  0.1925906E-06  0.3366214E+04  0.7818609E-02  0.8146249E-01
        1   -1    0    0  501    0  0.00000000000E+00  0.00000000000E+00  0.16244479217E+04  0.16244479217E+04  0.50400001928E-02 0.  1.
       -1   -1    0    0    0  501  0.00000000000E+00  0.00000000000E+00 -0.17438838609E+04  0.17438838609E+04  0.50400001928E-02 0. -1.
    10030    2    1    2    0    0  0.00000000000E+00  0.00000000000E+00 -0.11943593916E+03  0.33683317826E+04  0.33662136079E+04 0.  0.
        1    1    3    3  502    0  0.14574937998E+04  0.51154482523E+03  0.60919518102E+03  0.16604472449E+04  0.50400001928E-02 0.  1.
       -1    1    3    3    0  502 -0.14574937998E+04 -0.51154482523E+03 -0.72863112018E+03  0.17078845377E+04  0.50400001928E-02 0. -1.
</event>
<event>
 5   0  0.5755250E-06  0.2868208E+04  0.7818609E-02  0.8282400E-01
        2   -1    0    0  501    0  0.00000000000E+00  0.00000000000E+00  0.16187104407E+04  0.16187104407E+04  0.25500000920E-02 0. -1.
       -2   -1    0    0    0  501  0.00000000000E+00  0.00000000000E+00 -0.12705509708E+04  0.12705509708E+04  0.25500000920E-02 0.  1.
    10030    2    1    2    0    0  0.00000000000E+00  0.00000000000E+00  0.34815946988E+03  0.28892614116E+04  0.28682078878E+04 0.  0.
        5    1    3    3  502    0  0.87571360395E+03 -0.10703386616E+04 -0.20835534451E+03  0.13985468194E+04  0.46999998093E+01 0.  1.
       -5    1    3    3    0  502 -0.87571360395E+03  0.10703386616E+04  0.55651481438E+03  0.14907145921E+04  0.46999998093E+01 0. -1.
</event>
<event>
 5   0  0.1999849E-06  0.3137887E+04  0.7818609E-02  0.8205416E-01
        1   -1    0    0  501    0  0.00000000000E+00  0.00000000000E+00  0.16287405373E+04  0.16287405373E+04  0.50400001928E-02 0. -1.
       -1   -1    0    0    0  501  0.00000000000E+00  0.00000000000E+00 -0.15113422028E+04  0.15113422028E+04  0.50400001928E-02 0.  1.
    10030    2    1    2    0    0  0.00000000000E+00  0.00000000000E+00  0.11739833452E+03  0.31400827400E+04  0.31378873857E+04 0.  0.
        5    1    3    3  502    0 -0.11288642950E+03 -0.58529994210E+03  0.15110045958E+04  0.16243387413E+04  0.46999998093E+01 0. -1.
       -5    1    3    3    0  502  0.11288642950E+03  0.58529994210E+03 -0.13936062612E+04  0.15157439987E+04  0.46999998093E+01 0.  1.
</event>
<event>
 5   0  0.5637538E-06  0.3268565E+04  0.7818609E-02  0.8170940E-01
       -2   -1    0    0    0  501  0.00000000000E+00  0.00000000000E+00  0.22771523584E+04  0.22771523584E+04  0.25500000920E-02 0. -1.
        2   -1    0    0  501    0  0.00000000000E+00  0.00000000000E+00 -0.11729029857E+04  0.11729029857E+04  0.25500000920E-02 0.  1.
    10030    2    1    2    0    0  0.00000000000E+00  0.00000000000E+00  0.11042493727E+04  0.34500553442E+04  0.32685647004E+04 0.  0.
        2    1    3    3  502    0 -0.93889801090E+03 -0.10105916669E+04 -0.37292444389E+03  0.14289498357E+04  0.25500000920E-02 0.  1.
       -2    1    3    3    0  502  0.93889801090E+03  0.10105916669E+04  0.14771738166E+04  0.20211055085E+04  0.25500000920E-02 0. -1.
</event>
<event>
 5   0  0.5300268E-06  0.3296664E+04  0.7818609E-02  0.8163745E-01
       -2   -1    0    0    0  501  0.00000000000E+00  0.00000000000E+00  0.16026171039E+04  0.16026171039E+04  0.25500000920E-02 0.  1.
        2   -1    0    0  501    0  0.00000000000E+00  0.00000000000E+00 -0.16953504931E+04  0.16953504931E+04  0.25500000920E-02 0. -1.
    10030    2    1    2    0    0  0.00000000000E+00  0.00000000000E+00 -0.92733389178E+02  0.32979675971E+04  0.32966635846E+04 0.  0.
        4    1    3    3  502    0 -0.79312551496E+03 -0.13989605999E+04 -0.40825173842E+03  0.16591594069E+04  0.12699999809E+01 0. -1.
       -4    1    3    3    0  502  0.79312551496E+03  0.13989605999E+04  0.31551834924E+03  0.16388081902E+04  0.12699999809E+01 0.  1.
</event>
<event>
 5   0  0.2097842E-06  0.3274741E+04  0.7818609E-02  0.8169352E-01
       -1   -1    0    0    0  501  0.00000000000E+00  0.00000000000E+00  0.94598646118E+03  0.94598646119E+03  0.50400001928E-02 0. -1.
        1   -1    0    0  501    0  0.00000000000E+00  0.00000000000E+00 -0.28340602255E+04  0.28340602255E+04  0.50400001928E-02 0.  1.
    10030    2    1    2    0    0  0.00000000000E+00  0.00000000000E+00 -0.18880737643E+04  0.37800466867E+04  0.32747412744E+04 0.  0.
        4    1    3    3  502    0  0.14082026856E+04  0.71207999503E+03 -0.14483610588E+04  0.21419253238E+04  0.12699999809E+01 0.  1.
       -4    1    3    3    0  502 -0.14082026856E+04 -0.71207999503E+03 -0.43971270545E+03  0.16381213628E+04  0.12699999809E+01 0. -1.
</event>
<event>
 5   0  0.5755250E-06  0.3313123E+04  0.7818609E-02  0.8159564E-01
        2   -1    0    0  501    0  0.00000000000E+00  0.00000000000E+00  0.12448872683E+04  0.12448872683E+04  0.25500000920E-02 0. -1.
       -2   -1    0    0    0  501  0.00000000000E+00  0.00000000000E+00 -0.22043728005E+04  0.22043728005E+04  0.25500000920E-02 0.  1.
    10030    2    1    2    0    0  0.00000000000E+00  0.00000000000E+00 -0.95948553222E+03  0.34492600687E+04  0.33131227770E+04 0.  0.
        5    1    3    3  502    0  0.12679104756E+04 -0.50364656298E+02  0.62892798892E+03  0.14162295287E+04  0.46999998093E+01 0. -1.
       -5    1    3    3    0  502 -0.12679104756E+04  0.50364656298E+02 -0.15884135211E+04  0.20330305401E+04  0.46999998093E+01 0.  1.
</event>
<event>
 5   0  0.5855568E-06  0.3284282E+04  0.7818609E-02  0.8166906E-01
        2   -1    0    0  501    0  0.00000000000E+00  0.00000000000E+00  0.20111680428E+04  0.20111680428E+04  0.25500000920E-02 0. -1.
       -2   -1    0    0    0  501  0.00000000000E+00  0.00000000000E+00 -0.13408263967E+04  0.13408263967E+04  0.25500000920E-02 0.  1.
    10030    2    1    2    0    0  0.00000000000E+00  0.00000000000E+00  0.67034164614E+03  0.33519944394E+04  0.32842820828E+04 0.  0.
        3    1    3    3  502    0  0.78781213609E+03  0.13549355224E+04 -0.16496171098E+03  0.15759792536E+04  0.10100000352E+00 0. -1.
       -3    1    3    3    0  502 -0.78781213609E+03 -0.13549355224E+04  0.83530335712E+03  0.17760151858E+04  0.10100000352E+00 0.  1.
</event>
<event>
 5   0  0.5300268E-06  0.3017336E+04  0.7818609E-02  0.8238798E-01
       -2   -1    0    0    0  501  0.00000000000E+00  0.00000000000E+00  0.18019416963E+04  0.18019416963E+04  0.25500000920E-02 0.  1.
        2   -1    0    0  501    0  0.00000000000E+00  0.00000000000E+00 -0.12631257704E+04  0.12631257704E+04  0.25500000920E-02 0. -1.
    10030    2    1    2    0    0  0.00000000000E+00  0.00000000000E+00  0.53881592587E+03  0.30650674667E+04  0.30173359066E+04 0.  0.
        4    1    3    3  502    0 -0.99365903843E+03  0.11350438455E+04  0.24923008751E+03  0.15289866138E+04  0.12699999809E+01 0. -1.
       -4    1    3    3    0  502  0.99365903843E+03 -0.11350438455E+04  0.28958583836E+03  0.15360808529E+04  0.12699999809E+01 0.  1.
</event>
<event>
 5   0  0.2037109E-06  0.1668986E+04  0.7818609E-02  0.8779253E-01
       -1   -1    0    0    0  501  0.00000000000E+00  0.00000000000E+00  0.56833331008E+03  0.56833331011E+03  0.50400001928E-02 0.  1.
        1   -1    0    0  501    0  0.00000000000E+00  0.00000000000E+00 -0.12252991643E+04  0.12252991643E+04  0.50400001928E-02 0. -1.
    10030    2    1    2    0    0  0.00000000000E+00  0.00000000000E+00 -0.65696585418E+03  0.17936324744E+04  0.16689857158E+04 0.  0.
        2    1    3    3  502    0 -0.16764898631E+02  0.44724491694E+03  0.42844058050E+03  0.61957276295E+03  0.25500000920E-02 0.  1.
       -2    1    3    3    0  502  0.16764898631E+02 -0.44724491694E+03 -0.10854064347E+04  0.11740597114E+04  0.25500000920E-02 0. -1.
</event>
<event>
 5   0  0.5855568E-06  0.3156681E+04  0.7818609E-02  0.8200352E-01
       -2   -1    0    0    0  501  0.00000000000E+00  0.00000000000E+00  0.11834235979E+04  0.11834235979E+04  0.25500000920E-02 0.  1.
        2   -1    0    0  501    0  0.00000000000E+00  0.00000000000E+00 -0.21050442824E+04  0.21050442824E+04  0.25500000920E-02 0. -1.
    10030    2    1    2    0    0  0.00000000000E+00  0.00000000000E+00 -0.92162068446E+03  0.32884678803E+04  0.31566812183E+04 0.  0.
        3    1    3    3  502    0  0.13460596305E+04  0.79838750924E+03 -0.24767174752E+03  0.15845000627E+04  0.10100000352E+00 0.  1.
       -3    1    3    3    0  502 -0.13460596305E+04 -0.79838750924E+03 -0.67394893694E+03  0.17039678177E+04  0.10100000352E+00 0. -1.
</event>
<event>
 5   0  0.1999849E-06  0.3056053E+04  0.7818609E-02  0.8227903E-01
       -1   -1    0    0    0  501  0.00000000000E+00  0.00000000000E+00  0.11900811369E+04  0.11900811369E+04  0.50400001928E-02 0.  1.
        1   -1    0    0  501    0  0.00000000000E+00  0.00000000000E+00 -0.19619372996E+04  0.19619372996E+04  0.50400001928E-02 0. -1.
    10030    2    1    2    0    0  0.00000000000E+00  0.00000000000E+00 -0.77185616273E+03  0.31520184365E+04  0.30560527300E+04 0.  0.
        5    1    3    3  502    0 -0.12198895982E+04 -0.83080325293E+03 -0.79392255333E+03  0.16759175957E+04  0.46999998093E+01 0. -1.
       -5    1    3    3    0  502  0.12198895982E+04  0.83080325293E+03  0.22066390603E+02  0.14761008409E+04  0.46999998093E+01 0.  1.
</event>
<event>
 5   0  0.5300268E-06  0.2272849E+04  0.7818609E-02  0.8488704E-01
        2   -1    0    0  501    0  0.00000000000E+00  0.00000000000E+00  0.97804569626E+03  0.97804569626E+03  0.25500000920E-02 0.  1.
       -2   -1    0    0    0  501  0.00000000000E+00  0.00000000000E+00 -0.13204500606E+04  0.13204500606E+04  0.25500000920E-02 0. -1.
    10030    2    1    2    0    0  0.00000000000E+00  0.00000000000E+00 -0.34240436430E+03  0.22984957568E+04  0.22728488721E+04 0.  0.
        4    1    3    3  502    0 -0.45886851339E+03  0.74539606846E+03  0.56174036552E+03  0.10400622398E+04  0.12699999809E+01 0.  1.
       -4    1    3    3    0  502  0.45886851339E+03 -0.74539606846E+03 -0.90414472982E+03  0.12584335170E+04  0.12699999809E+01 0. -1.
</event>
<event>
 5   0  0.1925906E-06  0.1896961E+04  0.7818609E-02  0.8656371E-01
        1   -1    0    0  501    0  0.00000000000E+00  0.00000000000E+00  0.89818640336E+03  0.89818640338E+03  0.50400001928E-02 0.  1.
       -1   -1    0    0    0  501  0.00000000000E+00  0.00000000000E+00 -0.10015905559E+04  0.10015905559E+04  0.50400001928E-02 0. -1.
    10030    2    1    2    0    0  0.00000000000E+00  0.00000000000E+00 -0.10340415253E+03  0.18997769593E+04  0.18969607472E+04 0.  0.
        1    1    3    3  502    0 -0.46709637261E+03 -0.52141576524E+03 -0.69262216772E+03  0.98477352157E+03  0.50400001928E-02 0. -1.
       -1    1    3    3    0  502  0.46709637261E+03  0.52141576524E+03  0.58921801520E+03  0.91500343770E+03  0.50400001928E-02 0.  1.
</event>
<event>
 5   0  0.5755250E-06  0.3300480E+04  0.7818609E-02  0.8162773E-01
       -2   -1    0    0    0  501  0.00000000000E+00  0.00000000000E+00  0.16091815367E+04  0.16091815367E+04  0.25500000920E-02 0.  1.
        2   -1    0    0  501    0  0.00000000000E+00  0.00000000000E+00 -0.16923463255E+04  0.16923463255E+04  0.25500000920E-02 0. -1.
    10030    2    1    2    0    0  0.00000000000E+00  0.00000000000E+00 -0.83164788821E+02  0.33015278622E+04  0.33004802443E+04 0.  0.
        5    1    3    3  502    0  0.11787415550E+04  0.59624635363E+03 -0.10310015027E+04  0.16756871892E+04  0.46999998093E+01 0.  1.
       -5    1    3    3    0  502 -0.11787415550E+04 -0.59624635363E+03  0.94783671389E+03  0.16258406729E+04  0.46999998093E+01 0. -1.
</event>
<event>
 5   0  0.1999849E-06  0.2052029E+04  0.7818609E-02  0.8582675E-01
        1   -1    0    0  501    0  0.00000000000E+00  0.00000000000E+00  0.19498983705E+04  0.19498983705E+04  0.50400001928E-02 0.  1.
       -1   -1    0    0    0  501  0.00000000000E+00  0.00000000000E+00 -0.53987706933E+03  0.53987706936E+03  0.50400001928E-02 0. -1.
    10030    2    1    2    0    0  0.00000000000E+00  0.00000000000E+00  0.14100213011E+04  0.24897754398E+04  0.20520286721E+04 0.  0.
        5    1    3    3  502    0 -0.40905671585E+03 -0.24225151856E+03  0.18081817541E+04  0.18696407518E+04  0.46999998093E+01 0.  1.
       -5    1    3    3    0  502  0.40905671585E+03  0.24225151856E+03 -0.39816045293E+03  0.62013468804E+03  0.46999998093E+01 0. -1.
</event>
<event>
 5   0  0.1999849E-06  0.3182673E+04  0.7818609E-02  0.8193408E-01
       -1   -1    0    0    0  501  0.00000000000E+00  0.00000000000E+00  0.13668739236E+04  0.13668739236E+04  0.50400001928E-02 0.  1.
        1   -1    0    0  501    0  0.00000000000E+00  0.00000000000E+00 -0.18526590707E+04  0.18526590707E+04  0.50400001928E-02 0. -1.
    10030    2    1    2    0    0  0.00000000000E+00  0.00000000000E+00 -0.48578514707E+03  0.32195329943E+04  0.31826726964E+04 0.  0.
        5    1    3    3  502    0 -0.81203342370E+03 -0.41311268043E+03  0.10769282801E+04  0.14106229044E+04  0.46999998093E+01 0.  1.
       -5    1    3    3    0  502  0.81203342370E+03  0.41311268043E+03 -0.15627134272E+04  0.18089100899E+04  0.46999998093E+01 0. -1.
</event>
<event>
 5   0  0.5755250E-06  0.3292403E+04  0.7818609E-02  0.8164831E-01
        2   -1    0    0  501    0  0.00000000000E+00  0.00000000000E+00  0.17525079065E+04  0.17525079065E+04  0.25500000920E-02 0. -1.
       -2   -1    0    0    0  501  0.00000000000E+00  0.00000000000E+00 -0.15463434677E+04  0.15463434677E+04  0.25500000920E-02 0.  1.
    10030    2    1    2    0    0  0.00000000000E+00  0.00000000000E+00  0.20616443876E+03  0.32988513742E+04  0.32924028632E+04 0.  0.
        5    1    3    3  502    0 -0.14424966339E+04 -0.50277089627E+03  0.71778357784E+03  0.16878419557E+04  0.46999998093E+01 0. -1.
       -5    1    3    3    0  502  0.14424966339E+04  0.50277089627E+03 -0.51161913908E+03  0.16110094185E+04  0.46999998093E+01 0.  1.
</event>
<event>
 5   0  0.2097842E-06  0.3106471E+04  0.7818609E-02  0.8213964E-01
        1   -1    0    0  501    0  0.00000000000E+00  0.00000000000E+00  0.15376389720E+04  0.15376389720E+04  0.50400001928E-02 0.  1.
       -1   -1    0    0    0  501  0.00000000000E+00  0.00000000000E+00 -0.15689903606E+04  0.15689903606E+04  0.50400001928E-02 0. -1.
    10030    2    1    2    0    0  0.00000000000E+00  0.00000000000E+00 -0.31351388584E+02  0.31066293326E+04  0.31064711330E+04 0.  0.
        4    1    3    3  502    0  0.49911978378E+03  0.12200017472E+04 -0.83731006762E+03  0.15616064114E+04  0.12699999809E+01 0. -1.
       -4    1    3    3    0  502 -0.49911978378E+03 -0.12200017472E+04  0.80595867904E+03  0.15450229212E+04  0.12699999809E+01 0.  1.
</event>
<event>
 5   0  0.2097842E-06  0.3209001E+04  0.7818609E-02  0.8186444E-01
        1   -1    0    0  501    0  0.00000000000E+00  0.00000000000E+00  0.16310442986E+04  0.16310442986E+04  0.50400001928E-02 0.  1.
       -1   -1    0    0    0  501  0.00000000000E+00  0.00000000000E+00 -0.15783882070E+04  0.15783882070E+04  0.50400001928E-02 0. -1.
    10030    2    1    2    0    0  0.00000000000E+00  0.00000000000E+00  0.52656091612E+02  0.32094325056E+04  0.32090005211E+04 0.  0.
        4    1    3    3  502    0 -0.48718440938E+03 -0.97957572780E+03  0.12001564455E+04  0.16239748649E+04  0.12699999809E+01 0.  1.
       -4    1    3    3    0  502  0.48718440938E+03  0.97957572780E+03 -0.11475003539E+04  0.15854576407E+04  0.12699999809E+01 0. -1.
</event>
<event>
 5   0  0.1999849E-06  0.3452412E+04  0.7818609E-02  0.8125161E-01
       -1   -1    0    0    0  501  0.00000000000E+00  0.00000000000E+00  0.16491184781E+04  0.16491184781E+04  0.50400001928E-02 0. -1.
        1   -1    0    0  501    0  0.00000000000E+00  0.00000000000E+00 -0.18068973420E+04  0.18068973420E+04  0.50400001928E-02 0.  1.
    10030    2    1    2    0    0  0.00000000000E+00  0.00000000000E+00 -0.15777886385E+03  0.34560158201E+04  0.34524123709E+04 0.  0.
        5    1    3    3  502    0 -0.12871771434E+04  0.30381462320E+03 -0.11893882715E+04  0.17787059549E+04  0.46999998093E+01 0.  1.
       -5    1    3    3    0  502  0.12871771434E+04 -0.30381462320E+03  0.10316094077E+04  0.16773098652E+04  0.46999998093E+01 0. -1.
</event>
<event>
 5   0  0.2097842E-06  0.2580355E+04  0.7818609E-02  0.8374905E-01
        1   -1    0    0  501    0  0.00000000000E+00  0.00000000000E+00  0.86086487035E+03  0.86086487036E+03  0.50400001928E-02 0.  1.
       -1   -1    0    0    0  501  0.00000000000E+00  0.00000000000E+00 -0.19335874400E+04  0.19335874400E+04  0.50400001928E-02 0. -1.
    10030    2    1    2    0    0  0.00000000000E+00  0.00000000000E+00 -0.10727225696E+04  0.27944523103E+04  0.25803546275E+04 0.  0.
        4    1    3    3  502    0  0.10333603575E+04  0.21063617769E+03  0.26850978403E+03  0.10882556431E+04  0.12699999809E+01 0.  1.
       -4    1    3    3    0  502 -0.10333603575E+04 -0.21063617769E+03 -0.13412323537E+04  0.17061966672E+04  0.12699999809E+01 0. -1.
</event>
<event>
 5   0  0.2097842E-06  0.3028194E+04  0.7818609E-02  0.8235725E-01
       -1   -1    0    0    0  501  0.00000000000E+00  0.00000000000E+00  0.14420778968E+04  0.14420778968E+04  0.50400001928E-02 0.  1.
        1   -1    0    0  501    0  0.00000000000E+00  0.00000000000E+00 -0.15897127734E+04  0.15897127734E+04  0.50400001928E-02 0. -1.
    10030    2    1    2    0    0  0.00000000000E+00  0.00000000000E+00 -0.14763487659E+03  0.30317906702E+04  0.30281939520E+04 0.  0.
        4    1    3    3  502    0  0.37034599836E+03  0.10284310185E+03  0.13924202785E+04  0.14444960045E+04  0.12699999809E+01 0.  1.
       -4    1    3    3    0  502 -0.37034599836E+03 -0.10284310185E+03 -0.15400551551E+04  0.15872946657E+04  0.12699999809E+01 0. -1.
</event>
<event>
 5   0  0.2097842E-06  0.1743823E+04  0.7818609E-02  0.8736758E-01
        1   -1    0    0  501    0  0.00000000000E+00  0.00000000000E+00  0.90493147343E+03  0.90493147344E+03  0.50400001928E-02 0. -1.
       -1   -1    0    0    0  501  0.00000000000E+00  0.00000000000E+00 -0.84009666010E+03  0.84009666012E+03  0.50400001928E-02 0.  1.
    10030    2    1    2    0    0  0.00000000000E+00  0.00000000000E+00  0.64834813323E+02  0.17450281336E+04  0.17438232806E+04 0.  0.
        4    1    3    3  502    0  0.34452312306E+03 -0.30457484272E+03  0.77371684297E+03  0.90005632220E+03  0.12699999809E+01 0. -1.
       -4    1    3    3    0  502 -0.34452312306E+03  0.30457484272E+03 -0.70888202964E+03  0.84497181136E+03  0.12699999809E+01 0.  1.
</event>
<event>
 5   0  0.1925906E-06  0.2905610E+04  0.7818609E-02  0.8271210E-01
       -1   -1    0    0    0  501  0.00000000000E+00  0.00000000000E+00  0.87762689286E+03  0.87762689287E+03  0.50400001928E-02 0. -1.
        1   -1    0    0  501    0  0.00000000000E+00  0.00000000000E+00 -0.24049420304E+04  0.24049420304E+04  0.50400001928E-02 0.  1.
    10030    2    1    2    0    0  0.00000000000E+00  0.00000000000E+00 -0.15273151375E+04  0.32825689233E+04  0.29056096102E+04 0.  0.
        1    1    3    3  502    0 -0.12635657019E+04 -0.38196271122E+03 -0.14491265651E+04  0.19602197830E+04  0.50400001928E-02 0.  1.
       -1    1    3    3    0  502  0.12635657019E+04  0.38196271122E+03 -0.78188572403E+02  0.13223491403E+04  0.50400001928E-02 0. -1.
</event>
<event>
 5   0  0.5637538E-06  0.3359181E+04  0.7818609E-02  0.8147998E-01
       -2   -1    0    0    0  501  0.00000000000E+00  0.00000000000E+00  0.10081505116E+04  0.10081505116E+04  0.25500000920E-02 0. -1.
        2   -1    0    0  501    0  0.00000000000E+00  0.00000000000E+00 -0.27982170972E+04  0.27982170972E+04  0.25500000920E-02 0.  1.
    10030    2    1    2    0    0  0.00000000000E+00  0.00000000000E+00 -0.17900665856E+04  0.38063676088E+04  0.33591808514E+04 0.  0.
        2    1    3    3  502    0  0.65878553460E+03  0.13703529470E+04 -0.17035775694E+04  0.22834277118E+04  0.25500000920E-02 0.  1.
       -2    1    3    3    0  502 -0.65878553460E+03 -0.13703529470E+04 -0.86489016187E+02  0.15229398970E+04  0.25500000920E-02 0. -1.
</event>
<event>
 5   0  0.1925906E-06  0.1975548E+04  0.7818609E-02  0.8618139E-01
       -1   -1    0    0    0  501  0.00000000000E+00  0.00000000000E+00  0.82770023601E+03  0.82770023602E+03  0.50400001928E-02 0.  1.
        1   -1    0    0  501    0  0.00000000000E+00  0.00000000000E+00 -0.11788054348E+04  0.11788054348E+04  0.50400001928E-02 0. -1.
    10030    2    1    2    0    0  0.00000000000E+00  0.00000000000E+00 -0.35110519882E+03  0.20065056709E+04  0.19755480623E+04 0.  0.
        1    1    3    3  502    0 -0.52940829945E+03 -0.73083501741E+03 -0.58347365485E+03  0.10746322516E+04  0.50400001928E-02 0. -1.
       -1    1    3    3    0  502  0.52940829945E+03  0.73083501741E+03  0.23236845603E+03  0.93187341929E+03  0.50400001928E-02 0.  1.
</event>
<event>
 5   0  0.2097842E-06  0.3020911E+04  0.7818609E-02  0.8237785E-01
       -1   -1    0    0    0  501  0.00000000000E+00  0.00000000000E+00  0.96032471165E+03  0.96032471166E+03  0.50400001928E-02 0. -1.
        1   -1    0    0  501    0  0.00000000000E+00  0.00000000000E+00 -0.23757337910E+04  0.23757337910E+04  0.50400001928E-02 0.  1.
    10030    2    1    2    0    0  0.00000000000E+00  0.00000000000E+00 -0.14154090793E+04  0.33360585026E+04  0.30209110333E+04 0.  0.
        4    1    3    3  502    0  0.72494993790E+02 -0.13428911102E+04 -0.14670912990E+04  0.19902187192E+04  0.12699999809E+01 0.  1.
       -4    1    3    3    0  502 -0.72494993790E+02  0.13428911102E+04  0.51682219686E+02  0.13458397834E+04  0.12699999809E+01 0. -1.
</event>
<event>
 5   0  0.5755250E-06  0.3103845E+04  0.7818609E-02  0.8214684E-01
        2   -1    0    0  501    0  0.00000000000E+00  0.00000000000E+00  0.22788393369E+04  0.22788393369E+04  0.25500000920E-02 0.  1.
       -2   -1    0    0    0  501  0.00000000000E+00  0.00000000000E+00 -0.10568815361E+04  0.10568815361E+04  0.25500000920E-02 0. -1.
    10030    2    1    2    0    0  0.00000000000E+00  0.00000000000E+00  0.12219578008E+04  0.33357208729E+04  0.31038448536E+04 0.  0.
        5    1    3    3  502    0 -0.10662606262E+04  0.36226142437E+03 -0.53664216316E+03  0.12474582013E+04  0.46999998093E+01 0. -1.
       -5    1    3    3    0  502  0.10662606262E+04 -0.36226142437E+03  0.17585999639E+04  0.20882626717E+04  0.46999998093E+01 0.  1.
</event>
<event>
 5   0  0.1878000E-06  0.2293494E+04  0.7818609E-02  0.8480491E-01
        4   -1    0    0  501    0  0.00000000000E+00  0.00000000000E+00  0.90704856133E+03  0.90704945042E+03  0.12699999809E+01 0.  1.
       -4   -1    0    0    0  501  0.00000000000E+00  0.00000000000E+00 -0.14497862003E+04  0.14497867566E+04  0.12699999809E+01 0. -1.
    10030    2    1    2    0    0  0.00000000000E+00  0.00000000000E+00 -0.54273763901E+03  0.23568362070E+04  0.22934935714E+04 0.  0.
        2    1    3    3  502    0 -0.30190522307E+01 -0.84249765038E+03 -0.10708115474E+04  0.13625156056E+04  0.25500000920E-02 0. -1.
       -2    1    3    3    0  502  0.30190522307E+01  0.84249765038E+03  0.52807390839E+03  0.99432060137E+03  0.25500000920E-02 0.  1.
</event>
<event>
 5   0  0.1999849E-06  0.3254372E+04  0.7818609E-02  0.8174603E-01
       -1   -1    0    0    0  501  0.00000000000E+00  0.00000000000E+00  0.94178666981E+03  0.94178666982E+03  0.50400001928E-02 0.  1.
        1   -1    0    0  501    0  0.00000000000E+00  0.00000000000E+00 -0.28113958029E+04  0.28113958029E+04  0.50400001928E-02 0. -1.
    10030    2    1    2    0    0  0.00000000000E+00  0.00000000000E+00 -0.18696091331E+04  0.37531824727E+04  0.32543724991E+04 0.  0.
        5    1    3    3  502    0  0.57173399127E+03  0.26896884799E+03 -0.26641342741E+04  0.27380389914E+04  0.46999998093E+01 0. -1.
       -5    1    3    3    0  502 -0.57173399127E+03 -0.26896884799E+03  0.79452514102E+03  0.10151434813E+04  0.46999998093E+01 0.  1.
</event>
<event>
 5   0  0.2097842E-06  0.3277680E+04  0.7818609E-02  0.8168598E-01
        1   -1    0    0  501    0  0.00000000000E+00  0.00000000000E+00  0.27043777361E+04  0.27043777361E+04  0.50400001928E-02 0.  1.
       -1   -1    0    0    0  501  0.00000000000E+00  0.00000000000E+00 -0.99312949494E+03  0.99312949495E+03  0.50400001928E-02 0. -1.
    10030    2    1    2    0    0  0.00000000000E+00  0.00000000000E+00  0.17112482411E+04  0.36975072310E+04  0.32776804574E+04 0.  0.
        4    1    3    3  502    0  0.15546493171E+04  0.54190405314E+02  0.27389384915E+03  0.15795222546E+04  0.12699999809E+01 0. -1.
       -4    1    3    3    0  502 -0.15546493171E+04 -0.54190405314E+02  0.14373543920E+04  0.21179849764E+04  0.12699999809E+01 0.  1.
</event>
<event>
 5   0  0.2097842E-06  0.3291787E+04  0.7818609E-02  0.8164988E-01
       -1   -1    0    0    0  501  0.00000000000E+00  0.00000000000E+00  0.25391653758E+04  0.25391653758E+04  0.50400001928E-02 0.  1.
        1   -1    0    0  501    0  0.00000000000E+00  0.00000000000E+00 -0.10668721683E+04  0.10668721684E+04  0.50400001928E-02 0. -1.
    10030    2    1    2    0    0  0.00000000000E+00  0.00000000000E+00  0.14722932075E+04  0.36060375442E+04  0.32917866701E+04 0.  0.
        4    1    3    3  502    0  0.20657345052E+03  0.14650341689E+04  0.15260715832E+04  0.21255337674E+04  0.12699999809E+01 0. -1.
       -4    1    3    3    0  502 -0.20657345052E+03 -0.14650341689E+04 -0.53778375722E+02  0.14805037768E+04  0.12699999809E+01 0.  1.
</event>
<event>
 5   0  0.5300268E-06  0.3319287E+04  0.7818609E-02  0.8158005E-01
       -2   -1    0    0    0  501  0.00000000000E+00  0.00000000000E+00  0.11473951133E+04  0.11473951133E+04  0.25500000920E-02 0.  1.
        2   -1    0    0  501    0  0.00000000000E+00  0.00000000000E+00 -0.24005826271E+04  0.24005826271E+04  0.25500000920E-02 0. -1.
    10030    2    1    2    0    0  0.00000000000E+00  0.00000000000E+00 -0.12531875138E+04  0.35479777404E+04  0.33192871376E+04 0.  0.
        4    1    3    3  502    0 -0.36293691003E+03 -0.16002117400E+04 -0.36040962777E+03  0.16799695016E+04  0.12699999809E+01 0.  1.
       -4    1    3    3    0  502  0.36293691003E+03  0.16002117400E+04 -0.89277788599E+03  0.18680082388E+04  0.12699999809E+01 0. -1.
</event>
<event>
 5   0  0.1878000E-06  0.3086128E+04  0.7818609E-02  0.8219555E-01
       -3   -1    0    0    0  501  0.00000000000E+00  0.00000000000E+00  0.21634597252E+04  0.21634597275E+04  0.10100000352E+00 0.  1.
        3   -1    0    0  501    0  0.00000000000E+00  0.00000000000E+00 -0.11005734317E+04  0.11005734363E+04  0.10100000352E+00 0. -1.
    10030    2    1    2    0    0  0.00000000000E+00  0.00000000000E+00  0.10628862935E+04  0.32640331638E+04  0.30861278687E+04 0.  0.
        5    1    3    3  502    0 -0.63556645288E+03 -0.69103561089E+02 -0.95390273279E+03  0.11483346776E+04  0.46999998093E+01 0. -1.
       -5    1    3    3    0  502  0.63556645288E+03  0.69103561089E+02  0.20167890263E+04  0.21156984862E+04  0.46999998093E+01 0.  1.
</event>
<event>
 5   0  0.2730981E-06  0.3303416E+04  0.7818609E-02  0.8162027E-01
        1   -1    0    0  501    0  0.00000000000E+00  0.00000000000E+00  0.24255111636E+04  0.24255111636E+04  0.50400001928E-02 0.  1.
       -1   -1    0    0    0  501  0.00000000000E+00  0.00000000000E+00 -0.11247685784E+04  0.11247685784E+04  0.50400001928E-02 0. -1.
    10030    2    1    2    0    0  0.00000000000E+00  0.00000000000E+00  0.13007425853E+04  0.35502797420E+04  0.33034156526E+04 0.  0.
        3    1    3    3  502    0  0.69104227247E+03  0.17277974535E+03 -0.95120946525E+03  0.11883567308E+04  0.10100000352E+00 0. -1.
       -3    1    3    3    0  502 -0.69104227247E+03 -0.17277974535E+03  0.22519520505E+04  0.23619230112E+04  0.10100000352E+00 0.  1.
</event>
<event>
 5   0  0.5637538E-06  0.3415631E+04  0.7818609E-02  0.8134081E-01
        2   -1    0    0  501    0  0.00000000000E+00  0.00000000000E+00  0.20547354643E+04  0.20547354643E+04  0.25500000920E-02 0. -1.
       -2   -1    0    0    0  501  0.00000000000E+00  0.00000000000E+00 -0.14194689516E+04  0.14194689516E+04  0.25500000920E-02 0.  1.
    10030    2    1    2    0    0  0.00000000000E+00  0.00000000000E+00  0.63526651268E+03  0.34742044159E+04  0.34156306565E+04 0.  0.
        2    1    3    3  502    0  0.38822399333E+03  0.43767450575E+03 -0.13143616425E+04  0.14386880722E+04  0.25500000920E-02 0.  1.
       -2    1    3    3    0  502 -0.38822399333E+03 -0.43767450575E+03  0.19496281552E+04  0.20355163437E+04  0.25500000920E-02 0. -1.
</event>
<event>
 5   0  0.5755250E-06  0.3314093E+04  0.7818609E-02  0.8159319E-01
       -2   -1    0    0    0  501  0.00000000000E+00  0.00000000000E+00  0.12584270111E+04  0.12584270111E+04  0.25500000920E-02 0. -1.
        2   -1    0    0  501    0  0.00000000000E+00  0.00000000000E+00 -0.21819326026E+04  0.21819326026E+04  0.25500000920E-02 0.  1.
    10030    2    1    2    0    0  0.00000000000E+00  0.00000000000E+00 -0.92350559147E+03  0.34403596138E+04  0.33140928917E+04 0.  0.
        5    1    3    3  502    0  0.86363994806E+03  0.87414199453E+03 -0.16157644903E+04  0.20299544735E+04  0.46999998093E+01 0.  1.
       -5    1    3    3    0  502 -0.86363994806E+03 -0.87414199453E+03  0.69225889886E+03  0.14104051402E+04  0.46999998093E+01 0. -1.
</event>
<event>
 5   0  0.5855568E-06  0.3294546E+04  0.7818609E-02  0.8164284E-01
       -2   -1    0    0    0  501  0.00000000000E+00  0.00000000000E+00  0.11089074917E+04  0.11089074917E+04  0.25500000920E-02 0. -1.
        2   -1    0    0  501    0  0.00000000000E+00  0.00000000000E+00 -0.24470107977E+04  0.24470107977E+04  0.25500000920E-02 0.  1.
    10030    2    1    2    0    0  0.00000000000E+00  0.00000000000E+00 -0.13381033060E+04  0.35559182894E+04  0.32945461635E+04 0.  0.
        3    1    3    3  502    0  0.11100445496E+04 -0.31964615771E+03 -0.19365859737E+04  0.22549363210E+04  0.10100000352E+00 0.  1.
       -3    1    3    3    0  502 -0.11100445496E+04  0.31964615771E+03  0.59848266769E+03  0.13009819684E+04  0.10100000352E+00 0. -1.
</event>
<event>
 5   0  0.2037109E-06  0.2900188E+04  0.7818609E-02  0.8272821E-01
       -1   -1    0    0    0  501  0.00000000000E+00  0.00000000000E+00  0.13784918917E+04  0.13784918917E+04  0.50400001928E-02 0.  1.
        1   -1    0    0  501    0  0.00000000000E+00  0.00000000000E+00 -0.15254155822E+04  0.15254155822E+04  0.50400001928E-02 0. -1.
    10030    2    1    2    0    0  0.00000000000E+00  0.00000000000E+00 -0.14692369048E+03  0.29039074739E+04  0.29001882777E+04 0.  0.
        2    1    3    3  502    0 -0.88843546716E+03  0.11460161930E+04 -0.63333653653E+02  0.14514412994E+04  0.25500000920E-02 0.  1.
       -2    1    3    3    0  502  0.88843546716E+03 -0.11460161930E+04 -0.83590036824E+02  0.14524661745E+04  0.25500000920E-02 0. -1.
</event>
<event>
 5   0  0.5855568E-06  0.3417224E+04  0.7818609E-02  0.8133692E-01
        2   -1    0    0  501    0  0.00000000000E+00  0.00000000000E+00  0.22736656103E+04  0.22736656103E+04  0.25500000920E-02 0.  1.
       -2   -1    0    0    0  501  0.00000000000E+00  0.00000000000E+00 -0.12839861340E+04  0.12839861340E+04  0.25500000920E-02 0. -1.
    10030    2    1    2    0    0  0.00000000000E+00  0.00000000000E+00  0.98967947634E+03  0.35576517443E+04  0.34172240880E+04 0.  0.
        3    1    3    3  502    0 -0.14768096777E+04 -0.37870984428E+02  0.13885776590E+04  0.20274488800E+04  0.10100000352E+00 0.  1.
       -3    1    3    3    0  502  0.14768096777E+04  0.37870984428E+02 -0.39889818263E+03  0.15302028643E+04  0.10100000352E+00 0. -1.
</event>
<event>
 5   0  0.1999849E-06  0.2029957E+04  0.7818609E-02  0.8592741E-01
        1   -1    0    0  501    0  0.00000000000E+00  0.00000000000E+00  0.15492846728E+04  0.15492846729E+04  0.50400001928E-02 0.  1.
       -1   -1    0    0    0  501  0.00000000000E+00  0.00000000000E+00 -0.66494012069E+03  0.66494012071E+03  0.50400001928E-02 0. -1.
    10030    2    1    2    0    0  0.00000000000E+00  0.00000000000E+00  0.88434455216E+03  0.22142247936E+04  0.20299571792E+04 0.  0.
        5    1    3    3  502    0  0.20324310800E+03  0.87593755893E+03 -0.71285918299E+02  0.90204109676E+03  0.46999998093E+01 0. -1.
       -5    1    3    3    0  502 -0.20324310800E+03 -0.87593755893E+03  0.95563047046E+03  0.13121836968E+04  0.46999998093E+01 0.  1.
</event>
<event>
 5   0  0.2730981E-06  0.2148149E+04  0.7818609E-02  0.8540325E-01
       -1   -1    0    0    0  501  0.00000000000E+00  0.00000000000E+00  0.99419354307E+03  0.99419354308E+03  0.50400001928E-02 0.  1.
        1   -1    0    0  501    0  0.00000000000E+00  0.00000000000E+00 -0.11603739782E+04  0.11603739782E+04  0.50400001928E-02 0. -1.
    10030    2    1    2    0    0  0.00000000000E+00  0.00000000000E+00 -0.16618043508E+03  0.21545675212E+04  0.21481492654E+04 0.  0.
        3    1    3    3  502    0 -0.56727508933E+03 -0.28163349266E+03 -0.95315994436E+03  0.11443916903E+04  0.10100000352E+00 0. -1.
       -3    1    3    3    0  502  0.56727508933E+03  0.28163349266E+03  0.78697950928E+03  0.10101758309E+04  0.10100000352E+00 0.  1.
</event>
<event>
 5   0  0.2097842E-06  0.3297043E+04  0.7818609E-02  0.8163648E-01
       -1   -1    0    0    0  501  0.00000000000E+00  0.00000000000E+00  0.18230560784E+04  0.18230560784E+04  0.50400001928E-02 0.  1.
        1   -1    0    0  501    0  0.00000000000E+00  0.00000000000E+00 -0.14906962064E+04  0.14906962064E+04  0.50400001928E-02 0. -1.
    10030    2    1    2    0    0  0.00000000000E+00  0.00000000000E+00  0.33235987199E+03  0.33137522848E+04  0.32970427842E+04 0.  0.
        4    1    3    3  502    0 -0.77723632928E+03 -0.11704692462E+04  0.10328298781E+04  0.17437986517E+04  0.12699999809E+01 0.  1.
       -4    1    3    3    0  502  0.77723632928E+03  0.11704692462E+04 -0.70047000613E+03  0.15699536331E+04  0.12699999809E+01 0. -1.
</event>
<event>
 5   0  0.5775474E-06  0.1849368E+04  0.7818609E-02  0.8680478E-01
        2   -1    0    0  501    0  0.00000000000E+00  0.00000000000E+00  0.15214163564E+04  0.15214163564E+04  0.25500000920E-02 0.  1.
       -2   -1    0    0    0  501  0.00000000000E+00  0.00000000000E+00 -0.56200292920E+03  0.56200292921E+03  0.25500000920E-02 0. -1.
    10030    2    1    2    0    0  0.00000000000E+00  0.00000000000E+00  0.95941342720E+03  0.20834192856E+04  0.18493679448E+04 0.  0.
        4    1    3    3  502    0 -0.97118965346E+02 -0.77610481946E+03  0.10353497715E+04  0.12975829633E+04  0.12699999809E+01 0.  1.
       -4    1    3    3    0  502  0.97118965346E+02  0.77610481946E+03 -0.75936344348E+02  0.78583632235E+03  0.12699999809E+01 0. -1.
</event>
<event>
 5   0  0.2097842E-06  0.2292473E+04  0.7818609E-02  0.8480895E-01
       -1   -1    0    0    0  501  0.00000000000E+00  0.00000000000E+00  0.13876821280E+04  0.13876821280E+04  0.50400001928E-02 0. -1.
        1   -1    0    0  501    0  0.00000000000E+00  0.00000000000E+00 -0.94680082246E+03  0.94680082247E+03  0.50400001928E-02 0.  1.
    10030    2    1    2    0    0  0.00000000000E+00  0.00000000000E+00  0.44088130556E+03  0.23344829505E+04  0.22924734067E+04 0.  0.
        4    1    3    3  502    0 -0.50087617325E+03 -0.10162156838E+04  0.43223692878E+02  0.11337729744E+04  0.12699999809E+01 0.  1.
       -4    1    3    3    0  502  0.50087617325E+03  0.10162156838E+04  0.39765761268E+03  0.12007099761E+04  0.12699999809E+01 0. -1.
</event>
<event>
 5   0  0.5755250E-06  0.2007636E+04  0.7818609E-02  0.8603059E-01
        2   -1    0    0  501    0  0.00000000000E+00  0.00000000000E+00  0.80818582023E+03  0.80818582024E+03  0.25500000920E-02 0.  1.
       -2   -1    0    0    0  501  0.00000000000E+00  0.00000000000E+00 -0.12468061456E+04  0.12468061456E+04  0.25500000920E-02 0. -1.
    10030    2    1    2    0    0  0.00000000000E+00  0.00000000000E+00 -0.43862032537E+03  0.20549919658E+04  0.20076364685E+04 0.  0.
        5    1    3    3  502    0  0.30246840927E+03 -0.28745749716E+03  0.71519232370E+03  0.82803448066E+03  0.46999998093E+01 0.  1.
       -5    1    3    3    0  502 -0.30246840927E+03  0.28745749716E+03 -0.11538126491E+04  0.12269574852E+04  0.46999998093E+01 0. -1.
</event>
<event>
 5   0  0.1999849E-06  0.3435488E+04  0.7818609E-02  0.8129251E-01
        1   -1    0    0  501    0  0.00000000000E+00  0.00000000000E+00  0.19272434238E+04  0.19272434238E+04  0.50400001928E-02 0. -1.
       -1   -1    0    0    0  501  0.00000000000E+00  0.00000000000E+00 -0.15310184705E+04  0.15310184705E+04  0.50400001928E-02 0.  1.
    10030    2    1    2    0    0  0.00000000000E+00  0.00000000000E+00  0.39622495333E+03  0.34582618943E+04  0.34354884829E+04 0.  0.
        5    1    3    3  502    0  0.26588653199E+03  0.99941931170E+03 -0.11825070321E+04  0.15709486240E+04  0.46999998093E+01 0.  1.
       -5    1    3    3    0  502 -0.26588653199E+03 -0.99941931170E+03  0.15787319854E+04  0.18873132703E+04  0.46999998093E+01 0. -1.
</event>
<event>
 5   0  0.5637538E-06  0.1866715E+04  0.7818609E-02  0.8671604E-01
        2   -1    0    0  501    0  0.00000000000E+00  0.00000000000E+00  0.14026404153E+04  0.14026404153E+04  0.25500000920E-02 0.  1.
       -2   -1    0    0    0  501  0.00000000000E+00  0.00000000000E+00 -0.62108313486E+03  0.62108313487E+03  0.25500000920E-02 0. -1.
    10030    2    1    2    0    0  0.00000000000E+00  0.00000000000E+00  0.78155728042E+03  0.20237235502E+04  0.18667150894E+04 0.  0.
        2    1    3    3  502    0 -0.50522233411E+03  0.53061263506E+03 -0.23609255236E+03  0.76976559331E+03  0.25500000920E-02 0. -1.
       -2    1    3    3    0  502  0.50522233411E+03 -0.53061263506E+03  0.10176498328E+04  0.12539579568E+04  0.25500000920E-02 0.  1.
</event>
<event>
 5   0  0.5300268E-06  0.3287649E+04  0.7818609E-02  0.8166045E-01
       -2   -1    0    0    0  501  0.00000000000E+00  0.00000000000E+00  0.13043443555E+04  0.13043443555E+04  0.25500000920E-02 0.  1.
        2   -1    0    0  501    0  0.00000000000E+00  0.00000000000E+00 -0.20716602755E+04  0.20716602755E+04  0.25500000920E-02 0. -1.
    10030    2    1    2    0    0  0.00000000000E+00  0.00000000000E+00 -0.76731591995E+03  0.33760046310E+04  0.32876486351E+04 0.  0.
        4    1    3    3  502    0 -0.63257637335E+03  0.11555359164E+03 -0.19371443361E+04  0.20410867920E+04  0.12699999809E+01 0. -1.
       -4    1    3    3    0  502  0.63257637335E+03 -0.11555359164E+03  0.11698284162E+04  0.13349178390E+04  0.12699999809E+01 0.  1.
</event>
<event>
 5   0  0.5637538E-06  0.3265432E+04  0.7818609E-02  0.8171747E-01
       -2   -1    0    0    0  501  0.00000000000E+00  0.00000000000E+00  0.24009257987E+04  0.24009257987E+04  0.25500000920E-02 0. -1.
        2   -1    0    0  501    0  0.00000000000E+00  0.00000000000E+00 -0.11103055641E+04  0.11103055641E+04  0.25500000920E-02 0.  1.
    10030    2    1    2    0    0  0.00000000000E+00  0.00000000000E+00  0.12906202346E+04  0.35112313628E+04  0.32654318387E+04 0.  0.
        2    1    3    3  502    0 -0.52190867539E+02 -0.81454714998E+03  0.21658051086E+04  0.23145026927E+04  0.25500000920E-02 0. -1.
       -2    1    3    3    0  502  0.52190867539E+02  0.81454714998E+03 -0.87518487397E+03  0.11967286701E+04  0.25500000920E-02 0.  1.
</event>
<event>
 5   0  0.2097842E-06  0.3289848E+04  0.7818609E-02  0.8165483E-01
       -1   -1    0    0    0  501  0.00000000000E+00  0.00000000000E+00  0.10747839712E+04  0.10747839712E+04  0.50400001928E-02 0. -1.
        1   -1    0    0  501    0  0.00000000000E+00  0.00000000000E+00 -0.25175058198E+04  0.25175058198E+04  0.50400001928E-02 0.  1.
    10030    2    1    2    0    0  0.00000000000E+00  0.00000000000E+00 -0.14427218485E+04  0.35922897910E+04  0.32898479616E+04 0.  0.
        4    1    3    3  502    0  0.97080731435E+03 -0.13266722103E+04 -0.65913714555E+03  0.17711548167E+04  0.12699999809E+01 0. -1.
       -4    1    3    3    0  502 -0.97080731435E+03  0.13266722103E+04 -0.78358470300E+03  0.18211349743E+04  0.12699999809E+01 0.  1.
</event>
<event>
 5   0  0.5755250E-06  0.2403393E+04  0.7818609E-02  0.8438234E-01
        2   -1    0    0  501    0  0.00000000000E+00  0.00000000000E+00  0.63814131194E+03  0.63814131194E+03  0.25500000920E-02 0.  1.
       -2   -1    0    0    0  501  0.00000000000E+00  0.00000000000E+00 -0.22629379870E+04  0.22629379870E+04  0.25500000920E-02 0. -1.
    10030    2    1    2    0    0  0.00000000000E+00  0.00000000000E+00 -0.16247966751E+04  0.29010792990E+04  0.24033927818E+04 0.  0.
        5    1    3    3  502    0 -0.14269562411E+03  0.14667361632E+03 -0.22417406726E+04  0.22510660861E+04  0.46999998093E+01 0. -1.
       -5    1    3    3    0  502  0.14269562411E+03 -0.14667361632E+03  0.61694399750E+03  0.65001321287E+03  0.46999998093E+01 0.  1.
</event>
<event>
 5   0  0.2037109E-06  0.2424315E+04  0.7818609E-02  0.8430456E-01
       -1   -1    0    0    0  501  0.00000000000E+00  0.00000000000E+00  0.13296858780E+04  0.13296858780E+04  0.50400001928E-02 0.  1.
        1   -1    0    0  501    0  0.00000000000E+00  0.00000000000E+00 -0.11050171727E+04  0.11050171727E+04  0.50400001928E-02 0. -1.
    10030    2    1    2    0    0  0.00000000000E+00  0.00000000000E+00  0.22466870533E+03  0.24347030507E+04  0.24243149379E+04 0.  0.
        2    1    3    3  502    0 -0.13626533907E+03  0.21374536216E+03  0.13027702266E+04  0.13272021646E+04  0.25500000920E-02 0.  1.
       -2    1    3    3    0  502  0.13626533907E+03 -0.21374536216E+03 -0.10781015213E+04  0.11075008861E+04  0.25500000920E-02 0. -1.
</event>
<event>
 5   0  0.1925906E-06  0.2740079E+04  0.7818609E-02  0.8322117E-01
        1   -1    0    0  501    0  0.00000000000E+00  0.00000000000E+00  0.18964880853E+04  0.18964880853E+04  0.50400001928E-02 0. -1.
       -1   -1    0    0    0  501  0.00000000000E+00  0.00000000000E+00 -0.98972878946E+03  0.98972878948E+03  0.50400001928E-02 0.  1.
    10030    2    1    2    0    0  0.00000000000E+00  0.00000000000E+00  0.90675929580E+03  0.28862168748E+04  0.27400794564E+04 0.  0.
        1    1    3    3  502    0  0.32952750198E+03 -0.97784823503E+03  0.14026855989E+04  0.17413507501E+04  0.50400001928E-02 0.  1.
       -1    1    3    3    0  502 -0.32952750198E+03  0.97784823503E+03 -0.49592630311E+03  0.11448661247E+04  0.50400001928E-02 0. -1.
</event>
<event>
 5   0  0.1999849E-06  0.3243984E+04  0.7818609E-02  0.8177297E-01
        1   -1    0    0  501    0  0.00000000000E+00  0.00000000000E+00  0.16025652470E+04  0.16025652470E+04  0.50400001928E-02 0. -1.
       -1   -1    0    0    0  501  0.00000000000E+00  0.00000000000E+00 -0.16416542515E+04  0.16416542515E+04  0.50400001928E-02 0.  1.
    10030    2    1    2    0    0  0.00000000000E+00  0.00000000000E+00 -0.39089004445E+02  0.32442194985E+04  0.32439840018E+04 0.  0.
        5    1    3    3  502    0  0.22371563907E+03  0.13642113202E+04 -0.86796612304E+03  0.16323322254E+04  0.46999998093E+01 0.  1.
       -5    1    3    3    0  502 -0.22371563907E+03 -0.13642113202E+04  0.82887711859E+03  0.16118872731E+04  0.46999998093E+01 0. -1.
</event>
<event>
 5   0  0.2097842E-06  0.3114516E+04  0.7818609E-02  0.8211765E-01
        1   -1    0    0  501    0  0.00000000000E+00  0.00000000000E+00  0.15938959937E+04  0.15938959937E+04  0.50400001928E-02 0.  1.
       -1   -1    0    0    0  501  0.00000000000E+00  0.00000000000E+00 -0.15214620753E+04  0.15214620753E+04  0.50400001928E-02 0. -1.
    10030    2    1    2    0    0  0.00000000000E+00  0.00000000000E+00  0.72433918420E+02  0.31153580690E+04  0.31145158894E+04 0.  0.
        4    1    3    3  502    0 -0.10396221602E+04  0.20547353324E+02 -0.11233265325E+04  0.15307189622E+04  0.12699999809E+01 0. -1.
       -4    1    3    3    0  502  0.10396221602E+04 -0.20547353324E+02  0.11957604509E+04  0.15846391067E+04  0.12699999809E+01 0.  1.
</event>
<event>
 5   0  0.5622811E-06  0.2916873E+04  0.7818609E-02  0.8267875E-01
       -2   -1    0    0    0  501  0.00000000000E+00  0.00000000000E+00  0.11091354899E+04  0.11091354899E+04  0.25500000920E-02 0.  1.
        2   -1    0    0  501    0  0.00000000000E+00  0.00000000000E+00 -0.19177426447E+04  0.19177426447E+04  0.25500000920E-02 0. -1.
    10030    2    1    2    0    0  0.00000000000E+00  0.00000000000E+00 -0.80860715486E+03  0.30268781346E+04  0.29168725908E+04 0.  0.
        1    1    3    3  502    0 -0.10931853673E+04  0.95508021244E+03 -0.25826971009E+03  0.14744272456E+04  0.50400001928E-02 0. -1.
       -1    1    3    3    0  502  0.10931853673E+04 -0.95508021244E+03 -0.55033744477E+03  0.15524508890E+04  0.50400001928E-02 0.  1.
</event>
<event>
 5   0  0.1925906E-06  0.4048110E+04  0.7818609E-02  0.7994911E-01
       -1   -1    0    0    0  501  0.00000000000E+00  0.00000000000E+00  0.15736698514E+04  0.15736698514E+04  0.50400001928E-02 0. -1.
        1   -1    0    0  501    0  0.00000000000E+00  0.00000000000E+00 -0.26033406952E+04  0.26033406952E+04  0.50400001928E-02 0.  1.
    10030    2    1    2    0    0  0.00000000000E+00  0.00000000000E+00 -0.10296708438E+04  0.41770105466E+04  0.40481100603E+04 0.  0.
        1    1    3    3  502    0  0.31617381464E+03 -0.19739325485E+04 -0.18784860740E+03  0.20079000688E+04  0.50400001928E-02 0. -1.
       -1    1    3    3    0  502 -0.31617381464E+03  0.19739325485E+04 -0.84182223635E+03  0.21691104778E+04  0.50400001928E-02 0.  1.
</event>
<event>
 5   0  0.5855568E-06  0.3363915E+04  0.7818609E-02  0.8146820E-01
       -2   -1    0    0    0  501  0.00000000000E+00  0.00000000000E+00  0.15118183265E+04  0.15118183265E+04  0.25500000920E-02 0.  1.
        2   -1    0    0  501    0  0.00000000000E+00  0.00000000000E+00 -0.18712436390E+04  0.18712436390E+04  0.25500000920E-02 0. -1.
    10030    2    1    2    0    0  0.00000000000E+00  0.00000000000E+00 -0.35942531246E+03  0.33830619655E+04  0.33639146403E+04 0.  0.
        3    1    3    3  502    0 -0.45536355954E+03  0.49091927118E+03  0.13719963189E+04  0.15266733807E+04  0.10100000352E+00 0.  1.
       -3    1    3    3    0  502  0.45536355954E+03 -0.49091927118E+03 -0.17314216313E+04  0.18563885848E+04  0.10100000352E+00 0. -1.
</event>
<event>
 5   0  0.5622811E-06  0.2085130E+04  0.7818609E-02  0.8567822E-01
        2   -1    0    0  501    0  0.00000000000E+00  0.00000000000E+00  0.24445375359E+04  0.24445375359E+04  0.25500000920E-02 0. -1.
       -2   -1    0    0    0  501  0.00000000000E+00  0.00000000000E+00 -0.44464126442E+03  0.44464126443E+03  0.25500000920E-02 0.  1.
    10030    2    1    2    0    0  0.00000000000E+00  0.00000000000E+00  0.19998962714E+04  0.28891788003E+04  0.20851304620E+04 0.  0.
        1    1    3    3  502    0  0.24622394881E+03  0.99676826839E+03  0.12507744475E+04  0.16182119554E+04  0.50400001928E-02 0.  1.
       -1    1    3    3    0  502 -0.24622394881E+03 -0.99676826839E+03  0.74912182390E+03  0.12709668449E+04  0.50400001928E-02 0. -1.
</event>
<event>
 5   0  0.5622811E-06  0.3332734E+04  0.7818609E-02  0.8154616E-01
       -2   -1    0    0    0  501  0.00000000000E+00  0.00000000000E+00  0.11205312214E+04  0.11205312214E+04  0.25500000920E-02 0. -1.
        2   -1    0    0  501    0  0.00000000000E+00  0.00000000000E+00 -0.24780916648E+04  0.24780916648E+04  0.25500000920E-02 0.  1.
    10030    2    1    2    0    0  0.00000000000E+00  0.00000000000E+00 -0.13575604433E+04  0.35986228862E+04  0.33327340608E+04 0.  0.
        1    1    3    3  502    0 -0.77494533973E+03 -0.57957537262E+03  0.78603778713E+03  0.12467170068E+04  0.50400001928E-02 0. -1.
       -1    1    3    3    0  502  0.77494533973E+03  0.57957537262E+03 -0.21435982304E+04  0.23519058794E+04  0.50400001928E-02 0.  1.
</event>
<event>
 5   0  0.5755250E-06  0.3293980E+04  0.7818609E-02  0.8164429E-01
       -2   -1    0    0    0  501  0.00000000000E+00  0.00000000000E+00  0.13590752935E+04  0.13590752935E+04  0.25500000920E-02 0. -1.
        2   -1    0    0  501    0  0.00000000000E+00  0.00000000000E+00 -0.19958978996E+04  0.19958978996E+04  0.25500000920E-02 0.  1.
    10030    2    1    2    0    0  0.00000000000E+00  0.00000000000E+00 -0.63682260616E+03  0.33549731931E+04  0.32939796743E+04 0.  0.
        5    1    3    3  502    0  0.12316782614E+04  0.10347176684E+04  0.41517904035E+02  0.16091668090E+04  0.46999998093E+01 0.  1.
       -5    1    3    3    0  502 -0.12316782614E+04 -0.10347176684E+04 -0.67834051019E+03  0.17458063841E+04  0.46999998093E+01 0. -1.
</event>
<event>
 5   0  0.1999849E-06  0.3196521E+04  0.7818609E-02  0.8189737E-01
       -1   -1    0    0    0  501  0.00000000000E+00  0.00000000000E+00  0.18223621163E+04  0.18223621163E+04  0.50400001928E-02 0.  1.
        1   -1    0    0  501    0  0.00000000000E+00  0.00000000000E+00 -0.14017172783E+04  0.14017172783E+04  0.50400001928E-02 0. -1.
    10030    2    1    2    0    0  0.00000000000E+00  0.00000000000E+00  0.42064483804E+03  0.32240793946E+04  0.31965208999E+04 0.  0.
        5    1    3    3  502    0 -0.90061202048E+03 -0.53202614776E+03  0.14291530351E+04  0.17710602252E+04  0.46999998093E+01 0.  1.
       -5    1    3    3    0  502  0.90061202048E+03  0.53202614776E+03 -0.10085081971E+04  0.14530191695E+04  0.46999998093E+01 0. -1.
</event>
<event>
 5   0  0.5855568E-06  0.3323617E+04  0.7818609E-02  0.8156912E-01
        2   -1    0    0  501    0  0.00000000000E+00  0.00000000000E+00  0.10668070549E+04  0.10668070549E+04  0.25500000920E-02 0. -1.
       -2   -1    0    0    0  501  0.00000000000E+00  0.00000000000E+00 -0.25886669171E+04  0.25886669171E+04  0.25500000920E-02 0.  1.
    10030    2    1    2    0    0  0.00000000000E+00  0.00000000000E+00 -0.15218598622E+04  0.36554739721E+04  0.33236173848E+04 0.  0.
        3    1    3    3  502    0  0.64640754684E+03  0.51990613536E+03 -0.23446587531E+04  0.24870805746E+04  0.10100000352E+00 0.  1.
       -3    1    3    3    0  502 -0.64640754684E+03 -0.51990613536E+03  0.82279889085E+03  0.11683933974E+04  0.10100000352E+00 0. -1.
</event>
<event>
 5   0  0.2037109E-06  0.3321511E+04  0.7818609E-02  0.8157443E-01
        1   -1    0    0  501    0  0.00000000000E+00  0.00000000000E+00  0.22860917074E+04  0.22860917074E+04  0.50400001928E-02 0. -1.
       -1   -1    0    0    0  501  0.00000000000E+00  0.00000000000E+00 -0.12064733653E+04  0.12064733653E+04  0.50400001928E-02 0.  1.
    10030    2    1    2    0    0  0.00000000000E+00  0.00000000000E+00  0.10796183422E+04  0.34925650727E+04  0.33215109547E+04 0.  0.
        2    1    3    3  502    0 -0.30177299299E+03 -0.15255631386E+04  0.11526615901E+04  0.19357268842E+04  0.25500000920E-02 0. -1.
       -2    1    3    3    0  502  0.30177299299E+03  0.15255631386E+04 -0.73043247930E+02  0.15568381885E+04  0.25500000920E-02 0.  1.
</event>
<event>
 5   0  0.1925906E-06  0.3326762E+04  0.7818609E-02  0.8156119E-01
        1   -1    0    0  501    0  0.00000000000E+00  0.00000000000E+00  0.23414614358E+04  0.23414614358E+04  0.50400001928E-02 0.  1.
       -1   -1    0    0    0  501  0.00000000000E+00  0.00000000000E+00 -0.11816706461E+04  0.11816706461E+04  0.50400001928E-02 0. -1.
    10030    2    1    2    0    0  0.00000000000E+00  0.00000000000E+00  0.11597907897E+04  0.35231320819E+04  0.33267619378E+04 0.  0.
        1    1    3    3  502    0  0.92122518988E+03 -0.25692023695E+03  0.20211738811E+04  0.22360249812E+04  0.50400001928E-02 0.  1.
       -1    1    3    3    0  502 -0.92122518988E+03  0.25692023695E+03 -0.86138309142E+03  0.12871071008E+04  0.50400001928E-02 0. -1.
</event>
<event>
 5   0  0.2730981E-06  0.3331127E+04  0.7818609E-02  0.8155020E-01
        1   -1    0    0  501    0  0.00000000000E+00  0.00000000000E+00  0.20512218223E+04  0.20512218223E+04  0.50400001928E-02 0.  1.
       -1   -1    0    0    0  501  0.00000000000E+00  0.00000000000E+00 -0.13524147056E+04  0.13524147056E+04  0.50400001928E-02 0. -1.
    10030    2    1    2    0    0  0.00000000000E+00  0.00000000000E+00  0.69880711672E+03  0.34036365279E+04  0.33311274710E+04 0.  0.
        3    1    3    3  502    0  0.13632742695E+04  0.77802033025E+02 -0.62504983505E+03  0.15017513765E+04  0.10100000352E+00 0. -1.
       -3    1    3    3    0  502 -0.13632742695E+04 -0.77802033025E+02  0.13238569518E+04  0.19018851514E+04  0.10100000352E+00 0.  1.
</event>
<event>
 5   0  0.2730981E-06  0.2552797E+04  0.7818609E-02  0.8384414E-01
        1   -1    0    0  501    0  0.00000000000E+00  0.00000000000E+00  0.20424102528E+04  0.20424102528E+04  0.50400001928E-02 0.  1.
       -1   -1    0    0    0  501  0.00000000000E+00  0.00000000000E+00 -0.79768165173E+03  0.79768165175E+03  0.50400001928E-02 0. -1.
    10030    2    1    2    0    0  0.00000000000E+00  0.00000000000E+00  0.12447286011E+04  0.28400919046E+04  0.25527970417E+04 0.  0.
        3    1    3    3  502    0  0.23614984088E+03 -0.11598086774E+04  0.90818402395E+02  0.11870850466E+04  0.10100000352E+00 0.  1.
       -3    1    3    3    0  502 -0.23614984088E+03  0.11598086774E+04  0.11539101987E+04  0.16530068579E+04  0.10100000352E+00 0. -1.
</event>
<event>
 5   0  0.5637538E-06  0.3257425E+04  0.7818609E-02  0.8173814E-01
       -2   -1    0    0    0  501  0.00000000000E+00  0.00000000000E+00  0.12010743500E+04  0.12010743500E+04  0.25500000920E-02 0.  1.
        2   -1    0    0  501    0  0.00000000000E+00  0.00000000000E+00 -0.22086090733E+04  0.22086090733E+04  0.25500000920E-02 0. -1.
    10030    2    1    2    0    0  0.00000000000E+00  0.00000000000E+00 -0.10075347233E+04  0.34096834232E+04  0.32574245698E+04 0.  0.
        2    1    3    3  502    0  0.11642039950E+04  0.31811806685E+02 -0.16955469166E+04  0.20570032278E+04  0.25500000920E-02 0. -1.
       -2    1    3    3    0  502 -0.11642039950E+04 -0.31811806685E+02  0.68801219328E+03  0.13526801954E+04  0.25500000920E-02 0.  1.
</event>
<event>
 5   0  0.1999849E-06  0.3282843E+04  0.7818609E-02  0.8167275E-01
        1   -1    0    0  501    0  0.00000000000E+00  0.00000000000E+00  0.20141701568E+04  0.20141701568E+04  0.50400001928E-02 0. -1.
       -1   -1    0    0    0  501  0.00000000000E+00  0.00000000000E+00 -0.13376548021E+04  0.13376548021E+04  0.50400001928E-02 0.  1.
    10030    2    1    2    0    0  0.00000000000E+00  0.00000000000E+00  0.67651535468E+03  0.33518249589E+04  0.32828429037E+04 0.  0.
        5    1    3    3  502    0 -0.11105523171E+04 -0.11473755745E+03  0.15667662382E+04  0.19238684184E+04  0.46999998093E+01 0. -1.
       -5    1    3    3    0  502  0.11105523171E+04  0.11473755745E+03 -0.89025088348E+03  0.14279565405E+04  0.46999998093E+01 0.  1.
</event>
<event>
 5   0  0.5755250E-06  0.3099586E+04  0.7818609E-02  0.8215852E-01
       -2   -1    0    0    0  501  0.00000000000E+00  0.00000000000E+00  0.11460520680E+04  0.11460520680E+04  0.25500000920E-02 0. -1.
        2   -1    0    0  501    0  0.00000000000E+00  0.00000000000E+00 -0.20957672049E+04  0.20957672049E+04  0.25500000920E-02 0.  1.
    10030    2    1    2    0    0  0.00000000000E+00  0.00000000000E+00 -0.94971513695E+03  0.32418192729E+04  0.30995859977E+04 0.  0.
        5    1    3    3  502    0 -0.14503899003E+04  0.69775120560E+02  0.91601323466E+02  0.14549612788E+04  0.46999998093E+01 0. -1.
       -5    1    3    3    0  502  0.14503899003E+04 -0.69775120560E+02 -0.10413164604E+04  0.17868579941E+04  0.46999998093E+01 0.  1.
</event>
<event>
 5   0  0.2037109E-06  0.3290536E+04  0.7818609E-02  0.8165308E-01
        1   -1    0    0  501    0  0.00000000000E+00  0.00000000000E+00  0.26670036239E+04  0.26670036239E+04  0.50400001928E-02 0. -1.
       -1   -1    0    0    0  501  0.00000000000E+00  0.00000000000E+00 -0.10149616645E+04  0.10149616645E+04  0.50400001928E-02 0.  1.
    10030    2    1    2    0    0  0.00000000000E+00  0.00000000000E+00  0.16520419594E+04  0.36819652885E+04  0.32905357846E+04 0.  0.
        2    1    3    3  502    0 -0.23130633661E+03 -0.86609702400E+03  0.23697262488E+04  0.25336197762E+04  0.25500000920E-02 0. -1.
       -2    1    3    3    0  502  0.23130633661E+03  0.86609702400E+03 -0.71768428933E+03  0.11483455122E+04  0.25500000920E-02 0.  1.
</event>
<event>
 5   0  0.1878000E-06  0.3142999E+04  0.7818609E-02  0.8204035E-01
       -4   -1    0    0    0  501  0.00000000000E+00  0.00000000000E+00  0.11855296652E+04  0.11855303454E+04  0.12699999809E+01 0. -1.
        4   -1    0    0  501    0  0.00000000000E+00  0.00000000000E+00 -0.20831271969E+04  0.20831275840E+04  0.12699999809E+01 0.  1.
    10030    2    1    2    0    0  0.00000000000E+00  0.00000000000E+00 -0.89759753171E+03  0.32686579294E+04  0.31429990981E+04 0.  0.
        3    1    3    3  502    0 -0.82520737387E+02 -0.15532703663E+04 -0.68169943073E+03  0.16982852019E+04  0.10100000352E+00 0.  1.
       -3    1    3    3    0  502  0.82520737387E+02  0.15532703663E+04 -0.21589810098E+03  0.15703727275E+04  0.10100000352E+00 0. -1.
</event>
<event>
 5   0  0.1925906E-06  0.2950297E+04  0.7818609E-02  0.8258068E-01
       -1   -1    0    0    0  501  0.00000000000E+00  0.00000000000E+00  0.10773663957E+04  0.10773663957E+04  0.50400001928E-02 0. -1.
        1   -1    0    0  501    0  0.00000000000E+00  0.00000000000E+00 -0.20197981439E+04  0.20197981439E+04  0.50400001928E-02 0.  1.
    10030    2    1    2    0    0  0.00000000000E+00  0.00000000000E+00 -0.94243174817E+03  0.30971645396E+04  0.29502966944E+04 0.  0.
        1    1    3    3  502    0  0.84200848911E+03  0.11661560368E+04 -0.12755985737E+03  0.14440116742E+04  0.50400001928E-02 0. -1.
       -1    1    3    3    0  502 -0.84200848911E+03 -0.11661560368E+04 -0.81487189080E+03  0.16531528654E+04  0.50400001928E-02 0.  1.
</event>
<event>
 5   0  0.2037109E-06  0.3412600E+04  0.7818609E-02  0.8134821E-01
       -1   -1    0    0    0  501  0.00000000000E+00  0.00000000000E+00  0.16616786960E+04  0.16616786960E+04  0.50400001928E-02 0.  1.
        1   -1    0    0  501    0  0.00000000000E+00  0.00000000000E+00 -0.17521196953E+04  0.17521196953E+04  0.50400001928E-02 0. -1.
    10030    2    1    2    0    0  0.00000000000E+00  0.00000000000E+00 -0.90440999383E+02  0.34137983913E+04  0.34126001644E+04 0.  0.
        2    1    3    3  502    0 -0.14906078447E+04  0.78533666105E+03  0.22467888997E+03  0.16997488113E+04  0.25500000920E-02 0.  1.
       -2    1    3    3    0  502  0.14906078447E+04 -0.78533666105E+03 -0.31511988935E+03  0.17140495800E+04  0.25500000920E-02 0. -1.
</event>
<event>
 5   0  0.5622811E-06  0.3272940E+04  0.7818609E-02  0.8169815E-01
        2   -1    0    0  501    0  0.00000000000E+00  0.00000000000E+00  0.24979971134E+04  0.24979971134E+04  0.25500000920E-02 0.  1.
       -2   -1    0    0    0  501  0.00000000000E+00  0.00000000000E+00 -0.10720727743E+04  0.10720727743E+04  0.25500000920E-02 0. -1.
    10030    2    1    2    0    0  0.00000000000E+00  0.00000000000E+00  0.14259243391E+04  0.35700698877E+04  0.32729403878E+04 0.  0.
        1    1    3    3  502    0  0.15454393006E+04 -0.35971472347E+03  0.11496264257E+04  0.19594433477E+04  0.50400001928E-02 0.  1.
       -1    1    3    3    0  502 -0.15454393006E+04  0.35971472347E+03  0.27629791344E+03  0.16106265400E+04  0.50400001928E-02 0. -1.
</event>
<event>
 5   0  0.5622811E-06  0.2368184E+04  0.7818609E-02  0.8451512E-01
       -2   -1    0    0    0  501  0.00000000000E+00  0.00000000000E+00  0.89900050714E+03  0.89900050715E+03  0.25500000920E-02 0.  1.
        2   -1    0    0  501    0  0.00000000000E+00  0.00000000000E+00 -0.15595916056E+04  0.15595916056E+04  0.25500000920E-02 0. -1.
    10030    2    1    2    0    0  0.00000000000E+00  0.00000000000E+00 -0.66059109850E+03  0.24585921128E+04  0.23681838142E+04 0.  0.
        1    1    3    3  502    0  0.68690932409E+03  0.80482646558E+03 -0.88207774591E+03  0.13775526157E+04  0.50400001928E-02 0.  1.
       -1    1    3    3    0  502 -0.68690932409E+03 -0.80482646558E+03  0.22148664742E+03  0.10810394971E+04  0.50400001928E-02 0. -1.
</event>
<event>
 5   0  0.1878000E-06  0.3278807E+04  0.7818609E-02  0.8168309E-01
        3   -1    0    0  501    0  0.00000000000E+00  0.00000000000E+00  0.16386080188E+04  0.16386080219E+04  0.10100000352E+00 0.  1.
       -3   -1    0    0    0  501  0.00000000000E+00  0.00000000000E+00 -0.16401991835E+04  0.16401991866E+04  0.10100000352E+00 0. -1.
    10030    2    1    2    0    0  0.00000000000E+00  0.00000000000E+00 -0.15911647416E+01  0.32788072085E+04  0.32788068224E+04 0.  0.
        5    1    3    3  502    0 -0.89916994681E+03  0.78795605162E+03  0.11209175799E+04  0.16388592507E+04  0.46999998093E+01 0.  1.
       -5    1    3    3    0  502  0.89916994681E+03 -0.78795605162E+03 -0.11225087447E+04  0.16399479578E+04  0.46999998093E+01 0. -1.
</event>
<event>
 5   0  0.2097842E-06  0.2441239E+04  0.7818609E-02  0.8424224E-01
       -1   -1    0    0    0  501  0.00000000000E+00  0.00000000000E+00  0.21380277543E+04  0.21380277543E+04  0.50400001928E-02 0.  1.
        1   -1    0    0  501    0  0.00000000000E+00  0.00000000000E+00 -0.69686267985E+03  0.69686267987E+03  0.50400001928E-02 0. -1.
    10030    2    1    2    0    0  0.00000000000E+00  0.00000000000E+00  0.14411650745E+04  0.28348904342E+04  0.24412388253E+04 0.  0.
        4    1    3    3  502    0  0.94670276768E+03  0.48855959162E+03  0.14124517357E+04  0.17691687662E+04  0.12699999809E+01 0.  1.
       -4    1    3    3    0  502 -0.94670276768E+03 -0.48855959162E+03  0.28713338832E+02  0.10657216680E+04  0.12699999809E+01 0. -1.
</event>
<event>
 5   0  0.5755250E-06  0.3185685E+04  0.7818609E-02  0.8192608E-01
       -2   -1    0    0    0  501  0.00000000000E+00  0.00000000000E+00  0.98190805259E+03  0.98190805259E+03  0.25500000920E-02 0. -1.
        2   -1    0    0  501    0  0.00000000000E+00  0.00000000000E+00 -0.25838953833E+04  0.25838953833E+04  0.25500000920E-02 0.  1.
    10030    2    1    2    0    0  0.00000000000E+00  0.00000000000E+00 -0.16019873307E+04  0.35658034359E+04  0.31856852851E+04 0.  0.
        5    1    3    3  502    0 -0.54450297236E+03  0.13505577524E+03 -0.24696459353E+04  0.25325672124E+04  0.46999998093E+01 0.  1.
       -5    1    3    3    0  502  0.54450297236E+03 -0.13505577524E+03  0.86765860464E+03  0.10332362235E+04  0.46999998093E+01 0. -1.
</event>
<event>
 5   0  0.1999849E-06  0.3034313E+04  0.7818609E-02  0.8234000E-01
        1   -1    0    0  501    0  0.00000000000E+00  0.00000000000E+00  0.16555659384E+04  0.16555659384E+04  0.50400001928E-02 0. -1.
       -1   -1    0    0    0  501  0.00000000000E+00  0.00000000000E+00 -0.13903184189E+04  0.13903184189E+04  0.50400001928E-02 0.  1.
    10030    2    1    2    0    0  0.00000000000E+00  0.00000000000E+00  0.26524751951E+03  0.30458843572E+04  0.30343129817E+04 0.  0.
        5    1    3    3  502    0  0.91240738498E+03 -0.81550804840E+03 -0.76756869968E+03  0.14445498994E+04  0.46999998093E+01 0. -1.
       -5    1    3    3    0  502 -0.91240738498E+03  0.81550804840E+03  0.10328162192E+04  0.16013344578E+04  0.46999998093E+01 0.  1.
</event>
<event>
 5   0  0.2037109E-06  0.2861754E+04  0.7818609E-02  0.8284348E-01
        1   -1    0    0  501    0  0.00000000000E+00  0.00000000000E+00  0.19340248829E+04  0.19340248829E+04  0.50400001928E-02 0. -1.
       -1   -1    0    0    0  501  0.00000000000E+00  0.00000000000E+00 -0.10586262760E+04  0.10586262760E+04  0.50400001928E-02 0.  1.
    10030    2    1    2    0    0  0.00000000000E+00  0.00000000000E+00  0.87539860689E+03  0.29926511589E+04  0.28617543986E+04 0.  0.
        2    1    3    3  502    0 -0.11426553680E+04 -0.68829994711E+03  0.97905686589E+03  0.16546813753E+04  0.25500000920E-02 0. -1.
       -2    1    3    3    0  502  0.11426553680E+04  0.68829994711E+03 -0.10365825900E+03  0.13379697836E+04  0.25500000920E-02 0.  1.
</event>
<event>
 5   0  0.5755250E-06  0.3294181E+04  0.7818609E-02  0.8164378E-01
       -2   -1    0    0    0  501  0.00000000000E+00  0.00000000000E+00  0.17762435998E+04  0.17762435998E+04  0.25500000920E-02 0.  1.
        2   -1    0    0  501    0  0.00000000000E+00  0.00000000000E+00 -0.15273279507E+04  0.15273279507E+04  0.25500000920E-02 0. -1.
    10030    2    1    2    0    0  0.00000000000E+00  0.00000000000E+00  0.24891564919E+03  0.33035715505E+04  0.32941806248E+04 0.  0.
        5    1    3    3  502    0 -0.49459489732E+03 -0.12988579934E+04 -0.76193303074E+03  0.15849984961E+04  0.46999998093E+01 0. -1.
       -5    1    3    3    0  502  0.49459489732E+03  0.12988579934E+04  0.10108486799E+04  0.17185730544E+04  0.46999998093E+01 0.  1.
</event>
<event>
 5   0  0.5622811E-06  0.2943479E+04  0.7818609E-02  0.8260057E-01
       -2   -1    0    0    0  501  0.00000000000E+00  0.00000000000E+00  0.14451006903E+04  0.14451006904E+04  0.25500000920E-02 0.  1.
        2   -1    0    0  501    0  0.00000000000E+00  0.00000000000E+00 -0.14988698121E+04  0.14988698121E+04  0.25500000920E-02 0. -1.
    10030    2    1    2    0    0  0.00000000000E+00  0.00000000000E+00 -0.53769121758E+02  0.29439705025E+04  0.29434794378E+04 0.  0.
        1    1    3    3  502    0 -0.97164242977E+03  0.70412153348E+03  0.82539706015E+03  0.14564190510E+04  0.50400001928E-02 0.  1.
       -1    1    3    3    0  502  0.97164242977E+03 -0.70412153348E+03 -0.87916618191E+03  0.14875514514E+04  0.50400001928E-02 0. -1.
</event>
<event>
 5   0  0.2037109E-06  0.3384310E+04  0.7818609E-02  0.8141768E-01
        1   -1    0    0  501    0  0.00000000000E+00  0.00000000000E+00  0.16217431352E+04  0.16217431352E+04  0.50400001928E-02 0. -1.
       -1   -1    0    0    0  501  0.00000000000E+00  0.00000000000E+00 -0.17656237757E+04  0.17656237757E+04  0.50400001928E-02 0.  1.
    10030    2    1    2    0    0  0.00000000000E+00  0.00000000000E+00 -0.14388064057E+03  0.33873669109E+04  0.33843098189E+04 0.  0.
        2    1    3    3  502    0 -0.48637681307E+02  0.16867377507E+04  0.54420993873E+02  0.16883161754E+04  0.25500000920E-02 0.  1.
       -2    1    3    3    0  502  0.48637681307E+02 -0.16867377507E+04 -0.19830163444E+03  0.16990507355E+04  0.25500000920E-02 0. -1.
</event>
<event>
 5   0  0.1999849E-06  0.2703361E+04  0.7818609E-02  0.8333915E-01
       -1   -1    0    0    0  501  0.00000000000E+00  0.00000000000E+00  0.10110110753E+04  0.10110110753E+04  0.50400001928E-02 0. -1.
        1   -1    0    0  501    0  0.00000000000E+00  0.00000000000E+00 -0.18071415251E+04  0.18071415251E+04  0.50400001928E-02 0.  1.
    10030    2    1    2    0    0  0.00000000000E+00  0.00000000000E+00 -0.79613044976E+03  0.28181526004E+04  0.27033609426E+04 0.  0.
        5    1    3    3  502    0  0.46407451896E+03  0.51652285454E+03  0.81085744917E+03  0.10675546409E+04  0.46999998093E+01 0. -1.
       -5    1    3    3    0  502 -0.46407451896E+03 -0.51652285454E+03 -0.16069878989E+04  0.17505979595E+04  0.46999998093E+01 0.  1.
</event>
<event>
 5   0  0.2730981E-06  0.1814961E+04  0.7818609E-02  0.8698384E-01
       -1   -1    0    0    0  501  0.00000000000E+00  0.00000000000E+00  0.14669384841E+04  0.14669384841E+04  0.50400001928E-02 0.  1.
        1   -1    0    0  501    0  0.00000000000E+00  0.00000000000E+00 -0.56138735361E+03  0.56138735363E+03  0.50400001928E-02 0. -1.
    10030    2    1    2    0    0  0.00000000000E+00  0.00000000000E+00  0.90555113049E+03  0.20283258377E+04  0.18149608409E+04 0.  0.
        3    1    3    3  502    0 -0.84055136065E+02  0.30288933593E+03 -0.49860359856E+03  0.58941731771E+03  0.10100000352E+00 0. -1.
       -3    1    3    3    0  502  0.84055136065E+02 -0.30288933593E+03  0.14041547291E+04  0.14389085200E+04  0.10100000352E+00 0.  1.
</event>
<event>
 5   0  0.2730981E-06  0.3211158E+04  0.7818609E-02  0.8185877E-01
        1   -1    0    0  501    0  0.00000000000E+00  0.00000000000E+00  0.18709103677E+04  0.18709103677E+04  0.50400001928E-02 0.  1.
       -1   -1    0    0    0  501  0.00000000000E+00  0.00000000000E+00 -0.13778764119E+04  0.13778764119E+04  0.50400001928E-02 0. -1.
    10030    2    1    2    0    0  0.00000000000E+00  0.00000000000E+00  0.49303395582E+03  0.32487867795E+04  0.32111575884E+04 0.  0.
        3    1    3    3  502    0  0.59180283722E+03  0.94169933536E+03  0.14180391186E+04  0.18021828954E+04  0.10100000352E+00 0.  1.
       -3    1    3    3    0  502 -0.59180283722E+03 -0.94169933536E+03 -0.92500516275E+03  0.14466038842E+04  0.10100000352E+00 0. -1.
</event>
<event>
 5   0  0.1999849E-06  0.3243841E+04  0.7818609E-02  0.8177334E-01
        1   -1    0    0  501    0  0.00000000000E+00  0.00000000000E+00  0.30525161805E+04  0.30525161805E+04  0.50400001928E-02 0.  1.
       -1   -1    0    0    0  501  0.00000000000E+00  0.00000000000E+00 -0.86178962321E+03  0.86178962323E+03  0.50400001928E-02 0. -1.
    10030    2    1    2    0    0  0.00000000000E+00  0.00000000000E+00  0.21907265573E+04  0.39143058037E+04  0.32438414074E+04 0.  0.
        5    1    3    3  502    0  0.12082945397E+04  0.88802379685E+03  0.34951395009E+03  0.15397220690E+04  0.46999998093E+01 0.  1.
       -5    1    3    3    0  502 -0.12082945397E+04 -0.88802379685E+03  0.18412126072E+04  0.23745837348E+04  0.46999998093E+01 0. -1.
</event>
<event>
 5   0  0.2097842E-06  0.2975072E+04  0.7818609E-02  0.8250885E-01
        1   -1    0    0  501    0  0.00000000000E+00  0.00000000000E+00  0.16503201822E+04  0.16503201822E+04  0.50400001928E-02 0.  1.
       -1   -1    0    0    0  501  0.00000000000E+00  0.00000000000E+00 -0.13408087823E+04  0.13408087823E+04  0.50400001928E-02 0. -1.
    10030    2    1    2    0    0  0.00000000000E+00  0.00000000000E+00  0.30951139986E+03  0.29911289645E+04  0.29750722975E+04 0.  0.
        4    1    3    3  502    0  0.11689973815E+04 -0.53234246730E+03  0.90901715130E+03  0.15736127779E+04  0.12699999809E+01 0.  1.
       -4    1    3    3    0  502 -0.11689973815E+04  0.53234246730E+03 -0.59950575144E+03  0.14175161866E+04  0.12699999809E+01 0. -1.
</event>
<event>
 5   0  0.1999849E-06  0.2989268E+04  0.7818609E-02  0.8246802E-01
       -1   -1    0    0    0  501  0.00000000000E+00  0.00000000000E+00  0.89663149741E+03  0.89663149743E+03  0.50400001928E-02 0. -1.
        1   -1    0    0  501    0  0.00000000000E+00  0.00000000000E+00 -0.24914698951E+04  0.24914698951E+04  0.50400001928E-02 0.  1.
    10030    2    1    2    0    0  0.00000000000E+00  0.00000000000E+00 -0.15948383977E+04  0.33881013926E+04  0.29892677250E+04 0.  0.
        5    1    3    3  502    0 -0.10387457533E+04 -0.24912223258E+03 -0.19822943515E+04  0.22517920892E+04  0.46999998093E+01 0.  1.
       -5    1    3    3    0  502  0.10387457533E+04  0.24912223258E+03  0.38745595381E+03  0.11363093034E+04  0.46999998093E+01 0. -1.
</event>
<event>
 5   0  0.5300268E-06  0.2105407E+04  0.7818609E-02  0.8558865E-01
       -2   -1    0    0    0  501  0.00000000000E+00  0.00000000000E+00  0.14928682811E+04  0.14928682811E+04  0.25500000920E-02 0.  1.
        2   -1    0    0  501    0  0.00000000000E+00  0.00000000000E+00 -0.74231881829E+03  0.74231881829E+03  0.25500000920E-02 0. -1.
    10030    2    1    2    0    0  0.00000000000E+00  0.00000000000E+00  0.75054946281E+03  0.22351870994E+04  0.21054065814E+04 0.  0.
        4    1    3    3  502    0  0.19734251675E+03 -0.95956260409E+02 -0.71776808729E+03  0.75056266418E+03  0.12699999809E+01 0. -1.
       -4    1    3    3    0  502 -0.19734251675E+03  0.95956260409E+02  0.14683175501E+04  0.14846244352E+04  0.12699999809E+01 0.  1.
</event>
<event>
 5   0  0.1999849E-06  0.3067614E+04  0.7818609E-02  0.8224682E-01
        1   -1    0    0  501    0  0.00000000000E+00  0.00000000000E+00  0.15989526065E+04  0.15989526065E+04  0.50400001928E-02 0.  1.
       -1   -1    0    0    0  501  0.00000000000E+00  0.00000000000E+00 -0.14713158411E+04  0.14713158412E+04  0.50400001928E-02 0. -1.
    10030    2    1    2    0    0  0.00000000000E+00  0.00000000000E+00  0.12763676532E+03  0.30702684476E+04  0.30676142516E+04 0.  0.
        5    1    3    3  502    0 -0.89168186532E+03  0.15820214731E+03 -0.11751613104E+04  0.14836275354E+04  0.46999998093E+01 0. -1.
       -5    1    3    3    0  502  0.89168186532E+03 -0.15820214731E+03  0.13027980757E+04  0.15866409122E+04  0.46999998093E+01 0.  1.
</event>
<event>
 5   0  0.5855568E-06  0.3439697E+04  0.7818609E-02  0.8128231E-01
       -2   -1    0    0    0  501  0.00000000000E+00  0.00000000000E+00  0.15332399395E+04  0.15332399395E+04  0.25500000920E-02 0.  1.
        2   -1    0    0  501    0  0.00000000000E+00  0.00000000000E+00 -0.19291693526E+04  0.19291693526E+04  0.25500000920E-02 0. -1.
    10030    2    1    2    0    0  0.00000000000E+00  0.00000000000E+00 -0.39592941318E+03  0.34624092921E+04  0.34396973713E+04 0.  0.
        3    1    3    3  502    0  0.15147701089E+04  0.60523019350E+03  0.35065457033E+03  0.16684695705E+04  0.10100000352E+00 0.  1.
       -3    1    3    3    0  502 -0.15147701089E+04 -0.60523019350E+03 -0.74658398351E+03  0.17939397216E+04  0.10100000352E+00 0. -1.
</event>
<event>
 5   0  0.5855568E-06  0.3303518E+04  0.7818609E-02  0.8162001E-01
       -2   -1    0    0    0  501  0.00000000000E+00  0.00000000000E+00  0.16936934899E+04  0.16936934899E+04  0.25500000920E-02 0. -1.
        2   -1    0    0  501    0  0.00000000000E+00  0.00000000000E+00 -0.16108624186E+04  0.16108624186E+04  0.25500000920E-02 0.  1.
    10030    2    1    2    0    0  0.00000000000E+00  0.00000000000E+00  0.82831071276E+02  0.33045559085E+04  0.33035176352E+04 0.  0.
        3    1    3    3  502    0 -0.13912152758E+04 -0.79333511169E+03  0.44582794259E+03  0.16624148422E+04  0.10100000352E+00 0. -1.
       -3    1    3    3    0  502  0.13912152758E+04  0.79333511169E+03 -0.36299687131E+03  0.16421410663E+04  0.10100000352E+00 0.  1.
</event>
<event>
 5   0  0.1878000E-06  0.3218706E+04  0.7818609E-02  0.8183894E-01
        4   -1    0    0  501    0  0.00000000000E+00  0.00000000000E+00  0.18404589367E+04  0.18404593749E+04  0.12699999809E+01 0. -1.
       -4   -1    0    0    0  501  0.00000000000E+00  0.00000000000E+00 -0.14072662475E+04  0.14072668205E+04  0.12699999809E+01 0.  1.
    10030    2    1    2    0    0  0.00000000000E+00  0.00000000000E+00  0.43319268927E+03  0.32477261954E+04  0.32187061895E+04 0.  0.
        5    1    3    3  502    0  0.83535689828E+03 -0.12727971443E+04 -0.30979831954E+03  0.15536507995E+04  0.46999998093E+01 0. -1.
       -5    1    3    3    0  502 -0.83535689828E+03  0.12727971443E+04  0.74299100881E+03  0.16940753959E+04  0.46999998093E+01 0.  1.
</event>
<event>
 5   0  0.5755250E-06  0.3117259E+04  0.7818609E-02  0.8211017E-01
       -2   -1    0    0    0  501  0.00000000000E+00  0.00000000000E+00  0.15852621607E+04  0.15852621607E+04  0.25500000920E-02 0. -1.
        2   -1    0    0  501    0  0.00000000000E+00  0.00000000000E+00 -0.15324442034E+04  0.15324442034E+04  0.25500000920E-02 0.  1.
    10030    2    1    2    0    0  0.00000000000E+00  0.00000000000E+00  0.52817957362E+02  0.31177063641E+04  0.31172589299E+04 0.  0.
        5    1    3    3  502    0  0.40051536727E+03 -0.39662842159E+03  0.14797442004E+04  0.15834745507E+04  0.46999998093E+01 0. -1.
       -5    1    3    3    0  502 -0.40051536727E+03  0.39662842159E+03 -0.14269262430E+04  0.15342318134E+04  0.46999998093E+01 0.  1.
</event>
<event>
 5   0  0.1999849E-06  0.3241785E+04  0.7818609E-02  0.8177868E-01
        1   -1    0    0  501    0  0.00000000000E+00  0.00000000000E+00  0.15204797391E+04  0.15204797391E+04  0.50400001928E-02 0. -1.
       -1   -1    0    0    0  501  0.00000000000E+00  0.00000000000E+00 -0.17279367840E+04  0.17279367840E+04  0.50400001928E-02 0.  1.
    10030    2    1    2    0    0  0.00000000000E+00  0.00000000000E+00 -0.20745704493E+03  0.32484165231E+04  0.32417852307E+04 0.  0.
        5    1    3    3  502    0  0.30445414098E+03 -0.19825952919E+02 -0.16988973817E+04  0.17260822101E+04  0.46999998093E+01 0.  1.
       -5    1    3    3    0  502 -0.30445414098E+03  0.19825952919E+02  0.14914403368E+04  0.15223343130E+04  0.46999998093E+01 0. -1.
</event>
<event>
 5   0  0.2037109E-06  0.1908117E+04  0.7818609E-02  0.8650827E-01
       -1   -1    0    0    0  501  0.00000000000E+00  0.00000000000E+00  0.77664509698E+03  0.77664509700E+03  0.50400001928E-02 0. -1.
        1   -1    0    0  501    0  0.00000000000E+00  0.00000000000E+00 -0.11719992837E+04  0.11719992837E+04  0.50400001928E-02 0.  1.
    10030    2    1    2    0    0  0.00000000000E+00  0.00000000000E+00 -0.39535418668E+03  0.19486443807E+04  0.19081168700E+04 0.  0.
        2    1    3    3  502    0  0.62891173132E+03 -0.45530552699E+02  0.53350794757E+03  0.82597441071E+03  0.25500000920E-02 0. -1.
       -2    1    3    3    0  502 -0.62891173132E+03  0.45530552699E+02 -0.92886213425E+03  0.11226699700E+04  0.25500000920E-02 0.  1.
</event>
<event>
 5   0  0.6403170E-06  0.1770748E+04  0.7818609E-02  0.8722012E-01
       -2   -1    0    0    0  501  0.00000000000E+00  0.00000000000E+00  0.90173272034E+03  0.90173272034E+03  0.25500000920E-02 0.  1.
        2   -1    0    0  501    0  0.00000000000E+00  0.00000000000E+00 -0.86931242716E+03  0.86931242716E+03  0.25500000920E-02 0. -1.
    10030    2    1    2    0    0  0.00000000000E+00  0.00000000000E+00  0.32420293176E+02  0.17710451475E+04  0.17707483839E+04 0.  0.
        5    1    3    3  502    0  0.86102626235E+01 -0.24634004733E+03  0.86671012248E+03  0.90109160575E+03  0.46999998093E+01 0.  1.
       -5    1    3    3    0  502 -0.86102626235E+01  0.24634004733E+03 -0.83428982930E+03  0.86995354176E+03  0.46999998093E+01 0. -1.
</event>
<event>
 5   0  0.5622811E-06  0.3278977E+04  0.7818609E-02  0.8168265E-01
        2   -1    0    0  501    0  0.00000000000E+00  0.00000000000E+00  0.19499877717E+04  0.19499877717E+04  0.25500000920E-02 0.  1.
       -2   -1    0    0    0  501  0.00000000000E+00  0.00000000000E+00 -0.13784300949E+04  0.13784300949E+04  0.25500000920E-02 0. -1.
    10030    2    1    2    0    0  0.00000000000E+00  0.00000000000E+00  0.57155767673E+03  0.33284178666E+04  0.32789765655E+04 0.  0.
        1    1    3    3  502    0 -0.72235111278E+02 -0.16041927713E+04  0.62132243166E+03  0.17218286566E+04  0.50400001928E-02 0.  1.
       -1    1    3    3    0  502  0.72235111278E+02  0.16041927713E+04 -0.49764754933E+02  0.16065892100E+04  0.50400001928E-02 0. -1.
</event>
<event>
 5   0  0.2037109E-06  0.2084762E+04  0.7818609E-02  0.8567985E-01
       -1   -1    0    0    0  501  0.00000000000E+00  0.00000000000E+00  0.57024579298E+03  0.57024579300E+03  0.50400001928E-02 0.  1.
        1   -1    0    0  501    0  0.00000000000E+00  0.00000000000E+00 -0.19054215091E+04  0.19054215091E+04  0.50400001928E-02 0. -1.
    10030    2    1    2    0    0  0.00000000000E+00  0.00000000000E+00 -0.13351757161E+04  0.24756673021E+04  0.20847624320E+04 0.  0.
        2    1    3    3  502    0 -0.21101912542E+03  0.17495375774E+03  0.52667968506E+03  0.59374184567E+03  0.25500000920E-02 0.  1.
       -2    1    3    3    0  502  0.21101912542E+03 -0.17495375774E+03 -0.18618554012E+04  0.18819254564E+04  0.25500000920E-02 0. -1.
</event>
<event>
 5   0  0.5622811E-06  0.1628450E+04  0.7818609E-02  0.8803258E-01
        2   -1    0    0  501    0  0.00000000000E+00  0.00000000000E+00  0.15459396035E+04  0.15459396035E+04  0.25500000920E-02 0. -1.
       -2   -1    0    0    0  501  0.00000000000E+00  0.00000000000E+00 -0.42884103927E+03  0.42884103927E+03  0.25500000920E-02 0.  1.
    10030    2    1    2    0    0  0.00000000000E+00  0.00000000000E+00  0.11170985642E+04  0.19747806427E+04  0.16284499946E+04 0.  0.
        1    1    3    3  502    0  0.73867120602E+03  0.37813956213E+02  0.97138864034E+03  0.12209262617E+04  0.50400001928E-02 0. -1.
       -1    1    3    3    0  502 -0.73867120602E+03 -0.37813956213E+02  0.14570992387E+03  0.75385438105E+03  0.50400001928E-02 0.  1.
</event>
<event>
 5   0  0.2097842E-06  0.2962475E+04  0.7818609E-02  0.8254528E-01
        1   -1    0    0  501    0  0.00000000000E+00  0.00000000000E+00  0.10325446888E+04  0.10325446888E+04  0.50400001928E-02 0. -1.
       -1   -1    0    0    0  501  0.00000000000E+00  0.00000000000E+00 -0.21249102797E+04  0.21249102797E+04  0.50400001928E-02 0.  1.
    10030    2    1    2    0    0  0.00000000000E+00  0.00000000000E+00 -0.10923655909E+04  0.31574549685E+04  0.29624751972E+04 0.  0.
        4    1    3    3  502    0 -0.93148856239E+03  0.11467984280E+04 -0.43315782051E+03  0.15396249175E+04  0.12699999809E+01 0.  1.
       -4    1    3    3    0  502  0.93148856239E+03 -0.11467984280E+04 -0.65920777041E+03  0.16178300510E+04  0.12699999809E+01 0. -1.
</event>
<event>
 5   0  0.5855568E-06  0.3319419E+04  0.7818609E-02  0.8157972E-01
        2   -1    0    0  501    0  0.00000000000E+00  0.00000000000E+00  0.24512469454E+04  0.24512469454E+04  0.25500000920E-02 0. -1.
       -2   -1    0    0    0  501  0.00000000000E+00  0.00000000000E+00 -0.11237688303E+04  0.11237688303E+04  0.25500000920E-02 0.  1.
    10030    2    1    2    0    0  0.00000000000E+00  0.00000000000E+00  0.13274781151E+04  0.35750157756E+04  0.33194185711E+04 0.  0.
        3    1    3    3  502    0  0.12801155590E+04  0.91773998368E+03  0.10029954909E+03  0.15782910162E+04  0.10100000352E+00 0. -1.
       -3    1    3    3    0  502 -0.12801155590E+04 -0.91773998368E+03  0.12271785660E+04  0.19967247595E+04  0.10100000352E+00 0.  1.
</event>
<event>
 5   0  0.2097842E-06  0.3326607E+04  0.7818609E-02  0.8156158E-01
        1   -1    0    0  501    0  0.00000000000E+00  0.00000000000E+00  0.15792067250E+04  0.15792067250E+04  0.50400001928E-02 0.  1.
       -1   -1    0    0    0  501  0.00000000000E+00  0.00000000000E+00 -0.17518790688E+04  0.17518790688E+04  0.50400001928E-02 0. -1.
    10030    2    1    2    0    0  0.00000000000E+00  0.00000000000E+00 -0.17267234377E+03  0.33310857938E+04  0.33266074051E+04 0.  0.
        4    1    3    3  502    0  0.77133382766E+03 -0.61525525401E+03 -0.14271992360E+04  0.17350487524E+04  0.12699999809E+01 0. -1.
       -4    1    3    3    0  502 -0.77133382766E+03  0.61525525401E+03  0.12545268922E+04  0.15960370414E+04  0.12699999809E+01 0.  1.
</event>
<event>
 5   0  0.5855568E-06  0.2087024E+04  0.7818609E-02  0.8566981E-01
        2   -1    0    0  501    0  0.00000000000E+00  0.00000000000E+00  0.10631454825E+04  0.10631454825E+04  0.25500000920E-02 0.  1.
       -2   -1    0    0    0  501  0.00000000000E+00  0.00000000000E+00 -0.10242414383E+04  0.10242414383E+04  0.25500000920E-02 0. -1.
    10030    2    1    2    0    0  0.00000000000E+00  0.00000000000E+00  0.38904044153E+02  0.20873869208E+04  0.20870243488E+04 0.  0.
        3    1    3    3  502    0  0.15743910214E+03  0.44616472694E+02 -0.10113287615E+04  0.10244821006E+04  0.10100000352E+00 0. -1.
       -3    1    3    3    0  502 -0.15743910214E+03 -0.44616472694E+02  0.10502328056E+04  0.10629048201E+04  0.10100000352E+00 0.  1.
</event>
<event>
 5   0  0.5300268E-06  0.3313980E+04  0.7818609E-02  0.8159347E-01
        2   -1    0    0  501    0  0.00000000000E+00  0.00000000000E+00  0.15797786224E+04  0.15797786224E+04  0.25500000920E-02 0. -1.
       -2   -1    0    0    0  501  0.00000000000E+00  0.00000000000E+00 -0.17379752602E+04  0.17379752602E+04  0.25500000920E-02 0.  1.
    10030    2    1    2    0    0  0.00000000000E+00  0.00000000000E+00 -0.15819663775E+03  0.33177538826E+04  0.33139801824E+04 0.  0.
        4    1    3    3  502    0  0.20294618714E+03 -0.38436910113E+03  0.15216870553E+04  0.15825485357E+04  0.12699999809E+01 0. -1.
       -4    1    3    3    0  502 -0.20294618714E+03  0.38436910113E+03 -0.16798836930E+04  0.17352053469E+04  0.12699999809E+01 0.  1.
</event>
<event>
 5   0  0.5637538E-06  0.1798250E+04  0.7818609E-02  0.8707231E-01
       -2   -1    0    0    0  501  0.00000000000E+00  0.00000000000E+00  0.11715096805E+04  0.11715096805E+04  0.25500000920E-02 0. -1.
        2   -1    0    0  501    0  0.00000000000E+00  0.00000000000E+00 -0.69007185979E+03  0.69007185979E+03  0.25500000920E-02 0.  1.
    10030    2    1    2    0    0  0.00000000000E+00  0.00000000000E+00  0.48143782069E+03  0.18615815403E+04  0.17982501094E+04 0.  0.
        2    1    3    3  502    0 -0.66448529807E+02 -0.50885333867E+03 -0.52357709318E+03  0.73313034305E+03  0.25500000920E-02 0.  1.
       -2    1    3    3    0  502  0.66448529807E+02  0.50885333867E+03  0.10050149139E+04  0.11284511972E+04  0.25500000920E-02 0. -1.
</event>
<event>
 5   0  0.5637538E-06  0.3327000E+04  0.7818609E-02  0.8156059E-01
        2   -1    0    0  501    0  0.00000000000E+00  0.00000000000E+00  0.27225354017E+04  0.27225354017E+04  0.25500000920E-02 0. -1.
       -2   -1    0    0    0  501  0.00000000000E+00  0.00000000000E+00 -0.10164171335E+04  0.10164171335E+04  0.25500000920E-02 0.  1.
    10030    2    1    2    0    0  0.00000000000E+00  0.00000000000E+00  0.17061182683E+04  0.37389525352E+04  0.33269996266E+04 0.  0.
        2    1    3    3  502    0 -0.12097099798E+04 -0.10282058051E+04  0.29495296943E+03  0.16148073157E+04  0.25500000920E-02 0.  1.
       -2    1    3    3    0  502  0.12097099798E+04  0.10282058051E+04  0.14111652988E+04  0.21241452195E+04  0.25500000920E-02 0. -1.
</event>
<event>
 5   0  0.2097842E-06  0.2330015E+04  0.7818609E-02  0.8466180E-01
       -1   -1    0    0    0  501  0.00000000000E+00  0.00000000000E+00  0.80836837803E+03  0.80836837805E+03  0.50400001928E-02 0.  1.
        1   -1    0    0  501    0  0.00000000000E+00  0.00000000000E+00 -0.16789902823E+04  0.16789902823E+04  0.50400001928E-02 0. -1.
    10030    2    1    2    0    0  0.00000000000E+00  0.00000000000E+00 -0.87062190424E+03  0.24873586603E+04  0.23300151512E+04 0.  0.
        4    1    3    3  502    0 -0.13668200144E+03 -0.56306603045E+03  0.64364121823E+03  0.86602595507E+03  0.12699999809E+01 0.  1.
       -4    1    3    3    0  502  0.13668200144E+03  0.56306603045E+03 -0.15142631225E+04  0.16213327052E+04  0.12699999809E+01 0. -1.
</event>
<event>
 5   0  0.5637538E-06  0.3257350E+04  0.7818609E-02  0.8173833E-01
        2   -1    0    0  501    0  0.00000000000E+00  0.00000000000E+00  0.26321032373E+04  0.26321032373E+04  0.25500000920E-02 0.  1.
       -2   -1    0    0    0  501  0.00000000000E+00  0.00000000000E+00 -0.10077804665E+04  0.10077804665E+04  0.25500000920E-02 0. -1.
    10030    2    1    2    0    0  0.00000000000E+00  0.00000000000E+00  0.16243227708E+04  0.36398837038E+04  0.32573499832E+04 0.  0.
        2    1    3    3  502    0 -0.12974762502E+04 -0.97652339868E+03  0.95145905262E+03  0.18821043799E+04  0.25500000920E-02 0.  1.
       -2    1    3    3    0  502  0.12974762502E+04  0.97652339868E+03  0.67286371818E+03  0.17577793238E+04  0.25500000920E-02 0. -1.
</event>
<event>
 5   0  0.5755250E-06  0.3289924E+04  0.7818609E-02  0.8165464E-01
        2   -1    0    0  501    0  0.00000000000E+00  0.00000000000E+00  0.15539696834E+04  0.15539696834E+04  0.25500000920E-02 0.  1.
       -2   -1    0    0    0  501  0.00000000000E+00  0.00000000000E+00 -0.17412822074E+04  0.17412822074E+04  0.25500000920E-02 0. -1.
    10030    2    1    2    0    0  0.00000000000E+00  0.00000000000E+00 -0.18731252402E+03  0.32952518908E+04  0.32899238657E+04 0.  0.
        5    1    3    3  502    0 -0.60255694455E+03  0.11114484464E+04  0.96041925459E+03  0.15877089642E+04  0.46999998093E+01 0.  1.
       -5    1    3    3    0  502  0.60255694455E+03 -0.11114484464E+04 -0.11477317786E+04  0.17075429266E+04  0.46999998093E+01 0. -1.
</event>
<event>
 5   0  0.5755250E-06  0.3258149E+04  0.7818609E-02  0.8173627E-01
        2   -1    0    0  501    0  0.00000000000E+00  0.00000000000E+00  0.17835481188E+04  0.17835481188E+04  0.25500000920E-02 0.  1.
       -2   -1    0    0    0  501  0.00000000000E+00  0.00000000000E+00 -0.14879798833E+04  0.14879798833E+04  0.25500000920E-02 0. -1.
    10030    2    1    2    0    0  0.00000000000E+00  0.00000000000E+00  0.29556823554E+03  0.32715280022E+04  0.32581489971E+04 0.  0.
        5    1    3    3  502    0 -0.51741121139E+03  0.12285971946E+04 -0.79238128154E+03  0.15508241723E+04  0.46999998093E+01 0. -1.
       -5    1    3    3    0  502  0.51741121139E+03 -0.12285971946E+04  0.10879495171E+04  0.17207038298E+04  0.46999998093E+01 0.  1.
</event>
<event>
 5   0  0.5855568E-06  0.3291076E+04  0.7818609E-02  0.8165170E-01
       -2   -1    0    0    0  501  0.00000000000E+00  0.00000000000E+00  0.12307177520E+04  0.12307177520E+04  0.25500000920E-02 0.  1.
        2   -1    0    0  501    0  0.00000000000E+00  0.00000000000E+00 -0.22001760161E+04  0.22001760161E+04  0.25500000920E-02 0. -1.
    10030    2    1    2    0    0  0.00000000000E+00  0.00000000000E+00 -0.96945826408E+03  0.34308937682E+04  0.32910762256E+04 0.  0.
        3    1    3    3  502    0 -0.15619259269E+04 -0.19725674220E+03 -0.98389587378E+03  0.18564950644E+04  0.10100000352E+00 0. -1.
       -3    1    3    3    0  502  0.15619259269E+04  0.19725674220E+03  0.14437609699E+02  0.15743987037E+04  0.10100000352E+00 0.  1.
</event>
<event>
 5   0  0.1999849E-06  0.3089202E+04  0.7818609E-02  0.8218708E-01
        1   -1    0    0  501    0  0.00000000000E+00  0.00000000000E+00  0.17697932080E+04  0.17697932080E+04  0.50400001928E-02 0. -1.
       -1   -1    0    0    0  501  0.00000000000E+00  0.00000000000E+00 -0.13480624608E+04  0.13480624609E+04  0.50400001928E-02 0.  1.
    10030    2    1    2    0    0  0.00000000000E+00  0.00000000000E+00  0.42173074712E+03  0.31178556688E+04  0.30892017008E+04 0.  0.
        5    1    3    3  502    0  0.39187011793E+03 -0.38597006886E+03 -0.12458638517E+04  0.13618861591E+04  0.46999998093E+01 0.  1.
       -5    1    3    3    0  502 -0.39187011793E+03  0.38597006886E+03  0.16675945988E+04  0.17559695098E+04  0.46999998093E+01 0. -1.
</event>
<event>
 5   0  0.1925906E-06  0.3245814E+04  0.7818609E-02  0.8176821E-01
       -1   -1    0    0    0  501  0.00000000000E+00  0.00000000000E+00  0.10838539899E+04  0.10838539899E+04  0.50400001928E-02 0.  1.
        1   -1    0    0  501    0  0.00000000000E+00  0.00000000000E+00 -0.24300575446E+04  0.24300575446E+04  0.50400001928E-02 0. -1.
    10030    2    1    2    0    0  0.00000000000E+00  0.00000000000E+00 -0.13462035547E+04  0.35139115345E+04  0.32458142679E+04 0.  0.
        1    1    3    3  502    0  0.72746976314E+03 -0.10272925794E+04  0.43585327987E+03  0.13321074962E+04  0.50400001928E-02 0.  1.
       -1    1    3    3    0  502 -0.72746976314E+03  0.10272925794E+04 -0.17820568346E+04  0.21818040383E+04  0.50400001928E-02 0. -1.
</event>
<event>
 5   0  0.5855568E-06  0.3481837E+04  0.7818609E-02  0.8118108E-01
        2   -1    0    0  501    0  0.00000000000E+00  0.00000000000E+00  0.15594441068E+04  0.15594441068E+04  0.25500000920E-02 0.  1.
       -2   -1    0    0    0  501  0.00000000000E+00  0.00000000000E+00 -0.19435116317E+04  0.19435116317E+04  0.25500000920E-02 0. -1.
    10030    2    1    2    0    0  0.00000000000E+00  0.00000000000E+00 -0.38406752492E+03  0.35029557385E+04  0.34818373084E+04 0.  0.
        3    1    3    3  502    0 -0.17040692830E+04  0.18053606985E+03  0.11699759606E+03  0.17175953660E+04  0.10100000352E+00 0. -1.
       -3    1    3    3    0  502  0.17040692830E+04 -0.18053606985E+03 -0.50106512099E+03  0.17853603724E+04  0.10100000352E+00 0.  1.
</event>
<event>
 5   0  0.2037109E-06  0.2887580E+04  0.7818609E-02  0.8276582E-01
        1   -1    0    0  501    0  0.00000000000E+00  0.00000000000E+00  0.18060669430E+04  0.18060669430E+04  0.50400001928E-02 0.  1.
       -1   -1    0    0    0  501  0.00000000000E+00  0.00000000000E+00 -0.11541818473E+04  0.11541818473E+04  0.50400001928E-02 0. -1.
    10030    2    1    2    0    0  0.00000000000E+00  0.00000000000E+00  0.65188509575E+03  0.29602487903E+04  0.28875800807E+04 0.  0.
        2    1    3    3  502    0 -0.16801656327E+03  0.57227714661E+03 -0.10219846121E+04  0.11832933894E+04  0.25500000920E-02 0. -1.
       -2    1    3    3    0  502  0.16801656327E+03 -0.57227714661E+03  0.16738697078E+04  0.17769554009E+04  0.25500000920E-02 0.  1.
</event>
<event>
 5   0  0.5300268E-06  0.3553721E+04  0.7818609E-02  0.8101176E-01
       -2   -1    0    0    0  501  0.00000000000E+00  0.00000000000E+00  0.14021123937E+04  0.14021123937E+04  0.25500000920E-02 0. -1.
        2   -1    0    0  501    0  0.00000000000E+00  0.00000000000E+00 -0.22517687485E+04  0.22517687485E+04  0.25500000920E-02 0.  1.
    10030    2    1    2    0    0  0.00000000000E+00  0.00000000000E+00 -0.84965635487E+03  0.36538811422E+04  0.35537207937E+04 0.  0.
        4    1    3    3  502    0  0.15941541782E+04  0.34360506038E+03  0.30063552935E+03  0.16582446489E+04  0.12699999809E+01 0. -1.
       -4    1    3    3    0  502 -0.15941541782E+04 -0.34360506038E+03 -0.11502918842E+04  0.19956364932E+04  0.12699999809E+01 0.  1.
</event>
<event>
 5   0  0.2097842E-06  0.3320815E+04  0.7818609E-02  0.8157619E-01
        1   -1    0    0  501    0  0.00000000000E+00  0.00000000000E+00  0.22502543606E+04  0.22502543607E+04  0.50400001928E-02 0. -1.
       -1   -1    0    0    0  501  0.00000000000E+00  0.00000000000E+00 -0.12251741047E+04  0.12251741047E+04  0.50400001928E-02 0.  1.
    10030    2    1    2    0    0  0.00000000000E+00  0.00000000000E+00  0.10250802559E+04  0.34754284654E+04  0.33208151841E+04 0.  0.
        4    1    3    3  502    0  0.15597174635E+03  0.37060526752E+03  0.21985318923E+04  0.22349987795E+04  0.12699999809E+01 0. -1.
       -4    1    3    3    0  502 -0.15597174635E+03 -0.37060526752E+03 -0.11734516363E+04  0.12404296859E+04  0.12699999809E+01 0.  1.
</event>
<event>
 5   0  0.5300268E-06  0.3122838E+04  0.7818609E-02  0.8209498E-01
        2   -1    0    0  501    0  0.00000000000E+00  0.00000000000E+00  0.28291611944E+04  0.28291611944E+04  0.25500000920E-02 0.  1.
       -2   -1    0    0    0  501  0.00000000000E+00  0.00000000000E+00 -0.86175007750E+03  0.86175007751E+03  0.25500000920E-02 0. -1.
    10030    2    1    2    0    0  0.00000000000E+00  0.00000000000E+00  0.19674111169E+04  0.36909112719E+04  0.31228383746E+04 0.  0.
        4    1    3    3  502    0  0.54344025216E+03  0.14530253806E+04  0.11932010860E+04  0.19571255731E+04  0.12699999809E+01 0. -1.
       -4    1    3    3    0  502 -0.54344025216E+03 -0.14530253806E+04  0.77421003083E+03  0.17337856987E+04  0.12699999809E+01 0.  1.
</event>
<event>
 5   0  0.5622811E-06  0.3314956E+04  0.7818609E-02  0.8159100E-01
        2   -1    0    0  501    0  0.00000000000E+00  0.00000000000E+00  0.24860047864E+04  0.24860047864E+04  0.25500000920E-02 0.  1.
       -2   -1    0    0    0  501  0.00000000000E+00  0.00000000000E+00 -0.11050794558E+04  0.11050794558E+04  0.25500000920E-02 0. -1.
    10030    2    1    2    0    0  0.00000000000E+00  0.00000000000E+00  0.13809253306E+04  0.35910842421E+04  0.33149556958E+04 0.  0.
        1    1    3    3  502    0 -0.14907771478E+03  0.10377013428E+04 -0.70029283868E+03  0.12607372057E+04  0.50400001928E-02 0. -1.
       -1    1    3    3    0  502  0.14907771478E+03 -0.10377013428E+04  0.20812181693E+04  0.23303470364E+04  0.50400001928E-02 0.  1.
</event>
<event>
 5   0  0.5637538E-06  0.1933941E+04  0.7818609E-02  0.8638144E-01
        2   -1    0    0  501    0  0.00000000000E+00  0.00000000000E+00  0.71935138784E+03  0.71935138784E+03  0.25500000920E-02 0. -1.
       -2   -1    0    0    0  501  0.00000000000E+00  0.00000000000E+00 -0.12998263789E+04  0.12998263789E+04  0.25500000920E-02 0.  1.
    10030    2    1    2    0    0  0.00000000000E+00  0.00000000000E+00 -0.58047499107E+03  0.20191777668E+04  0.19339409605E+04 0.  0.
        2    1    3    3  502    0  0.51533483414E+03 -0.37834711067E+02  0.56311698714E+03  0.76426579006E+03  0.25500000920E-02 0. -1.
       -2    1    3    3    0  502 -0.51533483414E+03  0.37834711067E+02 -0.11435919782E+04  0.12549119767E+04  0.25500000920E-02 0.  1.
</event>
<event>
 5   0  0.2730981E-06  0.3161955E+04  0.7818609E-02  0.8198938E-01
        1   -1    0    0  501    0  0.00000000000E+00  0.00000000000E+00  0.11249892470E+04  0.11249892470E+04  0.50400001928E-02 0.  1.
       -1   -1    0    0    0  501  0.00000000000E+00  0.00000000000E+00 -0.22217899890E+04  0.22217899890E+04  0.50400001928E-02 0. -1.
    10030    2    1    2    0    0  0.00000000000E+00  0.00000000000E+00 -0.10968007420E+04  0.33467792360E+04  0.31619549944E+04 0.  0.
        3    1    3    3  502    0 -0.30260510177E+03  0.29841533855E+03 -0.21601939495E+04  0.22016038407E+04  0.10100000352E+00 0. -1.
       -3    1    3    3    0  502  0.30260510177E+03 -0.29841533855E+03  0.10633932075E+04  0.11451753953E+04  0.10100000352E+00 0.  1.
</event>
<event>
 5   0  0.1925906E-06  0.3485147E+04  0.7818609E-02  0.8117319E-01
       -1   -1    0    0    0  501  0.00000000000E+00  0.00000000000E+00  0.25073596197E+04  0.25073596197E+04  0.50400001928E-02 0. -1.
        1   -1    0    0  501    0  0.00000000000E+00  0.00000000000E+00 -0.12110598800E+04  0.12110598800E+04  0.50400001928E-02 0.  1.
    10030    2    1    2    0    0  0.00000000000E+00  0.00000000000E+00  0.12962997397E+04  0.37184194997E+04  0.34851471362E+04 0.  0.
        1    1    3    3  502    0 -0.17161011889E+04  0.29482272203E+03  0.57548151343E+03  0.18338764136E+04  0.50400001928E-02 0. -1.
       -1    1    3    3    0  502  0.17161011889E+04 -0.29482272203E+03  0.72081822632E+03  0.18845430861E+04  0.50400001928E-02 0.  1.
</event>
<event>
 5   0  0.2037109E-06  0.2046132E+04  0.7818609E-02  0.8585351E-01
       -1   -1    0    0    0  501  0.00000000000E+00  0.00000000000E+00  0.43818977422E+03  0.43818977425E+03  0.50400001928E-02 0.  1.
        1   -1    0    0  501    0  0.00000000000E+00  0.00000000000E+00 -0.23886086693E+04  0.23886086693E+04  0.50400001928E-02 0. -1.
    10030    2    1    2    0    0  0.00000000000E+00  0.00000000000E+00 -0.19504188951E+04  0.28267984436E+04  0.20461318565E+04 0.  0.
        2    1    3    3  502    0  0.24049823274E+03  0.48660698195E+03 -0.21732765951E+04  0.22400350251E+04  0.25500000920E-02 0. -1.
       -2    1    3    3    0  502 -0.24049823274E+03 -0.48660698195E+03  0.22285769998E+03  0.58676341850E+03  0.25500000920E-02 0.  1.
</event>
<event>
 5   0  0.5637538E-06  0.3218229E+04  0.7818609E-02  0.8184019E-01
       -2   -1    0    0    0  501  0.00000000000E+00  0.00000000000E+00  0.18972084295E+04  0.18972084295E+04  0.25500000920E-02 0. -1.
        2   -1    0    0  501    0  0.00000000000E+00  0.00000000000E+00 -0.13647683735E+04  0.13647683735E+04  0.25500000920E-02 0.  1.
    10030    2    1    2    0    0  0.00000000000E+00  0.00000000000E+00  0.53244005595E+03  0.32619768030E+04  0.32182293657E+04 0.  0.
        2    1    3    3  502    0 -0.74401868549E+03 -0.31067720975E+02  0.17120469740E+04  0.18669852300E+04  0.25500000920E-02 0. -1.
       -2    1    3    3    0  502  0.74401868549E+03  0.31067720975E+02 -0.11796069181E+04  0.13949915730E+04  0.25500000920E-02 0.  1.
</event>
<event>
 5   0  0.5755250E-06  0.3242573E+04  0.7818609E-02  0.8177663E-01
        2   -1    0    0  501    0  0.00000000000E+00  0.00000000000E+00  0.24726971854E+04  0.24726971854E+04  0.25500000920E-02 0.  1.
       -2   -1    0    0    0  501  0.00000000000E+00  0.00000000000E+00 -0.10630375635E+04  0.10630375635E+04  0.25500000920E-02 0. -1.
    10030    2    1    2    0    0  0.00000000000E+00  0.00000000000E+00  0.14096596219E+04  0.35357347490E+04  0.32425730470E+04 0.  0.
        5    1    3    3  502    0  0.35768613109E+03  0.43948987456E+03  0.23611974381E+04  0.24282434289E+04  0.46999998093E+01 0.  1.
       -5    1    3    3    0  502 -0.35768613109E+03 -0.43948987456E+03 -0.95153781625E+03  0.11074913200E+04  0.46999998093E+01 0. -1.
</event>
<event>
 5   0  0.1925906E-06  0.3426547E+04  0.7818609E-02  0.8131421E-01
       -1   -1    0    0    0  501  0.00000000000E+00  0.00000000000E+00  0.19287653145E+04  0.19287653145E+04  0.50400001928E-02 0.  1.
        1   -1    0    0  501    0  0.00000000000E+00  0.00000000000E+00 -0.15218573373E+04  0.15218573373E+04  0.50400001928E-02 0. -1.
    10030    2    1    2    0    0  0.00000000000E+00  0.00000000000E+00  0.40690797717E+03  0.34506226518E+04  0.34265467432E+04 0.  0.
        1    1    3    3  502    0  0.60110421040E+03  0.16042963740E+04  0.21813442370E+03  0.17270424877E+04  0.50400001928E-02 0. -1.
       -1    1    3    3    0  502 -0.60110421040E+03 -0.16042963740E+04  0.18877355347E+03  0.17235801641E+04  0.50400001928E-02 0.  1.
</event>
<event>
 5   0  0.5622811E-06  0.2682170E+04  0.7818609E-02  0.8340813E-01
        2   -1    0    0  501    0  0.00000000000E+00  0.00000000000E+00  0.17936650548E+04  0.17936650548E+04  0.25500000920E-02 0.  1.
       -2   -1    0    0    0  501  0.00000000000E+00  0.00000000000E+00 -0.10027007576E+04  0.10027007576E+04  0.25500000920E-02 0. -1.
    10030    2    1    2    0    0  0.00000000000E+00  0.00000000000E+00  0.79096429720E+03  0.27963658123E+04  0.26821702476E+04 0.  0.
        1    1    3    3  502    0  0.10196080614E+04 -0.71767539684E+03 -0.11935476458E+03  0.12525590341E+04  0.50400001928E-02 0. -1.
       -1    1    3    3    0  502 -0.10196080614E+04  0.71767539684E+03  0.91031906178E+03  0.15438067782E+04  0.50400001928E-02 0.  1.
</event>
<event>
 5   0  0.1925906E-06  0.3027220E+04  0.7818609E-02  0.8236000E-01
       -1   -1    0    0    0  501  0.00000000000E+00  0.00000000000E+00  0.13947302948E+04  0.13947302948E+04  0.50400001928E-02 0.  1.
        1   -1    0    0  501    0  0.00000000000E+00  0.00000000000E+00 -0.16426225879E+04  0.16426225879E+04  0.50400001928E-02 0. -1.
    10030    2    1    2    0    0  0.00000000000E+00  0.00000000000E+00 -0.24789229311E+03  0.30373528828E+04  0.30272201680E+04 0.  0.
        1    1    3    3  502    0 -0.13799241006E+04  0.13349799047E+03 -0.73343580176E+03  0.15684196863E+04  0.50400001928E-02 0. -1.
       -1    1    3    3    0  502  0.13799241006E+04 -0.13349799047E+03  0.48554350865E+03  0.14689331965E+04  0.50400001928E-02 0.  1.
</event>
<event>
 5   0  0.5755250E-06  0.2072478E+04  0.7818609E-02  0.8573465E-01
        2   -1    0    0  501    0  0.00000000000E+00  0.00000000000E+00  0.11486793797E+04  0.11486793797E+04  0.25500000920E-02 0.  1.
       -2   -1    0    0    0  501  0.00000000000E+00  0.00000000000E+00 -0.93480541146E+03  0.93480541147E+03  0.25500000920E-02 0. -1.
    10030    2    1    2    0    0  0.00000000000E+00  0.00000000000E+00  0.21387396828E+03  0.20834847912E+04  0.20724784199E+04 0.  0.
        5    1    3    3  502    0  0.63214366703E+02  0.31645135938E+03 -0.88299147043E+03  0.94012421832E+03  0.46999998093E+01 0. -1.
       -5    1    3    3    0  502 -0.63214366703E+02 -0.31645135938E+03  0.10968654387E+04  0.11433605729E+04  0.46999998093E+01 0.  1.
</event>
<event>
 5   0  0.5300268E-06  0.2325842E+04  0.7818609E-02  0.8467801E-01
        2   -1    0    0  501    0  0.00000000000E+00  0.00000000000E+00  0.19969563551E+04  0.19969563551E+04  0.25500000920E-02 0.  1.
       -2   -1    0    0    0  501  0.00000000000E+00  0.00000000000E+00 -0.67722304575E+03  0.67722304576E+03  0.25500000920E-02 0. -1.
    10030    2    1    2    0    0  0.00000000000E+00  0.00000000000E+00  0.13197333093E+04  0.26741794008E+04  0.23258416670E+04 0.  0.
        4    1    3    3  502    0 -0.10067156280E+04  0.71884737710E+02  0.13240900766E+04  0.16648903612E+04  0.12699999809E+01 0.  1.
       -4    1    3    3    0  502  0.10067156280E+04 -0.71884737710E+02 -0.43567672780E+01  0.10092890396E+04  0.12699999809E+01 0. -1.
</event>
<event>
 5   0  0.5755250E-06  0.3355585E+04  0.7818609E-02  0.8148894E-01
       -2   -1    0    0    0  501  0.00000000000E+00  0.00000000000E+00  0.11107842037E+04  0.11107842037E+04  0.25500000920E-02 0.  1.
        2   -1    0    0  501    0  0.00000000000E+00  0.00000000000E+00 -0.25342352580E+04  0.25342352580E+04  0.25500000920E-02 0. -1.
    10030    2    1    2    0    0  0.00000000000E+00  0.00000000000E+00 -0.14234510543E+04  0.36450194618E+04  0.33555854888E+04 0.  0.
        5    1    3    3  502    0  0.13267148591E+04  0.90813708346E+03 -0.19068435923E+03  0.16190330122E+04  0.46999998093E+01 0. -1.
       -5    1    3    3    0  502 -0.13267148591E+04 -0.90813708346E+03 -0.12327666950E+04  0.20259864496E+04  0.46999998093E+01 0.  1.
</event>
<event>
 5   0  0.5755250E-06  0.2931264E+04  0.7818609E-02  0.8263636E-01
       -2   -1    0    0    0  501  0.00000000000E+00  0.00000000000E+00  0.11370408335E+04  0.11370408335E+04  0.25500000920E-02 0.  1.
        2   -1    0    0  501    0  0.00000000000E+00  0.00000000000E+00 -0.18891824627E+04  0.18891824627E+04  0.25500000920E-02 0. -1.
    10030    2    1    2    0    0  0.00000000000E+00  0.00000000000E+00 -0.75214162921E+03  0.30262232962E+04  0.29312643020E+04 0.  0.
        5    1    3    3  502    0  0.12799632073E+04  0.56608709597E+03 -0.82524591861E+03  0.16247502357E+04  0.46999998093E+01 0. -1.
       -5    1    3    3    0  502 -0.12799632073E+04 -0.56608709597E+03  0.73104289403E+02  0.14014730605E+04  0.46999998093E+01 0.  1.
</event>
<event>
 5   0  0.1878000E-06  0.2768367E+04  0.7818609E-02  0.8313157E-01
       -4   -1    0    0    0  501  0.00000000000E+00  0.00000000000E+00  0.13247776823E+04  0.13247782910E+04  0.12699999809E+01 0. -1.
        4   -1    0    0  501    0  0.00000000000E+00  0.00000000000E+00 -0.14462521732E+04  0.14462527308E+04  0.12699999809E+01 0.  1.
    10030    2    1    2    0    0  0.00000000000E+00  0.00000000000E+00 -0.12147449093E+03  0.27710310219E+04  0.27683671852E+04 0.  0.
        5    1    3    3  502    0 -0.71481688413E+03  0.90945713543E+03 -0.82164413740E+03  0.14188716071E+04  0.46999998093E+01 0. -1.
       -5    1    3    3    0  502  0.71481688413E+03 -0.90945713543E+03  0.70016964647E+03  0.13521594147E+04  0.46999998093E+01 0.  1.
</event>
<event>
 5   0  0.5622811E-06  0.3284081E+04  0.7818609E-02  0.8166958E-01
       -2   -1    0    0    0  501  0.00000000000E+00  0.00000000000E+00  0.16319087083E+04  0.16319087083E+04  0.25500000920E-02 0.  1.
        2   -1    0    0  501    0  0.00000000000E+00  0.00000000000E+00 -0.16522349531E+04  0.16522349531E+04  0.25500000920E-02 0. -1.
    10030    2    1    2    0    0  0.00000000000E+00  0.00000000000E+00 -0.20326244778E+02  0.32841436614E+04  0.32840807592E+04 0.  0.
        1    1    3    3  502    0 -0.50831777207E+03  0.15438444261E+04  0.22319523901E+03  0.16406275275E+04  0.50400001928E-02 0.  1.
       -1    1    3    3    0  502  0.50831777207E+03 -0.15438444261E+04 -0.24352148378E+03  0.16435161339E+04  0.50400001928E-02 0. -1.
</event>
<event>
 5   0  0.2037109E-06  0.2739535E+04  0.7818609E-02  0.8322290E-01
       -1   -1    0    0    0  501  0.00000000000E+00  0.00000000000E+00  0.11823562919E+04  0.11823562919E+04  0.50400001928E-02 0.  1.
        1   -1    0    0  501    0  0.00000000000E+00  0.00000000000E+00 -0.15868840946E+04  0.15868840946E+04  0.50400001928E-02 0. -1.
    10030    2    1    2    0    0  0.00000000000E+00  0.00000000000E+00 -0.40452780272E+03  0.27692403865E+04  0.27395345544E+04 0.  0.
        2    1    3    3  502    0  0.14272248981E+03  0.70586073248E+03  0.97555444700E+03  0.12125656938E+04  0.25500000920E-02 0.  1.
       -2    1    3    3    0  502 -0.14272248981E+03 -0.70586073248E+03 -0.13800822497E+04  0.15566746927E+04  0.25500000920E-02 0. -1.
</event>
<event>
 5   0  0.5300268E-06  0.2308163E+04  0.7818609E-02  0.8474710E-01
        2   -1    0    0  501    0  0.00000000000E+00  0.00000000000E+00  0.12459948851E+04  0.12459948851E+04  0.25500000920E-02 0. -1.
       -2   -1    0    0    0  501  0.00000000000E+00  0.00000000000E+00 -0.10689482702E+04  0.10689482702E+04  0.25500000920E-02 0.  1.
    10030    2    1    2    0    0  0.00000000000E+00  0.00000000000E+00  0.17704661494E+03  0.23149431553E+04  0.23081629727E+04 0.  0.
        4    1    3    3  502    0 -0.24194647747E+03  0.94088086715E+03  0.71333609973E+03  0.12052571959E+04  0.12699999809E+01 0. -1.
       -4    1    3    3    0  502  0.24194647747E+03 -0.94088086715E+03 -0.53628948479E+03  0.11096859594E+04  0.12699999809E+01 0.  1.
</event>
<event>
 5   0  0.2730981E-06  0.2581385E+04  0.7818609E-02  0.8374552E-01
        1   -1    0    0  501    0  0.00000000000E+00  0.00000000000E+00  0.26818253168E+04  0.26818253168E+04  0.50400001928E-02 0.  1.
       -1   -1    0    0    0  501  0.00000000000E+00  0.00000000000E+00 -0.62117651761E+03  0.62117651763E+03  0.50400001928E-02 0. -1.
    10030    2    1    2    0    0  0.00000000000E+00  0.00000000000E+00  0.20606487992E+04  0.33030018345E+04  0.25813848308E+04 0.  0.
        3    1    3    3  502    0 -0.22195057925E+03  0.77788673685E+03 -0.25656928165E+03  0.84864459080E+03  0.10100000352E+00 0. -1.
       -3    1    3    3    0  502  0.22195057925E+03 -0.77788673685E+03  0.23172180809E+04  0.24543572437E+04  0.10100000352E+00 0.  1.
</event>
<event>
 5   0  0.5855568E-06  0.3189025E+04  0.7818609E-02  0.8191722E-01
        2   -1    0    0  501    0  0.00000000000E+00  0.00000000000E+00  0.13298977883E+04  0.13298977883E+04  0.25500000920E-02 0. -1.
       -2   -1    0    0    0  501  0.00000000000E+00  0.00000000000E+00 -0.19117788679E+04  0.19117788679E+04  0.25500000920E-02 0.  1.
    10030    2    1    2    0    0  0.00000000000E+00  0.00000000000E+00 -0.58188107965E+03  0.32416766562E+04  0.31890252355E+04 0.  0.
        3    1    3    3  502    0 -0.81709757883E+03  0.97550328859E+03  0.68576409374E+03  0.14455198103E+04  0.10100000352E+00 0. -1.
       -3    1    3    3    0  502  0.81709757883E+03 -0.97550328859E+03 -0.12676451734E+04  0.17961568459E+04  0.10100000352E+00 0.  1.
</event>
<event>
 5   0  0.2097842E-06  0.3324481E+04  0.7818609E-02  0.8156694E-01
        1   -1    0    0  501    0  0.00000000000E+00  0.00000000000E+00  0.17651975496E+04  0.17651975496E+04  0.50400001928E-02 0. -1.
       -1   -1    0    0    0  501  0.00000000000E+00  0.00000000000E+00 -0.15652884902E+04  0.15652884902E+04  0.50400001928E-02 0.  1.
    10030    2    1    2    0    0  0.00000000000E+00  0.00000000000E+00  0.19990905939E+03  0.33304860398E+04  0.33244809564E+04 0.  0.
        4    1    3    3  502    0  0.13771369420E+03  0.14195125324E+04 -0.75543843236E+03  0.16138989217E+04  0.12699999809E+01 0.  1.
       -4    1    3    3    0  502 -0.13771369420E+03 -0.14195125324E+04  0.95534749174E+03  0.17165871182E+04  0.12699999809E+01 0. -1.
</event>
<event>
 5   0  0.5622811E-06  0.3263175E+04  0.7818609E-02  0.8172329E-01
        2   -1    0    0  501    0  0.00000000000E+00  0.00000000000E+00  0.14717994173E+04  0.14717994173E+04  0.25500000920E-02 0. -1.
       -2   -1    0    0    0  501  0.00000000000E+00  0.00000000000E+00 -0.18087231941E+04  0.18087231941E+04  0.25500000920E-02 0.  1.
    10030    2    1    2    0    0  0.00000000000E+00  0.00000000000E+00 -0.33692377683E+03  0.32805226114E+04  0.32631749834E+04 0.  0.
        1    1    3    3  502    0 -0.81194243095E+03  0.48056774232E+03 -0.15066589001E+04  0.17776998924E+04  0.50400001928E-02 0.  1.
       -1    1    3    3    0  502  0.81194243095E+03 -0.48056774232E+03  0.11697351233E+04  0.15028227190E+04  0.50400001928E-02 0. -1.
</event>
<event>
 5   0  0.1999849E-06  0.2884815E+04  0.7818609E-02  0.8277410E-01
        1   -1    0    0  501    0  0.00000000000E+00  0.00000000000E+00  0.16048461624E+04  0.16048461624E+04  0.50400001928E-02 0.  1.
       -1   -1    0    0    0  501  0.00000000000E+00  0.00000000000E+00 -0.12964106034E+04  0.12964106034E+04  0.50400001928E-02 0. -1.
    10030    2    1    2    0    0  0.00000000000E+00  0.00000000000E+00  0.30843555901E+03  0.29012567659E+04  0.28848151288E+04 0.  0.
        5    1    3    3  502    0  0.62227923323E+03 -0.46198538676E+03 -0.10692086046E+04  0.13205646791E+04  0.46999998093E+01 0. -1.
       -5    1    3    3    0  502 -0.62227923323E+03  0.46198538676E+03  0.13776441636E+04  0.15806920868E+04  0.46999998093E+01 0.  1.
</event>
<event>
 5   0  0.2097842E-06  0.2819354E+04  0.7818609E-02  0.8297285E-01
        1   -1    0    0  501    0  0.00000000000E+00  0.00000000000E+00  0.10414977840E+04  0.10414977841E+04  0.50400001928E-02 0.  1.
       -1   -1    0    0    0  501  0.00000000000E+00  0.00000000000E+00 -0.19080110265E+04  0.19080110265E+04  0.50400001928E-02 0. -1.
    10030    2    1    2    0    0  0.00000000000E+00  0.00000000000E+00 -0.86651324245E+03  0.29495088105E+04  0.28193540083E+04 0.  0.
        4    1    3    3  502    0 -0.56987007249E+03 -0.11382704085E+04  0.20032223064E+03  0.12886202044E+04  0.12699999809E+01 0. -1.
       -4    1    3    3    0  502  0.56987007249E+03  0.11382704085E+04 -0.10668354731E+04  0.16608886061E+04  0.12699999809E+01 0.  1.
</event>
<event>
 5   0  0.5855568E-06  0.3401782E+04  0.7818609E-02  0.8137469E-01
       -2   -1    0    0    0  501  0.00000000000E+00  0.00000000000E+00  0.16805930429E+04  0.16805930429E+04  0.25500000920E-02 0.  1.
        2   -1    0    0  501    0  0.00000000000E+00  0.00000000000E+00 -0.17214336979E+04  0.17214336979E+04  0.25500000920E-02 0. -1.
    10030    2    1    2    0    0  0.00000000000E+00  0.00000000000E+00 -0.40840655066E+02  0.34020267408E+04  0.34017815900E+04 0.  0.
        3    1    3    3  502    0  0.31189765541E+03  0.23256435772E+03 -0.16763364881E+04  0.17208923149E+04  0.10100000352E+00 0. -1.
       -3    1    3    3    0  502 -0.31189765541E+03 -0.23256435772E+03  0.16354958330E+04  0.16811344259E+04  0.10100000352E+00 0.  1.
</event>
<event>
 5   0  0.1999849E-06  0.2117656E+04  0.7818609E-02  0.8553506E-01
       -1   -1    0    0    0  501  0.00000000000E+00  0.00000000000E+00  0.75980443616E+03  0.75980443618E+03  0.50400001928E-02 0. -1.
        1   -1    0    0  501    0  0.00000000000E+00  0.00000000000E+00 -0.14755326218E+04  0.14755326218E+04  0.50400001928E-02 0.  1.
    10030    2    1    2    0    0  0.00000000000E+00  0.00000000000E+00 -0.71572818561E+03  0.22353370580E+04  0.21176555260E+04 0.  0.
        5    1    3    3  502    0  0.31441894578E+03  0.37433560778E+03  0.63353499247E+03  0.80023440154E+03  0.46999998093E+01 0. -1.
       -5    1    3    3    0  502 -0.31441894578E+03 -0.37433560778E+03 -0.13492631781E+04  0.14351026564E+04  0.46999998093E+01 0.  1.
</event>
<event>
 5   0  0.2730981E-06  0.3158148E+04  0.7818609E-02  0.8199959E-01
       -1   -1    0    0    0  501  0.00000000000E+00  0.00000000000E+00  0.16455266318E+04  0.16455266318E+04  0.50400001928E-02 0. -1.
        1   -1    0    0  501    0  0.00000000000E+00  0.00000000000E+00 -0.15153045948E+04  0.15153045948E+04  0.50400001928E-02 0.  1.
    10030    2    1    2    0    0  0.00000000000E+00  0.00000000000E+00  0.13022203694E+03  0.31608312266E+04  0.31581476001E+04 0.  0.
        3    1    3    3  502    0  0.16202558059E+03  0.86925332516E+03  0.13745118541E+04  0.16343611839E+04  0.10100000352E+00 0. -1.
       -3    1    3    3    0  502 -0.16202558059E+03 -0.86925332516E+03 -0.12442898172E+04  0.15264700427E+04  0.10100000352E+00 0.  1.
</event>
<event>
 5   0  0.2037109E-06  0.3283562E+04  0.7818609E-02  0.8167091E-01
       -1   -1    0    0    0  501  0.00000000000E+00  0.00000000000E+00  0.17150606161E+04  0.17150606161E+04  0.50400001928E-02 0. -1.
        1   -1    0    0  501    0  0.00000000000E+00  0.00000000000E+00 -0.15716319777E+04  0.15716319777E+04  0.50400001928E-02 0.  1.
    10030    2    1    2    0    0  0.00000000000E+00  0.00000000000E+00  0.14342863833E+03  0.32866925938E+04  0.32835615468E+04 0.  0.
        2    1    3    3  502    0  0.74734873354E+03 -0.14421953500E+04  0.31066050944E+03  0.16537737177E+04  0.25500000920E-02 0. -1.
       -2    1    3    3    0  502 -0.74734873354E+03  0.14421953500E+04 -0.16723187111E+03  0.16329188761E+04  0.25500000920E-02 0.  1.
</event>
<event>
 5   0  0.5637538E-06  0.2079809E+04  0.7818609E-02  0.8570190E-01
        2   -1    0    0  501    0  0.00000000000E+00  0.00000000000E+00  0.18390427829E+04  0.18390427829E+04  0.25500000920E-02 0.  1.
       -2   -1    0    0    0  501  0.00000000000E+00  0.00000000000E+00 -0.58802419257E+03  0.58802419258E+03  0.25500000920E-02 0. -1.
    10030    2    1    2    0    0  0.00000000000E+00  0.00000000000E+00  0.12510185903E+04  0.24270669755E+04  0.20798092677E+04 0.  0.
        2    1    3    3  502    0 -0.98548002900E+03  0.24434940012E+03  0.88781496404E+03  0.13487375309E+04  0.25500000920E-02 0. -1.
       -2    1    3    3    0  502  0.98548002900E+03 -0.24434940012E+03  0.36320362630E+03  0.10783294446E+04  0.25500000920E-02 0.  1.
</event>
<event>
 5   0  0.2037109E-06  0.3308279E+04  0.7818609E-02  0.8160792E-01
       -1   -1    0    0    0  501  0.00000000000E+00  0.00000000000E+00  0.10954813484E+04  0.10954813484E+04  0.50400001928E-02 0.  1.
        1   -1    0    0  501    0  0.00000000000E+00  0.00000000000E+00 -0.24976942212E+04  0.24976942212E+04  0.50400001928E-02 0. -1.
    10030    2    1    2    0    0  0.00000000000E+00  0.00000000000E+00 -0.14022128728E+04  0.35931755696E+04  0.33082789684E+04 0.  0.
        2    1    3    3  502    0 -0.77259072446E+03  0.12100093938E+03  0.88203227417E+03  0.11787784302E+04  0.25500000920E-02 0.  1.
       -2    1    3    3    0  502  0.77259072446E+03 -0.12100093938E+03 -0.22842451470E+04  0.24143971393E+04  0.25500000920E-02 0. -1.
</event>
<event>
 5   0  0.2037109E-06  0.3262952E+04  0.7818609E-02  0.8172387E-01
       -1   -1    0    0    0  501  0.00000000000E+00  0.00000000000E+00  0.12531990011E+04  0.12531990011E+04  0.50400001928E-02 0. -1.
        1   -1    0    0  501    0  0.00000000000E+00  0.00000000000E+00 -0.21239349573E+04  0.21239349573E+04  0.50400001928E-02 0.  1.
    10030    2    1    2    0    0  0.00000000000E+00  0.00000000000E+00 -0.87073595617E+03  0.33771339584E+04  0.32629515270E+04 0.  0.
        2    1    3    3  502    0  0.10467615153E+04 -0.29107722542E+03 -0.16950353648E+04  0.20133505679E+04  0.25500000920E-02 0.  1.
       -2    1    3    3    0  502 -0.10467615153E+04  0.29107722542E+03  0.82429940868E+03  0.13637833905E+04  0.25500000920E-02 0. -1.
</event>
<event>
 5   0  0.2730981E-06  0.3264670E+04  0.7818609E-02  0.8171944E-01
       -1   -1    0    0    0  501  0.00000000000E+00  0.00000000000E+00  0.98970408702E+03  0.98970408704E+03  0.50400001928E-02 0.  1.
        1   -1    0    0  501    0  0.00000000000E+00  0.00000000000E+00 -0.26922365421E+04  0.26922365421E+04  0.50400001928E-02 0. -1.
    10030    2    1    2    0    0  0.00000000000E+00  0.00000000000E+00 -0.17025324551E+04  0.36819406291E+04  0.32646699735E+04 0.  0.
        3    1    3    3  502    0 -0.86151961113E+03  0.10163090406E+04 -0.19148955590E+04  0.23327934153E+04  0.10100000352E+00 0.  1.
       -3    1    3    3    0  502  0.86151961113E+03 -0.10163090406E+04  0.21236310398E+03  0.13491472138E+04  0.10100000352E+00 0. -1.
</event>
<event>
 5   0  0.5622811E-06  0.3269266E+04  0.7818609E-02  0.8170760E-01
        2   -1    0    0  501    0  0.00000000000E+00  0.00000000000E+00  0.21984865297E+04  0.21984865297E+04  0.25500000920E-02 0.  1.
       -2   -1    0    0    0  501  0.00000000000E+00  0.00000000000E+00 -0.12153930967E+04  0.12153930967E+04  0.25500000920E-02 0. -1.
    10030    2    1    2    0    0  0.00000000000E+00  0.00000000000E+00  0.98309343301E+03  0.34138796263E+04  0.32692661875E+04 0.  0.
        1    1    3    3  502    0 -0.45883677408E+03 -0.50001996398E+03 -0.10613367272E+04  0.12597566424E+04  0.50400001928E-02 0. -1.
       -1    1    3    3    0  502  0.45883677408E+03  0.50001996398E+03  0.20444301602E+04  0.21541229839E+04  0.50400001928E-02 0.  1.
</event>
<event>
 5   0  0.5300268E-06  0.3258007E+04  0.7818609E-02  0.8173663E-01
        2   -1    0    0  501    0  0.00000000000E+00  0.00000000000E+00  0.27090888049E+04  0.27090888049E+04  0.25500000920E-02 0. -1.
       -2   -1    0    0    0  501  0.00000000000E+00  0.00000000000E+00 -0.97953689143E+03  0.97953689143E+03  0.25500000920E-02 0.  1.
    10030    2    1    2    0    0  0.00000000000E+00  0.00000000000E+00  0.17295519135E+04  0.36886256964E+04  0.32580070145E+04 0.  0.
        4    1    3    3  502    0  0.14480041500E+04  0.99064316605E+02  0.17022170869E+04  0.22369788513E+04  0.12699999809E+01 0. -1.
       -4    1    3    3    0  502 -0.14480041500E+04 -0.99064316605E+02  0.27334826586E+02  0.14516468451E+04  0.12699999809E+01 0.  1.
</event>
<event>
 5   0  0.1925906E-06  0.3260228E+04  0.7818609E-02  0.8173090E-01
        1   -1    0    0  501    0  0.00000000000E+00  0.00000000000E+00  0.14091016228E+04  0.14091016229E+04  0.50400001928E-02 0. -1.
       -1   -1    0    0    0  501  0.00000000000E+00  0.00000000000E+00 -0.18857918598E+04  0.18857918598E+04  0.50400001928E-02 0.  1.
    10030    2    1    2    0    0  0.00000000000E+00  0.00000000000E+00 -0.47669023698E+03  0.32948934827E+04  0.32602284399E+04 0.  0.
        1    1    3    3  502    0  0.69345648657E+03 -0.24353549160E+03  0.12321448914E+04  0.14347029197E+04  0.50400001928E-02 0. -1.
       -1    1    3    3    0  502 -0.69345648657E+03  0.24353549160E+03 -0.17088351284E+04  0.18601905630E+04  0.50400001928E-02 0.  1.
</event>
<event>
 5   0  0.5622811E-06  0.3005990E+04  0.7818609E-02  0.8242022E-01
       -2   -1    0    0    0  501  0.00000000000E+00  0.00000000000E+00  0.17625023088E+04  0.17625023088E+04  0.25500000920E-02 0.  1.
        2   -1    0    0  501    0  0.00000000000E+00  0.00000000000E+00 -0.12816972366E+04  0.12816972366E+04  0.25500000920E-02 0. -1.
    10030    2    1    2    0    0  0.00000000000E+00  0.00000000000E+00  0.48080507217E+03  0.30441995454E+04  0.30059902453E+04 0.  0.
        1    1    3    3  502    0 -0.48966722965E+03  0.57483804924E+03 -0.10756471592E+04  0.13142410698E+04  0.50400001928E-02 0. -1.
       -1    1    3    3    0  502  0.48966722965E+03 -0.57483804924E+03  0.15564522313E+04  0.17299584755E+04  0.50400001928E-02 0.  1.
</event>
<event>
 5   0  0.5300268E-06  0.3130239E+04  0.7818609E-02  0.8207488E-01
        2   -1    0    0  501    0  0.00000000000E+00  0.00000000000E+00  0.10856248920E+04  0.10856248920E+04  0.25500000920E-02 0.  1.
       -2   -1    0    0    0  501  0.00000000000E+00  0.00000000000E+00 -0.22563959636E+04  0.22563959636E+04  0.25500000920E-02 0. -1.
    10030    2    1    2    0    0  0.00000000000E+00  0.00000000000E+00 -0.11707710716E+04  0.33420208556E+04  0.31302393674E+04 0.  0.
        4    1    3    3  502    0  0.14818987070E+04  0.49205635220E+03 -0.69965362900E+03  0.17110406322E+04  0.12699999809E+01 0. -1.
       -4    1    3    3    0  502 -0.14818987070E+04 -0.49205635220E+03 -0.47111744255E+03  0.16309802234E+04  0.12699999809E+01 0.  1.
</event>
<event>
 5   0  0.5755250E-06  0.3290605E+04  0.7818609E-02  0.8165290E-01
        2   -1    0    0  501    0  0.00000000000E+00  0.00000000000E+00  0.13228209680E+04  0.13228209680E+04  0.25500000920E-02 0.  1.
       -2   -1    0    0    0  501  0.00000000000E+00  0.00000000000E+00 -0.20463995878E+04  0.20463995878E+04  0.25500000920E-02 0. -1.
    10030    2    1    2    0    0  0.00000000000E+00  0.00000000000E+00 -0.72357861978E+03  0.33692205558E+04  0.32906049800E+04 0.  0.
        5    1    3    3  502    0  0.12002700879E+04  0.11225167741E+04 -0.28048178673E+03  0.16671485581E+04  0.46999998093E+01 0.  1.
       -5    1    3    3    0  502 -0.12002700879E+04 -0.11225167741E+04 -0.44309683305E+03  0.17020719977E+04  0.46999998093E+01 0. -1.
</event>
<event>
 5   0  0.5622811E-06  0.2760374E+04  0.7818609E-02  0.8315677E-01
       -2   -1    0    0    0  501  0.00000000000E+00  0.00000000000E+00  0.17145365285E+04  0.17145365285E+04  0.25500000920E-02 0.  1.
        2   -1    0    0  501    0  0.00000000000E+00  0.00000000000E+00 -0.11110384176E+04  0.11110384176E+04  0.25500000920E-02 0. -1.
    10030    2    1    2    0    0  0.00000000000E+00  0.00000000000E+00  0.60349811091E+03  0.28255749461E+04  0.27603738526E+04 0.  0.
        1    1    3    3  502    0 -0.11287651415E+03 -0.76646755754E+03 -0.86746666166E+03  0.11630614916E+04  0.50400001928E-02 0. -1.
       -1    1    3    3    0  502  0.11287651415E+03  0.76646755754E+03  0.14709647726E+04  0.16625134545E+04  0.50400001928E-02 0.  1.
</event>
<event>
 5   0  0.5755250E-06  0.3222595E+04  0.7818609E-02  0.8182875E-01
       -2   -1    0    0    0  501  0.00000000000E+00  0.00000000000E+00  0.98991544345E+03  0.98991544346E+03  0.25500000920E-02 0.  1.
        2   -1    0    0  501    0  0.00000000000E+00  0.00000000000E+00 -0.26227294189E+04  0.26227294189E+04  0.25500000920E-02 0. -1.
    10030    2    1    2    0    0  0.00000000000E+00  0.00000000000E+00 -0.16328139755E+04  0.36126448624E+04  0.32225954483E+04 0.  0.
        5    1    3    3  502    0  0.15157014621E+04 -0.50356820577E+03 -0.57773847758E+03  0.16984509703E+04  0.46999998093E+01 0.  1.
       -5    1    3    3    0  502 -0.15157014621E+04  0.50356820577E+03 -0.10550754979E+04  0.19141938921E+04  0.46999998093E+01 0. -1.
</event>
<event>
 5   0  0.5622811E-06  0.2228877E+04  0.7818609E-02  0.8506504E-01
        2   -1    0    0  501    0  0.00000000000E+00  0.00000000000E+00  0.15921920792E+04  0.15921920792E+04  0.25500000920E-02 0. -1.
       -2   -1    0    0    0  501  0.00000000000E+00  0.00000000000E+00 -0.78003992417E+03  0.78003992418E+03  0.25500000920E-02 0.  1.
    10030    2    1    2    0    0  0.00000000000E+00  0.00000000000E+00  0.81215215502E+03  0.23722320034E+04  0.22288771960E+04 0.  0.
        1    1    3    3  502    0  0.64968796872E+03 -0.31223073064E+03  0.13106772656E+04  0.14958132839E+04  0.50400001928E-02 0.  1.
       -1    1    3    3    0  502 -0.64968796872E+03  0.31223073064E+03 -0.49852511058E+03  0.87641871943E+03  0.50400001928E-02 0. -1.
</event>
<event>
 5   0  0.2097842E-06  0.2275642E+04  0.7818609E-02  0.8487588E-01
       -1   -1    0    0    0  501  0.00000000000E+00  0.00000000000E+00  0.58367961968E+03  0.58367961970E+03  0.50400001928E-02 0.  1.
        1   -1    0    0  501    0  0.00000000000E+00  0.00000000000E+00 -0.22180597877E+04  0.22180597877E+04  0.50400001928E-02 0. -1.
    10030    2    1    2    0    0  0.00000000000E+00  0.00000000000E+00 -0.16343801680E+04  0.28017394074E+04  0.22756417058E+04 0.  0.
        4    1    3    3  502    0 -0.37301336004E+03 -0.15698913949E+03 -0.21264515293E+04  0.21646205848E+04  0.12699999809E+01 0. -1.
       -4    1    3    3    0  502  0.37301336004E+03  0.15698913949E+03  0.49207136126E+03  0.63711882264E+03  0.12699999809E+01 0.  1.
</event>
<event>
 5   0  0.2730981E-06  0.3366303E+04  0.7818609E-02  0.8146227E-01
       -1   -1    0    0    0  501  0.00000000000E+00  0.00000000000E+00  0.18363859248E+04  0.18363859248E+04  0.50400001928E-02 0. -1.
        1   -1    0    0  501    0  0.00000000000E+00  0.00000000000E+00 -0.15427034381E+04  0.15427034381E+04  0.50400001928E-02 0.  1.
    10030    2    1    2    0    0  0.00000000000E+00  0.00000000000E+00  0.29368248665E+03  0.33790893629E+04  0.33663029453E+04 0.  0.
        3    1    3    3  502    0 -0.11219924821E+04 -0.54892087402E+02 -0.11113624771E+04  0.15801920253E+04  0.10100000352E+00 0.  1.
       -3    1    3    3    0  502  0.11219924821E+04  0.54892087402E+02  0.14050449637E+04  0.17988973376E+04  0.10100000352E+00 0. -1.
</event>
<event>
 5   0  0.5622811E-06  0.3289948E+04  0.7818609E-02  0.8165458E-01
       -2   -1    0    0    0  501  0.00000000000E+00  0.00000000000E+00  0.19300688159E+04  0.19300688159E+04  0.25500000920E-02 0. -1.
        2   -1    0    0  501    0  0.00000000000E+00  0.00000000000E+00 -0.14019908826E+04  0.14019908826E+04  0.25500000920E-02 0.  1.
    10030    2    1    2    0    0  0.00000000000E+00  0.00000000000E+00  0.52807793329E+03  0.33320596985E+04  0.32899476487E+04 0.  0.
        1    1    3    3  502    0 -0.51254725023E+02 -0.15471931901E+04 -0.29941399926E+03  0.15767316059E+04  0.50400001928E-02 0.  1.
       -1    1    3    3    0  502  0.51254725023E+02  0.15471931901E+04  0.82749193255E+03  0.17553280926E+04  0.50400001928E-02 0. -1.
</event>
<event>
 5   0  0.2037109E-06  0.3295674E+04  0.7818609E-02  0.8163997E-01
        1   -1    0    0  501    0  0.00000000000E+00  0.00000000000E+00  0.17176371697E+04  0.17176371697E+04  0.50400001928E-02 0.  1.
       -1   -1    0    0    0  501  0.00000000000E+00  0.00000000000E+00 -0.15808730149E+04  0.15808730149E+04  0.50400001928E-02 0. -1.
    10030    2    1    2    0    0  0.00000000000E+00  0.00000000000E+00  0.13676415483E+03  0.32985101846E+04  0.32956736798E+04 0.  0.
        2    1    3    3  502    0  0.20649043871E+03 -0.15333207206E+04  0.63601702831E+03  0.16727906007E+04  0.25500000920E-02 0.  1.
       -2    1    3    3    0  502 -0.20649043871E+03  0.15333207206E+04 -0.49925287348E+03  0.16257195838E+04  0.25500000920E-02 0. -1.
</event>
<event>
 5   0  0.5637538E-06  0.3305966E+04  0.7818609E-02  0.8161379E-01
        2   -1    0    0  501    0  0.00000000000E+00  0.00000000000E+00  0.20472053355E+04  0.20472053355E+04  0.25500000920E-02 0.  1.
       -2   -1    0    0    0  501  0.00000000000E+00  0.00000000000E+00 -0.13346748214E+04  0.13346748214E+04  0.25500000920E-02 0. -1.
    10030    2    1    2    0    0  0.00000000000E+00  0.00000000000E+00  0.71253051413E+03  0.33818801569E+04  0.33059663734E+04 0.  0.
        2    1    3    3  502    0  0.15043880137E+04  0.40266335640E+03 -0.21056345878E+03  0.15715145703E+04  0.25500000920E-02 0.  1.
       -2    1    3    3    0  502 -0.15043880137E+04 -0.40266335640E+03  0.92309397291E+03  0.18103655866E+04  0.25500000920E-02 0. -1.
</event>
<event>
 5   0  0.2097842E-06  0.3322567E+04  0.7818609E-02  0.8157177E-01
       -1   -1    0    0    0  501  0.00000000000E+00  0.00000000000E+00  0.13000730413E+04  0.13000730413E+04  0.50400001928E-02 0.  1.
        1   -1    0    0  501    0  0.00000000000E+00  0.00000000000E+00 -0.21228516420E+04  0.21228516420E+04  0.50400001928E-02 0. -1.
    10030    2    1    2    0    0  0.00000000000E+00  0.00000000000E+00 -0.82277860073E+03  0.34229246833E+04  0.33225665925E+04 0.  0.
        4    1    3    3  502    0 -0.66575889928E+03 -0.62793205295E+03 -0.18397479937E+04  0.20548011749E+04  0.12699999809E+01 0. -1.
       -4    1    3    3    0  502  0.66575889928E+03  0.62793205295E+03  0.10169693930E+04  0.13681235084E+04  0.12699999809E+01 0.  1.
</event>
<event>
 5   0  0.5755250E-06  0.3383906E+04  0.7818609E-02  0.8141868E-01
        2   -1    0    0  501    0  0.00000000000E+00  0.00000000000E+00  0.18174575289E+04  0.18174575289E+04  0.25500000920E-02 0.  1.
       -2   -1    0    0    0  501  0.00000000000E+00  0.00000000000E+00 -0.15751151461E+04  0.15751151461E+04  0.25500000920E-02 0. -1.
    10030    2    1    2    0    0  0.00000000000E+00  0.00000000000E+00  0.24234238273E+03  0.33925726750E+04  0.33839059569E+04 0.  0.
        5    1    3    3  502    0  0.38204249059E+03  0.14360692657E+04 -0.68987004549E+03  0.16383510522E+04  0.46999998093E+01 0. -1.
       -5    1    3    3    0  502 -0.38204249059E+03 -0.14360692657E+04  0.93221242822E+03  0.17542216228E+04  0.46999998093E+01 0.  1.
</event>
<event>
 5   0  0.2097842E-06  0.1677028E+04  0.7818609E-02  0.8774575E-01
        1   -1    0    0  501    0  0.00000000000E+00  0.00000000000E+00  0.12156284177E+04  0.12156284177E+04  0.50400001928E-02 0. -1.
       -1   -1    0    0    0  501  0.00000000000E+00  0.00000000000E+00 -0.57838892026E+03  0.57838892029E+03  0.50400001928E-02 0.  1.
    10030    2    1    2    0    0  0.00000000000E+00  0.00000000000E+00  0.63723949746E+03  0.17940173380E+04  0.16770283337E+04 0.  0.
        4    1    3    3  502    0  0.77726210514E+03  0.30658415509E+03  0.39406754962E+03  0.92380791878E+03  0.12699999809E+01 0. -1.
       -4    1    3    3    0  502 -0.77726210514E+03 -0.30658415509E+03  0.24317194785E+03  0.87020941925E+03  0.12699999809E+01 0.  1.
</event>
<event>
 5   0  0.5622811E-06  0.3329560E+04  0.7818609E-02  0.8155414E-01
        2   -1    0    0  501    0  0.00000000000E+00  0.00000000000E+00  0.15982254182E+04  0.15982254182E+04  0.25500000920E-02 0. -1.
       -2   -1    0    0    0  501  0.00000000000E+00  0.00000000000E+00 -0.17341057777E+04  0.17341057777E+04  0.25500000920E-02 0.  1.
    10030    2    1    2    0    0  0.00000000000E+00  0.00000000000E+00 -0.13588035953E+03  0.33323311959E+04  0.33295596897E+04 0.  0.
        1    1    3    3  502    0 -0.12382767458E+04 -0.42891985832E+03  0.95965221132E+03  0.16242641136E+04  0.50400001928E-02 0. -1.
       -1    1    3    3    0  502  0.12382767458E+04  0.42891985832E+03 -0.10955325709E+04  0.17080670823E+04  0.50400001928E-02 0.  1.
</event>
<event>
 5   0  0.2037109E-06  0.3326111E+04  0.7818609E-02  0.8156283E-01
       -1   -1    0    0    0  501  0.00000000000E+00  0.00000000000E+00  0.17863462493E+04  0.17863462493E+04  0.50400001928E-02 0.  1.
        1   -1    0    0  501    0  0.00000000000E+00  0.00000000000E+00 -0.15482738035E+04  0.15482738035E+04  0.50400001928E-02 0. -1.
    10030    2    1    2    0    0  0.00000000000E+00  0.00000000000E+00  0.23807244585E+03  0.33346200528E+04  0.33261107028E+04 0.  0.
        2    1    3    3  502    0  0.51421126985E+03 -0.10586493185E+04  0.12970322534E+04  0.17514120805E+04  0.25500000920E-02 0.  1.
       -2    1    3    3    0  502 -0.51421126985E+03  0.10586493185E+04 -0.10589598075E+04  0.15832079723E+04  0.25500000920E-02 0. -1.
</event>
<event>
 5   0  0.2037109E-06  0.3468575E+04  0.7818609E-02  0.8121278E-01
        1   -1    0    0  501    0  0.00000000000E+00  0.00000000000E+00  0.82363055854E+03  0.82363055856E+03  0.50400001928E-02 0.  1.
       -1   -1    0    0    0  501  0.00000000000E+00  0.00000000000E+00 -0.36518224366E+04  0.36518224367E+04  0.50400001928E-02 0. -1.
    10030    2    1    2    0    0  0.00000000000E+00  0.00000000000E+00 -0.28281918781E+04  0.44754529952E+04  0.34685746659E+04 0.  0.
        2    1    3    3  502    0  0.15327667588E+04 -0.72247399545E+03 -0.93754540013E+03  0.19365779066E+04  0.25500000920E-02 0.  1.
       -2    1    3    3    0  502 -0.15327667588E+04  0.72247399545E+03 -0.18906464780E+04  0.25388750886E+04  0.25500000920E-02 0. -1.
</event>
<event>
 5   0  0.1999849E-06  0.3334535E+04  0.7818609E-02  0.8154163E-01
        1   -1    0    0  501    0  0.00000000000E+00  0.00000000000E+00  0.18098622776E+04  0.18098622776E+04  0.50400001928E-02 0. -1.
       -1   -1    0    0    0  501  0.00000000000E+00  0.00000000000E+00 -0.15359075493E+04  0.15359075493E+04  0.50400001928E-02 0.  1.
    10030    2    1    2    0    0  0.00000000000E+00  0.00000000000E+00  0.27395472834E+03  0.33457698269E+04  0.33345351313E+04 0.  0.
        5    1    3    3  502    0 -0.18602133733E+03 -0.26864931034E+03  0.17774116335E+04  0.18072051889E+04  0.46999998093E+01 0. -1.
       -5    1    3    3    0  502  0.18602133733E+03  0.26864931034E+03 -0.15034569051E+04  0.15385646381E+04  0.46999998093E+01 0.  1.
</event>
<event>
 5   0  0.1999849E-06  0.3279679E+04  0.7818609E-02  0.8168085E-01
        1   -1    0    0  501    0  0.00000000000E+00  0.00000000000E+00  0.14390688944E+04  0.14390688944E+04  0.50400001928E-02 0. -1.
       -1   -1    0    0    0  501  0.00000000000E+00  0.00000000000E+00 -0.18686199897E+04  0.18686199897E+04  0.50400001928E-02 0.  1.
    10030    2    1    2    0    0  0.00000000000E+00  0.00000000000E+00 -0.42955109529E+03  0.33076888841E+04  0.32796785834E+04 0.  0.
        5    1    3    3  502    0  0.22312162111E+03 -0.12777840910E+04  0.79705524186E+03  0.15224436244E+04  0.46999998093E+01 0. -1.
       -5    1    3    3    0  502 -0.22312162111E+03  0.12777840910E+04 -0.12266063372E+04  0.17852452597E+04  0.46999998093E+01 0.  1.
</event>
<event>
 5   0  0.2097842E-06  0.2176848E+04  0.7818609E-02  0.8528127E-01
        1   -1    0    0  501    0  0.00000000000E+00  0.00000000000E+00  0.73038200060E+03  0.73038200062E+03  0.50400001928E-02 0.  1.
       -1   -1    0    0    0  501  0.00000000000E+00  0.00000000000E+00 -0.16219829193E+04  0.16219829193E+04  0.50400001928E-02 0. -1.
    10030    2    1    2    0    0  0.00000000000E+00  0.00000000000E+00 -0.89160091868E+03  0.23523649199E+04  0.21768482993E+04 0.  0.
        4    1    3    3  502    0  0.51406060827E+03 -0.82461650903E+03 -0.97565559464E+03  0.13770098577E+04  0.12699999809E+01 0.  1.
       -4    1    3    3    0  502 -0.51406060827E+03  0.82461650903E+03  0.84054675961E+02  0.97535506222E+03  0.12699999809E+01 0. -1.
</event>
<event>
 5   0  0.5300268E-06  0.1978591E+04  0.7818609E-02  0.8616696E-01
       -2   -1    0    0    0  501  0.00000000000E+00  0.00000000000E+00  0.12821044378E+04  0.12821044378E+04  0.25500000920E-02 0.  1.
        2   -1    0    0  501    0  0.00000000000E+00  0.00000000000E+00 -0.76335853967E+03  0.76335853968E+03  0.25500000920E-02 0. -1.
    10030    2    1    2    0    0  0.00000000000E+00  0.00000000000E+00  0.51874589817E+03  0.20454629775E+04  0.19785907827E+04 0.  0.
        4    1    3    3  502    0  0.17793987273E+03  0.46908168217E+03  0.11408355755E+04  0.12462775157E+04  0.12699999809E+01 0.  1.
       -4    1    3    3    0  502 -0.17793987273E+03 -0.46908168217E+03 -0.62208967734E+03  0.79918546183E+03  0.12699999809E+01 0. -1.
</event>
<event>
 5   0  0.5622811E-06  0.3285737E+04  0.7818609E-02  0.8166534E-01
       -2   -1    0    0    0  501  0.00000000000E+00  0.00000000000E+00  0.10669934923E+04  0.10669934923E+04  0.25500000920E-02 0.  1.
        2   -1    0    0  501    0  0.00000000000E+00  0.00000000000E+00 -0.25295539307E+04  0.25295539307E+04  0.25500000920E-02 0. -1.
    10030    2    1    2    0    0  0.00000000000E+00  0.00000000000E+00 -0.14625604384E+04  0.35965474230E+04  0.32857374104E+04 0.  0.
        1    1    3    3  502    0 -0.92902417625E+03  0.11010773555E+04  0.13307483162E+03  0.14467778592E+04  0.50400001928E-02 0.  1.
       -1    1    3    3    0  502  0.92902417625E+03 -0.11010773555E+04 -0.15956352700E+04  0.21497695639E+04  0.50400001928E-02 0. -1.
</event>
<event>
 5   0  0.5755250E-06  0.3292562E+04  0.7818609E-02  0.8164791E-01
       -2   -1    0    0    0  501  0.00000000000E+00  0.00000000000E+00  0.16611038749E+04  0.16611038749E+04  0.25500000920E-02 0.  1.
        2   -1    0    0  501    0  0.00000000000E+00  0.00000000000E+00 -0.16315904162E+04  0.16315904162E+04  0.25500000920E-02 0. -1.
    10030    2    1    2    0    0  0.00000000000E+00  0.00000000000E+00  0.29513458720E+02  0.32926942911E+04  0.32925620192E+04 0.  0.
        5    1    3    3  502    0 -0.30674404109E+03 -0.17790175124E+03 -0.15929390718E+04  0.16319368604E+04  0.46999998093E+01 0. -1.
       -5    1    3    3    0  502  0.30674404109E+03  0.17790175124E+03  0.16224525305E+04  0.16607574307E+04  0.46999998093E+01 0.  1.
</event>
<event>
 5   0  0.5637538E-06  0.3350307E+04  0.7818609E-02  0.8150211E-01
       -2   -1    0    0    0  501  0.00000000000E+00  0.00000000000E+00  0.17319283700E+04  0.17319283700E+04  0.25500000920E-02 0.  1.
        2   -1    0    0  501    0  0.00000000000E+00  0.00000000000E+00 -0.16202396211E+04  0.16202396211E+04  0.25500000920E-02 0. -1.
    10030    2    1    2    0    0  0.00000000000E+00  0.00000000000E+00  0.11168874888E+03  0.33521679911E+04  0.33503068313E+04 0.  0.
        2    1    3    3  502    0  0.74467636405E+03  0.69924652405E+03  0.13842303476E+04  0.17203436412E+04  0.25500000920E-02 0.  1.
       -2    1    3    3    0  502 -0.74467636405E+03 -0.69924652405E+03 -0.12725415987E+04  0.16318243499E+04  0.25500000920E-02 0. -1.
</event>
<event>
 5   0  0.2037109E-06  0.3174187E+04  0.7818609E-02  0.8195668E-01
        1   -1    0    0  501    0  0.00000000000E+00  0.00000000000E+00  0.16626654286E+04  0.16626654286E+04  0.50400001928E-02 0.  1.
       -1   -1    0    0    0  501  0.00000000000E+00  0.00000000000E+00 -0.15149564378E+04  0.15149564378E+04  0.50400001928E-02 0. -1.
    10030    2    1    2    0    0  0.00000000000E+00  0.00000000000E+00  0.14770899077E+03  0.31776218665E+04  0.31741869479E+04 0.  0.
        2    1    3    3  502    0  0.14654107556E+04  0.49201722471E+03  0.43390473838E+03  0.16055475559E+04  0.25500000920E-02 0.  1.
       -2    1    3    3    0  502 -0.14654107556E+04 -0.49201722471E+03 -0.28619574761E+03  0.15720743106E+04  0.25500000920E-02 0. -1.
</event>
<event>
 5   0  0.1925906E-06  0.2763325E+04  0.7818609E-02  0.8314746E-01
       -1   -1    0    0    0  501  0.00000000000E+00  0.00000000000E+00  0.93520154635E+03  0.93520154636E+03  0.50400001928E-02 0. -1.
        1   -1    0    0  501    0  0.00000000000E+00  0.00000000000E+00 -0.20412611408E+04  0.20412611408E+04  0.50400001928E-02 0.  1.
    10030    2    1    2    0    0  0.00000000000E+00  0.00000000000E+00 -0.11060595944E+04  0.29764626871E+04  0.27633245017E+04 0.  0.
        1    1    3    3  502    0 -0.53517676137E+03 -0.91866763969E+02 -0.19215106921E+04  0.19967616302E+04  0.50400001928E-02 0.  1.
       -1    1    3    3    0  502  0.53517676137E+03  0.91866763969E+02  0.81545109764E+03  0.97970105691E+03  0.50400001928E-02 0. -1.
</event>
<event>
 5   0  0.5755250E-06  0.2067842E+04  0.7818609E-02  0.8575543E-01
       -2   -1    0    0    0  501  0.00000000000E+00  0.00000000000E+00  0.45620185965E+03  0.45620185966E+03  0.25500000920E-02 0. -1.
        2   -1    0    0  501    0  0.00000000000E+00  0.00000000000E+00 -0.23432445551E+04  0.23432445551E+04  0.25500000920E-02 0.  1.
    10030    2    1    2    0    0  0.00000000000E+00  0.00000000000E+00 -0.18870426954E+04  0.27994464148E+04  0.20678418931E+04 0.  0.
        5    1    3    3  502    0 -0.53992818531E+03 -0.62214968291E+03 -0.97663538025E+02  0.82954983569E+03  0.46999998093E+01 0. -1.
       -5    1    3    3    0  502  0.53992818531E+03  0.62214968291E+03 -0.17893791574E+04  0.19698965791E+04  0.46999998093E+01 0.  1.
</event>
<event>
 5   0  0.5622811E-06  0.3302451E+04  0.7818609E-02  0.8162272E-01
       -2   -1    0    0    0  501  0.00000000000E+00  0.00000000000E+00  0.14184637551E+04  0.14184637551E+04  0.25500000920E-02 0. -1.
        2   -1    0    0  501    0  0.00000000000E+00  0.00000000000E+00 -0.19221815404E+04  0.19221815404E+04  0.25500000920E-02 0.  1.
    10030    2    1    2    0    0  0.00000000000E+00  0.00000000000E+00 -0.50371778533E+03  0.33406452955E+04  0.33024505119E+04 0.  0.
        1    1    3    3  502    0  0.26605580009E+03  0.16292001199E+04 -0.21312601810E+03  0.16644823277E+04  0.50400001928E-02 0. -1.
       -1    1    3    3    0  502 -0.26605580009E+03 -0.16292001199E+04 -0.29059176723E+03  0.16761629679E+04  0.50400001928E-02 0.  1.
</event>
<event>
 5   0  0.1999849E-06  0.3260809E+04  0.7818609E-02  0.8172940E-01
       -1   -1    0    0    0  501  0.00000000000E+00  0.00000000000E+00  0.14741125627E+04  0.14741125627E+04  0.50400001928E-02 0. -1.
        1   -1    0    0  501    0  0.00000000000E+00  0.00000000000E+00 -0.18032670082E+04  0.18032670082E+04  0.50400001928E-02 0.  1.
    10030    2    1    2    0    0  0.00000000000E+00  0.00000000000E+00 -0.32915444548E+03  0.32773795710E+04  0.32608088265E+04 0.  0.
        5    1    3    3  502    0  0.15931661652E+04 -0.65015501235E+02  0.17743280193E+03  0.16043409658E+04  0.46999998093E+01 0.  1.
       -5    1    3    3    0  502 -0.15931661652E+04  0.65015501235E+02 -0.50658724740E+03  0.16730386052E+04  0.46999998093E+01 0. -1.
</event>
<event>
 5   0  0.2730981E-06  0.3176629E+04  0.7818609E-02  0.8195017E-01
        1   -1    0    0  501    0  0.00000000000E+00  0.00000000000E+00  0.88947286787E+03  0.88947286788E+03  0.50400001928E-02 0. -1.
       -1   -1    0    0    0  501  0.00000000000E+00  0.00000000000E+00 -0.28362232358E+04  0.28362232358E+04  0.50400001928E-02 0.  1.
    10030    2    1    2    0    0  0.00000000000E+00  0.00000000000E+00 -0.19467503679E+04  0.37256961037E+04  0.31766294184E+04 0.  0.
        3    1    3    3  502    0 -0.40486200064E+03  0.27570594229E+03 -0.27454268701E+04  0.27887803276E+04  0.10100000352E+00 0.  1.
       -3    1    3    3    0  502  0.40486200064E+03 -0.27570594229E+03  0.79867650218E+03  0.93691577611E+03  0.10100000352E+00 0. -1.
</event>
<event>
 5   0  0.5755250E-06  0.2885284E+04  0.7818609E-02  0.8277269E-01
       -2   -1    0    0    0  501  0.00000000000E+00  0.00000000000E+00  0.85597725172E+03  0.85597725172E+03  0.25500000920E-02 0. -1.
        2   -1    0    0  501    0  0.00000000000E+00  0.00000000000E+00 -0.24313912148E+04  0.24313912148E+04  0.25500000920E-02 0.  1.
    10030    2    1    2    0    0  0.00000000000E+00  0.00000000000E+00 -0.15754139631E+04  0.32873684665E+04  0.28852837433E+04 0.  0.
        5    1    3    3  502    0  0.19577176008E+02  0.14367128156E+04 -0.64061735189E+03  0.15731940954E+04  0.46999998093E+01 0. -1.
       -5    1    3    3    0  502 -0.19577176008E+02 -0.14367128156E+04 -0.93479661117E+03  0.17141743711E+04  0.46999998093E+01 0.  1.
</event>
<event>
 5   0  0.2730981E-06  0.2841815E+04  0.7818609E-02  0.8290403E-01
       -1   -1    0    0    0  501  0.00000000000E+00  0.00000000000E+00  0.84974791405E+03  0.84974791407E+03  0.50400001928E-02 0.  1.
        1   -1    0    0  501    0  0.00000000000E+00  0.00000000000E+00 -0.23759738466E+04  0.23759738466E+04  0.50400001928E-02 0. -1.
    10030    2    1    2    0    0  0.00000000000E+00  0.00000000000E+00 -0.15262259326E+04  0.32257217607E+04  0.28418154902E+04 0.  0.
        3    1    3    3  502    0 -0.42803601505E+02  0.10260763847E+04 -0.18777673887E+04  0.21402512170E+04  0.10100000352E+00 0. -1.
       -3    1    3    3    0  502  0.42803601505E+02 -0.10260763847E+04  0.35154145615E+03  0.10854705437E+04  0.10100000352E+00 0.  1.
</event>
<event>
 5   0  0.5855568E-06  0.2445666E+04  0.7818609E-02  0.8422602E-01
       -2   -1    0    0    0  501  0.00000000000E+00  0.00000000000E+00  0.13640625124E+04  0.13640625124E+04  0.25500000920E-02 0. -1.
        2   -1    0    0  501    0  0.00000000000E+00  0.00000000000E+00 -0.10962260389E+04  0.10962260389E+04  0.25500000920E-02 0.  1.
    10030    2    1    2    0    0  0.00000000000E+00  0.00000000000E+00  0.26783647345E+03  0.24602885513E+04  0.24456662444E+04 0.  0.
        3    1    3    3  502    0 -0.41214638953E+03 -0.46427043504E+02  0.12911440975E+04  0.13561243333E+04  0.10100000352E+00 0. -1.
       -3    1    3    3    0  502  0.41214638953E+03  0.46427043504E+02 -0.10233076240E+04  0.11041642180E+04  0.10100000352E+00 0.  1.
</event>
<event>
 5   0  0.2037109E-06  0.3271704E+04  0.7818609E-02  0.8170133E-01
       -1   -1    0    0    0  501  0.00000000000E+00  0.00000000000E+00  0.14472665227E+04  0.14472665227E+04  0.50400001928E-02 0.  1.
        1   -1    0    0  501    0  0.00000000000E+00  0.00000000000E+00 -0.18490108637E+04  0.18490108637E+04  0.50400001928E-02 0. -1.
    10030    2    1    2    0    0  0.00000000000E+00  0.00000000000E+00 -0.40174434101E+03  0.32962773865E+04  0.32717038517E+04 0.  0.
        2    1    3    3  502    0  0.14119210171E+04  0.78725523672E+03  0.51447988025E+02  0.16173863675E+04  0.25500000920E-02 0.  1.
       -2    1    3    3    0  502 -0.14119210171E+04 -0.78725523672E+03 -0.45319232903E+03  0.16788910189E+04  0.25500000920E-02 0. -1.
</event>
<event>
 5   0  0.5622811E-06  0.2304067E+04  0.7818609E-02  0.8476319E-01
        2   -1    0    0  501    0  0.00000000000E+00  0.00000000000E+00  0.92931084122E+03  0.92931084123E+03  0.25500000920E-02 0.  1.
       -2   -1    0    0    0  501  0.00000000000E+00  0.00000000000E+00 -0.14281344464E+04  0.14281344464E+04  0.25500000920E-02 0. -1.
    10030    2    1    2    0    0  0.00000000000E+00  0.00000000000E+00 -0.49882360516E+03  0.23574452876E+04  0.23040666863E+04 0.  0.
        1    1    3    3  502    0  0.37305652888E+03 -0.10692163153E+04 -0.32881689612E+02  0.11329059574E+04  0.50400001928E-02 0. -1.
       -1    1    3    3    0  502 -0.37305652888E+03  0.10692163153E+04 -0.46594191555E+03  0.12245393303E+04  0.50400001928E-02 0.  1.
</event>
<event>
 5   0  0.2037109E-06  0.3278380E+04  0.7818609E-02  0.8168419E-01
       -1   -1    0    0    0  501  0.00000000000E+00  0.00000000000E+00  0.19066505168E+04  0.19066505168E+04  0.50400001928E-02 0.  1.
        1   -1    0    0  501    0  0.00000000000E+00  0.00000000000E+00 -0.14092479663E+04  0.14092479663E+04  0.50400001928E-02 0. -1.
    10030    2    1    2    0    0  0.00000000000E+00  0.00000000000E+00  0.49740255057E+03  0.33158984831E+04  0.32783796993E+04 0.  0.
        2    1    3    3  502    0 -0.91402227769E+02  0.15862094651E+04  0.65646329956E+03  0.17191157314E+04  0.25500000920E-02 0.  1.
       -2    1    3    3    0  502  0.91402227769E+02 -0.15862094651E+04 -0.15906074898E+03  0.15967827517E+04  0.25500000920E-02 0. -1.
</event>
<event>
 5   0  0.5300268E-06  0.2388329E+04  0.7818609E-02  0.8443886E-01
       -2   -1    0    0    0  501  0.00000000000E+00  0.00000000000E+00  0.13179493759E+04  0.13179493759E+04  0.25500000920E-02 0.  1.
        2   -1    0    0  501    0  0.00000000000E+00  0.00000000000E+00 -0.10820058271E+04  0.10820058271E+04  0.25500000920E-02 0. -1.
    10030    2    1    2    0    0  0.00000000000E+00  0.00000000000E+00  0.23594354878E+03  0.23999552030E+04  0.23883290431E+04 0.  0.
        4    1    3    3  502    0 -0.89464471679E+03  0.78553791272E+03  0.24956009489E+02  0.11908330684E+04  0.12699999809E+01 0. -1.
       -4    1    3    3    0  502  0.89464471679E+03 -0.78553791272E+03  0.21098753929E+03  0.12091221345E+04  0.12699999809E+01 0.  1.
</event>
<event>
 5   0  0.2097842E-06  0.3267117E+04  0.7818609E-02  0.8171313E-01
       -1   -1    0    0    0  501  0.00000000000E+00  0.00000000000E+00  0.12705855727E+04  0.12705855727E+04  0.50400001928E-02 0. -1.
        1   -1    0    0  501    0  0.00000000000E+00  0.00000000000E+00 -0.21002237298E+04  0.21002237298E+04  0.50400001928E-02 0.  1.
    10030    2    1    2    0    0  0.00000000000E+00  0.00000000000E+00 -0.82963815711E+03  0.33708093025E+04  0.32671173658E+04 0.  0.
        4    1    3    3  502    0  0.94109265313E+03  0.94329764751E+03 -0.13898232862E+04  0.19253769017E+04  0.12699999809E+01 0.  1.
       -4    1    3    3    0  502 -0.94109265313E+03 -0.94329764751E+03  0.56018512912E+03  0.14454324008E+04  0.12699999809E+01 0. -1.
</event>
<event>
 5   0  0.2037109E-06  0.3297648E+04  0.7818609E-02  0.8163494E-01
        1   -1    0    0  501    0  0.00000000000E+00  0.00000000000E+00  0.11905798570E+04  0.11905798570E+04  0.50400001928E-02 0. -1.
       -1   -1    0    0    0  501  0.00000000000E+00  0.00000000000E+00 -0.22834423927E+04  0.22834423927E+04  0.50400001928E-02 0.  1.
    10030    2    1    2    0    0  0.00000000000E+00  0.00000000000E+00 -0.10928625357E+04  0.34740222497E+04  0.32976479602E+04 0.  0.
        2    1    3    3  502    0 -0.28406296376E+03  0.14145739401E+04  0.29431917780E+03  0.14725267324E+04  0.25500000920E-02 0. -1.
       -2    1    3    3    0  502  0.28406296376E+03 -0.14145739401E+04 -0.13871817135E+04  0.20014955173E+04  0.25500000920E-02 0.  1.
</event>
<event>
 5   0  0.2373177E-06  0.1769825E+04  0.7818609E-02  0.8722513E-01
        1   -1    0    0  501    0  0.00000000000E+00  0.00000000000E+00  0.15346513868E+04  0.15346513868E+04  0.50400001928E-02 0.  1.
       -1   -1    0    0    0  501  0.00000000000E+00  0.00000000000E+00 -0.51025909864E+03  0.51025909867E+03  0.50400001928E-02 0. -1.
    10030    2    1    2    0    0  0.00000000000E+00  0.00000000000E+00  0.10243922881E+04  0.20449104855E+04  0.17698246618E+04 0.  0.
        5    1    3    3  502    0  0.49729942806E+03 -0.42128284635E+03  0.12037791331E+04  0.13689018406E+04  0.46999998093E+01 0.  1.
       -5    1    3    3    0  502 -0.49729942806E+03  0.42128284635E+03 -0.17938684501E+03  0.67600864487E+03  0.46999998093E+01 0. -1.
</event>
<event>
 5   0  0.2306411E-06  0.1791906E+04  0.7818609E-02  0.8710615E-01
       -1   -1    0    0    0  501  0.00000000000E+00  0.00000000000E+00  0.76565502285E+03  0.76565502287E+03  0.50400001928E-02 0.  1.
        1   -1    0    0  501    0  0.00000000000E+00  0.00000000000E+00 -0.10484253829E+04  0.10484253829E+04  0.50400001928E-02 0. -1.
    10030    2    1    2    0    0  0.00000000000E+00  0.00000000000E+00 -0.28277036008E+03  0.18140804058E+04  0.17919064267E+04 0.  0.
        2    1    3    3  502    0 -0.48891030443E+03 -0.18645946899E+03 -0.87766181757E+03  0.10218075579E+04  0.25500000920E-02 0. -1.
       -2    1    3    3    0  502  0.48891030443E+03  0.18645946899E+03  0.59489145748E+03  0.79227284792E+03  0.25500000920E-02 0.  1.
</event>
<event>
 5   0  0.2730981E-06  0.3342937E+04  0.7818609E-02  0.8152055E-01
       -1   -1    0    0    0  501  0.00000000000E+00  0.00000000000E+00  0.15768161899E+04  0.15768161899E+04  0.50400001928E-02 0. -1.
        1   -1    0    0  501    0  0.00000000000E+00  0.00000000000E+00 -0.17718021154E+04  0.17718021155E+04  0.50400001928E-02 0.  1.
    10030    2    1    2    0    0  0.00000000000E+00  0.00000000000E+00 -0.19498592554E+03  0.33486183054E+04  0.33429365899E+04 0.  0.
        3    1    3    3  502    0 -0.36493487572E+03  0.15399969877E+04 -0.63602932049E+03  0.17056674625E+04  0.10100000352E+00 0. -1.
       -3    1    3    3    0  502  0.36493487572E+03 -0.15399969877E+04  0.44104339495E+03  0.16429508429E+04  0.10100000352E+00 0.  1.
</event>
<event>
 5   0  0.1999849E-06  0.3172113E+04  0.7818609E-02  0.8196221E-01
        1   -1    0    0  501    0  0.00000000000E+00  0.00000000000E+00  0.10151552002E+04  0.10151552002E+04  0.50400001928E-02 0.  1.
       -1   -1    0    0    0  501  0.00000000000E+00  0.00000000000E+00 -0.24780208324E+04  0.24780208324E+04  0.50400001928E-02 0. -1.
    10030    2    1    2    0    0  0.00000000000E+00  0.00000000000E+00 -0.14628656321E+04  0.34931760326E+04  0.31721133235E+04 0.  0.
        5    1    3    3  502    0  0.44819991811E+03  0.15104693862E+04 -0.93194063004E+03  0.18305562983E+04  0.46999998093E+01 0. -1.
       -5    1    3    3    0  502 -0.44819991811E+03 -0.15104693862E+04 -0.53092500210E+03  0.16626197344E+04  0.46999998093E+01 0.  1.
</event>
<event>
 5   0  0.1999849E-06  0.2303339E+04  0.7818609E-02  0.8476606E-01
        1   -1    0    0  501    0  0.00000000000E+00  0.00000000000E+00  0.18029439621E+04  0.18029439621E+04  0.50400001928E-02 0.  1.
       -1   -1    0    0    0  501  0.00000000000E+00  0.00000000000E+00 -0.73565374952E+03  0.73565374954E+03  0.50400001928E-02 0. -1.
    10030    2    1    2    0    0  0.00000000000E+00  0.00000000000E+00  0.10672902126E+04  0.25385977117E+04  0.23033388686E+04 0.  0.
        5    1    3    3  502    0  0.82733736932E+03  0.10469170474E+03  0.14090460106E+04  0.16373393740E+04  0.46999998093E+01 0.  1.
       -5    1    3    3    0  502 -0.82733736932E+03 -0.10469170474E+03 -0.34175579801E+03  0.90125833765E+03  0.46999998093E+01 0. -1.
</event>
<event>
 5   0  0.1999849E-06  0.2429343E+04  0.7818609E-02  0.8428599E-01
        1   -1    0    0  501    0  0.00000000000E+00  0.00000000000E+00  0.19099645808E+04  0.19099645808E+04  0.50400001928E-02 0.  1.
       -1   -1    0    0    0  501  0.00000000000E+00  0.00000000000E+00 -0.77248886312E+03  0.77248886314E+03  0.50400001928E-02 0. -1.
    10030    2    1    2    0    0  0.00000000000E+00  0.00000000000E+00  0.11374757177E+04  0.26824534439E+04  0.24293426005E+04 0.  0.
        5    1    3    3  502    0 -0.58491092744E+03  0.64592099656E+03 -0.36563675523E+03  0.94501166850E+03  0.46999998093E+01 0. -1.
       -5    1    3    3    0  502  0.58491092744E+03 -0.64592099656E+03  0.15031124729E+04  0.17374417754E+04  0.46999998093E+01 0.  1.
</event>
<event>
 5   0  0.5300268E-06  0.3242586E+04  0.7818609E-02  0.8177660E-01
       -2   -1    0    0    0  501  0.00000000000E+00  0.00000000000E+00  0.15016772458E+04  0.15016772458E+04  0.25500000920E-02 0.  1.
        2   -1    0    0  501    0  0.00000000000E+00  0.00000000000E+00 -0.17504361925E+04  0.17504361925E+04  0.25500000920E-02 0. -1.
    10030    2    1    2    0    0  0.00000000000E+00  0.00000000000E+00 -0.24875894671E+03  0.32521134382E+04  0.32425855118E+04 0.  0.
        4    1    3    3  502    0  0.65566998679E+03 -0.59372754123E+03  0.12383525229E+04  0.15218193417E+04  0.12699999809E+01 0.  1.
       -4    1    3    3    0  502 -0.65566998679E+03  0.59372754123E+03 -0.14871114696E+04  0.17302940966E+04  0.12699999809E+01 0. -1.
</event>
<event>
 5   0  0.2097842E-06  0.3065164E+04  0.7818609E-02  0.8225364E-01
       -1   -1    0    0    0  501  0.00000000000E+00  0.00000000000E+00  0.10741509237E+04  0.10741509237E+04  0.50400001928E-02 0.  1.
        1   -1    0    0  501    0  0.00000000000E+00  0.00000000000E+00 -0.21866646252E+04  0.21866646252E+04  0.50400001928E-02 0. -1.
    10030    2    1    2    0    0  0.00000000000E+00  0.00000000000E+00 -0.11125137015E+04  0.32608155489E+04  0.30651641568E+04 0.  0.
        4    1    3    3  502    0 -0.85877414641E+03  0.12454932788E+04 -0.29554307884E+03  0.15414583570E+04  0.12699999809E+01 0. -1.
       -4    1    3    3    0  502  0.85877414641E+03 -0.12454932788E+04 -0.81697062262E+03  0.17193571919E+04  0.12699999809E+01 0.  1.
</event>
<event>
 5   0  0.5855568E-06  0.3348762E+04  0.7818609E-02  0.8150597E-01
       -2   -1    0    0    0  501  0.00000000000E+00  0.00000000000E+00  0.12169371153E+04  0.12169371153E+04  0.25500000920E-02 0.  1.
        2   -1    0    0  501    0  0.00000000000E+00  0.00000000000E+00 -0.23037773630E+04  0.23037773630E+04  0.25500000920E-02 0. -1.
    10030    2    1    2    0    0  0.00000000000E+00  0.00000000000E+00 -0.10868402477E+04  0.35207144782E+04  0.33487622659E+04 0.  0.
        3    1    3    3  502    0  0.31140200134E+03 -0.57320092250E+03  0.10778463136E+04  0.12598742754E+04  0.10100000352E+00 0.  1.
       -3    1    3    3    0  502 -0.31140200134E+03  0.57320092250E+03 -0.21646865613E+04  0.22608402028E+04  0.10100000352E+00 0. -1.
</event>
<event>
 5   0  0.5622811E-06  0.3150806E+04  0.7818609E-02  0.8201931E-01
        2   -1    0    0  501    0  0.00000000000E+00  0.00000000000E+00  0.16296956202E+04  0.16296956202E+04  0.25500000920E-02 0.  1.
       -2   -1    0    0    0  501  0.00000000000E+00  0.00000000000E+00 -0.15229190221E+04  0.15229190221E+04  0.25500000920E-02 0. -1.
    10030    2    1    2    0    0  0.00000000000E+00  0.00000000000E+00  0.10677659804E+03  0.31526146423E+04  0.31508059034E+04 0.  0.
        1    1    3    3  502    0 -0.39885605168E+03 -0.95988988336E+03  0.12378836222E+04  0.16164252535E+04  0.50400001928E-02 0.  1.
       -1    1    3    3    0  502  0.39885605168E+03  0.95988988336E+03 -0.11311070241E+04  0.15361893888E+04  0.50400001928E-02 0. -1.
</event>
<event>
 5   0  0.2097842E-06  0.3166088E+04  0.7818609E-02  0.8197831E-01
        1   -1    0    0  501    0  0.00000000000E+00  0.00000000000E+00  0.15816580755E+04  0.15816580755E+04  0.50400001928E-02 0.  1.
       -1   -1    0    0    0  501  0.00000000000E+00  0.00000000000E+00 -0.15844309765E+04  0.15844309765E+04  0.50400001928E-02 0. -1.
    10030    2    1    2    0    0  0.00000000000E+00  0.00000000000E+00 -0.27729010387E+01  0.31660890520E+04  0.31660878377E+04 0.  0.
        4    1    3    3  502    0  0.11861984098E+04 -0.10330636383E+04 -0.17954175446E+03  0.15832005567E+04  0.12699999809E+01 0.  1.
       -4    1    3    3    0  502 -0.11861984098E+04  0.10330636383E+04  0.17676885342E+03  0.15828884953E+04  0.12699999809E+01 0. -1.
</event>
<event>
 5   0  0.5622811E-06  0.3312523E+04  0.7818609E-02  0.8159716E-01
       -2   -1    0    0    0  501  0.00000000000E+00  0.00000000000E+00  0.10732799739E+04  0.10732799739E+04  0.25500000920E-02 0.  1.
        2   -1    0    0  501    0  0.00000000000E+00  0.00000000000E+00 -0.25559053180E+04  0.25559053180E+04  0.25500000920E-02 0. -1.
    10030    2    1    2    0    0  0.00000000000E+00  0.00000000000E+00 -0.14826253441E+04  0.36291852919E+04  0.33125229013E+04 0.  0.
        1    1    3    3  502    0  0.10478566358E+03 -0.10723794357E+04  0.63679857856E+03  0.12515950300E+04  0.50400001928E-02 0.  1.
       -1    1    3    3    0  502 -0.10478566358E+03  0.10723794357E+04 -0.21194239227E+04  0.23775902619E+04  0.50400001928E-02 0. -1.
</event>
<event>
 5   0  0.5622811E-06  0.3231428E+04  0.7818609E-02  0.8180566E-01
        2   -1    0    0  501    0  0.00000000000E+00  0.00000000000E+00  0.15319294525E+04  0.15319294525E+04  0.25500000920E-02 0. -1.
       -2   -1    0    0    0  501  0.00000000000E+00  0.00000000000E+00 -0.17040809336E+04  0.17040809336E+04  0.25500000920E-02 0.  1.
    10030    2    1    2    0    0  0.00000000000E+00  0.00000000000E+00 -0.17215148111E+03  0.32360103861E+04  0.32314280259E+04 0.  0.
        1    1    3    3  502    0  0.14986501520E+04  0.54571904860E+03  0.17269001472E+03  0.16042391965E+04  0.50400001928E-02 0. -1.
       -1    1    3    3    0  502 -0.14986501520E+04 -0.54571904860E+03 -0.34484149583E+03  0.16317711897E+04  0.50400001928E-02 0.  1.
</event>
<event>
 5   0  0.2037109E-06  0.3308445E+04  0.7818609E-02  0.8160750E-01
        1   -1    0    0  501    0  0.00000000000E+00  0.00000000000E+00  0.16647841061E+04  0.16647841061E+04  0.50400001928E-02 0. -1.
       -1   -1    0    0    0  501  0.00000000000E+00  0.00000000000E+00 -0.16437280353E+04  0.16437280353E+04  0.50400001928E-02 0.  1.
    10030    2    1    2    0    0  0.00000000000E+00  0.00000000000E+00  0.21056070848E+02  0.33085121414E+04  0.33084451380E+04 0.  0.
        2    1    3    3  502    0  0.19640670474E+03  0.54731266651E+03  0.15592122198E+04  0.16641122243E+04  0.25500000920E-02 0. -1.
       -2    1    3    3    0  502 -0.19640670474E+03 -0.54731266651E+03 -0.15381561490E+04  0.16443999171E+04  0.25500000920E-02 0.  1.
</event>
<event>
 5   0  0.5622811E-06  0.3107318E+04  0.7818609E-02  0.8213732E-01
       -2   -1    0    0    0  501  0.00000000000E+00  0.00000000000E+00  0.11455444741E+04  0.11455444741E+04  0.25500000920E-02 0.  1.
        2   -1    0    0  501    0  0.00000000000E+00  0.00000000000E+00 -0.21071699778E+04  0.21071699778E+04  0.25500000920E-02 0. -1.
    10030    2    1    2    0    0  0.00000000000E+00  0.00000000000E+00 -0.96162550371E+03  0.32527144519E+04  0.31073184092E+04 0.  0.
        1    1    3    3  502    0 -0.24582927520E+03  0.30136090801E+03  0.10937671218E+04  0.11608518192E+04  0.50400001928E-02 0.  1.
       -1    1    3    3    0  502  0.24582927520E+03 -0.30136090801E+03 -0.20553926255E+04  0.20918626328E+04  0.50400001928E-02 0. -1.
</event>
<event>
 5   0  0.2097842E-06  0.1898327E+04  0.7818609E-02  0.8655689E-01
       -1   -1    0    0    0  501  0.00000000000E+00  0.00000000000E+00  0.45503422424E+03  0.45503422426E+03  0.50400001928E-02 0. -1.
        1   -1    0    0  501    0  0.00000000000E+00  0.00000000000E+00 -0.19798764755E+04  0.19798764755E+04  0.50400001928E-02 0.  1.
    10030    2    1    2    0    0  0.00000000000E+00  0.00000000000E+00 -0.15248422513E+04  0.24349106998E+04  0.18983272175E+04 0.  0.
        4    1    3    3  502    0 -0.62291785333E+02  0.74318940414E+03 -0.15154854827E+04  0.16890555403E+04  0.12699999809E+01 0.  1.
       -4    1    3    3    0  502  0.62291785333E+02 -0.74318940414E+03 -0.93567685723E+01  0.74585515951E+03  0.12699999809E+01 0. -1.
</event>
<event>
 5   0  0.2037109E-06  0.3343544E+04  0.7818609E-02  0.8151903E-01
        1   -1    0    0  501    0  0.00000000000E+00  0.00000000000E+00  0.27780052902E+04  0.27780052902E+04  0.50400001928E-02 0.  1.
       -1   -1    0    0    0  501  0.00000000000E+00  0.00000000000E+00 -0.10060534668E+04  0.10060534668E+04  0.50400001928E-02 0. -1.
    10030    2    1    2    0    0  0.00000000000E+00  0.00000000000E+00  0.17719518234E+04  0.37840587570E+04  0.33435441394E+04 0.  0.
        2    1    3    3  502    0 -0.11762317458E+04  0.56997154573E+02 -0.45697508602E+03  0.12631690404E+04  0.25500000920E-02 0. -1.
       -2    1    3    3    0  502  0.11762317458E+04 -0.56997154573E+02  0.22289269094E+04  0.25208897165E+04  0.25500000920E-02 0.  1.
</event>
<event>
 5   0  0.2097842E-06  0.3291260E+04  0.7818609E-02  0.8165123E-01
       -1   -1    0    0    0  501  0.00000000000E+00  0.00000000000E+00  0.15515056251E+04  0.15515056251E+04  0.50400001928E-02 0.  1.
        1   -1    0    0  501    0  0.00000000000E+00  0.00000000000E+00 -0.17454646765E+04  0.17454646765E+04  0.50400001928E-02 0. -1.
    10030    2    1    2    0    0  0.00000000000E+00  0.00000000000E+00 -0.19395905140E+03  0.32969703015E+04  0.32912601015E+04 0.  0.
        4    1    3    3  502    0 -0.10389006237E+04 -0.10003399574E+03 -0.13714979578E+04  0.17234644085E+04  0.12699999809E+01 0. -1.
       -4    1    3    3    0  502  0.10389006237E+04  0.10003399574E+03  0.11775389064E+04  0.15735058930E+04  0.12699999809E+01 0.  1.
</event>
<event>
 5   0  0.5622811E-06  0.1688077E+04  0.7818609E-02  0.8768194E-01
        2   -1    0    0  501    0  0.00000000000E+00  0.00000000000E+00  0.11493980508E+04  0.11493980508E+04  0.25500000920E-02 0.  1.
       -2   -1    0    0    0  501  0.00000000000E+00  0.00000000000E+00 -0.61980361264E+03  0.61980361265E+03  0.25500000920E-02 0. -1.
    10030    2    1    2    0    0  0.00000000000E+00  0.00000000000E+00  0.52959443817E+03  0.17692016635E+04  0.16880770886E+04 0.  0.
        1    1    3    3  502    0  0.68712654022E+03  0.48127879389E+03  0.36215325787E+03  0.91374347710E+03  0.50400001928E-02 0. -1.
       -1    1    3    3    0  502 -0.68712654022E+03 -0.48127879389E+03  0.16744118029E+03  0.85545818636E+03  0.50400001928E-02 0.  1.
</event>
<event>
 5   0  0.1925906E-06  0.3250261E+04  0.7818609E-02  0.8175668E-01
       -1   -1    0    0    0  501  0.00000000000E+00  0.00000000000E+00  0.14687976508E+04  0.14687976508E+04  0.50400001928E-02 0. -1.
        1   -1    0    0  501    0  0.00000000000E+00  0.00000000000E+00 -0.17981025015E+04  0.17981025015E+04  0.50400001928E-02 0.  1.
    10030    2    1    2    0    0  0.00000000000E+00  0.00000000000E+00 -0.32930485065E+03  0.32669001523E+04  0.32502607465E+04 0.  0.
        1    1    3    3  502    0  0.12220212429E+04 -0.10638641236E+04 -0.29141682641E+03  0.16462279788E+04  0.50400001928E-02 0.  1.
       -1    1    3    3    0  502 -0.12220212429E+04  0.10638641236E+04 -0.37888024239E+02  0.16206721735E+04  0.50400001928E-02 0. -1.
</event>
<event>
 5   0  0.2097842E-06  0.2434253E+04  0.7818609E-02  0.8426790E-01
       -1   -1    0    0    0  501  0.00000000000E+00  0.00000000000E+00  0.68884150501E+03  0.68884150503E+03  0.50400001928E-02 0. -1.
        1   -1    0    0  501    0  0.00000000000E+00  0.00000000000E+00 -0.21505624428E+04  0.21505624428E+04  0.50400001928E-02 0.  1.
    10030    2    1    2    0    0  0.00000000000E+00  0.00000000000E+00 -0.14617209378E+04  0.28394039478E+04  0.24342527968E+04 0.  0.
        4    1    3    3  502    0 -0.11477786325E+04 -0.40004564928E+03 -0.80428811822E+03  0.14575024188E+04  0.12699999809E+01 0.  1.
       -4    1    3    3    0  502  0.11477786325E+04  0.40004564928E+03 -0.65743281954E+03  0.13819015290E+04  0.12699999809E+01 0. -1.
</event>
<event>
 5   0  0.5637538E-06  0.3328991E+04  0.7818609E-02  0.8155558E-01
        2   -1    0    0  501    0  0.00000000000E+00  0.00000000000E+00  0.16995617399E+04  0.16995617399E+04  0.25500000920E-02 0. -1.
       -2   -1    0    0    0  501  0.00000000000E+00  0.00000000000E+00 -0.16301528579E+04  0.16301528579E+04  0.25500000920E-02 0.  1.
    10030    2    1    2    0    0  0.00000000000E+00  0.00000000000E+00  0.69408881937E+02  0.33297145978E+04  0.33289910949E+04 0.  0.
        2    1    3    3  502    0 -0.56530465765E+03  0.60187970745E+03 -0.14108490469E+04  0.16347243105E+04  0.25500000920E-02 0.  1.
       -2    1    3    3    0  502  0.56530465765E+03 -0.60187970745E+03  0.14802579288E+04  0.16949902873E+04  0.25500000920E-02 0. -1.
</event>
<event>
 5   0  0.5637538E-06  0.3295866E+04  0.7818609E-02  0.8163948E-01
        2   -1    0    0  501    0  0.00000000000E+00  0.00000000000E+00  0.13173095773E+04  0.13173095773E+04  0.25500000920E-02 0. -1.
       -2   -1    0    0    0  501  0.00000000000E+00  0.00000000000E+00 -0.20615373937E+04  0.20615373937E+04  0.25500000920E-02 0.  1.
    10030    2    1    2    0    0  0.00000000000E+00  0.00000000000E+00 -0.74422781634E+03  0.33788469710E+04  0.32958658666E+04 0.  0.
        2    1    3    3  502    0 -0.21187160069E+03 -0.13038414815E+04 -0.13822079587E+04  0.19119076927E+04  0.25500000920E-02 0.  1.
       -2    1    3    3    0  502  0.21187160069E+03  0.13038414815E+04  0.63798014240E+03  0.14669392783E+04  0.25500000920E-02 0. -1.
</event>
<event>
 5   0  0.5755250E-06  0.2945643E+04  0.7818609E-02  0.8259426E-01
        2   -1    0    0  501    0  0.00000000000E+00  0.00000000000E+00  0.11962051669E+04  0.11962051669E+04  0.25500000920E-02 0. -1.
       -2   -1    0    0    0  501  0.00000000000E+00  0.00000000000E+00 -0.18134035210E+04  0.18134035210E+04  0.25500000920E-02 0.  1.
    10030    2    1    2    0    0  0.00000000000E+00  0.00000000000E+00 -0.61719835413E+03  0.30096086879E+04  0.29456426541E+04 0.  0.
        5    1    3    3  502    0  0.84199022145E+03 -0.78334072184E+03 -0.12486942124E+04  0.16975952243E+04  0.46999998093E+01 0.  1.
       -5    1    3    3    0  502 -0.84199022145E+03  0.78334072184E+03  0.63149585829E+03  0.13120134636E+04  0.46999998093E+01 0. -1.
</event>
<event>
 5   0  0.5622811E-06  0.3309008E+04  0.7818609E-02  0.8160607E-01
        2   -1    0    0  501    0  0.00000000000E+00  0.00000000000E+00  0.21877649775E+04  0.21877649775E+04  0.25500000920E-02 0.  1.
       -2   -1    0    0    0  501  0.00000000000E+00  0.00000000000E+00 -0.12512236275E+04  0.12512236275E+04  0.25500000920E-02 0. -1.
    10030    2    1    2    0    0  0.00000000000E+00  0.00000000000E+00  0.93654135006E+03  0.34389886050E+04  0.33090078460E+04 0.  0.
        1    1    3    3  502    0  0.12215529128E+04 -0.10397461547E+04  0.47240496617E+02  0.16048349602E+04  0.50400001928E-02 0. -1.
       -1    1    3    3    0  502 -0.12215529128E+04  0.10397461547E+04  0.88930085344E+03  0.18341536448E+04  0.50400001928E-02 0.  1.
</event>
<event>
 5   0  0.2730981E-06  0.3132873E+04  0.7818609E-02  0.8206774E-01
       -1   -1    0    0    0  501  0.00000000000E+00  0.00000000000E+00  0.12818348838E+04  0.12818348838E+04  0.50400001928E-02 0.  1.
        1   -1    0    0  501    0  0.00000000000E+00  0.00000000000E+00 -0.19142270083E+04  0.19142270083E+04  0.50400001928E-02 0. -1.
    10030    2    1    2    0    0  0.00000000000E+00  0.00000000000E+00 -0.63239212448E+03  0.31960618920E+04  0.31328727741E+04 0.  0.
        3    1    3    3  502    0  0.11159959467E+04  0.10819222285E+04 -0.11806165789E+03  0.15588268752E+04  0.10100000352E+00 0.  1.
       -3    1    3    3    0  502 -0.11159959467E+04 -0.10819222285E+04 -0.51433046659E+03  0.16372350169E+04  0.10100000352E+00 0. -1.
</event>
<event>
 5   0  0.5300268E-06  0.1856735E+04  0.7818609E-02  0.8676697E-01
       -2   -1    0    0    0  501  0.00000000000E+00  0.00000000000E+00  0.48393392922E+03  0.48393392923E+03  0.25500000920E-02 0. -1.
        2   -1    0    0  501    0  0.00000000000E+00  0.00000000000E+00 -0.17809589785E+04  0.17809589786E+04  0.25500000920E-02 0.  1.
    10030    2    1    2    0    0  0.00000000000E+00  0.00000000000E+00 -0.12970250493E+04  0.22648929078E+04  0.18567352814E+04 0.  0.
        4    1    3    3  502    0  0.13288766570E+02 -0.78364591846E+03 -0.41549962051E+02  0.78486019716E+03  0.12699999809E+01 0. -1.
       -4    1    3    3    0  502 -0.13288766570E+02  0.78364591846E+03 -0.12554750873E+04  0.14800327106E+04  0.12699999809E+01 0.  1.
</event>
<event>
 5   0  0.5755250E-06  0.3409908E+04  0.7818609E-02  0.8135479E-01
       -2   -1    0    0    0  501  0.00000000000E+00  0.00000000000E+00  0.11252342061E+04  0.11252342061E+04  0.25500000920E-02 0.  1.
        2   -1    0    0  501    0  0.00000000000E+00  0.00000000000E+00 -0.25833449607E+04  0.25833449607E+04  0.25500000920E-02 0. -1.
    10030    2    1    2    0    0  0.00000000000E+00  0.00000000000E+00 -0.14581107546E+04  0.37085791668E+04  0.34099079846E+04 0.  0.
        5    1    3    3  502    0  0.15173730535E+04  0.73977201281E+03 -0.46902734777E+03  0.17520537542E+04  0.46999998093E+01 0.  1.
       -5    1    3    3    0  502 -0.15173730535E+04 -0.73977201281E+03 -0.98908340685E+03  0.19565254126E+04  0.46999998093E+01 0. -1.
</event>
<event>
 5   0  0.5622811E-06  0.3332142E+04  0.7818609E-02  0.8154765E-01
        2   -1    0    0  501    0  0.00000000000E+00  0.00000000000E+00  0.16389520583E+04  0.16389520583E+04  0.25500000920E-02 0.  1.
       -2   -1    0    0    0  501  0.00000000000E+00  0.00000000000E+00 -0.16936386271E+04  0.16936386271E+04  0.25500000920E-02 0. -1.
    10030    2    1    2    0    0  0.00000000000E+00  0.00000000000E+00 -0.54686568778E+02  0.33325906854E+04  0.33321419621E+04 0.  0.
        1    1    3    3  502    0 -0.15106971600E+03 -0.11736226072E+04 -0.12003526369E+04  0.16855439882E+04  0.50400001928E-02 0. -1.
       -1    1    3    3    0  502  0.15106971600E+03  0.11736226072E+04  0.11456660681E+04  0.16470466972E+04  0.50400001928E-02 0.  1.
</event>
<event>
 5   0  0.1925906E-06  0.2843881E+04  0.7818609E-02  0.8289773E-01
       -1   -1    0    0    0  501  0.00000000000E+00  0.00000000000E+00  0.19559656371E+04  0.19559656371E+04  0.50400001928E-02 0.  1.
        1   -1    0    0  501    0  0.00000000000E+00  0.00000000000E+00 -0.10337168561E+04  0.10337168561E+04  0.50400001928E-02 0. -1.
    10030    2    1    2    0    0  0.00000000000E+00  0.00000000000E+00  0.92224878093E+03  0.29896824932E+04  0.28438809040E+04 0.  0.
        1    1    3    3  502    0  0.73253440981E+02 -0.53289719863E+03 -0.92262981202E+03  0.10679846726E+04  0.50400001928E-02 0. -1.
       -1    1    3    3    0  502 -0.73253440981E+02  0.53289719863E+03  0.18448785930E+04  0.19216978206E+04  0.50400001928E-02 0.  1.
</event>
<event>
 5   0  0.2037109E-06  0.3125622E+04  0.7818609E-02  0.8208741E-01
        1   -1    0    0  501    0  0.00000000000E+00  0.00000000000E+00  0.17875583047E+04  0.17875583047E+04  0.50400001928E-02 0. -1.
       -1   -1    0    0    0  501  0.00000000000E+00  0.00000000000E+00 -0.13663212120E+04  0.13663212120E+04  0.50400001928E-02 0.  1.
    10030    2    1    2    0    0  0.00000000000E+00  0.00000000000E+00  0.42123709266E+03  0.31538795167E+04  0.31256223889E+04 0.  0.
        2    1    3    3  502    0  0.16481135244E+03  0.15181602010E+04  0.54589591695E+03  0.16217199296E+04  0.25500000920E-02 0. -1.
       -2    1    3    3    0  502 -0.16481135244E+03 -0.15181602010E+04 -0.12465882429E+03  0.15321595871E+04  0.25500000920E-02 0.  1.
</event>
<event>
 5   0  0.2037109E-06  0.3236715E+04  0.7818609E-02  0.8179188E-01
       -1   -1    0    0    0  501  0.00000000000E+00  0.00000000000E+00  0.13753016299E+04  0.13753016299E+04  0.50400001928E-02 0. -1.
        1   -1    0    0  501    0  0.00000000000E+00  0.00000000000E+00 -0.19043688031E+04  0.19043688031E+04  0.50400001928E-02 0.  1.
    10030    2    1    2    0    0  0.00000000000E+00  0.00000000000E+00 -0.52906717326E+03  0.32796704330E+04  0.32367153220E+04 0.  0.
        2    1    3    3  502    0 -0.83134705411E+03  0.23261895668E+03 -0.16515801107E+04  0.18635896451E+04  0.25500000920E-02 0.  1.
       -2    1    3    3    0  502  0.83134705411E+03 -0.23261895668E+03  0.11225129374E+04  0.14160807879E+04  0.25500000920E-02 0. -1.
</event>
<event>
 5   0  0.5637538E-06  0.3242280E+04  0.7818609E-02  0.8177740E-01
        2   -1    0    0  501    0  0.00000000000E+00  0.00000000000E+00  0.23648747507E+04  0.23648747507E+04  0.25500000920E-02 0. -1.
       -2   -1    0    0    0  501  0.00000000000E+00  0.00000000000E+00 -0.11113039495E+04  0.11113039495E+04  0.25500000920E-02 0.  1.
    10030    2    1    2    0    0  0.00000000000E+00  0.00000000000E+00  0.12535708012E+04  0.34761787002E+04  0.32422798463E+04 0.  0.
        2    1    3    3  502    0 -0.46370418786E+03 -0.12198566659E+04  0.16579495703E+04  0.21099451739E+04  0.25500000920E-02 0. -1.
       -2    1    3    3    0  502  0.46370418786E+03  0.12198566659E+04 -0.40437876912E+03  0.13662335262E+04  0.25500000920E-02 0.  1.
</event>
<event>
 5   0  0.5300268E-06  0.3230177E+04  0.7818609E-02  0.8180893E-01
       -2   -1    0    0    0  501  0.00000000000E+00  0.00000000000E+00  0.12399405187E+04  0.12399405187E+04  0.25500000920E-02 0. -1.
        2   -1    0    0  501    0  0.00000000000E+00  0.00000000000E+00 -0.21037388557E+04  0.21037388557E+04  0.25500000920E-02 0.  1.
    10030    2    1    2    0    0  0.00000000000E+00  0.00000000000E+00 -0.86379833701E+03  0.33436793745E+04  0.32301771147E+04 0.  0.
        4    1    3    3  502    0 -0.14522382983E+04 -0.66359695914E+03 -0.18014039871E+03  0.16068009134E+04  0.12699999809E+01 0. -1.
       -4    1    3    3    0  502  0.14522382983E+04  0.66359695914E+03 -0.68365793830E+03  0.17368784611E+04  0.12699999809E+01 0.  1.
</event>
<event>
 5   0  0.5755250E-06  0.3117643E+04  0.7818609E-02  0.8210913E-01
       -2   -1    0    0    0  501  0.00000000000E+00  0.00000000000E+00  0.19578831880E+04  0.19578831880E+04  0.25500000920E-02 0. -1.
        2   -1    0    0  501    0  0.00000000000E+00  0.00000000000E+00 -0.12410978583E+04  0.12410978583E+04  0.25500000920E-02 0.  1.
    10030    2    1    2    0    0  0.00000000000E+00  0.00000000000E+00  0.71678532966E+03  0.31989810464E+04  0.31176431044E+04 0.  0.
        5    1    3    3  502    0  0.11430139530E+04 -0.90225039457E+02  0.14420137285E+04  0.18422939878E+04  0.46999998093E+01 0. -1.
       -5    1    3    3    0  502 -0.11430139530E+04  0.90225039457E+02 -0.72522839882E+03  0.13566870586E+04  0.46999998093E+01 0.  1.
</event>
<event>
 5   0  0.1925906E-06  0.3322395E+04  0.7818609E-02  0.8157220E-01
        1   -1    0    0  501    0  0.00000000000E+00  0.00000000000E+00  0.13559911730E+04  0.13559911730E+04  0.50400001928E-02 0. -1.
       -1   -1    0    0    0  501  0.00000000000E+00  0.00000000000E+00 -0.20350992843E+04  0.20350992843E+04  0.50400001928E-02 0.  1.
    10030    2    1    2    0    0  0.00000000000E+00  0.00000000000E+00 -0.67910811133E+03  0.33910904573E+04  0.33223947180E+04 0.  0.
        1    1    3    3  502    0 -0.14454306048E+04  0.41379067640E+03 -0.10606201998E+04  0.18399477073E+04  0.50400001928E-02 0.  1.
       -1    1    3    3    0  502  0.14454306048E+04 -0.41379067640E+03  0.38151208851E+03  0.15511427500E+04  0.50400001928E-02 0. -1.
</event>
<event>
 5   0  0.2097842E-06  0.1858993E+04  0.7818609E-02  0.8675542E-01
       -1   -1    0    0    0  501  0.00000000000E+00  0.00000000000E+00  0.61408429981E+03  0.61408429983E+03  0.50400001928E-02 0.  1.
        1   -1    0    0  501    0  0.00000000000E+00  0.00000000000E+00 -0.14069135647E+04  0.14069135647E+04  0.50400001928E-02 0. -1.
    10030    2    1    2    0    0  0.00000000000E+00  0.00000000000E+00 -0.79282926487E+03  0.20209978645E+04  0.18589927717E+04 0.  0.
        4    1    3    3  502    0  0.65426469283E+03 -0.61645232046E+03 -0.65341888792E+03  0.11113206592E+04  0.12699999809E+01 0.  1.
       -4    1    3    3    0  502 -0.65426469283E+03  0.61645232046E+03 -0.13941037695E+03  0.90967720527E+03  0.12699999809E+01 0. -1.
</event>
<event>
 5   0  0.5637538E-06  0.3478158E+04  0.7818609E-02  0.8118986E-01
        2   -1    0    0  501    0  0.00000000000E+00  0.00000000000E+00  0.14521231841E+04  0.14521231841E+04  0.25500000920E-02 0. -1.
       -2   -1    0    0    0  501  0.00000000000E+00  0.00000000000E+00 -0.20827410167E+04  0.20827410167E+04  0.25500000920E-02 0.  1.
    10030    2    1    2    0    0  0.00000000000E+00  0.00000000000E+00 -0.63061783254E+03  0.35348642008E+04  0.34781584305E+04 0.  0.
        2    1    3    3  502    0  0.17065782836E+04 -0.39026546763E+02 -0.65308879169E+03  0.18276918447E+04  0.25500000920E-02 0. -1.
       -2    1    3    3    0  502 -0.17065782836E+04  0.39026546763E+02  0.22470959157E+02  0.17071723561E+04  0.25500000920E-02 0.  1.
</event>
<event>
 5   0  0.5622811E-06  0.3480607E+04  0.7818609E-02  0.8118401E-01
        2   -1    0    0  501    0  0.00000000000E+00  0.00000000000E+00  0.22563838174E+04  0.22563838174E+04  0.25500000920E-02 0. -1.
       -2   -1    0    0    0  501  0.00000000000E+00  0.00000000000E+00 -0.13422613935E+04  0.13422613935E+04  0.25500000920E-02 0.  1.
    10030    2    1    2    0    0  0.00000000000E+00  0.00000000000E+00  0.91412242388E+03  0.35986452109E+04  0.34806073533E+04 0.  0.
        1    1    3    3  502    0 -0.14726529141E+04  0.86582207305E+03  0.80044241469E+03  0.18865477802E+04  0.50400001928E-02 0. -1.
       -1    1    3    3    0  502  0.14726529141E+04 -0.86582207305E+03  0.11368000918E+03  0.17120974307E+04  0.50400001928E-02 0.  1.
</event>
<event>
 5   0  0.5300268E-06  0.3443487E+04  0.7818609E-02  0.8127315E-01
        2   -1    0    0  501    0  0.00000000000E+00  0.00000000000E+00  0.29501920916E+04  0.29501920916E+04  0.25500000920E-02 0. -1.
       -2   -1    0    0    0  501  0.00000000000E+00  0.00000000000E+00 -0.10048161321E+04  0.10048161321E+04  0.25500000920E-02 0.  1.
    10030    2    1    2    0    0  0.00000000000E+00  0.00000000000E+00  0.19453759595E+04  0.39550082237E+04  0.34434869574E+04 0.  0.
        4    1    3    3  502    0 -0.11057773541E+04  0.51886565241E+03 -0.42100415179E+03  0.12919795783E+04  0.12699999809E+01 0.  1.
       -4    1    3    3    0  502  0.11057773541E+04 -0.51886565241E+03  0.23663801112E+04  0.26630286453E+04  0.12699999809E+01 0. -1.
</event>
<event>
 5   0  0.2037109E-06  0.3304151E+04  0.7818609E-02  0.8161840E-01
        1   -1    0    0  501    0  0.00000000000E+00  0.00000000000E+00  0.25514363216E+04  0.25514363216E+04  0.50400001928E-02 0.  1.
       -1   -1    0    0    0  501  0.00000000000E+00  0.00000000000E+00 -0.10697324339E+04  0.10697324339E+04  0.50400001928E-02 0. -1.
    10030    2    1    2    0    0  0.00000000000E+00  0.00000000000E+00  0.14817038877E+04  0.36211687555E+04  0.33041514410E+04 0.  0.
        2    1    3    3  502    0  0.67033879387E+03  0.63762585919E+03  0.22409095721E+04  0.24243754959E+04  0.25500000920E-02 0.  1.
       -2    1    3    3    0  502 -0.67033879387E+03 -0.63762585919E+03 -0.75920568445E+03  0.11967932596E+04  0.25500000920E-02 0. -1.
</event>
<event>
 5   0  0.5755250E-06  0.2044531E+04  0.7818609E-02  0.8586079E-01
       -2   -1    0    0    0  501  0.00000000000E+00  0.00000000000E+00  0.61937633790E+03  0.61937633790E+03  0.25500000920E-02 0.  1.
        2   -1    0    0  501    0  0.00000000000E+00  0.00000000000E+00 -0.16872240211E+04  0.16872240211E+04  0.25500000920E-02 0. -1.
    10030    2    1    2    0    0  0.00000000000E+00  0.00000000000E+00 -0.10678476832E+04  0.23066003590E+04  0.20445308855E+04 0.  0.
        5    1    3    3  502    0  0.73165306122E+03 -0.38262092279E+03 -0.12139179442E+04  0.14681055268E+04  0.46999998093E+01 0. -1.
       -5    1    3    3    0  502 -0.73165306122E+03  0.38262092279E+03  0.14607026097E+03  0.83849483224E+03  0.46999998093E+01 0.  1.
</event>
<event>
 5   0  0.2097842E-06  0.1891210E+04  0.7818609E-02  0.8659244E-01
       -1   -1    0    0    0  501  0.00000000000E+00  0.00000000000E+00  0.55712653040E+03  0.55712653042E+03  0.50400001928E-02 0.  1.
        1   -1    0    0  501    0  0.00000000000E+00  0.00000000000E+00 -0.16049655534E+04  0.16049655534E+04  0.50400001928E-02 0. -1.
    10030    2    1    2    0    0  0.00000000000E+00  0.00000000000E+00 -0.10478390230E+04  0.21620920838E+04  0.18912100785E+04 0.  0.
        4    1    3    3  502    0 -0.46508963700E+03 -0.69131680431E+03 -0.10351117349E+04  0.13287908831E+04  0.12699999809E+01 0. -1.
       -4    1    3    3    0  502  0.46508963700E+03  0.69131680431E+03 -0.12727288084E+02  0.83330120072E+03  0.12699999809E+01 0.  1.
</event>
<event>
 5   0  0.1925906E-06  0.3346846E+04  0.7818609E-02  0.8151077E-01
        1   -1    0    0  501    0  0.00000000000E+00  0.00000000000E+00  0.18495341554E+04  0.18495341554E+04  0.50400001928E-02 0. -1.
       -1   -1    0    0    0  501  0.00000000000E+00  0.00000000000E+00 -0.15140811831E+04  0.15140811831E+04  0.50400001928E-02 0.  1.
    10030    2    1    2    0    0  0.00000000000E+00  0.00000000000E+00  0.33545297233E+03  0.33636153385E+04  0.33468461944E+04 0.  0.
        1    1    3    3  502    0  0.55688526511E+03  0.28144051426E+03  0.17282507181E+04  0.18374385721E+04  0.50400001928E-02 0. -1.
       -1    1    3    3    0  502 -0.55688526511E+03 -0.28144051426E+03 -0.13927977458E+04  0.15261767664E+04  0.50400001928E-02 0.  1.
</event>
<event>
 5   0  0.1925906E-06  0.2584786E+04  0.7818609E-02  0.8373388E-01
        1   -1    0    0  501    0  0.00000000000E+00  0.00000000000E+00  0.11542407192E+04  0.11542407192E+04  0.50400001928E-02 0.  1.
       -1   -1    0    0    0  501  0.00000000000E+00  0.00000000000E+00 -0.14470806525E+04  0.14470806525E+04  0.50400001928E-02 0. -1.
    10030    2    1    2    0    0  0.00000000000E+00  0.00000000000E+00 -0.29283993329E+03  0.26013213717E+04  0.25847858039E+04 0.  0.
        1    1    3    3  502    0  0.12847374776E+04 -0.10963938556E+03 -0.23477816183E+03  0.13106074799E+04  0.50400001928E-02 0. -1.
       -1    1    3    3    0  502 -0.12847374776E+04  0.10963938556E+03 -0.58061771455E+02  0.12907138918E+04  0.50400001928E-02 0.  1.
</event>
<event>
 5   0  0.2037109E-06  0.1930880E+04  0.7818609E-02  0.8639636E-01
        1   -1    0    0  501    0  0.00000000000E+00  0.00000000000E+00  0.15597859538E+04  0.15597859539E+04  0.50400001928E-02 0.  1.
       -1   -1    0    0    0  501  0.00000000000E+00  0.00000000000E+00 -0.59756586530E+03  0.59756586532E+03  0.50400001928E-02 0. -1.
    10030    2    1    2    0    0  0.00000000000E+00  0.00000000000E+00  0.96222008854E+03  0.21573518192E+04  0.19308804657E+04 0.  0.
        2    1    3    3  502    0  0.56517276889E+03  0.75648986837E+03  0.70562029711E+03  0.11788117676E+04  0.25500000920E-02 0.  1.
       -2    1    3    3    0  502 -0.56517276889E+03 -0.75648986837E+03  0.25659979143E+03  0.97854005162E+03  0.25500000920E-02 0. -1.
</event>
<event>
 5   0  0.1925906E-06  0.3275725E+04  0.7818609E-02  0.8169100E-01
       -1   -1    0    0    0  501  0.00000000000E+00  0.00000000000E+00  0.15448201730E+04  0.15448201730E+04  0.50400001928E-02 0. -1.
        1   -1    0    0  501    0  0.00000000000E+00  0.00000000000E+00 -0.17365089476E+04  0.17365089476E+04  0.50400001928E-02 0.  1.
    10030    2    1    2    0    0  0.00000000000E+00  0.00000000000E+00 -0.19168877458E+03  0.32813291206E+04  0.32757252954E+04 0.  0.
        1    1    3    3  502    0  0.73287331107E+03  0.87751608070E+03  0.10789604209E+04  0.15720347808E+04  0.50400001928E-02 0. -1.
       -1    1    3    3    0  502 -0.73287331107E+03 -0.87751608070E+03 -0.12706491955E+04  0.17092943398E+04  0.50400001928E-02 0.  1.
</event>
<event>
 5   0  0.5622811E-06  0.3340155E+04  0.7818609E-02  0.8152752E-01
       -2   -1    0    0    0  501  0.00000000000E+00  0.00000000000E+00  0.10701411061E+04  0.10701411061E+04  0.25500000920E-02 0.  1.
        2   -1    0    0  501    0  0.00000000000E+00  0.00000000000E+00 -0.26063467115E+04  0.26063467115E+04  0.25500000920E-02 0. -1.
    10030    2    1    2    0    0  0.00000000000E+00  0.00000000000E+00 -0.15362056054E+04  0.36764878176E+04  0.33401549382E+04 0.  0.
        1    1    3    3  502    0 -0.52326018661E+03  0.11167908103E+04 -0.20076109986E+04  0.23561674089E+04  0.50400001928E-02 0. -1.
       -1    1    3    3    0  502  0.52326018661E+03 -0.11167908103E+04  0.47140539322E+03  0.13203204087E+04  0.50400001928E-02 0.  1.
</event>
<event>
 5   0  0.2730981E-06  0.3166176E+04  0.7818609E-02  0.8197808E-01
        1   -1    0    0  501    0  0.00000000000E+00  0.00000000000E+00  0.27397563208E+04  0.27397563208E+04  0.50400001928E-02 0. -1.
       -1   -1    0    0    0  501  0.00000000000E+00  0.00000000000E+00 -0.91474107461E+03  0.91474107463E+03  0.50400001928E-02 0.  1.
    10030    2    1    2    0    0  0.00000000000E+00  0.00000000000E+00  0.18250152462E+04  0.36544973955E+04  0.31661760160E+04 0.  0.
        3    1    3    3  502    0 -0.47355144103E+03 -0.14344684713E+04  0.36596159405E+03  0.15543097056E+04  0.10100000352E+00 0. -1.
       -3    1    3    3    0  502  0.47355144103E+03  0.14344684713E+04  0.14590536522E+04  0.21001876898E+04  0.10100000352E+00 0.  1.
</event>
<event>
 5   0  0.5300268E-06  0.3282464E+04  0.7818609E-02  0.8167372E-01
        2   -1    0    0  501    0  0.00000000000E+00  0.00000000000E+00  0.20032207781E+04  0.20032207781E+04  0.25500000920E-02 0. -1.
       -2   -1    0    0    0  501  0.00000000000E+00  0.00000000000E+00 -0.13446560639E+04  0.13446560639E+04  0.25500000920E-02 0.  1.
    10030    2    1    2    0    0  0.00000000000E+00  0.00000000000E+00  0.65856471420E+03  0.33478768420E+04  0.32824642979E+04 0.  0.
        4    1    3    3  502    0 -0.12307605027E+04 -0.10422004678E+04  0.18768127350E+02  0.16128568088E+04  0.12699999809E+01 0. -1.
       -4    1    3    3    0  502  0.12307605027E+04  0.10422004678E+04  0.63979658685E+03  0.17350200332E+04  0.12699999809E+01 0.  1.
</event>
<event>
 5   0  0.5855568E-06  0.3284946E+04  0.7818609E-02  0.8166737E-01
       -2   -1    0    0    0  501  0.00000000000E+00  0.00000000000E+00  0.26904838179E+04  0.26904838179E+04  0.25500000920E-02 0. -1.
        2   -1    0    0  501    0  0.00000000000E+00  0.00000000000E+00 -0.10026883697E+04  0.10026883697E+04  0.25500000920E-02 0.  1.
    10030    2    1    2    0    0  0.00000000000E+00  0.00000000000E+00  0.16877954482E+04  0.36931721876E+04  0.32849455600E+04 0.  0.
        3    1    3    3  502    0  0.29409974562E+03 -0.62955863934E+03  0.25170917008E+04  0.26112428805E+04  0.10100000352E+00 0. -1.
       -3    1    3    3    0  502 -0.29409974562E+03  0.62955863934E+03 -0.82929625256E+03  0.10819293070E+04  0.10100000352E+00 0.  1.
</event>
<event>
 5   0  0.5637538E-06  0.3315957E+04  0.7818609E-02  0.8158847E-01
       -2   -1    0    0    0  501  0.00000000000E+00  0.00000000000E+00  0.13108110998E+04  0.13108110998E+04  0.25500000920E-02 0.  1.
        2   -1    0    0  501    0  0.00000000000E+00  0.00000000000E+00 -0.20970933084E+04  0.20970933084E+04  0.25500000920E-02 0. -1.
    10030    2    1    2    0    0  0.00000000000E+00  0.00000000000E+00 -0.78628220860E+03  0.34079044082E+04  0.33159572892E+04 0.  0.
        2    1    3    3  502    0  0.95347379214E+03 -0.44068359064E+03 -0.17115126756E+04  0.20081309564E+04  0.25500000920E-02 0. -1.
       -2    1    3    3    0  502 -0.95347379214E+03  0.44068359064E+03  0.92523046697E+03  0.13997734518E+04  0.25500000920E-02 0.  1.
</event>
<event>
 5   0  0.1999849E-06  0.3009688E+04  0.7818609E-02  0.8240970E-01
        1   -1    0    0  501    0  0.00000000000E+00  0.00000000000E+00  0.11779764635E+04  0.11779764636E+04  0.50400001928E-02 0.  1.
       -1   -1    0    0    0  501  0.00000000000E+00  0.00000000000E+00 -0.19224108617E+04  0.19224108617E+04  0.50400001928E-02 0. -1.
    10030    2    1    2    0    0  0.00000000000E+00  0.00000000000E+00 -0.74443439814E+03  0.31003873252E+04  0.30096875242E+04 0.  0.
        5    1    3    3  502    0  0.85172127917E+02  0.72836622796E+03 -0.17258805189E+04  0.18752219359E+04  0.46999998093E+01 0. -1.
       -5    1    3    3    0  502 -0.85172127917E+02 -0.72836622796E+03  0.98144612072E+03  0.12251653894E+04  0.46999998093E+01 0.  1.
</event>
<event>
 5   0  0.1925906E-06  0.3762266E+04  0.7818609E-02  0.8054301E-01
       -1   -1    0    0    0  501  0.00000000000E+00  0.00000000000E+00  0.22130394423E+04  0.22130394423E+04  0.50400001928E-02 0.  1.
        1   -1    0    0  501    0  0.00000000000E+00  0.00000000000E+00 -0.15990046994E+04  0.15990046994E+04  0.50400001928E-02 0. -1.
    10030    2    1    2    0    0  0.00000000000E+00  0.00000000000E+00  0.61403474284E+03  0.38120441417E+04  0.37622655240E+04 0.  0.
        1    1    3    3  502    0 -0.79949092071E+03 -0.19997894112E+03 -0.14063569335E+04  0.16300359302E+04  0.50400001928E-02 0. -1.
       -1    1    3    3    0  502  0.79949092071E+03  0.19997894112E+03  0.20203916764E+04  0.21820082115E+04  0.50400001928E-02 0.  1.
</event>
<event>
 5   0  0.5300268E-06  0.3173423E+04  0.7818609E-02  0.8195872E-01
        2   -1    0    0  501    0  0.00000000000E+00  0.00000000000E+00  0.32006054222E+04  0.32006054222E+04  0.25500000920E-02 0. -1.
       -2   -1    0    0    0  501  0.00000000000E+00  0.00000000000E+00 -0.78661762586E+03  0.78661762586E+03  0.25500000920E-02 0.  1.
    10030    2    1    2    0    0  0.00000000000E+00  0.00000000000E+00  0.24139877963E+04  0.39872230481E+04  0.31734225300E+04 0.  0.
        4    1    3    3  502    0 -0.62613112166E+03  0.45007369859E+03  0.29493515161E+04  0.30484885590E+04  0.12699999809E+01 0. -1.
       -4    1    3    3    0  502  0.62613112166E+03 -0.45007369859E+03 -0.53536371976E+03  0.93873448909E+03  0.12699999809E+01 0.  1.
</event>
<event>
 5   0  0.5300268E-06  0.3291196E+04  0.7818609E-02  0.8165139E-01
        2   -1    0    0  501    0  0.00000000000E+00  0.00000000000E+00  0.14084353090E+04  0.14084353090E+04  0.25500000920E-02 0. -1.
       -2   -1    0    0    0  501  0.00000000000E+00  0.00000000000E+00 -0.19226962518E+04  0.19226962518E+04  0.25500000920E-02 0.  1.
    10030    2    1    2    0    0  0.00000000000E+00  0.00000000000E+00 -0.51426094276E+03  0.33311315608E+04  0.32911963111E+04 0.  0.
        4    1    3    3  502    0 -0.12955335553E+04  0.47531453835E+03 -0.11644793965E+04  0.18056425396E+04  0.12699999809E+01 0.  1.
       -4    1    3    3    0  502  0.12955335553E+04 -0.47531453835E+03  0.65021845370E+03  0.15254890212E+04  0.12699999809E+01 0. -1.
</event>
<event>
 5   0  0.5755250E-06  0.3297490E+04  0.7818609E-02  0.8163534E-01
        2   -1    0    0  501    0  0.00000000000E+00  0.00000000000E+00  0.23303182654E+04  0.23303182654E+04  0.25500000920E-02 0. -1.
       -2   -1    0    0    0  501  0.00000000000E+00  0.00000000000E+00 -0.11665185170E+04  0.11665185170E+04  0.25500000920E-02 0.  1.
    10030    2    1    2    0    0  0.00000000000E+00  0.00000000000E+00  0.11637997484E+04  0.34968367824E+04  0.32974895949E+04 0.  0.
        5    1    3    3  502    0  0.34203893637E+03  0.10341070382E+04 -0.73065346583E+03  0.13115809459E+04  0.46999998093E+01 0.  1.
       -5    1    3    3    0  502 -0.34203893637E+03 -0.10341070382E+04  0.18944532142E+04  0.21852558366E+04  0.46999998093E+01 0. -1.
</event>
<event>
 5   0  0.5855568E-06  0.1934574E+04  0.7818609E-02  0.8637836E-01
       -2   -1    0    0    0  501  0.00000000000E+00  0.00000000000E+00  0.15824284195E+04  0.15824284195E+04  0.25500000920E-02 0. -1.
        2   -1    0    0  501    0  0.00000000000E+00  0.00000000000E+00 -0.59127106835E+03  0.59127106836E+03  0.25500000920E-02 0.  1.
    10030    2    1    2    0    0  0.00000000000E+00  0.00000000000E+00  0.99115735112E+03  0.21736994878E+04  0.19345740019E+04 0.  0.
        3    1    3    3  502    0 -0.12952887951E+03 -0.31862801511E+03 -0.52024006461E+03  0.62365958476E+03  0.10100000352E+00 0.  1.
       -3    1    3    3    0  502  0.12952887951E+03  0.31862801511E+03  0.15113974157E+04  0.15500399031E+04  0.10100000352E+00 0. -1.
</event>
<event>
 5   0  0.5300268E-06  0.3228112E+04  0.7818609E-02  0.8181432E-01
       -2   -1    0    0    0  501  0.00000000000E+00  0.00000000000E+00  0.10018018364E+04  0.10018018364E+04  0.25500000920E-02 0. -1.
        2   -1    0    0  501    0  0.00000000000E+00  0.00000000000E+00 -0.26004908370E+04  0.26004908370E+04  0.25500000920E-02 0.  1.
    10030    2    1    2    0    0  0.00000000000E+00  0.00000000000E+00 -0.15986890005E+04  0.36022926734E+04  0.32281118296E+04 0.  0.
        4    1    3    3  502    0 -0.11317412385E+04 -0.66208132200E+03 -0.18497176271E+04  0.22672994554E+04  0.12699999809E+01 0. -1.
       -4    1    3    3    0  502  0.11317412385E+04  0.66208132200E+03  0.25102862656E+03  0.13349932180E+04  0.12699999809E+01 0.  1.
</event>
<event>
 5   0  0.1999849E-06  0.2195608E+04  0.7818609E-02  0.8520258E-01
        1   -1    0    0  501    0  0.00000000000E+00  0.00000000000E+00  0.25115946823E+04  0.25115946823E+04  0.50400001928E-02 0.  1.
       -1   -1    0    0    0  501  0.00000000000E+00  0.00000000000E+00 -0.47984395294E+03  0.47984395297E+03  0.50400001928E-02 0. -1.
    10030    2    1    2    0    0  0.00000000000E+00  0.00000000000E+00  0.20317507293E+04  0.29914386352E+04  0.21956079072E+04 0.  0.
        5    1    3    3  502    0 -0.66248093841E+03 -0.37473029739E+03 -0.61977851709E+02  0.76365380484E+03  0.46999998093E+01 0. -1.
       -5    1    3    3    0  502  0.66248093841E+03  0.37473029739E+03  0.20937285810E+04  0.22277848304E+04  0.46999998093E+01 0.  1.
</event>
<event>
 5   0  0.2037109E-06  0.3376222E+04  0.7818609E-02  0.8143767E-01
       -1   -1    0    0    0  501  0.00000000000E+00  0.00000000000E+00  0.11941351332E+04  0.11941351332E+04  0.50400001928E-02 0. -1.
        1   -1    0    0  501    0  0.00000000000E+00  0.00000000000E+00 -0.23864283670E+04  0.23864283670E+04  0.50400001928E-02 0.  1.
    10030    2    1    2    0    0  0.00000000000E+00  0.00000000000E+00 -0.11922932338E+04  0.35805635002E+04  0.33762215306E+04 0.  0.
        2    1    3    3  502    0 -0.11964734679E+04  0.11462555910E+04 -0.93859454563E+03  0.19043136192E+04  0.25500000920E-02 0.  1.
       -2    1    3    3    0  502  0.11964734679E+04 -0.11462555910E+04 -0.25369868818E+03  0.16762498810E+04  0.25500000920E-02 0. -1.
</event>
<event>
 5   0  0.5300268E-06  0.3328762E+04  0.7818609E-02  0.8155615E-01
       -2   -1    0    0    0  501  0.00000000000E+00  0.00000000000E+00  0.17598801472E+04  0.17598801472E+04  0.25500000920E-02 0. -1.
        2   -1    0    0  501    0  0.00000000000E+00  0.00000000000E+00 -0.15740643733E+04  0.15740643733E+04  0.25500000920E-02 0.  1.
    10030    2    1    2    0    0  0.00000000000E+00  0.00000000000E+00  0.18581577392E+03  0.33339445205E+04  0.33287623171E+04 0.  0.
        4    1    3    3  502    0 -0.83257567862E+03 -0.78110406455E+03 -0.11201164151E+04  0.15993649416E+04  0.12699999809E+01 0.  1.
       -4    1    3    3    0  502  0.83257567862E+03  0.78110406455E+03  0.13059321890E+04  0.17345795789E+04  0.12699999809E+01 0. -1.
</event>
<event>
 5   0  0.5855568E-06  0.3312792E+04  0.7818609E-02  0.8159648E-01
        2   -1    0    0  501    0  0.00000000000E+00  0.00000000000E+00  0.24004854037E+04  0.24004854037E+04  0.25500000920E-02 0. -1.
       -2   -1    0    0    0  501  0.00000000000E+00  0.00000000000E+00 -0.11429552659E+04  0.11429552659E+04  0.25500000920E-02 0.  1.
    10030    2    1    2    0    0  0.00000000000E+00  0.00000000000E+00  0.12575301378E+04  0.35434406696E+04  0.33127918335E+04 0.  0.
        3    1    3    3  502    0  0.59377847086E+03  0.11508584378E+04 -0.47590271189E+03  0.13796852604E+04  0.10100000352E+00 0.  1.
       -3    1    3    3    0  502 -0.59377847086E+03 -0.11508584378E+04  0.17334328497E+04  0.21637554092E+04  0.10100000352E+00 0. -1.
</event>
<event>
 5   0  0.1878000E-06  0.3291519E+04  0.7818609E-02  0.8165057E-01
        3   -1    0    0  501    0  0.00000000000E+00  0.00000000000E+00  0.24966585678E+04  0.24966585698E+04  0.10100000352E+00 0.  1.
       -3   -1    0    0    0  501  0.00000000000E+00  0.00000000000E+00 -0.10848599816E+04  0.10848599863E+04  0.10100000352E+00 0. -1.
    10030    2    1    2    0    0  0.00000000000E+00  0.00000000000E+00  0.14117985862E+04  0.35815185561E+04  0.32915193938E+04 0.  0.
        3    1    3    3  502    0 -0.32826883357E+03 -0.12948222333E+04 -0.34015385829E+03  0.13784156487E+04  0.10100000352E+00 0.  1.
       -3    1    3    3    0  502  0.32826883357E+03  0.12948222333E+04  0.17519524445E+04  0.22031029074E+04  0.10100000352E+00 0. -1.
</event>
<event>
 5   0  0.5637538E-06  0.3082727E+04  0.7818609E-02  0.8220494E-01
       -2   -1    0    0    0  501  0.00000000000E+00  0.00000000000E+00  0.92751040930E+03  0.92751040930E+03  0.25500000920E-02 0.  1.
        2   -1    0    0  501    0  0.00000000000E+00  0.00000000000E+00 -0.25614828219E+04  0.25614828219E+04  0.25500000920E-02 0. -1.
    10030    2    1    2    0    0  0.00000000000E+00  0.00000000000E+00 -0.16339724126E+04  0.34889932312E+04  0.30827273513E+04 0.  0.
        2    1    3    3  502    0  0.88154173445E+03  0.86855810314E+03  0.22296173235E+03  0.12574660799E+04  0.25500000920E-02 0.  1.
       -2    1    3    3    0  502 -0.88154173445E+03 -0.86855810314E+03 -0.18569341450E+04  0.22315271513E+04  0.25500000920E-02 0. -1.
</event>
<event>
 5   0  0.5300268E-06  0.3329128E+04  0.7818609E-02  0.8155523E-01
        2   -1    0    0  501    0  0.00000000000E+00  0.00000000000E+00  0.24073112442E+04  0.24073112442E+04  0.25500000920E-02 0. -1.
       -2   -1    0    0    0  501  0.00000000000E+00  0.00000000000E+00 -0.11509825426E+04  0.11509825426E+04  0.25500000920E-02 0.  1.
    10030    2    1    2    0    0  0.00000000000E+00  0.00000000000E+00  0.12563287016E+04  0.35582937868E+04  0.33291279439E+04 0.  0.
        4    1    3    3  502    0  0.31021994124E+02 -0.97643384475E+03 -0.81234277646E+03  0.12705462670E+04  0.12699999809E+01 0.  1.
       -4    1    3    3    0  502 -0.31021994124E+02  0.97643384475E+03  0.20686714780E+04  0.22877475198E+04  0.12699999809E+01 0. -1.
</event>
<event>
 5   0  0.1925906E-06  0.3318123E+04  0.7818609E-02  0.8158299E-01
       -1   -1    0    0    0  501  0.00000000000E+00  0.00000000000E+00  0.14311795158E+04  0.14311795158E+04  0.50400001928E-02 0. -1.
        1   -1    0    0  501    0  0.00000000000E+00  0.00000000000E+00 -0.19232281319E+04  0.19232281319E+04  0.50400001928E-02 0.  1.
    10030    2    1    2    0    0  0.00000000000E+00  0.00000000000E+00 -0.49204861609E+03  0.33544076476E+04  0.33181227865E+04 0.  0.
        1    1    3    3  502    0 -0.64657186463E+03 -0.60583028683E+03 -0.16640027597E+04  0.18852030917E+04  0.50400001928E-02 0.  1.
       -1    1    3    3    0  502  0.64657186463E+03  0.60583028683E+03  0.11719541436E+04  0.14692045560E+04  0.50400001928E-02 0. -1.
</event>
<event>
 5   0  0.5637538E-06  0.3162113E+04  0.7818609E-02  0.8198895E-01
        2   -1    0    0  501    0  0.00000000000E+00  0.00000000000E+00  0.22818566103E+04  0.22818566103E+04  0.25500000920E-02 0. -1.
       -2   -1    0    0    0  501  0.00000000000E+00  0.00000000000E+00 -0.10954851794E+04  0.10954851794E+04  0.25500000920E-02 0.  1.
    10030    2    1    2    0    0  0.00000000000E+00  0.00000000000E+00  0.11863714309E+04  0.33773417897E+04  0.31621132795E+04 0.  0.
        2    1    3    3  502    0  0.24442116911E+03 -0.94155575444E+03  0.19244037303E+04  0.21562928056E+04  0.25500000920E-02 0. -1.
       -2    1    3    3    0  502 -0.24442116911E+03  0.94155575444E+03 -0.73803229937E+03  0.12210489841E+04  0.25500000920E-02 0.  1.
</event>
<event>
 5   0  0.1999849E-06  0.3326339E+04  0.7818609E-02  0.8156226E-01
        1   -1    0    0  501    0  0.00000000000E+00  0.00000000000E+00  0.14455432613E+04  0.14455432614E+04  0.50400001928E-02 0.  1.
       -1   -1    0    0    0  501  0.00000000000E+00  0.00000000000E+00 -0.19135590733E+04  0.19135590733E+04  0.50400001928E-02 0. -1.
    10030    2    1    2    0    0  0.00000000000E+00  0.00000000000E+00 -0.46801581192E+03  0.33591023346E+04  0.33263387823E+04 0.  0.
        5    1    3    3  502    0  0.14998544705E+04  0.13471011780E+03  0.47892031984E+03  0.15802205578E+04  0.46999998093E+01 0.  1.
       -5    1    3    3    0  502 -0.14998544705E+04 -0.13471011780E+03 -0.94693613176E+03  0.17788817769E+04  0.46999998093E+01 0. -1.
</event>
<event>
 5   0  0.1925906E-06  0.3224838E+04  0.7818609E-02  0.8182288E-01
       -1   -1    0    0    0  501  0.00000000000E+00  0.00000000000E+00  0.92807278996E+03  0.92807278998E+03  0.50400001928E-02 0. -1.
        1   -1    0    0  501    0  0.00000000000E+00  0.00000000000E+00 -0.28013911390E+04  0.28013911390E+04  0.50400001928E-02 0.  1.
    10030    2    1    2    0    0  0.00000000000E+00  0.00000000000E+00 -0.18733183491E+04  0.37294639290E+04  0.32248379123E+04 0.  0.
        1    1    3    3  502    0  0.66374479208E+03  0.12598271343E+04 -0.61872162226E+02  0.14253244269E+04  0.50400001928E-02 0.  1.
       -1    1    3    3    0  502 -0.66374479208E+03 -0.12598271343E+04 -0.18114461868E+04  0.23041395021E+04  0.50400001928E-02 0. -1.
</event>
<event>
 5   0  0.5755250E-06  0.3147667E+04  0.7818609E-02  0.8202777E-01
       -2   -1    0    0    0  501  0.00000000000E+00  0.00000000000E+00  0.12595223820E+04  0.12595223820E+04  0.25500000920E-02 0.  1.
        2   -1    0    0  501    0  0.00000000000E+00  0.00000000000E+00 -0.19665803865E+04  0.19665803865E+04  0.25500000920E-02 0. -1.
    10030    2    1    2    0    0  0.00000000000E+00  0.00000000000E+00 -0.70705800447E+03  0.32261027685E+04  0.31476670808E+04 0.  0.
        5    1    3    3  502    0  0.58456892715E+03 -0.97256831607E+03  0.76420576540E+03  0.13680798595E+04  0.46999998093E+01 0.  1.
       -5    1    3    3    0  502 -0.58456892715E+03  0.97256831607E+03 -0.14712637699E+04  0.18580229090E+04  0.46999998093E+01 0. -1.
</event>
<event>
 5   0  0.1999849E-06  0.2358406E+04  0.7818609E-02  0.8455242E-01
        1   -1    0    0  501    0  0.00000000000E+00  0.00000000000E+00  0.83845238030E+03  0.83845238032E+03  0.50400001928E-02 0.  1.
       -1   -1    0    0    0  501  0.00000000000E+00  0.00000000000E+00 -0.16584357264E+04  0.16584357264E+04  0.50400001928E-02 0. -1.
    10030    2    1    2    0    0  0.00000000000E+00  0.00000000000E+00 -0.81998334614E+03  0.24968881068E+04  0.23584057178E+04 0.  0.
        5    1    3    3  502    0  0.10486325518E+04  0.26712468270E+03  0.86039725956E+02  0.10855462907E+04  0.46999998093E+01 0. -1.
       -5    1    3    3    0  502 -0.10486325518E+04 -0.26712468270E+03 -0.90602307209E+03  0.14113418161E+04  0.46999998093E+01 0.  1.
</event>
<event>
 5   0  0.5855568E-06  0.3336539E+04  0.7818609E-02  0.8153660E-01
       -2   -1    0    0    0  501  0.00000000000E+00  0.00000000000E+00  0.25947371929E+04  0.25947371929E+04  0.25500000920E-02 0. -1.
        2   -1    0    0  501    0  0.00000000000E+00  0.00000000000E+00 -0.10726030093E+04  0.10726030093E+04  0.25500000920E-02 0.  1.
    10030    2    1    2    0    0  0.00000000000E+00  0.00000000000E+00  0.15221341835E+04  0.36673402022E+04  0.33365388783E+04 0.  0.
        3    1    3    3  502    0  0.37041316245E+03 -0.83013184312E+03  0.22986127498E+04  0.24718303687E+04  0.10100000352E+00 0. -1.
       -3    1    3    3    0  502 -0.37041316245E+03  0.83013184312E+03 -0.77647856629E+03  0.11955098335E+04  0.10100000352E+00 0.  1.
</event>
<event>
 5   0  0.1925906E-06  0.3283590E+04  0.7818609E-02  0.8167084E-01
        1   -1    0    0  501    0  0.00000000000E+00  0.00000000000E+00  0.14212617916E+04  0.14212617916E+04  0.50400001928E-02 0.  1.
       -1   -1    0    0    0  501  0.00000000000E+00  0.00000000000E+00 -0.18965476488E+04  0.18965476488E+04  0.50400001928E-02 0. -1.
    10030    2    1    2    0    0  0.00000000000E+00  0.00000000000E+00 -0.47528585718E+03  0.33178094405E+04  0.32835899313E+04 0.  0.
        1    1    3    3  502    0 -0.12567823623E+04  0.63905536906E+03  0.61231127578E+03  0.15371463071E+04  0.50400001928E-02 0. -1.
       -1    1    3    3    0  502  0.12567823623E+04 -0.63905536906E+03 -0.10875971330E+04  0.17806631334E+04  0.50400001928E-02 0.  1.
</event>
<event>
 5   0  0.1999849E-06  0.3344513E+04  0.7818609E-02  0.8151661E-01
       -1   -1    0    0    0  501  0.00000000000E+00  0.00000000000E+00  0.12031249251E+04  0.12031249251E+04  0.50400001928E-02 0.  1.
        1   -1    0    0  501    0  0.00000000000E+00  0.00000000000E+00 -0.23243150030E+04  0.23243150030E+04  0.50400001928E-02 0. -1.
    10030    2    1    2    0    0  0.00000000000E+00  0.00000000000E+00 -0.11211900778E+04  0.35274399281E+04  0.33445127083E+04 0.  0.
        5    1    3    3  502    0 -0.56947455140E+03 -0.15528216702E+04 -0.30039772401E+03  0.16810167420E+04  0.46999998093E+01 0.  1.
       -5    1    3    3    0  502  0.56947455140E+03  0.15528216702E+04 -0.82079235383E+03  0.18464231861E+04  0.46999998093E+01 0. -1.
</event>
<event>
 5   0  0.5855568E-06  0.1929332E+04  0.7818609E-02  0.8640392E-01
        2   -1    0    0  501    0  0.00000000000E+00  0.00000000000E+00  0.24502386992E+04  0.24502386992E+04  0.25500000920E-02 0.  1.
       -2   -1    0    0    0  501  0.00000000000E+00  0.00000000000E+00 -0.37979167735E+03  0.37979167736E+03  0.25500000920E-02 0. -1.
    10030    2    1    2    0    0  0.00000000000E+00  0.00000000000E+00  0.20704470218E+04  0.28300303766E+04  0.19293317657E+04 0.  0.
        3    1    3    3  502    0 -0.85213662673E+02  0.94342963805E+03  0.76771264925E+03  0.12193045445E+04  0.10100000352E+00 0. -1.
       -3    1    3    3    0  502  0.85213662673E+02 -0.94342963805E+03  0.13027343726E+04  0.16107258320E+04  0.10100000352E+00 0.  1.
</event>
<event>
 5   0  0.5755250E-06  0.2971374E+04  0.7818609E-02  0.8251953E-01
        2   -1    0    0  501    0  0.00000000000E+00  0.00000000000E+00  0.21373852664E+04  0.21373852664E+04  0.25500000920E-02 0. -1.
       -2   -1    0    0    0  501  0.00000000000E+00  0.00000000000E+00 -0.10326941739E+04  0.10326941739E+04  0.25500000920E-02 0.  1.
    10030    2    1    2    0    0  0.00000000000E+00  0.00000000000E+00  0.11046910925E+04  0.31700794403E+04  0.29713736298E+04 0.  0.
        5    1    3    3  502    0  0.96751301204E+03  0.26960440986E+02  0.17548566449E+04  0.20040838874E+04  0.46999998093E+01 0. -1.
       -5    1    3    3    0  502 -0.96751301204E+03 -0.26960440986E+02 -0.65016555236E+03  0.11659955529E+04  0.46999998093E+01 0.  1.
</event>
<event>
 5   0  0.5755250E-06  0.3001734E+04  0.7818609E-02  0.8243236E-01
       -2   -1    0    0    0  501  0.00000000000E+00  0.00000000000E+00  0.67644614263E+03  0.67644614264E+03  0.25500000920E-02 0.  1.
        2   -1    0    0  501    0  0.00000000000E+00  0.00000000000E+00 -0.33300522651E+04  0.33300522651E+04  0.25500000920E-02 0. -1.
    10030    2    1    2    0    0  0.00000000000E+00  0.00000000000E+00 -0.26536061224E+04  0.40064984077E+04  0.30017335055E+04 0.  0.
        5    1    3    3  502    0  0.46157001106E+03 -0.49705261184E+03 -0.31137797197E+04  0.31868094400E+04  0.46999998093E+01 0. -1.
       -5    1    3    3    0  502 -0.46157001106E+03  0.49705261184E+03  0.46017359731E+03  0.81968896766E+03  0.46999998093E+01 0.  1.
</event>
<event>
 5   0  0.2097842E-06  0.3171385E+04  0.7818609E-02  0.8196416E-01
       -1   -1    0    0    0  501  0.00000000000E+00  0.00000000000E+00  0.96810001573E+03  0.96810001574E+03  0.50400001928E-02 0.  1.
        1   -1    0    0  501    0  0.00000000000E+00  0.00000000000E+00 -0.25972729789E+04  0.25972729789E+04  0.50400001928E-02 0. -1.
    10030    2    1    2    0    0  0.00000000000E+00  0.00000000000E+00 -0.16291729632E+04  0.35653729947E+04  0.31713845631E+04 0.  0.
        4    1    3    3  502    0  0.14135295814E+04 -0.71791353008E+03 -0.77988638433E+03  0.17668305237E+04  0.12699999809E+01 0.  1.
       -4    1    3    3    0  502 -0.14135295814E+04  0.71791353008E+03 -0.84928657885E+03  0.17985424710E+04  0.12699999809E+01 0. -1.
</event>
<event>
 5   0  0.1878000E-06  0.3148914E+04  0.7818609E-02  0.8202441E-01
       -3   -1    0    0    0  501  0.00000000000E+00  0.00000000000E+00  0.15333997592E+04  0.15333997626E+04  0.10100000352E+00 0.  1.
        3   -1    0    0  501    0  0.00000000000E+00  0.00000000000E+00 -0.16166132641E+04  0.16166132672E+04  0.10100000352E+00 0. -1.
    10030    2    1    2    0    0  0.00000000000E+00  0.00000000000E+00 -0.83213504827E+02  0.31500130298E+04  0.31489137175E+04 0.  0.
        4    1    3    3  502    0 -0.94993336894E+03 -0.46151132891E+03 -0.12097244230E+04  0.16058645350E+04  0.12699999809E+01 0. -1.
       -4    1    3    3    0  502  0.94993336894E+03  0.46151132891E+03  0.11265109182E+04  0.15441484948E+04  0.12699999809E+01 0.  1.
</event>
<event>
 5   0  0.2097842E-06  0.2899142E+04  0.7818609E-02  0.8273133E-01
       -1   -1    0    0    0  501  0.00000000000E+00  0.00000000000E+00  0.11142719147E+04  0.11142719147E+04  0.50400001928E-02 0. -1.
        1   -1    0    0  501    0  0.00000000000E+00  0.00000000000E+00 -0.18857663085E+04  0.18857663085E+04  0.50400001928E-02 0.  1.
    10030    2    1    2    0    0  0.00000000000E+00  0.00000000000E+00 -0.77149439375E+03  0.30000382232E+04  0.28991422423E+04 0.  0.
        4    1    3    3  502    0  0.12994304271E+04  0.64057584639E+03 -0.43642051871E+03  0.15130503402E+04  0.12699999809E+01 0. -1.
       -4    1    3    3    0  502 -0.12994304271E+04 -0.64057584639E+03 -0.33507387504E+03  0.14869878831E+04  0.12699999809E+01 0.  1.
</event>
<event>
 5   0  0.1925906E-06  0.3259003E+04  0.7818609E-02  0.8173406E-01
        1   -1    0    0  501    0  0.00000000000E+00  0.00000000000E+00  0.18054650662E+04  0.18054650662E+04  0.50400001928E-02 0.  1.
       -1   -1    0    0    0  501  0.00000000000E+00  0.00000000000E+00 -0.14706876324E+04  0.14706876324E+04  0.50400001928E-02 0. -1.
    10030    2    1    2    0    0  0.00000000000E+00  0.00000000000E+00  0.33477743381E+03  0.32761526986E+04  0.32590030031E+04 0.  0.
        1    1    3    3  502    0 -0.53796304485E+02 -0.98976855133E+03  0.14675388576E+04  0.17709336877E+04  0.50400001928E-02 0.  1.
       -1    1    3    3    0  502  0.53796304485E+02  0.98976855133E+03 -0.11327614238E+04  0.15052190109E+04  0.50400001928E-02 0. -1.
</event>
<event>
 5   0  0.2097842E-06  0.2243199E+04  0.7818609E-02  0.8500660E-01
       -1   -1    0    0    0  501  0.00000000000E+00  0.00000000000E+00  0.67245904034E+03  0.67245904036E+03  0.50400001928E-02 0. -1.
        1   -1    0    0  501    0  0.00000000000E+00  0.00000000000E+00 -0.18707248196E+04  0.18707248197E+04  0.50400001928E-02 0.  1.
    10030    2    1    2    0    0  0.00000000000E+00  0.00000000000E+00 -0.11982657793E+04  0.25431838600E+04  0.22431993375E+04 0.  0.
        4    1    3    3  502    0 -0.96945132588E+03  0.52870680401E+03 -0.82192595352E+03  0.13765647983E+04  0.12699999809E+01 0. -1.
       -4    1    3    3    0  502  0.96945132588E+03 -0.52870680401E+03 -0.37633982579E+03  0.11666190617E+04  0.12699999809E+01 0.  1.
</event>
<event>
 5   0  0.5855568E-06  0.3228983E+04  0.7818609E-02  0.8181204E-01
       -2   -1    0    0    0  501  0.00000000000E+00  0.00000000000E+00  0.14669960559E+04  0.14669960559E+04  0.25500000920E-02 0. -1.
        2   -1    0    0  501    0  0.00000000000E+00  0.00000000000E+00 -0.17768165698E+04  0.17768165698E+04  0.25500000920E-02 0.  1.
    10030    2    1    2    0    0  0.00000000000E+00  0.00000000000E+00 -0.30982051390E+03  0.32438126256E+04  0.32289830596E+04 0.  0.
        3    1    3    3  502    0 -0.58437165448E+03  0.14767764052E+04  0.13663649273E+03  0.15940603259E+04  0.10100000352E+00 0. -1.
       -3    1    3    3    0  502  0.58437165448E+03 -0.14767764052E+04 -0.44645700662E+03  0.16497522997E+04  0.10100000352E+00 0.  1.
</event>
<event>
 5   0  0.5755250E-06  0.3217950E+04  0.7818609E-02  0.8184093E-01
        2   -1    0    0  501    0  0.00000000000E+00  0.00000000000E+00  0.27947789724E+04  0.27947789724E+04  0.25500000920E-02 0.  1.
       -2   -1    0    0    0  501  0.00000000000E+00  0.00000000000E+00 -0.92629879484E+03  0.92629879484E+03  0.25500000920E-02 0. -1.
    10030    2    1    2    0    0  0.00000000000E+00  0.00000000000E+00  0.18684801776E+04  0.37210777673E+04  0.32179499027E+04 0.  0.
        5    1    3    3  502    0  0.11792091056E+03  0.23143161275E+03  0.27703674199E+04  0.27825210986E+04  0.46999998093E+01 0.  1.
       -5    1    3    3    0  502 -0.11792091056E+03 -0.23143161275E+03 -0.90188724233E+03  0.93855666872E+03  0.46999998093E+01 0. -1.
</event>
<event>
 5   0  0.5755250E-06  0.2735409E+04  0.7818609E-02  0.8323607E-01
        2   -1    0    0  501    0  0.00000000000E+00  0.00000000000E+00  0.12969731172E+04  0.12969731172E+04  0.25500000920E-02 0.  1.
       -2   -1    0    0    0  501  0.00000000000E+00  0.00000000000E+00 -0.14422934372E+04  0.14422934372E+04  0.25500000920E-02 0. -1.
    10030    2    1    2    0    0  0.00000000000E+00  0.00000000000E+00 -0.14532032003E+03  0.27392665544E+04  0.27354091578E+04 0.  0.
        5    1    3    3  502    0  0.33909071400E+03 -0.84988907440E+03 -0.10906071572E+04  0.14236361938E+04  0.46999998093E+01 0. -1.
       -5    1    3    3    0  502 -0.33909071400E+03  0.84988907440E+03  0.94528683714E+03  0.13156303605E+04  0.46999998093E+01 0.  1.
</event>
<event>
 5   0  0.1925906E-06  0.2136301E+04  0.7818609E-02  0.8545419E-01
        1   -1    0    0  501    0  0.00000000000E+00  0.00000000000E+00  0.81122498278E+03  0.81122498280E+03  0.50400001928E-02 0. -1.
       -1   -1    0    0    0  501  0.00000000000E+00  0.00000000000E+00 -0.14064477939E+04  0.14064477939E+04  0.50400001928E-02 0.  1.
    10030    2    1    2    0    0  0.00000000000E+00  0.00000000000E+00 -0.59522281115E+03  0.22176727767E+04  0.21363010906E+04 0.  0.
        1    1    3    3  502    0  0.71855588255E+03  0.38107052344E+03  0.42115500204E+03  0.91591966676E+03  0.50400001928E-02 0. -1.
       -1    1    3    3    0  502 -0.71855588255E+03 -0.38107052344E+03 -0.10163778132E+04  0.13017531100E+04  0.50400001928E-02 0.  1.
</event>
<event>
 5   0  0.5622811E-06  0.2849015E+04  0.7818609E-02  0.8288211E-01
        2   -1    0    0  501    0  0.00000000000E+00  0.00000000000E+00  0.14215709535E+04  0.14215709535E+04  0.25500000920E-02 0.  1.
       -2   -1    0    0    0  501  0.00000000000E+00  0.00000000000E+00 -0.14274497068E+04  0.14274497068E+04  0.25500000920E-02 0. -1.
    10030    2    1    2    0    0  0.00000000000E+00  0.00000000000E+00 -0.58787532659E+01  0.28490206603E+04  0.28490145950E+04 0.  0.
        1    1    3    3  502    0  0.70818505619E+03 -0.11085862122E+04 -0.54950396471E+03  0.14256381276E+04  0.50400001928E-02 0. -1.
       -1    1    3    3    0  502 -0.70818505619E+03  0.11085862122E+04  0.54362521144E+03  0.14233825326E+04  0.50400001928E-02 0.  1.
</event>
<event>
 5   0  0.5622811E-06  0.3114575E+04  0.7818609E-02  0.8211749E-01
        2   -1    0    0  501    0  0.00000000000E+00  0.00000000000E+00  0.89129069393E+03  0.89129069394E+03  0.25500000920E-02 0. -1.
       -2   -1    0    0    0  501  0.00000000000E+00  0.00000000000E+00 -0.27209348303E+04  0.27209348303E+04  0.25500000920E-02 0.  1.
    10030    2    1    2    0    0  0.00000000000E+00  0.00000000000E+00 -0.18296441363E+04  0.36122255242E+04  0.31145747016E+04 0.  0.
        1    1    3    3  502    0 -0.21413309578E+02  0.65001625868E+03 -0.25558877141E+04  0.26373360942E+04  0.50400001928E-02 0.  1.
       -1    1    3    3    0  502  0.21413309578E+02 -0.65001625868E+03  0.72624357783E+03  0.97488943000E+03  0.50400001928E-02 0. -1.
</event>
<event>
 5   0  0.2730981E-06  0.3250831E+04  0.7818609E-02  0.8175520E-01
        1   -1    0    0  501    0  0.00000000000E+00  0.00000000000E+00  0.16701730749E+04  0.16701730749E+04  0.50400001928E-02 0.  1.
       -1   -1    0    0    0  501  0.00000000000E+00  0.00000000000E+00 -0.15818569513E+04  0.15818569513E+04  0.50400001928E-02 0. -1.
    10030    2    1    2    0    0  0.00000000000E+00  0.00000000000E+00  0.88316123591E+02  0.32520300262E+04  0.32508305945E+04 0.  0.
        3    1    3    3  502    0 -0.76443004444E+02  0.12089251522E+04  0.11283620414E+04  0.16554589887E+04  0.10100000352E+00 0.  1.
       -3    1    3    3    0  502  0.76443004444E+02 -0.12089251522E+04 -0.10400459178E+04  0.15965710375E+04  0.10100000352E+00 0. -1.
</event>
<event>
 5   0  0.5300268E-06  0.3291260E+04  0.7818609E-02  0.8165123E-01
        2   -1    0    0  501    0  0.00000000000E+00  0.00000000000E+00  0.25851641924E+04  0.25851641925E+04  0.25500000920E-02 0.  1.
       -2   -1    0    0    0  501  0.00000000000E+00  0.00000000000E+00 -0.10475537340E+04  0.10475537340E+04  0.25500000920E-02 0. -1.
    10030    2    1    2    0    0  0.00000000000E+00  0.00000000000E+00  0.15376104585E+04  0.36327179264E+04  0.32912601858E+04 0.  0.
        4    1    3    3  502    0  0.99917706289E+03 -0.63216736333E+03 -0.49454204271E+03  0.12816254613E+04  0.12699999809E+01 0. -1.
       -4    1    3    3    0  502 -0.99917706289E+03  0.63216736333E+03  0.20321525012E+04  0.23510924651E+04  0.12699999809E+01 0.  1.
</event>
<event>
 5   0  0.2037109E-06  0.3379690E+04  0.7818609E-02  0.8142909E-01
       -1   -1    0    0    0  501  0.00000000000E+00  0.00000000000E+00  0.15799818370E+04  0.15799818370E+04  0.50400001928E-02 0.  1.
        1   -1    0    0  501    0  0.00000000000E+00  0.00000000000E+00 -0.18073471133E+04  0.18073471133E+04  0.50400001928E-02 0. -1.
    10030    2    1    2    0    0  0.00000000000E+00  0.00000000000E+00 -0.22736527622E+03  0.33873289503E+04  0.33796896971E+04 0.  0.
        2    1    3    3  502    0  0.10018508524E+04 -0.14715171220E+03 -0.14695956282E+04  0.17846764601E+04  0.25500000920E-02 0. -1.
       -2    1    3    3    0  502 -0.10018508524E+04  0.14715171220E+03  0.12422303520E+04  0.16026524902E+04  0.25500000920E-02 0.  1.
</event>
<event>
 5   0  0.5637538E-06  0.3380429E+04  0.7818609E-02  0.8142726E-01
       -2   -1    0    0    0  501  0.00000000000E+00  0.00000000000E+00  0.11877120125E+04  0.11877120125E+04  0.25500000920E-02 0. -1.
        2   -1    0    0  501    0  0.00000000000E+00  0.00000000000E+00 -0.24053178827E+04  0.24053178827E+04  0.25500000920E-02 0.  1.
    10030    2    1    2    0    0  0.00000000000E+00  0.00000000000E+00 -0.12176058702E+04  0.35930298952E+04  0.33804289332E+04 0.  0.
        2    1    3    3  502    0 -0.10449799002E+04 -0.58011103860E+03  0.66148079429E+03  0.13660412330E+04  0.25500000920E-02 0. -1.
       -2    1    3    3    0  502  0.10449799002E+04  0.58011103860E+03 -0.18790866645E+04  0.22269886622E+04  0.25500000920E-02 0.  1.
</event>
<event>
 5   0  0.1925906E-06  0.3396332E+04  0.7818609E-02  0.8138807E-01
       -1   -1    0    0    0  501  0.00000000000E+00  0.00000000000E+00  0.27322583418E+04  0.27322583418E+04  0.50400001928E-02 0.  1.
        1   -1    0    0  501    0  0.00000000000E+00  0.00000000000E+00 -0.10554523346E+04  0.10554523346E+04  0.50400001928E-02 0. -1.
    10030    2    1    2    0    0  0.00000000000E+00  0.00000000000E+00  0.16768060072E+04  0.37877106764E+04  0.33963324017E+04 0.  0.
        1    1    3    3  502    0 -0.75939436414E+03  0.50186243630E+03 -0.76040405887E+03  0.11860691540E+04  0.50400001928E-02 0. -1.
       -1    1    3    3    0  502  0.75939436414E+03 -0.50186243630E+03  0.24372100661E+04  0.26016415225E+04  0.50400001928E-02 0.  1.
</event>
<event>
 5   0  0.5637538E-06  0.3392607E+04  0.7818609E-02  0.8139723E-01
        2   -1    0    0  501    0  0.00000000000E+00  0.00000000000E+00  0.25581287089E+04  0.25581287089E+04  0.25500000920E-02 0. -1.
       -2   -1    0    0    0  501  0.00000000000E+00  0.00000000000E+00 -0.11248242709E+04  0.11248242709E+04  0.25500000920E-02 0.  1.
    10030    2    1    2    0    0  0.00000000000E+00  0.00000000000E+00  0.14333044380E+04  0.36829529798E+04  0.33926068207E+04 0.  0.
        2    1    3    3  502    0 -0.13138745490E+03 -0.16411068248E+04  0.11602170836E+04  0.20140997877E+04  0.25500000920E-02 0.  1.
       -2    1    3    3    0  502  0.13138745490E+03  0.16411068248E+04  0.27308735442E+03  0.16688531921E+04  0.25500000920E-02 0. -1.
</event>
<event>
 5   0  0.5755250E-06  0.2893842E+04  0.7818609E-02  0.8274712E-01
        2   -1    0    0  501    0  0.00000000000E+00  0.00000000000E+00  0.18851223852E+04  0.18851223852E+04  0.25500000920E-02 0.  1.
       -2   -1    0    0    0  501  0.00000000000E+00  0.00000000000E+00 -0.11105807404E+04  0.11105807404E+04  0.25500000920E-02 0. -1.
    10030    2    1    2    0    0  0.00000000000E+00  0.00000000000E+00  0.77454164484E+03  0.29957031256E+04  0.28938421617E+04 0.  0.
        5    1    3    3  502    0  0.99462651333E+03  0.64762290591E+03  0.12439638107E+04  0.17193502789E+04  0.46999998093E+01 0.  1.
       -5    1    3    3    0  502 -0.99462651333E+03 -0.64762290591E+03 -0.46942216587E+03  0.12763528466E+04  0.46999998093E+01 0. -1.
</event>
<event>
 5   0  0.5755250E-06  0.3419966E+04  0.7818609E-02  0.8133023E-01
       -2   -1    0    0    0  501  0.00000000000E+00  0.00000000000E+00  0.12014093416E+04  0.12014093416E+04  0.25500000920E-02 0.  1.
        2   -1    0    0  501    0  0.00000000000E+00  0.00000000000E+00 -0.24338436387E+04  0.24338436387E+04  0.25500000920E-02 0. -1.
    10030    2    1    2    0    0  0.00000000000E+00  0.00000000000E+00 -0.12324342971E+04  0.36352529803E+04  0.34199663645E+04 0.  0.
        5    1    3    3  502    0 -0.39869234369E+03 -0.14559514986E+04 -0.14700710276E+04  0.21071025764E+04  0.46999998093E+01 0.  1.
       -5    1    3    3    0  502  0.39869234369E+03  0.14559514986E+04  0.23763673057E+03  0.15281504039E+04  0.46999998093E+01 0. -1.
</event>
<event>
 5   0  0.5755250E-06  0.3284286E+04  0.7818609E-02  0.8166905E-01
       -2   -1    0    0    0  501  0.00000000000E+00  0.00000000000E+00  0.96195902284E+03  0.96195902284E+03  0.25500000920E-02 0.  1.
        2   -1    0    0  501    0  0.00000000000E+00  0.00000000000E+00 -0.28032735064E+04  0.28032735064E+04  0.25500000920E-02 0. -1.
    10030    2    1    2    0    0  0.00000000000E+00  0.00000000000E+00 -0.18413144836E+04  0.37652325292E+04  0.32842863718E+04 0.  0.
        5    1    3    3  502    0  0.40158137343E+03 -0.14633595290E+04 -0.20111433359E+03  0.15307376574E+04  0.46999998093E+01 0.  1.
       -5    1    3    3    0  502 -0.40158137343E+03  0.14633595290E+04 -0.16402001500E+04  0.22344948719E+04  0.46999998093E+01 0. -1.
</event>
<event>
 5   0  0.1925906E-06  0.3262154E+04  0.7818609E-02  0.8172593E-01
       -1   -1    0    0    0  501  0.00000000000E+00  0.00000000000E+00  0.19213561239E+04  0.19213561239E+04  0.50400001928E-02 0. -1.
        1   -1    0    0  501    0  0.00000000000E+00  0.00000000000E+00 -0.13846536060E+04  0.13846536060E+04  0.50400001928E-02 0.  1.
    10030    2    1    2    0    0  0.00000000000E+00  0.00000000000E+00  0.53670251787E+03  0.33060097299E+04  0.32621543099E+04 0.  0.
        1    1    3    3  502    0  0.39567263176E+03  0.22955650607E+03 -0.13183144193E+04  0.13954232079E+04  0.50400001928E-02 0.  1.
       -1    1    3    3    0  502 -0.39567263176E+03 -0.22955650607E+03  0.18550169371E+04  0.19105865220E+04  0.50400001928E-02 0. -1.
</event>
<event>
 5   0  0.1925906E-06  0.3329483E+04  0.7818609E-02  0.8155434E-01
       -1   -1    0    0    0  501  0.00000000000E+00  0.00000000000E+00  0.10170720346E+04  0.10170720346E+04  0.50400001928E-02 0.  1.
        1   -1    0    0  501    0  0.00000000000E+00  0.00000000000E+00 -0.27248454866E+04  0.27248454866E+04  0.50400001928E-02 0. -1.
    10030    2    1    2    0    0  0.00000000000E+00  0.00000000000E+00 -0.17077734520E+04  0.37419175212E+04  0.33294829286E+04 0.  0.
        1    1    3    3  502    0  0.44444789225E+03  0.88880038636E+03  0.64717412849E+03  0.11858897117E+04  0.50400001928E-02 0.  1.
       -1    1    3    3    0  502 -0.44444789225E+03 -0.88880038636E+03 -0.23549475805E+04  0.25560278095E+04  0.50400001928E-02 0. -1.
</event>
<event>
 5   0  0.1999849E-06  0.3306318E+04  0.7818609E-02  0.8161290E-01
        1   -1    0    0  501    0  0.00000000000E+00  0.00000000000E+00  0.16446067034E+04  0.16446067035E+04  0.50400001928E-02 0.  1.
       -1   -1    0    0    0  501  0.00000000000E+00  0.00000000000E+00 -0.16617553052E+04  0.16617553052E+04  0.50400001928E-02 0. -1.
    10030    2    1    2    0    0  0.00000000000E+00  0.00000000000E+00 -0.17148601759E+02  0.33063620087E+04  0.33063175374E+04 0.  0.
        5    1    3    3  502    0 -0.10823653016E+04 -0.11525167882E+04  0.47423881192E+03  0.16506768715E+04  0.46999998093E+01 0.  1.
       -5    1    3    3    0  502  0.10823653016E+04  0.11525167882E+04 -0.49138741367E+03  0.16556851372E+04  0.46999998093E+01 0. -1.
</event>
<event>
 5   0  0.5622811E-06  0.2911949E+04  0.7818609E-02  0.8269331E-01
        2   -1    0    0  501    0  0.00000000000E+00  0.00000000000E+00  0.11677934603E+04  0.11677934603E+04  0.25500000920E-02 0.  1.
       -2   -1    0    0    0  501  0.00000000000E+00  0.00000000000E+00 -0.18152715814E+04  0.18152715814E+04  0.25500000920E-02 0. -1.
    10030    2    1    2    0    0  0.00000000000E+00  0.00000000000E+00 -0.64747812112E+03  0.29830650418E+04  0.29119493687E+04 0.  0.
        1    1    3    3  502    0 -0.14482007325E+04  0.15024994486E+03 -0.32514138543E+03  0.14918368973E+04  0.50400001928E-02 0.  1.
       -1    1    3    3    0  502  0.14482007325E+04 -0.15024994486E+03 -0.32233673569E+03  0.14912281445E+04  0.50400001928E-02 0. -1.
</event>
<event>
 5   0  0.1999849E-06  0.2508401E+04  0.7818609E-02  0.8399999E-01
        1   -1    0    0  501    0  0.00000000000E+00  0.00000000000E+00  0.28748665552E+04  0.28748665552E+04  0.50400001928E-02 0. -1.
       -1   -1    0    0    0  501  0.00000000000E+00  0.00000000000E+00 -0.54716227760E+03  0.54716227762E+03  0.50400001928E-02 0.  1.
    10030    2    1    2    0    0  0.00000000000E+00  0.00000000000E+00  0.23277042776E+04  0.34220288328E+04  0.25084007114E+04 0.  0.
        5    1    3    3  502    0 -0.41758895722E+03  0.88335636336E+03  0.91134372490E+02  0.98133916957E+03  0.46999998093E+01 0.  1.
       -5    1    3    3    0  502  0.41758895722E+03 -0.88335636336E+03  0.22365699051E+04  0.24406896633E+04  0.46999998093E+01 0. -1.
</event>
<event>
 5   0  0.5622811E-06  0.3273105E+04  0.7818609E-02  0.8169773E-01
       -2   -1    0    0    0  501  0.00000000000E+00  0.00000000000E+00  0.13285897214E+04  0.13285897214E+04  0.25500000920E-02 0. -1.
        2   -1    0    0  501    0  0.00000000000E+00  0.00000000000E+00 -0.20159003143E+04  0.20159003143E+04  0.25500000920E-02 0.  1.
    10030    2    1    2    0    0  0.00000000000E+00  0.00000000000E+00 -0.68731059285E+03  0.33444900357E+04  0.32731052149E+04 0.  0.
        1    1    3    3  502    0  0.80755052332E+03  0.14213278442E+04 -0.42276307658E+03  0.16885020898E+04  0.50400001928E-02 0. -1.
       -1    1    3    3    0  502 -0.80755052332E+03 -0.14213278442E+04 -0.26454751627E+03  0.16559879459E+04  0.50400001928E-02 0.  1.
</event>
<event>
 5   0  0.5855568E-06  0.3481377E+04  0.7818609E-02  0.8118218E-01
        2   -1    0    0  501    0  0.00000000000E+00  0.00000000000E+00  0.16153434723E+04  0.16153434723E+04  0.25500000920E-02 0.  1.
       -2   -1    0    0    0  501  0.00000000000E+00  0.00000000000E+00 -0.18757597197E+04  0.18757597197E+04  0.25500000920E-02 0. -1.
    10030    2    1    2    0    0  0.00000000000E+00  0.00000000000E+00 -0.26041624738E+03  0.34911031921E+04  0.34813768649E+04 0.  0.
        3    1    3    3  502    0  0.36054243142E+03 -0.52400307524E+03 -0.17550516699E+04  0.18667555925E+04  0.10100000352E+00 0. -1.
       -3    1    3    3    0  502 -0.36054243142E+03  0.52400307524E+03  0.14946354226E+04  0.16243475996E+04  0.10100000352E+00 0.  1.
</event>
<event>
 5   0  0.5637538E-06  0.2646005E+04  0.7818609E-02  0.8352740E-01
       -2   -1    0    0    0  501  0.00000000000E+00  0.00000000000E+00  0.14855441542E+04  0.14855441542E+04  0.25500000920E-02 0. -1.
        2   -1    0    0  501    0  0.00000000000E+00  0.00000000000E+00 -0.11782451491E+04  0.11782451491E+04  0.25500000920E-02 0.  1.
    10030    2    1    2    0    0  0.00000000000E+00  0.00000000000E+00  0.30729900506E+03  0.26637893034E+04  0.26460046814E+04 0.  0.
        2    1    3    3  502    0  0.12186996977E+04 -0.42249439376E+03  0.44991430765E+03  0.13660722346E+04  0.25500000920E-02 0.  1.
       -2    1    3    3    0  502 -0.12186996977E+04  0.42249439376E+03 -0.14261530258E+03  0.12977170687E+04  0.25500000920E-02 0. -1.
</event>
<event>
 5   0  0.2037109E-06  0.2642187E+04  0.7818609E-02  0.8354011E-01
       -1   -1    0    0    0  501  0.00000000000E+00  0.00000000000E+00  0.87945168060E+03  0.87945168061E+03  0.50400001928E-02 0.  1.
        1   -1    0    0  501    0  0.00000000000E+00  0.00000000000E+00 -0.19845182367E+04  0.19845182367E+04  0.50400001928E-02 0. -1.
    10030    2    1    2    0    0  0.00000000000E+00  0.00000000000E+00 -0.11050665561E+04  0.28639699173E+04  0.26421868961E+04 0.  0.
        2    1    3    3  502    0  0.23418895043E+03 -0.25692861171E+03 -0.19340481623E+04  0.19650442922E+04  0.25500000920E-02 0. -1.
       -2    1    3    3    0  502 -0.23418895043E+03  0.25692861171E+03  0.82898160624E+03  0.89892562512E+03  0.25500000920E-02 0.  1.
</event>
<event>
 5   0  0.5755250E-06  0.2644928E+04  0.7818609E-02  0.8353098E-01
        2   -1    0    0  501    0  0.00000000000E+00  0.00000000000E+00  0.22183166997E+04  0.22183166997E+04  0.25500000920E-02 0.  1.
       -2   -1    0    0    0  501  0.00000000000E+00  0.00000000000E+00 -0.78839564169E+03  0.78839564169E+03  0.25500000920E-02 0. -1.
    10030    2    1    2    0    0  0.00000000000E+00  0.00000000000E+00  0.14299210580E+04  0.30067123414E+04  0.26449281411E+04 0.  0.
        5    1    3    3  502    0 -0.10863312868E+04 -0.54811037825E+03  0.13038415663E+04  0.17834140214E+04  0.46999998093E+01 0.  1.
       -5    1    3    3    0  502  0.10863312868E+04  0.54811037825E+03  0.12607949164E+03  0.12232983200E+04  0.46999998093E+01 0. -1.
</event>
<event>
 5   0  0.5755250E-06  0.2854135E+04  0.7818609E-02  0.8286656E-01
       -2   -1    0    0    0  501  0.00000000000E+00  0.00000000000E+00  0.14792693700E+04  0.14792693700E+04  0.25500000920E-02 0. -1.
        2   -1    0    0  501    0  0.00000000000E+00  0.00000000000E+00 -0.13767081555E+04  0.13767081555E+04  0.25500000920E-02 0.  1.
    10030    2    1    2    0    0  0.00000000000E+00  0.00000000000E+00  0.10256121444E+03  0.28559775255E+04  0.28541353898E+04 0.  0.
        5    1    3    3  502    0  0.99067975102E+03  0.14324218508E+03 -0.96649701489E+03  0.13914392773E+04  0.46999998093E+01 0.  1.
       -5    1    3    3    0  502 -0.99067975102E+03 -0.14324218508E+03  0.10690582293E+04  0.14645382482E+04  0.46999998093E+01 0. -1.
</event>
<event>
 5   0  0.5622811E-06  0.3299024E+04  0.7818609E-02  0.8163144E-01
        2   -1    0    0  501    0  0.00000000000E+00  0.00000000000E+00  0.12096030545E+04  0.12096030545E+04  0.25500000920E-02 0. -1.
       -2   -1    0    0    0  501  0.00000000000E+00  0.00000000000E+00 -0.22494070715E+04  0.22494070715E+04  0.25500000920E-02 0.  1.
    10030    2    1    2    0    0  0.00000000000E+00  0.00000000000E+00 -0.10398040170E+04  0.34590101260E+04  0.32990238947E+04 0.  0.
        1    1    3    3  502    0 -0.39480924350E+03 -0.79810124060E+03  0.93597768498E+03  0.12918568635E+04  0.50400001928E-02 0. -1.
       -1    1    3    3    0  502  0.39480924350E+03  0.79810124060E+03 -0.19757817020E+04  0.21671532625E+04  0.50400001928E-02 0.  1.
</event>
<event>
 5   0  0.5300268E-06  0.3228432E+04  0.7818609E-02  0.8181348E-01
        2   -1    0    0  501    0  0.00000000000E+00  0.00000000000E+00  0.20199989224E+04  0.20199989224E+04  0.25500000920E-02 0.  1.
       -2   -1    0    0    0  501  0.00000000000E+00  0.00000000000E+00 -0.12899479774E+04  0.12899479774E+04  0.25500000920E-02 0. -1.
    10030    2    1    2    0    0  0.00000000000E+00  0.00000000000E+00  0.73005094503E+03  0.33099468998E+04  0.32284321422E+04 0.  0.
        4    1    3    3  502    0  0.30063176623E+03  0.15516742373E+04  0.70136265137E+03  0.17291568984E+04  0.12699999809E+01 0.  1.
       -4    1    3    3    0  502 -0.30063176623E+03 -0.15516742373E+04  0.28688293653E+02  0.15807900014E+04  0.12699999809E+01 0. -1.
</event>
<event>
 5   0  0.2037109E-06  0.3246385E+04  0.7818609E-02  0.8176673E-01
        1   -1    0    0  501    0  0.00000000000E+00  0.00000000000E+00  0.12035122593E+04  0.12035122593E+04  0.50400001928E-02 0. -1.
       -1   -1    0    0    0  501  0.00000000000E+00  0.00000000000E+00 -0.21892212422E+04  0.21892212422E+04  0.50400001928E-02 0.  1.
    10030    2    1    2    0    0  0.00000000000E+00  0.00000000000E+00 -0.98570898291E+03  0.33927335016E+04  0.32463854382E+04 0.  0.
        2    1    3    3  502    0  0.19049254860E+03 -0.94834606419E+03 -0.18551145454E+04  0.20921514393E+04  0.25500000920E-02 0.  1.
       -2    1    3    3    0  502 -0.19049254860E+03  0.94834606419E+03  0.86940556248E+03  0.13005820622E+04  0.25500000920E-02 0. -1.
</event>
<event>
 5   0  0.2037109E-06  0.3333394E+04  0.7818609E-02  0.8154450E-01
        1   -1    0    0  501    0  0.00000000000E+00  0.00000000000E+00  0.22923882235E+04  0.22923882235E+04  0.50400001928E-02 0.  1.
       -1   -1    0    0    0  501  0.00000000000E+00  0.00000000000E+00 -0.12117839843E+04  0.12117839843E+04  0.50400001928E-02 0. -1.
    10030    2    1    2    0    0  0.00000000000E+00  0.00000000000E+00  0.10806042392E+04  0.35041722079E+04  0.33333942672E+04 0.  0.
        2    1    3    3  502    0  0.46369739191E+03 -0.97896926459E+03  0.18718793171E+04  0.21627131734E+04  0.25500000920E-02 0.  1.
       -2    1    3    3    0  502 -0.46369739191E+03  0.97896926459E+03 -0.79127507795E+03  0.13414590345E+04  0.25500000920E-02 0. -1.
</event>
<event>
 5   0  0.5755250E-06  0.3297034E+04  0.7818609E-02  0.8163650E-01
       -2   -1    0    0    0  501  0.00000000000E+00  0.00000000000E+00  0.12272656552E+04  0.12272656552E+04  0.25500000920E-02 0. -1.
        2   -1    0    0  501    0  0.00000000000E+00  0.00000000000E+00 -0.22143608759E+04  0.22143608759E+04  0.25500000920E-02 0.  1.
    10030    2    1    2    0    0  0.00000000000E+00  0.00000000000E+00 -0.98709522073E+03  0.34416265310E+04  0.32970344561E+04 0.  0.
        5    1    3    3  502    0  0.52384634583E+02 -0.15959178129E+04 -0.92125973780E+03  0.18434856685E+04  0.46999998093E+01 0.  1.
       -5    1    3    3    0  502 -0.52384634583E+02  0.15959178129E+04 -0.65835482933E+02  0.15981408625E+04  0.46999998093E+01 0. -1.
</event>
<event>
 5   0  0.5855568E-06  0.3246962E+04  0.7818609E-02  0.8176524E-01
       -2   -1    0    0    0  501  0.00000000000E+00  0.00000000000E+00  0.14442033942E+04  0.14442033942E+04  0.25500000920E-02 0. -1.
        2   -1    0    0  501    0  0.00000000000E+00  0.00000000000E+00 -0.18250130604E+04  0.18250130604E+04  0.25500000920E-02 0.  1.
    10030    2    1    2    0    0  0.00000000000E+00  0.00000000000E+00 -0.38080966618E+03  0.32692164546E+04  0.32469616913E+04 0.  0.
        3    1    3    3  502    0 -0.93609254733E+03 -0.71522810001E+03  0.93433248698E+03  0.15035949251E+04  0.10100000352E+00 0. -1.
       -3    1    3    3    0  502  0.93609254733E+03  0.71522810001E+03 -0.13151421532E+04  0.17656215295E+04  0.10100000352E+00 0.  1.
</event>
<event>
 5   0  0.2037109E-06  0.2350235E+04  0.7818609E-02  0.8458373E-01
       -1   -1    0    0    0  501  0.00000000000E+00  0.00000000000E+00  0.82484405776E+03  0.82484405777E+03  0.50400001928E-02 0.  1.
        1   -1    0    0  501    0  0.00000000000E+00  0.00000000000E+00 -0.16741366995E+04  0.16741366995E+04  0.50400001928E-02 0. -1.
    10030    2    1    2    0    0  0.00000000000E+00  0.00000000000E+00 -0.84929264170E+03  0.24989807572E+04  0.23502354848E+04 0.  0.
        2    1    3    3  502    0 -0.58121774732E+03 -0.35933384402E+02  0.66063659209E+03  0.88065088698E+03  0.25500000920E-02 0.  1.
       -2    1    3    3    0  502  0.58121774732E+03  0.35933384402E+02 -0.15099292338E+04  0.16183298703E+04  0.25500000920E-02 0. -1.
</event>
<event>
 5   0  0.5300268E-06  0.3244826E+04  0.7818609E-02  0.8177078E-01
        2   -1    0    0  501    0  0.00000000000E+00  0.00000000000E+00  0.27166557290E+04  0.27166557290E+04  0.25500000920E-02 0. -1.
       -2   -1    0    0    0  501  0.00000000000E+00  0.00000000000E+00 -0.96892041295E+03  0.96892041295E+03  0.25500000920E-02 0.  1.
    10030    2    1    2    0    0  0.00000000000E+00  0.00000000000E+00  0.17477353161E+04  0.36855761420E+04  0.32448255366E+04 0.  0.
        4    1    3    3  502    0  0.53034512014E+03 -0.83614191057E+03 -0.58594022319E+03  0.11505332673E+04  0.12699999809E+01 0.  1.
       -4    1    3    3    0  502 -0.53034512014E+03  0.83614191057E+03  0.23336755393E+04  0.25350428747E+04  0.12699999809E+01 0. -1.
</event>
<event>
 5   0  0.2097842E-06  0.3252261E+04  0.7818609E-02  0.8175150E-01
        1   -1    0    0  501    0  0.00000000000E+00  0.00000000000E+00  0.12974957224E+04  0.12974957224E+04  0.50400001928E-02 0.  1.
       -1   -1    0    0    0  501  0.00000000000E+00  0.00000000000E+00 -0.20380029845E+04  0.20380029845E+04  0.50400001928E-02 0. -1.
    10030    2    1    2    0    0  0.00000000000E+00  0.00000000000E+00 -0.74050726210E+03  0.33354987069E+04  0.32522608473E+04 0.  0.
        4    1    3    3  502    0 -0.82885937226E+03  0.89597912899E+03 -0.14722360024E+04  0.19123982112E+04  0.12699999809E+01 0. -1.
       -4    1    3    3    0  502  0.82885937226E+03 -0.89597912899E+03  0.73172874031E+03  0.14231004957E+04  0.12699999809E+01 0.  1.
</event>
<event>
 5   0  0.2730981E-06  0.1876554E+04  0.7818609E-02  0.8666616E-01
        1   -1    0    0  501    0  0.00000000000E+00  0.00000000000E+00  0.11955659603E+04  0.11955659603E+04  0.50400001928E-02 0. -1.
       -1   -1    0    0    0  501  0.00000000000E+00  0.00000000000E+00 -0.73635729180E+03  0.73635729181E+03  0.50400001928E-02 0.  1.
    10030    2    1    2    0    0  0.00000000000E+00  0.00000000000E+00  0.45920866845E+03  0.19319232521E+04  0.18765539829E+04 0.  0.
        3    1    3    3  502    0 -0.85460332672E+03  0.32088618060E+03  0.62966766371E+01  0.91288249260E+03  0.10100000352E+00 0.  1.
       -3    1    3    3    0  502  0.85460332672E+03 -0.32088618060E+03  0.45291199182E+03  0.10190407595E+04  0.10100000352E+00 0. -1.
</event>
<event>
 5   0  0.5622811E-06  0.1819737E+04  0.7818609E-02  0.8695873E-01
       -2   -1    0    0    0  501  0.00000000000E+00  0.00000000000E+00  0.32576780026E+03  0.32576780027E+03  0.25500000920E-02 0. -1.
        2   -1    0    0  501    0  0.00000000000E+00  0.00000000000E+00 -0.25412607045E+04  0.25412607045E+04  0.25500000920E-02 0.  1.
    10030    2    1    2    0    0  0.00000000000E+00  0.00000000000E+00 -0.22154929043E+04  0.28670285048E+04  0.18197372443E+04 0.  0.
        1    1    3    3  502    0 -0.66279759508E+03  0.10399332430E+03 -0.13941717978E+03  0.68523894634E+03  0.50400001928E-02 0. -1.
       -1    1    3    3    0  502  0.66279759508E+03 -0.10399332430E+03 -0.20760757245E+04  0.21817895585E+04  0.50400001928E-02 0.  1.
</event>
<event>
 5   0  0.2037109E-06  0.3304710E+04  0.7818609E-02  0.8161698E-01
        1   -1    0    0  501    0  0.00000000000E+00  0.00000000000E+00  0.10021824327E+04  0.10021824327E+04  0.50400001928E-02 0. -1.
       -1   -1    0    0    0  501  0.00000000000E+00  0.00000000000E+00 -0.27243311807E+04  0.27243311807E+04  0.50400001928E-02 0.  1.
    10030    2    1    2    0    0  0.00000000000E+00  0.00000000000E+00 -0.17221487480E+04  0.37265136134E+04  0.33047098814E+04 0.  0.
        2    1    3    3  502    0  0.12128001706E+04  0.48659106127E+03 -0.20013947448E+04  0.23902376533E+04  0.25500000920E-02 0.  1.
       -2    1    3    3    0  502 -0.12128001706E+04 -0.48659106127E+03  0.27924599673E+03  0.13362759601E+04  0.25500000920E-02 0. -1.
</event>
<event>
 5   0  0.5622811E-06  0.3258843E+04  0.7818609E-02  0.8173448E-01
       -2   -1    0    0    0  501  0.00000000000E+00  0.00000000000E+00  0.13192800972E+04  0.13192800972E+04  0.25500000920E-02 0.  1.
        2   -1    0    0  501    0  0.00000000000E+00  0.00000000000E+00 -0.20124716522E+04  0.20124716522E+04  0.25500000920E-02 0. -1.
    10030    2    1    2    0    0  0.00000000000E+00  0.00000000000E+00 -0.69319155500E+03  0.33317517494E+04  0.32588426148E+04 0.  0.
        1    1    3    3  502    0  0.81694869767E+03 -0.13516134999E+04  0.63310110333E+02  0.15805924199E+04  0.50400001928E-02 0. -1.
       -1    1    3    3    0  502 -0.81694869767E+03  0.13516134999E+04 -0.75650166533E+03  0.17511593295E+04  0.50400001928E-02 0.  1.
</event>
<event>
 5   0  0.5855568E-06  0.3243742E+04  0.7818609E-02  0.8177360E-01
       -2   -1    0    0    0  501  0.00000000000E+00  0.00000000000E+00  0.98934314688E+03  0.98934314688E+03  0.25500000920E-02 0. -1.
        2   -1    0    0  501    0  0.00000000000E+00  0.00000000000E+00 -0.26587994248E+04  0.26587994248E+04  0.25500000920E-02 0.  1.
    10030    2    1    2    0    0  0.00000000000E+00  0.00000000000E+00 -0.16694562779E+04  0.36481425716E+04  0.32437416604E+04 0.  0.
        3    1    3    3  502    0 -0.33946429153E+03 -0.57160339808E+03 -0.24985187662E+04  0.25854520853E+04  0.10100000352E+00 0.  1.
       -3    1    3    3    0  502  0.33946429153E+03  0.57160339808E+03  0.82906248837E+03  0.10626904863E+04  0.10100000352E+00 0. -1.
</event>
<event>
 5   0  0.1925906E-06  0.3177099E+04  0.7818609E-02  0.8194892E-01
        1   -1    0    0  501    0  0.00000000000E+00  0.00000000000E+00  0.21592756006E+04  0.21592756006E+04  0.50400001928E-02 0.  1.
       -1   -1    0    0    0  501  0.00000000000E+00  0.00000000000E+00 -0.11686742695E+04  0.11686742695E+04  0.50400001928E-02 0. -1.
    10030    2    1    2    0    0  0.00000000000E+00  0.00000000000E+00  0.99060133109E+03  0.33279498701E+04  0.31770992022E+04 0.  0.
        1    1    3    3  502    0  0.35764161769E+03  0.97167834518E+02 -0.11227571158E+04  0.11823420215E+04  0.50400001928E-02 0. -1.
       -1    1    3    3    0  502 -0.35764161769E+03 -0.97167834518E+02  0.21133584469E+04  0.21456078486E+04  0.50400001928E-02 0.  1.
</event>
<event>
 5   0  0.1925906E-06  0.3700643E+04  0.7818609E-02  0.8067819E-01
       -1   -1    0    0    0  501  0.00000000000E+00  0.00000000000E+00  0.30404799555E+04  0.30404799555E+04  0.50400001928E-02 0.  1.
        1   -1    0    0  501    0  0.00000000000E+00  0.00000000000E+00 -0.11260356261E+04  0.11260356261E+04  0.50400001928E-02 0. -1.
    10030    2    1    2    0    0  0.00000000000E+00  0.00000000000E+00  0.19144443294E+04  0.41665155816E+04  0.37006425120E+04 0.  0.
        1    1    3    3  502    0  0.81894762614E+03 -0.43020141091E+03 -0.84699303273E+03  0.12542510378E+04  0.50400001928E-02 0. -1.
       -1    1    3    3    0  502 -0.81894762614E+03  0.43020141091E+03  0.27614373621E+04  0.29122645438E+04  0.50400001928E-02 0.  1.
</event>
<event>
 5   0  0.5622811E-06  0.3167088E+04  0.7818609E-02  0.8197564E-01
       -2   -1    0    0    0  501  0.00000000000E+00  0.00000000000E+00  0.11871716414E+04  0.11871716414E+04  0.25500000920E-02 0. -1.
        2   -1    0    0  501    0  0.00000000000E+00  0.00000000000E+00 -0.21122570384E+04  0.21122570384E+04  0.25500000920E-02 0.  1.
    10030    2    1    2    0    0  0.00000000000E+00  0.00000000000E+00 -0.92508539699E+03  0.32994286798E+04  0.31670880349E+04 0.  0.
        1    1    3    3  502    0  0.69258641327E+03  0.18777546584E+03  0.10080654378E+04  0.12373889819E+04  0.50400001928E-02 0. -1.
       -1    1    3    3    0  502 -0.69258641327E+03 -0.18777546584E+03 -0.19331508348E+04  0.20620396979E+04  0.50400001928E-02 0.  1.
</event>
<event>
 5   0  0.2037109E-06  0.2927397E+04  0.7818609E-02  0.8264772E-01
       -1   -1    0    0    0  501  0.00000000000E+00  0.00000000000E+00  0.21375597371E+04  0.21375597371E+04  0.50400001928E-02 0. -1.
        1   -1    0    0  501    0  0.00000000000E+00  0.00000000000E+00 -0.10022707734E+04  0.10022707734E+04  0.50400001928E-02 0.  1.
    10030    2    1    2    0    0  0.00000000000E+00  0.00000000000E+00  0.11352889637E+04  0.31398305104E+04  0.29273972404E+04 0.  0.
        2    1    3    3  502    0  0.60207720698E+03  0.23897107190E+03 -0.84016270180E+03  0.10608852444E+04  0.25500000920E-02 0.  1.
       -2    1    3    3    0  502 -0.60207720698E+03 -0.23897107190E+03  0.19754516655E+04  0.20789452660E+04  0.25500000920E-02 0. -1.
</event>
<event>
 5   0  0.1925906E-06  0.3307856E+04  0.7818609E-02  0.8160899E-01
       -1   -1    0    0    0  501  0.00000000000E+00  0.00000000000E+00  0.12302770925E+04  0.12302770925E+04  0.50400001928E-02 0. -1.
        1   -1    0    0  501    0  0.00000000000E+00  0.00000000000E+00 -0.22234647314E+04  0.22234647314E+04  0.50400001928E-02 0.  1.
    10030    2    1    2    0    0  0.00000000000E+00  0.00000000000E+00 -0.99318763894E+03  0.34537418239E+04  0.33078559370E+04 0.  0.
        1    1    3    3  502    0 -0.49646237930E+03 -0.14019817374E+04 -0.12520006389E+04  0.19441021798E+04  0.50400001928E-02 0.  1.
       -1    1    3    3    0  502  0.49646237930E+03  0.14019817374E+04  0.25881299991E+03  0.15096396440E+04  0.50400001928E-02 0. -1.
</event>
<event>
 5   0  0.5855568E-06  0.3391908E+04  0.7818609E-02  0.8139895E-01
       -2   -1    0    0    0  501  0.00000000000E+00  0.00000000000E+00  0.11791400844E+04  0.11791400844E+04  0.25500000920E-02 0. -1.
        2   -1    0    0  501    0  0.00000000000E+00  0.00000000000E+00 -0.24392865544E+04  0.24392865544E+04  0.25500000920E-02 0.  1.
    10030    2    1    2    0    0  0.00000000000E+00  0.00000000000E+00 -0.12601464700E+04  0.36184266388E+04  0.33919083441E+04 0.  0.
        3    1    3    3  502    0 -0.33210222825E+03 -0.12332011347E+04  0.56032524140E+03  0.13946473802E+04  0.10100000352E+00 0. -1.
       -3    1    3    3    0  502  0.33210222825E+03  0.12332011347E+04 -0.18204717114E+04  0.22237792586E+04  0.10100000352E+00 0.  1.
</event>
<event>
 5   0  0.2097842E-06  0.1870474E+04  0.7818609E-02  0.8669695E-01
       -1   -1    0    0    0  501  0.00000000000E+00  0.00000000000E+00  0.65361205524E+03  0.65361205526E+03  0.50400001928E-02 0. -1.
        1   -1    0    0  501    0  0.00000000000E+00  0.00000000000E+00 -0.13382063761E+04  0.13382063761E+04  0.50400001928E-02 0.  1.
    10030    2    1    2    0    0  0.00000000000E+00  0.00000000000E+00 -0.68459432085E+03  0.19918184314E+04  0.18704735442E+04 0.  0.
        4    1    3    3  502    0  0.58439247403E+03  0.54522870868E+03  0.17488227701E+03  0.81815300048E+03  0.12699999809E+01 0. -1.
       -4    1    3    3    0  502 -0.58439247403E+03 -0.54522870868E+03 -0.85947659786E+03  0.11736654309E+04  0.12699999809E+01 0.  1.
</event>
<event>
 5   0  0.1925906E-06  0.3343829E+04  0.7818609E-02  0.8151832E-01
       -1   -1    0    0    0  501  0.00000000000E+00  0.00000000000E+00  0.11994604427E+04  0.11994604427E+04  0.50400001928E-02 0.  1.
        1   -1    0    0  501    0  0.00000000000E+00  0.00000000000E+00 -0.23304629322E+04  0.23304629322E+04  0.50400001928E-02 0. -1.
    10030    2    1    2    0    0  0.00000000000E+00  0.00000000000E+00 -0.11310024895E+04  0.35299233749E+04  0.33438290030E+04 0.  0.
        1    1    3    3  502    0 -0.16197623358E+04  0.39923319377E+03 -0.44851443542E+03  0.17274786153E+04  0.50400001928E-02 0. -1.
       -1    1    3    3    0  502  0.16197623358E+04 -0.39923319377E+03 -0.68248805406E+03  0.18024447596E+04  0.50400001928E-02 0.  1.
</event>
<event>
 5   0  0.2097842E-06  0.2099019E+04  0.7818609E-02  0.8561676E-01
       -1   -1    0    0    0  501  0.00000000000E+00  0.00000000000E+00  0.60336687888E+03  0.60336687890E+03  0.50400001928E-02 0.  1.
        1   -1    0    0  501    0  0.00000000000E+00  0.00000000000E+00 -0.18255395038E+04  0.18255395038E+04  0.50400001928E-02 0. -1.
    10030    2    1    2    0    0  0.00000000000E+00  0.00000000000E+00 -0.12221726250E+04  0.24289063827E+04  0.20990188877E+04 0.  0.
        4    1    3    3  502    0 -0.23470091103E+03 -0.60843970577E+03  0.34045405502E+03  0.73565886774E+03  0.12699999809E+01 0.  1.
       -4    1    3    3    0  502  0.23470091103E+03  0.60843970577E+03 -0.15626266800E+04  0.16932475150E+04  0.12699999809E+01 0. -1.
</event>
<event>
 5   0  0.5637538E-06  0.3248453E+04  0.7818609E-02  0.8176137E-01
        2   -1    0    0  501    0  0.00000000000E+00  0.00000000000E+00  0.16664882562E+04  0.16664882562E+04  0.25500000920E-02 0.  1.
       -2   -1    0    0    0  501  0.00000000000E+00  0.00000000000E+00 -0.15830365508E+04  0.15830365508E+04  0.25500000920E-02 0. -1.
    10030    2    1    2    0    0  0.00000000000E+00  0.00000000000E+00  0.83451705416E+02  0.32495248070E+04  0.32484530602E+04 0.  0.
        2    1    3    3  502    0  0.95236325126E+03 -0.57080606296E+03  0.12275689856E+04  0.16552162814E+04  0.25500000920E-02 0.  1.
       -2    1    3    3    0  502 -0.95236325126E+03  0.57080606296E+03 -0.11441172802E+04  0.15943085256E+04  0.25500000920E-02 0. -1.
</event>
<event>
 5   0  0.5300268E-06  0.3577646E+04  0.7818609E-02  0.8095631E-01
       -2   -1    0    0    0  501  0.00000000000E+00  0.00000000000E+00  0.26515281646E+04  0.26515281646E+04  0.25500000920E-02 0.  1.
        2   -1    0    0  501    0  0.00000000000E+00  0.00000000000E+00 -0.12068091034E+04  0.12068091034E+04  0.25500000920E-02 0. -1.
    10030    2    1    2    0    0  0.00000000000E+00  0.00000000000E+00  0.14447190613E+04  0.38583372680E+04  0.35776463363E+04 0.  0.
        4    1    3    3  502    0 -0.17447872392E+04 -0.27819285832E+03  0.10239669907E+04  0.20421027858E+04  0.12699999809E+01 0. -1.
       -4    1    3    3    0  502  0.17447872392E+04  0.27819285832E+03  0.42075207056E+03  0.18162344822E+04  0.12699999809E+01 0.  1.
</event>
<event>
 5   0  0.5855568E-06  0.1725840E+04  0.7818609E-02  0.8746762E-01
       -2   -1    0    0    0  501  0.00000000000E+00  0.00000000000E+00  0.57424552063E+03  0.57424552064E+03  0.25500000920E-02 0. -1.
        2   -1    0    0  501    0  0.00000000000E+00  0.00000000000E+00 -0.12967122356E+04  0.12967122356E+04  0.25500000920E-02 0.  1.
    10030    2    1    2    0    0  0.00000000000E+00  0.00000000000E+00 -0.72246671497E+03  0.18709577562E+04  0.17258403088E+04 0.  0.
        3    1    3    3  502    0 -0.49751618859E+02  0.70583673907E+03  0.17421080913E+03  0.72871814992E+03  0.10100000352E+00 0. -1.
       -3    1    3    3    0  502  0.49751618859E+02 -0.70583673907E+03 -0.89667752410E+03  0.11422396063E+04  0.10100000352E+00 0.  1.
</event>
<event>
 5   0  0.2730981E-06  0.3274043E+04  0.7818609E-02  0.8169532E-01
        1   -1    0    0  501    0  0.00000000000E+00  0.00000000000E+00  0.22003123516E+04  0.22003123516E+04  0.50400001928E-02 0.  1.
       -1   -1    0    0    0  501  0.00000000000E+00  0.00000000000E+00 -0.12179360720E+04  0.12179360720E+04  0.50400001928E-02 0. -1.
    10030    2    1    2    0    0  0.00000000000E+00  0.00000000000E+00  0.98237627966E+03  0.34182484236E+04  0.32740432390E+04 0.  0.
        3    1    3    3  502    0 -0.12258354615E+04  0.10286338645E+04  0.13091006455E+03  0.16055832776E+04  0.10100000352E+00 0.  1.
       -3    1    3    3    0  502  0.12258354615E+04 -0.10286338645E+04  0.85146621510E+03  0.18126651461E+04  0.10100000352E+00 0. -1.
</event>
<event>
 5   0  0.5855568E-06  0.2969075E+04  0.7818609E-02  0.8252617E-01
       -2   -1    0    0    0  501  0.00000000000E+00  0.00000000000E+00  0.18647286276E+04  0.18647286276E+04  0.25500000920E-02 0.  1.
        2   -1    0    0  501    0  0.00000000000E+00  0.00000000000E+00 -0.11818615560E+04  0.11818615560E+04  0.25500000920E-02 0. -1.
    10030    2    1    2    0    0  0.00000000000E+00  0.00000000000E+00  0.68286707153E+03  0.30465901836E+04  0.29690746554E+04 0.  0.
        3    1    3    3  502    0  0.86727433236E+03 -0.78053009639E+03  0.12832522707E+04  0.17343956871E+04  0.10100000352E+00 0.  1.
       -3    1    3    3    0  502 -0.86727433236E+03  0.78053009639E+03 -0.60038519922E+03  0.13121944965E+04  0.10100000352E+00 0. -1.
</event>
<event>
 5   0  0.5637538E-06  0.3263881E+04  0.7818609E-02  0.8172147E-01
       -2   -1    0    0    0  501  0.00000000000E+00  0.00000000000E+00  0.13579685824E+04  0.13579685824E+04  0.25500000920E-02 0.  1.
        2   -1    0    0  501    0  0.00000000000E+00  0.00000000000E+00 -0.19611870720E+04  0.19611870720E+04  0.25500000920E-02 0. -1.
    10030    2    1    2    0    0  0.00000000000E+00  0.00000000000E+00 -0.60321848956E+03  0.33191556544E+04  0.32638813876E+04 0.  0.
        2    1    3    3  502    0 -0.11178299183E+04 -0.88091211739E+03 -0.11136818027E+04  0.18071627051E+04  0.25500000920E-02 0. -1.
       -2    1    3    3    0  502  0.11178299183E+04  0.88091211739E+03  0.51046331317E+03  0.15119929494E+04  0.25500000920E-02 0.  1.
</event>
<event>
 5   0  0.2730981E-06  0.3288177E+04  0.7818609E-02  0.8165910E-01
        1   -1    0    0  501    0  0.00000000000E+00  0.00000000000E+00  0.13173118107E+04  0.13173118107E+04  0.50400001928E-02 0. -1.
       -1   -1    0    0    0  501  0.00000000000E+00  0.00000000000E+00 -0.20519262306E+04  0.20519262306E+04  0.50400001928E-02 0.  1.
    10030    2    1    2    0    0  0.00000000000E+00  0.00000000000E+00 -0.73461441995E+03  0.33692380413E+04  0.32881767947E+04 0.  0.
        3    1    3    3  502    0 -0.94365288203E+03  0.13364752124E+04 -0.20088432381E+03  0.16483328781E+04  0.10100000352E+00 0.  1.
       -3    1    3    3    0  502  0.94365288203E+03 -0.13364752124E+04 -0.53373009615E+03  0.17209051632E+04  0.10100000352E+00 0. -1.
</event>
<event>
 5   0  0.5755250E-06  0.3239705E+04  0.7818609E-02  0.8178409E-01
       -2   -1    0    0    0  501  0.00000000000E+00  0.00000000000E+00  0.16978138577E+04  0.16978138577E+04  0.25500000920E-02 0. -1.
        2   -1    0    0  501    0  0.00000000000E+00  0.00000000000E+00 -0.15454707539E+04  0.15454707539E+04  0.25500000920E-02 0.  1.
    10030    2    1    2    0    0  0.00000000000E+00  0.00000000000E+00  0.15234310379E+03  0.32432846116E+04  0.32397047165E+04 0.  0.
        5    1    3    3  502    0 -0.53569954812E+03 -0.63218322412E+03  0.14695680121E+04  0.16870927263E+04  0.46999998093E+01 0. -1.
       -5    1    3    3    0  502  0.53569954812E+03  0.63218322412E+03 -0.13172249084E+04  0.15561918853E+04  0.46999998093E+01 0.  1.
</event>
<event>
 5   0  0.1878000E-06  0.3319192E+04  0.7818609E-02  0.8158029E-01
       -3   -1    0    0    0  501  0.00000000000E+00  0.00000000000E+00  0.15175670544E+04  0.15175670578E+04  0.10100000352E+00 0. -1.
        3   -1    0    0  501    0  0.00000000000E+00  0.00000000000E+00 -0.18149170950E+04  0.18149170978E+04  0.10100000352E+00 0.  1.
    10030    2    1    2    0    0  0.00000000000E+00  0.00000000000E+00 -0.29735004059E+03  0.33324841556E+04  0.33191917089E+04 0.  0.
        4    1    3    3  502    0 -0.99299043185E+03  0.12762549691E+04  0.22618334803E+03  0.16327943115E+04  0.12699999809E+01 0.  1.
       -4    1    3    3    0  502  0.99299043185E+03 -0.12762549691E+04 -0.52353338862E+03  0.16996898440E+04  0.12699999809E+01 0. -1.
</event>
<event>
 5   0  0.5755250E-06  0.3318180E+04  0.7818609E-02  0.8158285E-01
       -2   -1    0    0    0  501  0.00000000000E+00  0.00000000000E+00  0.19203035005E+04  0.19203035005E+04  0.25500000920E-02 0.  1.
        2   -1    0    0  501    0  0.00000000000E+00  0.00000000000E+00 -0.14334089746E+04  0.14334089746E+04  0.25500000920E-02 0. -1.
    10030    2    1    2    0    0  0.00000000000E+00  0.00000000000E+00  0.48689452587E+03  0.33537124751E+04  0.33181803878E+04 0.  0.
        5    1    3    3  502    0 -0.35317010352E+03 -0.76505550212E+03  0.16879185104E+04  0.18865656710E+04  0.46999998093E+01 0.  1.
       -5    1    3    3    0  502  0.35317010352E+03  0.76505550212E+03 -0.12010239845E+04  0.14671468041E+04  0.46999998093E+01 0. -1.
</event>
<event>
 5   0  0.5622811E-06  0.3332465E+04  0.7818609E-02  0.8154683E-01
       -2   -1    0    0    0  501  0.00000000000E+00  0.00000000000E+00  0.19442810365E+04  0.19442810365E+04  0.25500000920E-02 0.  1.
        2   -1    0    0  501    0  0.00000000000E+00  0.00000000000E+00 -0.14279471873E+04  0.14279471873E+04  0.25500000920E-02 0. -1.
    10030    2    1    2    0    0  0.00000000000E+00  0.00000000000E+00  0.51633384918E+03  0.33722282238E+04  0.33324649360E+04 0.  0.
        1    1    3    3  502    0 -0.12575274739E+04  0.10504375326E+04  0.56432660777E+03  0.17329913092E+04  0.50400001928E-02 0.  1.
       -1    1    3    3    0  502  0.12575274739E+04 -0.10504375326E+04 -0.47992758590E+02  0.16392369146E+04  0.50400001928E-02 0. -1.
</event>
<event>
 5   0  0.5300268E-06  0.2644582E+04  0.7818609E-02  0.8353213E-01
       -2   -1    0    0    0  501  0.00000000000E+00  0.00000000000E+00  0.89553665847E+03  0.89553665847E+03  0.25500000920E-02 0. -1.
        2   -1    0    0  501    0  0.00000000000E+00  0.00000000000E+00 -0.19524089375E+04  0.19524089375E+04  0.25500000920E-02 0.  1.
    10030    2    1    2    0    0  0.00000000000E+00  0.00000000000E+00 -0.10568722790E+04  0.28479455959E+04  0.26445822172E+04 0.  0.
        4    1    3    3  502    0 -0.26356818616E+03  0.32921006116E+03 -0.18780454423E+04  0.19248126531E+04  0.12699999809E+01 0.  1.
       -4    1    3    3    0  502  0.26356818616E+03 -0.32921006116E+03  0.82117316332E+03  0.92313294286E+03  0.12699999809E+01 0. -1.
</event>
<event>
 5   0  0.2730981E-06  0.3090024E+04  0.7818609E-02  0.8218481E-01
        1   -1    0    0  501    0  0.00000000000E+00  0.00000000000E+00  0.12994937667E+04  0.12994937667E+04  0.50400001928E-02 0. -1.
       -1   -1    0    0    0  501  0.00000000000E+00  0.00000000000E+00 -0.18369164831E+04  0.18369164831E+04  0.50400001928E-02 0.  1.
    10030    2    1    2    0    0  0.00000000000E+00  0.00000000000E+00 -0.53742271641E+03  0.31364102499E+04  0.30900236373E+04 0.  0.
        3    1    3    3  502    0 -0.44088652122E+03 -0.86804632562E+03 -0.14863769700E+04  0.17768516694E+04  0.10100000352E+00 0.  1.
       -3    1    3    3    0  502  0.44088652122E+03  0.86804632562E+03  0.94895425359E+03  0.13595585804E+04  0.10100000352E+00 0. -1.
</event>
<event>
 5   0  0.2097842E-06  0.3280512E+04  0.7818609E-02  0.8167872E-01
        1   -1    0    0  501    0  0.00000000000E+00  0.00000000000E+00  0.13301852265E+04  0.13301852265E+04  0.50400001928E-02 0. -1.
       -1   -1    0    0    0  501  0.00000000000E+00  0.00000000000E+00 -0.20226053584E+04  0.20226053584E+04  0.50400001928E-02 0.  1.
    10030    2    1    2    0    0  0.00000000000E+00  0.00000000000E+00 -0.69242013183E+03  0.33527905849E+04  0.32805120130E+04 0.  0.
        4    1    3    3  502    0 -0.73490905150E+03  0.15035463699E+03 -0.18370262812E+04  0.19842794666E+04  0.12699999809E+01 0.  1.
       -4    1    3    3    0  502  0.73490905150E+03 -0.15035463699E+03  0.11446061494E+04  0.13685111183E+04  0.12699999809E+01 0. -1.
</event>
<event>
 5   0  0.5622811E-06  0.3041944E+04  0.7818609E-02  0.8231854E-01
        2   -1    0    0  501    0  0.00000000000E+00  0.00000000000E+00  0.24009908747E+04  0.24009908747E+04  0.25500000920E-02 0. -1.
       -2   -1    0    0    0  501  0.00000000000E+00  0.00000000000E+00 -0.96350042071E+03  0.96350042071E+03  0.25500000920E-02 0.  1.
    10030    2    1    2    0    0  0.00000000000E+00  0.00000000000E+00  0.14374904540E+04  0.33644912954E+04  0.30419439297E+04 0.  0.
        1    1    3    3  502    0  0.98838611086E+03 -0.11538768211E+04  0.79708561735E+03  0.17157168484E+04  0.50400001928E-02 0. -1.
       -1    1    3    3    0  502 -0.98838611086E+03  0.11538768211E+04  0.64040483668E+03  0.16487744471E+04  0.50400001928E-02 0.  1.
</event>
<event>
 5   0  0.1925906E-06  0.3230712E+04  0.7818609E-02  0.8180753E-01
       -1   -1    0    0    0  501  0.00000000000E+00  0.00000000000E+00  0.17582292395E+04  0.17582292395E+04  0.50400001928E-02 0.  1.
        1   -1    0    0  501    0  0.00000000000E+00  0.00000000000E+00 -0.14840924465E+04  0.14840924465E+04  0.50400001928E-02 0. -1.
    10030    2    1    2    0    0  0.00000000000E+00  0.00000000000E+00  0.27413679302E+03  0.32423216861E+04  0.32307118309E+04 0.  0.
        1    1    3    3  502    0  0.47864102633E+03  0.87448334434E+03 -0.11385446095E+04  0.15133083557E+04  0.50400001928E-02 0. -1.
       -1    1    3    3    0  502 -0.47864102633E+03 -0.87448334434E+03  0.14126814025E+04  0.17290133304E+04  0.50400001928E-02 0.  1.
</event>
<event>
 5   0  0.5300268E-06  0.3272288E+04  0.7818609E-02  0.8169983E-01
        2   -1    0    0  501    0  0.00000000000E+00  0.00000000000E+00  0.23161726930E+04  0.23161726930E+04  0.25500000920E-02 0. -1.
       -2   -1    0    0    0  501  0.00000000000E+00  0.00000000000E+00 -0.11557719636E+04  0.11557719636E+04  0.25500000920E-02 0.  1.
    10030    2    1    2    0    0  0.00000000000E+00  0.00000000000E+00  0.11604007293E+04  0.34719446566E+04  0.32722881667E+04 0.  0.
        4    1    3    3  502    0 -0.10723331008E+04  0.12140014743E+04  0.33531975013E+03  0.16541278084E+04  0.12699999809E+01 0.  1.
       -4    1    3    3    0  502  0.10723331008E+04 -0.12140014743E+04  0.82508097921E+03  0.18178168483E+04  0.12699999809E+01 0. -1.
</event>
<event>
 5   0  0.5755250E-06  0.2797369E+04  0.7818609E-02  0.8304086E-01
       -2   -1    0    0    0  501  0.00000000000E+00  0.00000000000E+00  0.68083783556E+03  0.68083783556E+03  0.25500000920E-02 0. -1.
        2   -1    0    0  501    0  0.00000000000E+00  0.00000000000E+00 -0.28733981984E+04  0.28733981984E+04  0.25500000920E-02 0.  1.
    10030    2    1    2    0    0  0.00000000000E+00  0.00000000000E+00 -0.21925603628E+04  0.35542360339E+04  0.27973689139E+04 0.  0.
        5    1    3    3  502    0 -0.52237005288E+03 -0.25972590776E+03  0.51887000895E+03  0.78075360741E+03  0.46999998093E+01 0. -1.
       -5    1    3    3    0  502  0.52237005288E+03  0.25972590776E+03 -0.27114303718E+04  0.27734824265E+04  0.46999998093E+01 0.  1.
</event>
<event>
 5   0  0.5755250E-06  0.3235870E+04  0.7818609E-02  0.8179408E-01
        2   -1    0    0  501    0  0.00000000000E+00  0.00000000000E+00  0.25481522182E+04  0.25481522182E+04  0.25500000920E-02 0. -1.
       -2   -1    0    0    0  501  0.00000000000E+00  0.00000000000E+00 -0.10272990049E+04  0.10272990049E+04  0.25500000920E-02 0.  1.
    10030    2    1    2    0    0  0.00000000000E+00  0.00000000000E+00  0.15208532133E+04  0.35754512231E+04  0.32358703547E+04 0.  0.
        5    1    3    3  502    0 -0.13560445441E+04 -0.35259537585E+03 -0.13349307480E+03  0.14074881156E+04  0.46999998093E+01 0.  1.
       -5    1    3    3    0  502  0.13560445441E+04  0.35259537585E+03  0.16543462881E+04  0.21679631075E+04  0.46999998093E+01 0. -1.
</event>
<event>
 5   0  0.2097842E-06  0.3369264E+04  0.7818609E-02  0.8145491E-01
       -1   -1    0    0    0  501  0.00000000000E+00  0.00000000000E+00  0.16071320047E+04  0.16071320047E+04  0.50400001928E-02 0.  1.
        1   -1    0    0  501    0  0.00000000000E+00  0.00000000000E+00 -0.17658690152E+04  0.17658690152E+04  0.50400001928E-02 0. -1.
    10030    2    1    2    0    0  0.00000000000E+00  0.00000000000E+00 -0.15873701047E+03  0.33730010200E+04  0.33692637834E+04 0.  0.
        4    1    3    3  502    0  0.83724355018E+03 -0.49105951664E+03 -0.14578005729E+04  0.17513709871E+04  0.12699999809E+01 0. -1.
       -4    1    3    3    0  502 -0.83724355018E+03  0.49105951664E+03  0.12990635625E+04  0.16216300328E+04  0.12699999809E+01 0.  1.
</event>
<event>
 5   0  0.2097842E-06  0.3295922E+04  0.7818609E-02  0.8163934E-01
       -1   -1    0    0    0  501  0.00000000000E+00  0.00000000000E+00  0.17861829593E+04  0.17861829593E+04  0.50400001928E-02 0.  1.
        1   -1    0    0  501    0  0.00000000000E+00  0.00000000000E+00 -0.15204349203E+04  0.15204349203E+04  0.50400001928E-02 0. -1.
    10030    2    1    2    0    0  0.00000000000E+00  0.00000000000E+00  0.26574803896E+03  0.33066178797E+04  0.32959216893E+04 0.  0.
        4    1    3    3  502    0  0.75042462904E+03  0.75013092215E+02  0.16028968598E+04  0.17714525238E+04  0.12699999809E+01 0.  1.
       -4    1    3    3    0  502 -0.75042462904E+03 -0.75013092215E+02 -0.13371488209E+04  0.15351653559E+04  0.12699999809E+01 0. -1.
</event>
<event>
 5   0  0.1925906E-06  0.3497842E+04  0.7818609E-02  0.8114302E-01
       -1   -1    0    0    0  501  0.00000000000E+00  0.00000000000E+00  0.17880551931E+04  0.17880551931E+04  0.50400001928E-02 0.  1.
        1   -1    0    0  501    0  0.00000000000E+00  0.00000000000E+00 -0.17106428345E+04  0.17106428346E+04  0.50400001928E-02 0. -1.
    10030    2    1    2    0    0  0.00000000000E+00  0.00000000000E+00  0.77412358583E+02  0.34986980277E+04  0.34978415081E+04 0.  0.
        1    1    3    3  502    0  0.95886193245E+03 -0.14524513232E+04  0.21106422435E+03  0.17531626161E+04  0.50400001928E-02 0.  1.
       -1    1    3    3    0  502 -0.95886193245E+03  0.14524513232E+04 -0.13365186577E+03  0.17455354116E+04  0.50400001928E-02 0. -1.
</event>
<event>
 5   0  0.5755250E-06  0.3214199E+04  0.7818609E-02  0.8185077E-01
        2   -1    0    0  501    0  0.00000000000E+00  0.00000000000E+00  0.17201430329E+04  0.17201430329E+04  0.25500000920E-02 0. -1.
       -2   -1    0    0    0  501  0.00000000000E+00  0.00000000000E+00 -0.15014847185E+04  0.15014847185E+04  0.25500000920E-02 0.  1.
    10030    2    1    2    0    0  0.00000000000E+00  0.00000000000E+00  0.21865831436E+03  0.32216277514E+04  0.32141987975E+04 0.  0.
        5    1    3    3  502    0  0.62544055161E+03 -0.12525626002E+04 -0.68158110947E+03  0.15571332152E+04  0.46999998093E+01 0.  1.
       -5    1    3    3    0  502 -0.62544055161E+03  0.12525626002E+04  0.90023942383E+03  0.16644945362E+04  0.46999998093E+01 0. -1.
</event>
<event>
 5   0  0.5300268E-06  0.3267537E+04  0.7818609E-02  0.8171205E-01
        2   -1    0    0  501    0  0.00000000000E+00  0.00000000000E+00  0.76270340767E+03  0.76270340767E+03  0.25500000920E-02 0.  1.
       -2   -1    0    0    0  501  0.00000000000E+00  0.00000000000E+00 -0.34996568984E+04  0.34996568984E+04  0.25500000920E-02 0. -1.
    10030    2    1    2    0    0  0.00000000000E+00  0.00000000000E+00 -0.27369534907E+04  0.42623603060E+04  0.32675374471E+04 0.  0.
        4    1    3    3  502    0 -0.41967241355E+03  0.13819147833E+04 -0.37213735926E+03  0.14914091424E+04  0.12699999809E+01 0.  1.
       -4    1    3    3    0  502  0.41967241355E+03 -0.13819147833E+04 -0.23648161315E+04  0.27709511637E+04  0.12699999809E+01 0. -1.
</event>
<event>
 5   0  0.5622811E-06  0.3361178E+04  0.7818609E-02  0.8147501E-01
       -2   -1    0    0    0  501  0.00000000000E+00  0.00000000000E+00  0.24040943208E+04  0.24040943208E+04  0.25500000920E-02 0. -1.
        2   -1    0    0  501    0  0.00000000000E+00  0.00000000000E+00 -0.11748206397E+04  0.11748206397E+04  0.25500000920E-02 0.  1.
    10030    2    1    2    0    0  0.00000000000E+00  0.00000000000E+00  0.12292736811E+04  0.35789149605E+04  0.33611781434E+04 0.  0.
        1    1    3    3  502    0 -0.98099218386E+02 -0.15965744326E+04  0.65777909551E+02  0.16009372595E+04  0.50400001928E-02 0.  1.
       -1    1    3    3    0  502  0.98099218386E+02  0.15965744326E+04  0.11634957715E+04  0.19779777010E+04  0.50400001928E-02 0. -1.
</event>
<event>
 5   0  0.5622811E-06  0.3149664E+04  0.7818609E-02  0.8202239E-01
        2   -1    0    0  501    0  0.00000000000E+00  0.00000000000E+00  0.20169077463E+04  0.20169077463E+04  0.25500000920E-02 0. -1.
       -2   -1    0    0    0  501  0.00000000000E+00  0.00000000000E+00 -0.12296524862E+04  0.12296524862E+04  0.25500000920E-02 0.  1.
    10030    2    1    2    0    0  0.00000000000E+00  0.00000000000E+00  0.78725526006E+03  0.32465602325E+04  0.31496638708E+04 0.  0.
        1    1    3    3  502    0  0.66051520504E+03  0.13270589964E+04  0.94170892270E+03  0.17561838204E+04  0.50400001928E-02 0. -1.
       -1    1    3    3    0  502 -0.66051520504E+03 -0.13270589964E+04 -0.15445366265E+03  0.14903764121E+04  0.50400001928E-02 0.  1.
</event>
<event>
 5   0  0.2037109E-06  0.3311993E+04  0.7818609E-02  0.8159851E-01
       -1   -1    0    0    0  501  0.00000000000E+00  0.00000000000E+00  0.11710685815E+04  0.11710685815E+04  0.50400001928E-02 0. -1.
        1   -1    0    0  501    0  0.00000000000E+00  0.00000000000E+00 -0.23417275916E+04  0.23417275916E+04  0.50400001928E-02 0.  1.
    10030    2    1    2    0    0  0.00000000000E+00  0.00000000000E+00 -0.11706590101E+04  0.35127961730E+04  0.33119925174E+04 0.  0.
        2    1    3    3  502    0 -0.66504601425E+03  0.41820313639E+03 -0.21315012730E+04  0.22716684928E+04  0.25500000920E-02 0.  1.
       -2    1    3    3    0  502  0.66504601425E+03 -0.41820313639E+03  0.96084226292E+03  0.12411276802E+04  0.25500000920E-02 0. -1.
</event>
<event>
 5   0  0.1999849E-06  0.3309199E+04  0.7818609E-02  0.8160559E-01
       -1   -1    0    0    0  501  0.00000000000E+00  0.00000000000E+00  0.15879018190E+04  0.15879018190E+04  0.50400001928E-02 0. -1.
        1   -1    0    0  501    0  0.00000000000E+00  0.00000000000E+00 -0.17240987380E+04  0.17240987380E+04  0.50400001928E-02 0.  1.
    10030    2    1    2    0    0  0.00000000000E+00  0.00000000000E+00 -0.13619691895E+03  0.33120005570E+04  0.33091990101E+04 0.  0.
        5    1    3    3  502    0  0.13204415017E+04 -0.44237419323E+03 -0.96239661287E+03  0.16927758318E+04  0.46999998093E+01 0.  1.
       -5    1    3    3    0  502 -0.13204415017E+04  0.44237419323E+03  0.82619969391E+03  0.16192247252E+04  0.46999998093E+01 0. -1.
</event>
<event>
 5   0  0.5755250E-06  0.3308961E+04  0.7818609E-02  0.8160619E-01
       -2   -1    0    0    0  501  0.00000000000E+00  0.00000000000E+00  0.13519435727E+04  0.13519435727E+04  0.25500000920E-02 0. -1.
        2   -1    0    0  501    0  0.00000000000E+00  0.00000000000E+00 -0.20247194668E+04  0.20247194668E+04  0.25500000920E-02 0.  1.
    10030    2    1    2    0    0  0.00000000000E+00  0.00000000000E+00 -0.67277589409E+03  0.33766630396E+04  0.33089614502E+04 0.  0.
        5    1    3    3  502    0 -0.91306830098E+03 -0.44944831705E+03  0.99475004591E+03  0.14231118213E+04  0.46999998093E+01 0. -1.
       -5    1    3    3    0  502  0.91306830098E+03  0.44944831705E+03 -0.16675259400E+04  0.19535512183E+04  0.46999998093E+01 0.  1.
</event>
<event>
 5   0  0.2097842E-06  0.3228080E+04  0.7818609E-02  0.8181440E-01
       -1   -1    0    0    0  501  0.00000000000E+00  0.00000000000E+00  0.13140010152E+04  0.13140010153E+04  0.50400001928E-02 0. -1.
        1   -1    0    0  501    0  0.00000000000E+00  0.00000000000E+00 -0.19825900311E+04  0.19825900311E+04  0.50400001928E-02 0.  1.
    10030    2    1    2    0    0  0.00000000000E+00  0.00000000000E+00 -0.66858901581E+03  0.32965910463E+04  0.32280801190E+04 0.  0.
        4    1    3    3  502    0 -0.39375139940E+03  0.81286736398E+03 -0.17003426776E+04  0.19253468130E+04  0.12699999809E+01 0.  1.
       -4    1    3    3    0  502  0.39375139940E+03 -0.81286736398E+03  0.10317536618E+04  0.13712442334E+04  0.12699999809E+01 0. -1.
</event>
<event>
 5   0  0.5637538E-06  0.3287443E+04  0.7818609E-02  0.8166098E-01
        2   -1    0    0  501    0  0.00000000000E+00  0.00000000000E+00  0.22031343510E+04  0.22031343510E+04  0.25500000920E-02 0. -1.
       -2   -1    0    0    0  501  0.00000000000E+00  0.00000000000E+00 -0.12263531644E+04  0.12263531644E+04  0.25500000920E-02 0.  1.
    10030    2    1    2    0    0  0.00000000000E+00  0.00000000000E+00  0.97678118663E+03  0.34294875155E+04  0.32874432515E+04 0.  0.
        2    1    3    3  502    0  0.10160280605E+04  0.43706558707E+03  0.17568567935E+04  0.20760262860E+04  0.25500000920E-02 0. -1.
       -2    1    3    3    0  502 -0.10160280605E+04 -0.43706558707E+03 -0.78007560688E+03  0.13534612295E+04  0.25500000920E-02 0.  1.
</event>
<event>
 5   0  0.1925906E-06  0.3290360E+04  0.7818609E-02  0.8165353E-01
       -1   -1    0    0    0  501  0.00000000000E+00  0.00000000000E+00  0.20954153932E+04  0.20954153932E+04  0.50400001928E-02 0. -1.
        1   -1    0    0  501    0  0.00000000000E+00  0.00000000000E+00 -0.12916853352E+04  0.12916853352E+04  0.50400001928E-02 0.  1.
    10030    2    1    2    0    0  0.00000000000E+00  0.00000000000E+00  0.80373005800E+03  0.33871007284E+04  0.32903600621E+04 0.  0.
        1    1    3    3  502    0 -0.12205804817E+04 -0.94205916361E+03 -0.18887600541E+03  0.15533725650E+04  0.50400001928E-02 0. -1.
       -1    1    3    3    0  502  0.12205804817E+04  0.94205916361E+03  0.99260606341E+03  0.18337281634E+04  0.50400001928E-02 0.  1.
</event>
<event>
 5   0  0.5855568E-06  0.2268990E+04  0.7818609E-02  0.8490249E-01
       -2   -1    0    0    0  501  0.00000000000E+00  0.00000000000E+00  0.12825701865E+04  0.12825701865E+04  0.25500000920E-02 0. -1.
        2   -1    0    0  501    0  0.00000000000E+00  0.00000000000E+00 -0.10035151710E+04  0.10035151710E+04  0.25500000920E-02 0.  1.
    10030    2    1    2    0    0  0.00000000000E+00  0.00000000000E+00  0.27905501548E+03  0.22860853575E+04  0.22689897664E+04 0.  0.
        3    1    3    3  502    0  0.97663864331E+02 -0.26530638949E+03  0.12465107572E+04  0.12781685291E+04  0.10100000352E+00 0. -1.
       -3    1    3    3    0  502 -0.97663864331E+02  0.26530638949E+03 -0.96745574171E+03  0.10079168284E+04  0.10100000352E+00 0.  1.
</event>
<event>
 5   0  0.5755250E-06  0.3330143E+04  0.7818609E-02  0.8155268E-01
        2   -1    0    0  501    0  0.00000000000E+00  0.00000000000E+00  0.17372602165E+04  0.17372602165E+04  0.25500000920E-02 0.  1.
       -2   -1    0    0    0  501  0.00000000000E+00  0.00000000000E+00 -0.15958826201E+04  0.15958826201E+04  0.25500000920E-02 0. -1.
    10030    2    1    2    0    0  0.00000000000E+00  0.00000000000E+00  0.14137759644E+03  0.33331428366E+04  0.33301431717E+04 0.  0.
        5    1    3    3  502    0  0.38473117671E+03  0.65024203279E+03  0.15558071610E+04  0.17295637576E+04  0.46999998093E+01 0.  1.
       -5    1    3    3    0  502 -0.38473117671E+03 -0.65024203279E+03 -0.14144295645E+04  0.16035790790E+04  0.46999998093E+01 0. -1.
</event>
<event>
 5   0  0.1925906E-06  0.3324201E+04  0.7818609E-02  0.8156765E-01
        1   -1    0    0  501    0  0.00000000000E+00  0.00000000000E+00  0.14021427962E+04  0.14021427962E+04  0.50400001928E-02 0.  1.
       -1   -1    0    0    0  501  0.00000000000E+00  0.00000000000E+00 -0.19702543663E+04  0.19702543663E+04  0.50400001928E-02 0. -1.
    10030    2    1    2    0    0  0.00000000000E+00  0.00000000000E+00 -0.56811157018E+03  0.33723971625E+04  0.33242009364E+04 0.  0.
        1    1    3    3  502    0  0.24389084263E+03 -0.16241064973E+04 -0.24666710002E+02  0.16425020866E+04  0.50400001928E-02 0. -1.
       -1    1    3    3    0  502 -0.24389084263E+03  0.16241064973E+04 -0.54344486018E+03  0.17298950760E+04  0.50400001928E-02 0.  1.
</event>
<event>
 5   0  0.2097842E-06  0.3384797E+04  0.7818609E-02  0.8141648E-01
       -1   -1    0    0    0  501  0.00000000000E+00  0.00000000000E+00  0.18298670574E+04  0.18298670574E+04  0.50400001928E-02 0.  1.
        1   -1    0    0  501    0  0.00000000000E+00  0.00000000000E+00 -0.15652573603E+04  0.15652573603E+04  0.50400001928E-02 0. -1.
    10030    2    1    2    0    0  0.00000000000E+00  0.00000000000E+00  0.26460969709E+03  0.33951244177E+04  0.33847971165E+04 0.  0.
        4    1    3    3  502    0  0.80754720764E+03  0.51311953128E+03  0.15325537871E+04  0.18066950128E+04  0.12699999809E+01 0.  1.
       -4    1    3    3    0  502 -0.80754720764E+03 -0.51311953128E+03 -0.12679440900E+04  0.15884294049E+04  0.12699999809E+01 0. -1.
</event>
<event>
 5   0  0.1878000E-06  0.3212064E+04  0.7818609E-02  0.8185638E-01
        3   -1    0    0  501    0  0.00000000000E+00  0.00000000000E+00  0.20739905410E+04  0.20739905435E+04  0.10100000352E+00 0. -1.
       -3   -1    0    0    0  501  0.00000000000E+00  0.00000000000E+00 -0.12436596775E+04  0.12436596816E+04  0.10100000352E+00 0.  1.
    10030    2    1    2    0    0  0.00000000000E+00  0.00000000000E+00  0.83033086359E+03  0.33176502250E+04  0.32120637716E+04 0.  0.
        4    1    3    3  502    0  0.96283394796E+03  0.11548783726E+04  0.99811480265E+03  0.18047238124E+04  0.12699999809E+01 0.  1.
       -4    1    3    3    0  502 -0.96283394796E+03 -0.11548783726E+04 -0.16778393906E+03  0.15129264126E+04  0.12699999809E+01 0. -1.
</event>
<event>
 5   0  0.1999849E-06  0.1872502E+04  0.7818609E-02  0.8668666E-01
       -1   -1    0    0    0  501  0.00000000000E+00  0.00000000000E+00  0.78664009463E+03  0.78664009464E+03  0.50400001928E-02 0. -1.
        1   -1    0    0  501    0  0.00000000000E+00  0.00000000000E+00 -0.11143168690E+04  0.11143168691E+04  0.50400001928E-02 0.  1.
    10030    2    1    2    0    0  0.00000000000E+00  0.00000000000E+00 -0.32767677442E+03  0.19009569637E+04  0.18725024190E+04 0.  0.
        5    1    3    3  502    0  0.82943355939E+03 -0.37431599646E+03  0.59670200546E+02  0.91195126925E+03  0.46999998093E+01 0.  1.
       -5    1    3    3    0  502 -0.82943355939E+03  0.37431599646E+03 -0.38734697497E+03  0.98900569445E+03  0.46999998093E+01 0. -1.
</event>
<event>
 5   0  0.5755250E-06  0.2024571E+04  0.7818609E-02  0.8595218E-01
       -2   -1    0    0    0  501  0.00000000000E+00  0.00000000000E+00  0.63875921606E+03  0.63875921607E+03  0.25500000920E-02 0. -1.
        2   -1    0    0  501    0  0.00000000000E+00  0.00000000000E+00 -0.16042383193E+04  0.16042383193E+04  0.25500000920E-02 0.  1.
    10030    2    1    2    0    0  0.00000000000E+00  0.00000000000E+00 -0.96547910325E+03  0.22429975354E+04  0.20245710768E+04 0.  0.
        5    1    3    3  502    0 -0.52234160620E+03 -0.79001057238E+03 -0.87871057983E+03  0.12919411098E+04  0.46999998093E+01 0.  1.
       -5    1    3    3    0  502  0.52234160620E+03  0.79001057238E+03 -0.86768523418E+02  0.95105642561E+03  0.46999998093E+01 0. -1.
</event>
<event>
 5   0  0.5755250E-06  0.3307822E+04  0.7818609E-02  0.8160908E-01
       -2   -1    0    0    0  501  0.00000000000E+00  0.00000000000E+00  0.11329477850E+04  0.11329477850E+04  0.25500000920E-02 0. -1.
        2   -1    0    0  501    0  0.00000000000E+00  0.00000000000E+00 -0.24144288540E+04  0.24144288540E+04  0.25500000920E-02 0.  1.
    10030    2    1    2    0    0  0.00000000000E+00  0.00000000000E+00 -0.12814810690E+04  0.35473766390E+04  0.33078221368E+04 0.  0.
        5    1    3    3  502    0 -0.10974519527E+04 -0.10854467928E+04 -0.12777296743E+04  0.20037990765E+04  0.46999998093E+01 0.  1.
       -5    1    3    3    0  502  0.10974519527E+04  0.10854467928E+04 -0.37513946183E+01  0.15435775625E+04  0.46999998093E+01 0. -1.
</event>
<event>
 5   0  0.5855568E-06  0.3385155E+04  0.7818609E-02  0.8141559E-01
       -2   -1    0    0    0  501  0.00000000000E+00  0.00000000000E+00  0.13654152792E+04  0.13654152792E+04  0.25500000920E-02 0. -1.
        2   -1    0    0  501    0  0.00000000000E+00  0.00000000000E+00 -0.20981298687E+04  0.20981298687E+04  0.25500000920E-02 0.  1.
    10030    2    1    2    0    0  0.00000000000E+00  0.00000000000E+00 -0.73271458947E+03  0.34635451478E+04  0.33851549922E+04 0.  0.
        3    1    3    3  502    0 -0.16628563511E+04  0.32795009180E+02 -0.44995066035E+02  0.16637882447E+04  0.10100000352E+00 0. -1.
       -3    1    3    3    0  502  0.16628563511E+04 -0.32795009180E+02 -0.68771952343E+03  0.17997569031E+04  0.10100000352E+00 0.  1.
</event>
<event>
 5   0  0.5755250E-06  0.3242665E+04  0.7818609E-02  0.8177639E-01
        2   -1    0    0  501    0  0.00000000000E+00  0.00000000000E+00  0.19760077684E+04  0.19760077684E+04  0.25500000920E-02 0.  1.
       -2   -1    0    0    0  501  0.00000000000E+00  0.00000000000E+00 -0.13303184648E+04  0.13303184648E+04  0.25500000920E-02 0. -1.
    10030    2    1    2    0    0  0.00000000000E+00  0.00000000000E+00  0.64568930362E+03  0.33063262333E+04  0.32426653364E+04 0.  0.
        5    1    3    3  502    0  0.44482265950E+03  0.12236837232E+04 -0.66226391822E+03  0.14607822015E+04  0.46999998093E+01 0. -1.
       -5    1    3    3    0  502 -0.44482265950E+03 -0.12236837232E+04  0.13079532218E+04  0.18455440318E+04  0.46999998093E+01 0.  1.
</event>
<event>
 5   0  0.2037109E-06  0.3348345E+04  0.7818609E-02  0.8150702E-01
        1   -1    0    0  501    0  0.00000000000E+00  0.00000000000E+00  0.17720027604E+04  0.17720027604E+04  0.50400001928E-02 0. -1.
       -1   -1    0    0    0  501  0.00000000000E+00  0.00000000000E+00 -0.15817433059E+04  0.15817433059E+04  0.50400001928E-02 0.  1.
    10030    2    1    2    0    0  0.00000000000E+00  0.00000000000E+00  0.19025945446E+03  0.33537460663E+04  0.33483449669E+04 0.  0.
        2    1    3    3  502    0  0.11273116350E+04 -0.24972221459E+03  0.13093809119E+04  0.17457580243E+04  0.25500000920E-02 0. -1.
       -2    1    3    3    0  502 -0.11273116350E+04  0.24972221459E+03 -0.11191214574E+04  0.16079880420E+04  0.25500000920E-02 0.  1.
</event>
<event>
 5   0  0.5855568E-06  0.2893503E+04  0.7818609E-02  0.8274813E-01
       -2   -1    0    0    0  501  0.00000000000E+00  0.00000000000E+00  0.81757914201E+03  0.81757914202E+03  0.25500000920E-02 0. -1.
        2   -1    0    0  501    0  0.00000000000E+00  0.00000000000E+00 -0.25601059327E+04  0.25601059327E+04  0.25500000920E-02 0.  1.
    10030    2    1    2    0    0  0.00000000000E+00  0.00000000000E+00 -0.17425267907E+04  0.33776850747E+04  0.28935025225E+04 0.  0.
        3    1    3    3  502    0  0.13816855591E+04  0.32088415550E+02 -0.37188904157E+03  0.14312184040E+04  0.10100000352E+00 0. -1.
       -3    1    3    3    0  502 -0.13816855591E+04 -0.32088415550E+02 -0.13706377491E+04  0.19464666707E+04  0.10100000352E+00 0.  1.
</event>
<event>
 5   0  0.5637538E-06  0.3266990E+04  0.7818609E-02  0.8171346E-01
       -2   -1    0    0    0  501  0.00000000000E+00  0.00000000000E+00  0.23354541453E+04  0.23354541453E+04  0.25500000920E-02 0.  1.
        2   -1    0    0  501    0  0.00000000000E+00  0.00000000000E+00 -0.11425212172E+04  0.11425212172E+04  0.25500000920E-02 0. -1.
    10030    2    1    2    0    0  0.00000000000E+00  0.00000000000E+00  0.11929329281E+04  0.34779753625E+04  0.32669899986E+04 0.  0.
        2    1    3    3  502    0  0.84834259629E+03  0.76162681718E+03  0.18418648309E+04  0.21661548016E+04  0.25500000920E-02 0.  1.
       -2    1    3    3    0  502 -0.84834259629E+03 -0.76162681718E+03 -0.64893190279E+03  0.13118205608E+04  0.25500000920E-02 0. -1.
</event>
<event>
 5   0  0.5855568E-06  0.3351948E+04  0.7818609E-02  0.8149802E-01
        2   -1    0    0  501    0  0.00000000000E+00  0.00000000000E+00  0.25252675878E+04  0.25252675878E+04  0.25500000920E-02 0. -1.
       -2   -1    0    0    0  501  0.00000000000E+00  0.00000000000E+00 -0.11123131475E+04  0.11123131475E+04  0.25500000920E-02 0.  1.
    10030    2    1    2    0    0  0.00000000000E+00  0.00000000000E+00  0.14129544402E+04  0.36375807353E+04  0.33519476958E+04 0.  0.
        3    1    3    3  502    0  0.16360977184E+04  0.77953765970E+01  0.31218172820E+03  0.16656331990E+04  0.10100000352E+00 0.  1.
       -3    1    3    3    0  502 -0.16360977184E+04 -0.77953765970E+01  0.11007727121E+04  0.19719475363E+04  0.10100000352E+00 0. -1.
</event>
<event>
 5   0  0.2037109E-06  0.3356049E+04  0.7818609E-02  0.8148778E-01
       -1   -1    0    0    0  501  0.00000000000E+00  0.00000000000E+00  0.17949634076E+04  0.17949634076E+04  0.50400001928E-02 0.  1.
        1   -1    0    0  501    0  0.00000000000E+00  0.00000000000E+00 -0.15687044047E+04  0.15687044047E+04  0.50400001928E-02 0. -1.
    10030    2    1    2    0    0  0.00000000000E+00  0.00000000000E+00  0.22625900294E+03  0.33636678123E+04  0.33560494655E+04 0.  0.
        2    1    3    3  502    0  0.62796611942E+03 -0.15560731282E+04  0.10523912677E+03  0.16813031556E+04  0.25500000920E-02 0. -1.
       -2    1    3    3    0  502 -0.62796611942E+03  0.15560731282E+04  0.12101987617E+03  0.16823646566E+04  0.25500000920E-02 0.  1.
</event>
<event>
 5   0  0.5637538E-06  0.3208387E+04  0.7818609E-02  0.8186606E-01
        2   -1    0    0  501    0  0.00000000000E+00  0.00000000000E+00  0.17689808677E+04  0.17689808677E+04  0.25500000920E-02 0.  1.
       -2   -1    0    0    0  501  0.00000000000E+00  0.00000000000E+00 -0.14547570977E+04  0.14547570977E+04  0.25500000920E-02 0. -1.
    10030    2    1    2    0    0  0.00000000000E+00  0.00000000000E+00  0.31422376996E+03  0.32237379654E+04  0.32083874286E+04 0.  0.
        2    1    3    3  502    0 -0.44133264823E+03  0.71304678293E+03 -0.12169937431E+04  0.14779323367E+04  0.25500000920E-02 0. -1.
       -2    1    3    3    0  502  0.44133264823E+03 -0.71304678293E+03  0.15312175131E+04  0.17458056288E+04  0.25500000920E-02 0.  1.
</event>
<event>
 5   0  0.2097842E-06  0.2966228E+04  0.7818609E-02  0.8253441E-01
        1   -1    0    0  501    0  0.00000000000E+00  0.00000000000E+00  0.18466596271E+04  0.18466596271E+04  0.50400001928E-02 0.  1.
       -1   -1    0    0    0  501  0.00000000000E+00  0.00000000000E+00 -0.11911382081E+04  0.11911382081E+04  0.50400001928E-02 0. -1.
    10030    2    1    2    0    0  0.00000000000E+00  0.00000000000E+00  0.65552141902E+03  0.30377978352E+04  0.29662277992E+04 0.  0.
        4    1    3    3  502    0  0.14785468159E+04 -0.11629499065E+03  0.32763679656E+03  0.15188721786E+04  0.12699999809E+01 0. -1.
       -4    1    3    3    0  502 -0.14785468159E+04  0.11629499065E+03  0.32788462246E+03  0.15189256566E+04  0.12699999809E+01 0.  1.
</event>
<event>
 5   0  0.2097842E-06  0.3325730E+04  0.7818609E-02  0.8156379E-01
        1   -1    0    0  501    0  0.00000000000E+00  0.00000000000E+00  0.15661783923E+04  0.15661783923E+04  0.50400001928E-02 0. -1.
       -1   -1    0    0    0  501  0.00000000000E+00  0.00000000000E+00 -0.17655206308E+04  0.17655206308E+04  0.50400001928E-02 0.  1.
    10030    2    1    2    0    0  0.00000000000E+00  0.00000000000E+00 -0.19934223849E+03  0.33316990231E+04  0.33257301533E+04 0.  0.
        4    1    3    3  502    0  0.78284395926E+03 -0.99579162817E+03 -0.11789500472E+04  0.17304249357E+04  0.12699999809E+01 0.  1.
       -4    1    3    3    0  502 -0.78284395926E+03  0.99579162817E+03  0.97960780873E+03  0.16012740874E+04  0.12699999809E+01 0. -1.
</event>
<event>
 5   0  0.5300268E-06  0.2627723E+04  0.7818609E-02  0.8358845E-01
        2   -1    0    0  501    0  0.00000000000E+00  0.00000000000E+00  0.19385635805E+04  0.19385635805E+04  0.25500000920E-02 0.  1.
       -2   -1    0    0    0  501  0.00000000000E+00  0.00000000000E+00 -0.89046962503E+03  0.89046962503E+03  0.25500000920E-02 0. -1.
    10030    2    1    2    0    0  0.00000000000E+00  0.00000000000E+00  0.10480939554E+04  0.28290332055E+04  0.26277229569E+04 0.  0.
        4    1    3    3  502    0 -0.96408531228E+03 -0.79552440986E+01 -0.43691825682E+03  0.10585003313E+04  0.12699999809E+01 0. -1.
       -4    1    3    3    0  502  0.96408531228E+03  0.79552440986E+01  0.14850122123E+04  0.17705328742E+04  0.12699999809E+01 0.  1.
</event>
<event>
 5   0  0.2730981E-06  0.3309960E+04  0.7818609E-02  0.8160366E-01
        1   -1    0    0  501    0  0.00000000000E+00  0.00000000000E+00  0.19633385310E+04  0.19633385311E+04  0.50400001928E-02 0.  1.
       -1   -1    0    0    0  501  0.00000000000E+00  0.00000000000E+00 -0.13950517025E+04  0.13950517025E+04  0.50400001928E-02 0. -1.
    10030    2    1    2    0    0  0.00000000000E+00  0.00000000000E+00  0.56828682857E+03  0.33583902335E+04  0.33099599758E+04 0.  0.
        3    1    3    3  502    0  0.64624316407E+03 -0.82667040567E+03  0.15826914374E+04  0.18989276929E+04  0.10100000352E+00 0.  1.
       -3    1    3    3    0  502 -0.64624316407E+03  0.82667040567E+03 -0.10144046089E+04  0.14594625406E+04  0.10100000352E+00 0. -1.
</event>
<event>
 5   0  0.2037109E-06  0.3324117E+04  0.7818609E-02  0.8156786E-01
        1   -1    0    0  501    0  0.00000000000E+00  0.00000000000E+00  0.22794583597E+04  0.22794583597E+04  0.50400001928E-02 0. -1.
       -1   -1    0    0    0  501  0.00000000000E+00  0.00000000000E+00 -0.12118839868E+04  0.12118839868E+04  0.50400001928E-02 0.  1.
    10030    2    1    2    0    0  0.00000000000E+00  0.00000000000E+00  0.10675743729E+04  0.34913423465E+04  0.33241173774E+04 0.  0.
        2    1    3    3  502    0 -0.10617389572E+03 -0.63247897260E+02 -0.12070514952E+04  0.12133616546E+04  0.25500000920E-02 0.  1.
       -2    1    3    3    0  502  0.10617389572E+03  0.63247897260E+02  0.22746258681E+04  0.22779806919E+04  0.25500000920E-02 0. -1.
</event>
<event>
 5   0  0.5622811E-06  0.3368170E+04  0.7818609E-02  0.8145763E-01
       -2   -1    0    0    0  501  0.00000000000E+00  0.00000000000E+00  0.17002441023E+04  0.17002441023E+04  0.25500000920E-02 0. -1.
        2   -1    0    0  501    0  0.00000000000E+00  0.00000000000E+00 -0.16680794204E+04  0.16680794204E+04  0.25500000920E-02 0.  1.
    10030    2    1    2    0    0  0.00000000000E+00  0.00000000000E+00  0.32164681884E+02  0.33683235227E+04  0.33681699462E+04 0.  0.
        1    1    3    3  502    0 -0.12250021209E+04  0.50112941354E+02 -0.11385267948E+04  0.16731362065E+04  0.50400001928E-02 0.  1.
       -1    1    3    3    0  502  0.12250021209E+04 -0.50112941354E+02  0.11706914767E+04  0.16951873161E+04  0.50400001928E-02 0. -1.
</event>
<event>
 5   0  0.5855568E-06  0.3320734E+04  0.7818609E-02  0.8157640E-01
       -2   -1    0    0    0  501  0.00000000000E+00  0.00000000000E+00  0.18584255370E+04  0.18584255370E+04  0.25500000920E-02 0. -1.
        2   -1    0    0  501    0  0.00000000000E+00  0.00000000000E+00 -0.14834158643E+04  0.14834158644E+04  0.25500000920E-02 0.  1.
    10030    2    1    2    0    0  0.00000000000E+00  0.00000000000E+00  0.37500967265E+03  0.33418414014E+04  0.33207336083E+04 0.  0.
        3    1    3    3  502    0 -0.51472561041E+03 -0.55278736481E+03 -0.13005085315E+04  0.15039410811E+04  0.10100000352E+00 0.  1.
       -3    1    3    3    0  502  0.51472561041E+03  0.55278736481E+03  0.16755182041E+04  0.18379003203E+04  0.10100000352E+00 0. -1.
</event>
<event>
 5   0  0.5637538E-06  0.3188354E+04  0.7818609E-02  0.8191900E-01
       -2   -1    0    0    0  501  0.00000000000E+00  0.00000000000E+00  0.15508836693E+04  0.15508836693E+04  0.25500000920E-02 0.  1.
        2   -1    0    0  501    0  0.00000000000E+00  0.00000000000E+00 -0.16386784601E+04  0.16386784601E+04  0.25500000920E-02 0. -1.
    10030    2    1    2    0    0  0.00000000000E+00  0.00000000000E+00 -0.87794790797E+02  0.31895621293E+04  0.31883535958E+04 0.  0.
        2    1    3    3  502    0  0.12638948519E+04 -0.96844092465E+03 -0.12197594890E+03  0.15969302281E+04  0.25500000920E-02 0. -1.
       -2    1    3    3    0  502 -0.12638948519E+04  0.96844092465E+03  0.34181158100E+02  0.15926319012E+04  0.25500000920E-02 0.  1.
</event>
<event>
 5   0  0.1925906E-06  0.3229269E+04  0.7818609E-02  0.8181130E-01
        1   -1    0    0  501    0  0.00000000000E+00  0.00000000000E+00  0.29659881516E+04  0.29659881516E+04  0.50400001928E-02 0.  1.
       -1   -1    0    0    0  501  0.00000000000E+00  0.00000000000E+00 -0.87898027440E+03  0.87898027441E+03  0.50400001928E-02 0. -1.
    10030    2    1    2    0    0  0.00000000000E+00  0.00000000000E+00  0.20870078772E+04  0.38449684260E+04  0.32292693164E+04 0.  0.
        1    1    3    3  502    0  0.11689699670E+04 -0.10528476364E+04  0.14762013238E+04  0.21573477415E+04  0.50400001928E-02 0.  1.
       -1    1    3    3    0  502 -0.11689699670E+04  0.10528476364E+04  0.61080655345E+03  0.16876206846E+04  0.50400001928E-02 0. -1.
</event>
<event>
 5   0  0.5300268E-06  0.2543173E+04  0.7818609E-02  0.8387764E-01
        2   -1    0    0  501    0  0.00000000000E+00  0.00000000000E+00  0.21736736579E+04  0.21736736579E+04  0.25500000920E-02 0. -1.
       -2   -1    0    0    0  501  0.00000000000E+00  0.00000000000E+00 -0.74387060306E+03  0.74387060306E+03  0.25500000920E-02 0.  1.
    10030    2    1    2    0    0  0.00000000000E+00  0.00000000000E+00  0.14298030548E+04  0.29175442610E+04  0.25431727702E+04 0.  0.
        4    1    3    3  502    0  0.11848287455E+04  0.39170112097E+03  0.99516150352E+03  0.15961193424E+04  0.12699999809E+01 0. -1.
       -4    1    3    3    0  502 -0.11848287455E+04 -0.39170112097E+03  0.43464155132E+03  0.13214249185E+04  0.12699999809E+01 0.  1.
</event>
<event>
 5   0  0.2730981E-06  0.3346614E+04  0.7818609E-02  0.8151135E-01
        1   -1    0    0  501    0  0.00000000000E+00  0.00000000000E+00  0.21582944079E+04  0.21582944079E+04  0.50400001928E-02 0.  1.
       -1   -1    0    0    0  501  0.00000000000E+00  0.00000000000E+00 -0.12973007717E+04  0.12973007717E+04  0.50400001928E-02 0. -1.
    10030    2    1    2    0    0  0.00000000000E+00  0.00000000000E+00  0.86099363621E+03  0.34555951796E+04  0.33466144092E+04 0.  0.
        3    1    3    3  502    0  0.10133409085E+03 -0.14410364371E+03 -0.12876987149E+04  0.12996932133E+04  0.10100000352E+00 0. -1.
       -3    1    3    3    0  502 -0.10133409085E+03  0.14410364371E+03  0.21486923511E+04  0.21559019663E+04  0.10100000352E+00 0.  1.
</event>
<event>
 5   0  0.5855568E-06  0.3280438E+04  0.7818609E-02  0.8167891E-01
       -2   -1    0    0    0  501  0.00000000000E+00  0.00000000000E+00  0.19693304046E+04  0.19693304046E+04  0.25500000920E-02 0. -1.
        2   -1    0    0  501    0  0.00000000000E+00  0.00000000000E+00 -0.13661079891E+04  0.13661079891E+04  0.25500000920E-02 0.  1.
    10030    2    1    2    0    0  0.00000000000E+00  0.00000000000E+00  0.60322241556E+03  0.33354383937E+04  0.32804377750E+04 0.  0.
        3    1    3    3  502    0 -0.11444075810E+04 -0.89493145230E+03  0.10757883850E+04  0.18077310849E+04  0.10100000352E+00 0. -1.
       -3    1    3    3    0  502  0.11444075810E+04  0.89493145230E+03 -0.47256596941E+03  0.15277073088E+04  0.10100000352E+00 0.  1.
</event>
<event>
 5   0  0.5855568E-06  0.3271629E+04  0.7818609E-02  0.8170152E-01
       -2   -1    0    0    0  501  0.00000000000E+00  0.00000000000E+00  0.98457106798E+03  0.98457106798E+03  0.25500000920E-02 0.  1.
        2   -1    0    0  501    0  0.00000000000E+00  0.00000000000E+00 -0.27178226175E+04  0.27178226175E+04  0.25500000920E-02 0. -1.
    10030    2    1    2    0    0  0.00000000000E+00  0.00000000000E+00 -0.17332515495E+04  0.37023936855E+04  0.32716292682E+04 0.  0.
        3    1    3    3  502    0 -0.10891558775E+04  0.92047895629E+03 -0.17736179108E+04  0.22757993185E+04  0.10100000352E+00 0. -1.
       -3    1    3    3    0  502  0.10891558775E+04 -0.92047895629E+03  0.40366361321E+02  0.14265943669E+04  0.10100000352E+00 0.  1.
</event>
<event>
 5   0  0.2097842E-06  0.1724751E+04  0.7818609E-02  0.8747372E-01
       -1   -1    0    0    0  501  0.00000000000E+00  0.00000000000E+00  0.11958626577E+04  0.11958626577E+04  0.50400001928E-02 0. -1.
        1   -1    0    0  501    0  0.00000000000E+00  0.00000000000E+00 -0.62188711332E+03  0.62188711334E+03  0.50400001928E-02 0.  1.
    10030    2    1    2    0    0  0.00000000000E+00  0.00000000000E+00  0.57397554441E+03  0.18177497711E+04  0.17247510848E+04 0.  0.
        4    1    3    3  502    0 -0.60264933072E+02 -0.84267751565E+03  0.46938813667E+03  0.96646991328E+03  0.12699999809E+01 0. -1.
       -4    1    3    3    0  502  0.60264933072E+02  0.84267751565E+03  0.10458740775E+03  0.85127985780E+03  0.12699999809E+01 0.  1.
</event>
<event>
 5   0  0.1925906E-06  0.3331840E+04  0.7818609E-02  0.8154841E-01
        1   -1    0    0  501    0  0.00000000000E+00  0.00000000000E+00  0.16000892103E+04  0.16000892103E+04  0.50400001928E-02 0.  1.
       -1   -1    0    0    0  501  0.00000000000E+00  0.00000000000E+00 -0.17344590442E+04  0.17344590442E+04  0.50400001928E-02 0. -1.
    10030    2    1    2    0    0  0.00000000000E+00  0.00000000000E+00 -0.13436983393E+03  0.33345482545E+04  0.33318398535E+04 0.  0.
        1    1    3    3  502    0 -0.10415333539E+04 -0.96085312697E+03 -0.94383001952E+03  0.17025996490E+04  0.50400001928E-02 0. -1.
       -1    1    3    3    0  502  0.10415333539E+04  0.96085312697E+03  0.80946018559E+03  0.16319486055E+04  0.50400001928E-02 0.  1.
</event>
<event>
 5   0  0.5622811E-06  0.3299088E+04  0.7818609E-02  0.8163128E-01
        2   -1    0    0  501    0  0.00000000000E+00  0.00000000000E+00  0.22455208769E+04  0.22455208769E+04  0.25500000920E-02 0.  1.
       -2   -1    0    0    0  501  0.00000000000E+00  0.00000000000E+00 -0.12117433476E+04  0.12117433476E+04  0.25500000920E-02 0. -1.
    10030    2    1    2    0    0  0.00000000000E+00  0.00000000000E+00  0.10337775292E+04  0.34572642245E+04  0.32990877433E+04 0.  0.
        1    1    3    3  502    0  0.26123477197E+03 -0.11325416530E+04  0.17435226649E+04  0.20954153490E+04  0.50400001928E-02 0.  1.
       -1    1    3    3    0  502 -0.26123477197E+03  0.11325416530E+04 -0.70974513566E+03  0.13618488755E+04  0.50400001928E-02 0. -1.
</event>
<event>
 5   0  0.2097842E-06  0.3300784E+04  0.7818609E-02  0.8162696E-01
       -1   -1    0    0    0  501  0.00000000000E+00  0.00000000000E+00  0.11175318293E+04  0.11175318293E+04  0.50400001928E-02 0. -1.
        1   -1    0    0  501    0  0.00000000000E+00  0.00000000000E+00 -0.24373305523E+04  0.24373305523E+04  0.50400001928E-02 0.  1.
    10030    2    1    2    0    0  0.00000000000E+00  0.00000000000E+00 -0.13197987230E+04  0.35548623816E+04  0.33007844345E+04 0.  0.
        4    1    3    3  502    0  0.11732891675E+04  0.62623848862E+03 -0.17123694417E+04  0.21681773066E+04  0.12699999809E+01 0.  1.
       -4    1    3    3    0  502 -0.11732891675E+04 -0.62623848862E+03  0.39257071872E+03  0.13866850750E+04  0.12699999809E+01 0. -1.
</event>
<event>
 5   0  0.5755250E-06  0.3302095E+04  0.7818609E-02  0.8162363E-01
       -2   -1    0    0    0  501  0.00000000000E+00  0.00000000000E+00  0.14195402166E+04  0.14195402166E+04  0.25500000920E-02 0.  1.
        2   -1    0    0  501    0  0.00000000000E+00  0.00000000000E+00 -0.19203101984E+04  0.19203101984E+04  0.25500000920E-02 0. -1.
    10030    2    1    2    0    0  0.00000000000E+00  0.00000000000E+00 -0.50076998188E+03  0.33398504150E+04  0.33020948230E+04 0.  0.
        5    1    3    3  502    0  0.39127147641E+03 -0.13399036573E+04 -0.11422266490E+04  0.18036460259E+04  0.46999998093E+01 0.  1.
       -5    1    3    3    0  502 -0.39127147641E+03  0.13399036573E+04  0.64145666715E+03  0.15362043891E+04  0.46999998093E+01 0. -1.
</event>
<event>
 5   0  0.2037109E-06  0.2763009E+04  0.7818609E-02  0.8314845E-01
        1   -1    0    0  501    0  0.00000000000E+00  0.00000000000E+00  0.17854746448E+04  0.17854746448E+04  0.50400001928E-02 0. -1.
       -1   -1    0    0    0  501  0.00000000000E+00  0.00000000000E+00 -0.10689342453E+04  0.10689342453E+04  0.50400001928E-02 0.  1.
    10030    2    1    2    0    0  0.00000000000E+00  0.00000000000E+00  0.71654039955E+03  0.28544088901E+04  0.27630092233E+04 0.  0.
        2    1    3    3  502    0 -0.93935659330E+03  0.10116912554E+04  0.30513949591E+03  0.14138670792E+04  0.25500000920E-02 0.  1.
       -2    1    3    3    0  502  0.93935659330E+03 -0.10116912554E+04  0.41140090364E+03  0.14405418110E+04  0.25500000920E-02 0. -1.
</event>
<event>
 5   0  0.1999849E-06  0.3426215E+04  0.7818609E-02  0.8131502E-01
        1   -1    0    0  501    0  0.00000000000E+00  0.00000000000E+00  0.14676394291E+04  0.14676394291E+04  0.50400001928E-02 0.  1.
       -1   -1    0    0    0  501  0.00000000000E+00  0.00000000000E+00 -0.19996308880E+04  0.19996308880E+04  0.50400001928E-02 0. -1.
    10030    2    1    2    0    0  0.00000000000E+00  0.00000000000E+00 -0.53199145881E+03  0.34672703171E+04  0.34262148998E+04 0.  0.
        5    1    3    3  502    0 -0.12645849471E+04  0.99427678204E+03  0.33009013716E+03  0.16421762988E+04  0.46999998093E+01 0.  1.
       -5    1    3    3    0  502  0.12645849471E+04 -0.99427678204E+03 -0.86208159598E+03  0.18250940183E+04  0.46999998093E+01 0. -1.
</event>
<event>
 5   0  0.1925906E-06  0.3293738E+04  0.7818609E-02  0.8164491E-01
       -1   -1    0    0    0  501  0.00000000000E+00  0.00000000000E+00  0.14226799719E+04  0.14226799719E+04  0.50400001928E-02 0.  1.
        1   -1    0    0  501    0  0.00000000000E+00  0.00000000000E+00 -0.19063858819E+04  0.19063858819E+04  0.50400001928E-02 0. -1.
    10030    2    1    2    0    0  0.00000000000E+00  0.00000000000E+00 -0.48370590994E+03  0.33290658538E+04  0.32937377023E+04 0.  0.
        1    1    3    3  502    0  0.38700185510E+03 -0.38103716703E+03  0.13295632158E+04  0.14362096308E+04  0.50400001928E-02 0.  1.
       -1    1    3    3    0  502 -0.38700185510E+03  0.38103716703E+03 -0.18132691258E+04  0.18928562230E+04  0.50400001928E-02 0. -1.
</event>
<event>
 5   0  0.5755250E-06  0.3342922E+04  0.7818609E-02  0.8152059E-01
       -2   -1    0    0    0  501  0.00000000000E+00  0.00000000000E+00  0.13230711017E+04  0.13230711017E+04  0.25500000920E-02 0. -1.
        2   -1    0    0  501    0  0.00000000000E+00  0.00000000000E+00 -0.21115885451E+04  0.21115885451E+04  0.25500000920E-02 0.  1.
    10030    2    1    2    0    0  0.00000000000E+00  0.00000000000E+00 -0.78851744337E+03  0.34346596468E+04  0.33429219451E+04 0.  0.
        5    1    3    3  502    0 -0.80241541508E+03 -0.64941499301E+03 -0.17449251615E+04  0.20274112165E+04  0.46999998093E+01 0.  1.
       -5    1    3    3    0  502  0.80241541508E+03  0.64941499301E+03  0.95640771811E+03  0.14072484304E+04  0.46999998093E+01 0. -1.
</event>
<event>
 5   0  0.2037109E-06  0.1765323E+04  0.7818609E-02  0.8724961E-01
       -1   -1    0    0    0  501  0.00000000000E+00  0.00000000000E+00  0.75374164926E+03  0.75374164928E+03  0.50400001928E-02 0.  1.
        1   -1    0    0  501    0  0.00000000000E+00  0.00000000000E+00 -0.10336319978E+04  0.10336319978E+04  0.50400001928E-02 0. -1.
    10030    2    1    2    0    0  0.00000000000E+00  0.00000000000E+00 -0.27989034857E+03  0.17873736471E+04  0.17653231849E+04 0.  0.
        2    1    3    3  502    0 -0.73085494229E+03 -0.29975511518E+03  0.25878784266E+03  0.83124799143E+03  0.25500000920E-02 0.  1.
       -2    1    3    3    0  502  0.73085494229E+03  0.29975511518E+03 -0.53867819124E+03  0.95612565569E+03  0.25500000920E-02 0. -1.
</event>
<event>
 5   0  0.2730981E-06  0.2863287E+04  0.7818609E-02  0.8283885E-01
        1   -1    0    0  501    0  0.00000000000E+00  0.00000000000E+00  0.18997072663E+04  0.18997072663E+04  0.50400001928E-02 0. -1.
       -1   -1    0    0    0  501  0.00000000000E+00  0.00000000000E+00 -0.10789044205E+04  0.10789044205E+04  0.50400001928E-02 0.  1.
    10030    2    1    2    0    0  0.00000000000E+00  0.00000000000E+00  0.82080284574E+03  0.29786116868E+04  0.28632866202E+04 0.  0.
        3    1    3    3  502    0  0.30233877291E+03 -0.20302676279E+03 -0.10299125427E+04  0.10924048956E+04  0.10100000352E+00 0.  1.
       -3    1    3    3    0  502 -0.30233877291E+03  0.20302676279E+03  0.18507153885E+04  0.18862067912E+04  0.10100000352E+00 0. -1.
</event>
<event>
 5   0  0.5855568E-06  0.3309176E+04  0.7818609E-02  0.8160564E-01
        2   -1    0    0  501    0  0.00000000000E+00  0.00000000000E+00  0.15467013634E+04  0.15467013634E+04  0.25500000920E-02 0. -1.
       -2   -1    0    0    0  501  0.00000000000E+00  0.00000000000E+00 -0.17700002402E+04  0.17700002402E+04  0.25500000920E-02 0.  1.
    10030    2    1    2    0    0  0.00000000000E+00  0.00000000000E+00 -0.22329887686E+03  0.33167016036E+04  0.33091762025E+04 0.  0.
        3    1    3    3  502    0 -0.15059771428E+04 -0.67713638725E+03 -0.56690446059E+01  0.16512156097E+04  0.10100000352E+00 0. -1.
       -3    1    3    3    0  502  0.15059771428E+04  0.67713638725E+03 -0.21762983226E+03  0.16654859938E+04  0.10100000352E+00 0.  1.
</event>
<event>
 5   0  0.5755250E-06  0.2129440E+04  0.7818609E-02  0.8548384E-01
       -2   -1    0    0    0  501  0.00000000000E+00  0.00000000000E+00  0.44870856994E+03  0.44870856995E+03  0.25500000920E-02 0. -1.
        2   -1    0    0  501    0  0.00000000000E+00  0.00000000000E+00 -0.25264264357E+04  0.25264264357E+04  0.25500000920E-02 0.  1.
    10030    2    1    2    0    0  0.00000000000E+00  0.00000000000E+00 -0.20777178658E+04  0.29751350057E+04  0.21294404834E+04 0.  0.
        5    1    3    3  502    0 -0.42677691449E+03  0.30059836729E+03 -0.23353522535E+04  0.23929877039E+04  0.46999998093E+01 0.  1.
       -5    1    3    3    0  502  0.42677691449E+03 -0.30059836729E+03  0.25763438775E+03  0.58214730172E+03  0.46999998093E+01 0. -1.
</event>
<event>
 5   0  0.5622811E-06  0.1658244E+04  0.7818609E-02  0.8785544E-01
        2   -1    0    0  501    0  0.00000000000E+00  0.00000000000E+00  0.16650121358E+04  0.16650121358E+04  0.25500000920E-02 0.  1.
       -2   -1    0    0    0  501  0.00000000000E+00  0.00000000000E+00 -0.41287584975E+03  0.41287584976E+03  0.25500000920E-02 0. -1.
    10030    2    1    2    0    0  0.00000000000E+00  0.00000000000E+00  0.12521362860E+04  0.20778879856E+04  0.16582440115E+04 0.  0.
        1    1    3    3  502    0 -0.41147559892E+02 -0.79526733633E+03  0.91536084112E+03  0.12132719099E+04  0.50400001928E-02 0.  1.
       -1    1    3    3    0  502  0.41147559892E+02  0.79526733633E+03  0.33677544493E+03  0.86461607564E+03  0.50400001928E-02 0. -1.
</event>
<event>
 5   0  0.2097842E-06  0.1698473E+04  0.7818609E-02  0.8762236E-01
        1   -1    0    0  501    0  0.00000000000E+00  0.00000000000E+00  0.17523236011E+04  0.17523236011E+04  0.50400001928E-02 0.  1.
       -1   -1    0    0    0  501  0.00000000000E+00  0.00000000000E+00 -0.41156918553E+03  0.41156918556E+03  0.50400001928E-02 0. -1.
    10030    2    1    2    0    0  0.00000000000E+00  0.00000000000E+00  0.13407544156E+04  0.21638927867E+04  0.16984727226E+04 0.  0.
        4    1    3    3  502    0 -0.43225079424E+02 -0.38834568772E+03  0.16309936985E+04  0.16771472321E+04  0.12699999809E+01 0.  1.
       -4    1    3    3    0  502  0.43225079424E+02  0.38834568772E+03 -0.29023928291E+03  0.48674555459E+03  0.12699999809E+01 0. -1.
</event>
<event>
 5   0  0.1999849E-06  0.3205563E+04  0.7818609E-02  0.8187350E-01
       -1   -1    0    0    0  501  0.00000000000E+00  0.00000000000E+00  0.21457070068E+04  0.21457070068E+04  0.50400001928E-02 0.  1.
        1   -1    0    0  501    0  0.00000000000E+00  0.00000000000E+00 -0.11972314628E+04  0.11972314628E+04  0.50400001928E-02 0. -1.
    10030    2    1    2    0    0  0.00000000000E+00  0.00000000000E+00  0.94847554398E+03  0.33429384696E+04  0.32055626268E+04 0.  0.
        5    1    3    3  502    0  0.15028850436E+04 -0.50475972604E+03  0.71978542044E+03  0.17411372654E+04  0.46999998093E+01 0.  1.
       -5    1    3    3    0  502 -0.15028850436E+04  0.50475972604E+03  0.22869012354E+03  0.16018012043E+04  0.46999998093E+01 0. -1.
</event>
<event>
 5   0  0.1925906E-06  0.2111298E+04  0.7818609E-02  0.8556283E-01
        1   -1    0    0  501    0  0.00000000000E+00  0.00000000000E+00  0.85842945989E+03  0.85842945990E+03  0.50400001928E-02 0. -1.
       -1   -1    0    0    0  501  0.00000000000E+00  0.00000000000E+00 -0.12981781609E+04  0.12981781609E+04  0.50400001928E-02 0.  1.
    10030    2    1    2    0    0  0.00000000000E+00  0.00000000000E+00 -0.43974870104E+03  0.21566076208E+04  0.21112975892E+04 0.  0.
        1    1    3    3  502    0 -0.41153461633E+03 -0.34706828770E+03  0.70767570459E+03  0.88916929752E+03  0.50400001928E-02 0. -1.
       -1    1    3    3    0  502  0.41153461633E+03  0.34706828770E+03 -0.11474244056E+04  0.12674383233E+04  0.50400001928E-02 0.  1.
</event>
<event>
 5   0  0.5637538E-06  0.2733483E+04  0.7818609E-02  0.8324222E-01
       -2   -1    0    0    0  501  0.00000000000E+00  0.00000000000E+00  0.10666346162E+04  0.10666346162E+04  0.25500000920E-02 0.  1.
        2   -1    0    0  501    0  0.00000000000E+00  0.00000000000E+00 -0.17512864288E+04  0.17512864288E+04  0.25500000920E-02 0. -1.
    10030    2    1    2    0    0  0.00000000000E+00  0.00000000000E+00 -0.68465181266E+03  0.28179210450E+04  0.27334832926E+04 0.  0.
        2    1    3    3  502    0 -0.11449315944E+04  0.48069363953E+02  0.42553414618E+03  0.12223985967E+04  0.25500000920E-02 0.  1.
       -2    1    3    3    0  502  0.11449315944E+04 -0.48069363953E+02 -0.11101859588E+04  0.15955224483E+04  0.25500000920E-02 0. -1.
</event>
<event>
 5   0  0.1925906E-06  0.2346976E+04  0.7818609E-02  0.8459626E-01
        1   -1    0    0  501    0  0.00000000000E+00  0.00000000000E+00  0.15353438784E+04  0.15353438784E+04  0.50400001928E-02 0. -1.
       -1   -1    0    0    0  501  0.00000000000E+00  0.00000000000E+00 -0.89691562308E+03  0.89691562309E+03  0.50400001928E-02 0.  1.
    10030    2    1    2    0    0  0.00000000000E+00  0.00000000000E+00  0.63842825528E+03  0.24322595015E+04  0.23469758510E+04 0.  0.
        1    1    3    3  502    0  0.24497470732E+02  0.64290076131E+03 -0.69785106689E+03  0.94916680650E+03  0.50400001928E-02 0.  1.
       -1    1    3    3    0  502 -0.24497470732E+02 -0.64290076131E+03  0.13362793222E+04  0.14830926950E+04  0.50400001928E-02 0. -1.
</event>
<event>
 5   0  0.2037109E-06  0.3032930E+04  0.7818609E-02  0.8234390E-01
       -1   -1    0    0    0  501  0.00000000000E+00  0.00000000000E+00  0.95002804169E+03  0.95002804170E+03  0.50400001928E-02 0. -1.
        1   -1    0    0  501    0  0.00000000000E+00  0.00000000000E+00 -0.24206293516E+04  0.24206293517E+04  0.50400001928E-02 0.  1.
    10030    2    1    2    0    0  0.00000000000E+00  0.00000000000E+00 -0.14706013100E+04  0.33706573934E+04  0.30329297800E+04 0.  0.
        2    1    3    3  502    0  0.33753125463E+03 -0.31319066151E+03  0.87046107586E+03  0.98474271914E+03  0.25500000920E-02 0. -1.
       -2    1    3    3    0  502 -0.33753125463E+03  0.31319066151E+03 -0.23410623858E+04  0.23859146742E+04  0.25500000920E-02 0.  1.
</event>
<event>
 5   0  0.2097842E-06  0.3190223E+04  0.7818609E-02  0.8191404E-01
       -1   -1    0    0    0  501  0.00000000000E+00  0.00000000000E+00  0.13674806278E+04  0.13674806279E+04  0.50400001928E-02 0.  1.
        1   -1    0    0  501    0  0.00000000000E+00  0.00000000000E+00 -0.18606343125E+04  0.18606343126E+04  0.50400001928E-02 0. -1.
    10030    2    1    2    0    0  0.00000000000E+00  0.00000000000E+00 -0.49315368470E+03  0.32281149404E+04  0.31902234266E+04 0.  0.
        4    1    3    3  502    0  0.10412890667E+03  0.15483902971E+04 -0.61977228982E+03  0.16710699104E+04  0.12699999809E+01 0. -1.
       -4    1    3    3    0  502 -0.10412890667E+03 -0.15483902971E+04  0.12661860512E+03  0.15570450300E+04  0.12699999809E+01 0.  1.
</event>
<event>
 5   0  0.5622811E-06  0.3231801E+04  0.7818609E-02  0.8180469E-01
       -2   -1    0    0    0  501  0.00000000000E+00  0.00000000000E+00  0.12844399313E+04  0.12844399313E+04  0.25500000920E-02 0.  1.
        2   -1    0    0  501    0  0.00000000000E+00  0.00000000000E+00 -0.20328973162E+04  0.20328973162E+04  0.25500000920E-02 0. -1.
    10030    2    1    2    0    0  0.00000000000E+00  0.00000000000E+00 -0.74845738482E+03  0.33173372475E+04  0.32318010392E+04 0.  0.
        1    1    3    3  502    0  0.10078981509E+04  0.11579450569E+04 -0.89199870366E+03  0.17754878555E+04  0.50400001928E-02 0. -1.
       -1    1    3    3    0  502 -0.10078981509E+04 -0.11579450569E+04  0.14354131884E+03  0.15418493920E+04  0.50400001928E-02 0.  1.
</event>
<event>
 5   0  0.5855568E-06  0.3236746E+04  0.7818609E-02  0.8179180E-01
        2   -1    0    0  501    0  0.00000000000E+00  0.00000000000E+00  0.30653915588E+04  0.30653915588E+04  0.25500000920E-02 0. -1.
       -2   -1    0    0    0  501  0.00000000000E+00  0.00000000000E+00 -0.85441952700E+03  0.85441952701E+03  0.25500000920E-02 0.  1.
    10030    2    1    2    0    0  0.00000000000E+00  0.00000000000E+00  0.22109720318E+04  0.39198110858E+04  0.32367455296E+04 0.  0.
        3    1    3    3  502    0 -0.61221580102E+03 -0.37643707577E+03  0.28615353004E+04  0.29504063016E+04  0.10100000352E+00 0. -1.
       -3    1    3    3    0  502  0.61221580102E+03  0.37643707577E+03 -0.65056326858E+03  0.96940478421E+03  0.10100000352E+00 0.  1.
</event>
<event>
 5   0  0.2037109E-06  0.2316354E+04  0.7818609E-02  0.8471501E-01
        1   -1    0    0  501    0  0.00000000000E+00  0.00000000000E+00  0.12665626093E+04  0.12665626094E+04  0.50400001928E-02 0.  1.
       -1   -1    0    0    0  501  0.00000000000E+00  0.00000000000E+00 -0.10590665306E+04  0.10590665306E+04  0.50400001928E-02 0. -1.
    10030    2    1    2    0    0  0.00000000000E+00  0.00000000000E+00  0.20749607875E+03  0.23256291400E+04  0.23163540908E+04 0.  0.
        2    1    3    3  502    0  0.27423322594E+03 -0.29305080905E+03  0.11945103882E+04  0.12601340034E+04  0.25500000920E-02 0.  1.
       -2    1    3    3    0  502 -0.27423322594E+03  0.29305080905E+03 -0.98701430949E+03  0.10654951366E+04  0.25500000920E-02 0. -1.
</event>
<event>
 5   0  0.1999849E-06  0.3324984E+04  0.7818609E-02  0.8156567E-01
       -1   -1    0    0    0  501  0.00000000000E+00  0.00000000000E+00  0.13084380482E+04  0.13084380482E+04  0.50400001928E-02 0.  1.
        1   -1    0    0  501    0  0.00000000000E+00  0.00000000000E+00 -0.21123507627E+04  0.21123507627E+04  0.50400001928E-02 0. -1.
    10030    2    1    2    0    0  0.00000000000E+00  0.00000000000E+00 -0.80391271450E+03  0.34207888108E+04  0.33249842760E+04 0.  0.
        5    1    3    3  502    0  0.11882537929E+04 -0.58262523297E+03 -0.14371589300E+04  0.19536752849E+04  0.46999998093E+01 0. -1.
       -5    1    3    3    0  502 -0.11882537929E+04  0.58262523297E+03  0.63324621554E+03  0.14671135260E+04  0.46999998093E+01 0.  1.
</event>
<event>
 5   0  0.5755250E-06  0.2656002E+04  0.7818609E-02  0.8349424E-01
        2   -1    0    0  501    0  0.00000000000E+00  0.00000000000E+00  0.21586425535E+04  0.21586425535E+04  0.25500000920E-02 0.  1.
       -2   -1    0    0    0  501  0.00000000000E+00  0.00000000000E+00 -0.81698879369E+03  0.81698879370E+03  0.25500000920E-02 0. -1.
    10030    2    1    2    0    0  0.00000000000E+00  0.00000000000E+00  0.13416537598E+04  0.29756313472E+04  0.26560020902E+04 0.  0.
        5    1    3    3  502    0 -0.67386987757E+03 -0.85286081857E+03  0.15255918464E+04  0.18732124171E+04  0.46999998093E+01 0.  1.
       -5    1    3    3    0  502  0.67386987757E+03  0.85286081857E+03 -0.18393808660E+03  0.11024189301E+04  0.46999998093E+01 0. -1.
</event>
<event>
 5   0  0.5622811E-06  0.3713958E+04  0.7818609E-02  0.8064876E-01
       -2   -1    0    0    0  501  0.00000000000E+00  0.00000000000E+00  0.15068477421E+04  0.15068477421E+04  0.25500000920E-02 0. -1.
        2   -1    0    0  501    0  0.00000000000E+00  0.00000000000E+00 -0.22884670201E+04  0.22884670201E+04  0.25500000920E-02 0.  1.
    10030    2    1    2    0    0  0.00000000000E+00  0.00000000000E+00 -0.78161927799E+03  0.37953147621E+04  0.37139581915E+04 0.  0.
        1    1    3    3  502    0 -0.67782950329E+02 -0.79206779896E+03 -0.21057869394E+04  0.22508452992E+04  0.50400001928E-02 0.  1.
       -1    1    3    3    0  502  0.67782950329E+02  0.79206779896E+03  0.13241676614E+04  0.15444694630E+04  0.50400001928E-02 0. -1.
</event>
<event>
 5   0  0.1878000E-06  0.3266002E+04  0.7818609E-02  0.8171600E-01
        3   -1    0    0  501    0  0.00000000000E+00  0.00000000000E+00  0.14998349739E+04  0.14998349773E+04  0.10100000352E+00 0.  1.
       -3   -1    0    0    0  501  0.00000000000E+00  0.00000000000E+00 -0.17779904304E+04  0.17779904332E+04  0.10100000352E+00 0. -1.
    10030    2    1    2    0    0  0.00000000000E+00  0.00000000000E+00 -0.27815545643E+03  0.32778254106E+04  0.32660019847E+04 0.  0.
        4    1    3    3  502    0 -0.10112413071E+04  0.28858613422E+03  0.11147646908E+04  0.15325119467E+04  0.12699999809E+01 0.  1.
       -4    1    3    3    0  502  0.10112413071E+04 -0.28858613422E+03 -0.13929201472E+04  0.17453134639E+04  0.12699999809E+01 0. -1.
</event>
<event>
 5   0  0.2097842E-06  0.2046233E+04  0.7818609E-02  0.8585305E-01
       -1   -1    0    0    0  501  0.00000000000E+00  0.00000000000E+00  0.66674650101E+03  0.66674650103E+03  0.50400001928E-02 0. -1.
        1   -1    0    0  501    0  0.00000000000E+00  0.00000000000E+00 -0.15699628383E+04  0.15699628383E+04  0.50400001928E-02 0.  1.
    10030    2    1    2    0    0  0.00000000000E+00  0.00000000000E+00 -0.90321633730E+03  0.22367093393E+04  0.20462328599E+04 0.  0.
        4    1    3    3  502    0 -0.72434720479E+03 -0.28243071667E+03 -0.11785884063E+04  0.14119200498E+04  0.12699999809E+01 0.  1.
       -4    1    3    3    0  502  0.72434720479E+03  0.28243071667E+03  0.27537206898E+03  0.82478928951E+03  0.12699999809E+01 0. -1.
</event>
<event>
 5   0  0.5300268E-06  0.3273846E+04  0.7818609E-02  0.8169582E-01
       -2   -1    0    0    0  501  0.00000000000E+00  0.00000000000E+00  0.12179550723E+04  0.12179550723E+04  0.25500000920E-02 0.  1.
        2   -1    0    0  501    0  0.00000000000E+00  0.00000000000E+00 -0.22000134853E+04  0.22000134853E+04  0.25500000920E-02 0. -1.
    10030    2    1    2    0    0  0.00000000000E+00  0.00000000000E+00 -0.98205841304E+03  0.34179685576E+04  0.32738464128E+04 0.  0.
        4    1    3    3  502    0  0.92986288339E+03 -0.11911576062E+02 -0.18974512479E+04  0.21130806228E+04  0.12699999809E+01 0. -1.
       -4    1    3    3    0  502 -0.92986288339E+03  0.11911576062E+02  0.91539283481E+03  0.13048879348E+04  0.12699999809E+01 0.  1.
</event>
<event>
 5   0  0.5622811E-06  0.2277593E+04  0.7818609E-02  0.8486809E-01
       -2   -1    0    0    0  501  0.00000000000E+00  0.00000000000E+00  0.17632039471E+04  0.17632039471E+04  0.25500000920E-02 0. -1.
        2   -1    0    0  501    0  0.00000000000E+00  0.00000000000E+00 -0.73551183939E+03  0.73551183940E+03  0.25500000920E-02 0.  1.
    10030    2    1    2    0    0  0.00000000000E+00  0.00000000000E+00  0.10276921077E+04  0.24987157865E+04  0.22775929209E+04 0.  0.
        1    1    3    3  502    0  0.10855142190E+04  0.32101879644E+03  0.65026990893E+03  0.13054674035E+04  0.50400001928E-02 0. -1.
       -1    1    3    3    0  502 -0.10855142190E+04 -0.32101879644E+03  0.37742219877E+03  0.11932483829E+04  0.50400001928E-02 0.  1.
</event>
<event>
 5   0  0.5755250E-06  0.3223467E+04  0.7818609E-02  0.8182647E-01
        2   -1    0    0  501    0  0.00000000000E+00  0.00000000000E+00  0.16978560791E+04  0.16978560791E+04  0.25500000920E-02 0.  1.
       -2   -1    0    0    0  501  0.00000000000E+00  0.00000000000E+00 -0.15299794348E+04  0.15299794348E+04  0.25500000920E-02 0. -1.
    10030    2    1    2    0    0  0.00000000000E+00  0.00000000000E+00  0.16787664431E+03  0.32278355139E+04  0.32234670057E+04 0.  0.
        5    1    3    3  502    0 -0.14857541402E+04 -0.62300287372E+03  0.38436135377E+02  0.16115512316E+04  0.46999998093E+01 0.  1.
       -5    1    3    3    0  502  0.14857541402E+04  0.62300287372E+03  0.12944050894E+03  0.16162842823E+04  0.46999998093E+01 0. -1.
</event>
<event>
 5   0  0.5755250E-06  0.3565547E+04  0.7818609E-02  0.8098429E-01
        2   -1    0    0  501    0  0.00000000000E+00  0.00000000000E+00  0.25235346303E+04  0.25235346303E+04  0.25500000920E-02 0.  1.
       -2   -1    0    0    0  501  0.00000000000E+00  0.00000000000E+00 -0.12594561334E+04  0.12594561334E+04  0.25500000920E-02 0. -1.
    10030    2    1    2    0    0  0.00000000000E+00  0.00000000000E+00  0.12640784970E+04  0.37829907637E+04  0.35655468966E+04 0.  0.
        5    1    3    3  502    0 -0.92295010786E+03 -0.10378020789E+04  0.18179662865E+04  0.22877704355E+04  0.46999998093E+01 0.  1.
       -5    1    3    3    0  502  0.92295010786E+03  0.10378020789E+04 -0.55388778958E+03  0.14952203282E+04  0.46999998093E+01 0. -1.
</event>
<event>
 5   0  0.5755250E-06  0.3354218E+04  0.7818609E-02  0.8149235E-01
        2   -1    0    0  501    0  0.00000000000E+00  0.00000000000E+00  0.80456938137E+03  0.80456938137E+03  0.25500000920E-02 0. -1.
       -2   -1    0    0    0  501  0.00000000000E+00  0.00000000000E+00 -0.34958998654E+04  0.34958998654E+04  0.25500000920E-02 0.  1.
    10030    2    1    2    0    0  0.00000000000E+00  0.00000000000E+00 -0.26913304840E+04  0.43004692468E+04  0.33542176388E+04 0.  0.
        5    1    3    3  502    0 -0.17923481024E+03  0.54129637108E+03  0.67646946323E+03  0.88473719444E+03  0.46999998093E+01 0. -1.
       -5    1    3    3    0  502  0.17923481024E+03 -0.54129637108E+03 -0.33677999473E+04  0.34157320523E+04  0.46999998093E+01 0.  1.
</event>
<event>
 5   0  0.1999849E-06  0.1661210E+04  0.7818609E-02  0.8783802E-01
       -1   -1    0    0    0  501  0.00000000000E+00  0.00000000000E+00  0.85771577633E+03  0.85771577635E+03  0.50400001928E-02 0. -1.
        1   -1    0    0  501    0  0.00000000000E+00  0.00000000000E+00 -0.80435128788E+03  0.80435128790E+03  0.50400001928E-02 0.  1.
    10030    2    1    2    0    0  0.00000000000E+00  0.00000000000E+00  0.53364488451E+02  0.16620670642E+04  0.16612101485E+04 0.  0.
        5    1    3    3  502    0 -0.19036650827E+03 -0.34934736633E+03 -0.70280270416E+03  0.80761173890E+03  0.46999998093E+01 0.  1.
       -5    1    3    3    0  502  0.19036650827E+03  0.34934736633E+03  0.75616719261E+03  0.85445532534E+03  0.46999998093E+01 0. -1.
</event>
<event>
 5   0  0.5622811E-06  0.3247765E+04  0.7818609E-02  0.8176315E-01
       -2   -1    0    0    0  501  0.00000000000E+00  0.00000000000E+00  0.17947722106E+04  0.17947722106E+04  0.25500000920E-02 0.  1.
        2   -1    0    0  501    0  0.00000000000E+00  0.00000000000E+00 -0.14692638880E+04  0.14692638880E+04  0.25500000920E-02 0. -1.
    10030    2    1    2    0    0  0.00000000000E+00  0.00000000000E+00  0.32550832265E+03  0.32640360986E+04  0.32477647675E+04 0.  0.
        1    1    3    3  502    0  0.11410804727E+04 -0.65518621364E+02  0.13220656226E+04  0.17476312097E+04  0.50400001928E-02 0.  1.
       -1    1    3    3    0  502 -0.11410804727E+04  0.65518621364E+02 -0.99655729991E+03  0.15164048888E+04  0.50400001928E-02 0. -1.
</event>
<event>
 5   0  0.2037109E-06  0.3199834E+04  0.7818609E-02  0.8188861E-01
        1   -1    0    0  501    0  0.00000000000E+00  0.00000000000E+00  0.17269949483E+04  0.17269949483E+04  0.50400001928E-02 0. -1.
       -1   -1    0    0    0  501  0.00000000000E+00  0.00000000000E+00 -0.14821897046E+04  0.14821897046E+04  0.50400001928E-02 0.  1.
    10030    2    1    2    0    0  0.00000000000E+00  0.00000000000E+00  0.24480524372E+03  0.32091846530E+04  0.31998338284E+04 0.  0.
        2    1    3    3  502    0 -0.28543437514E+03  0.13216886786E+04 -0.73531606892E+03  0.15391632360E+04  0.25500000920E-02 0.  1.
       -2    1    3    3    0  502  0.28543437514E+03 -0.13216886786E+04  0.98012131264E+03  0.16700214170E+04  0.25500000920E-02 0. -1.
</event>
<event>
 5   0  0.2037109E-06  0.3282441E+04  0.7818609E-02  0.8167378E-01
       -1   -1    0    0    0  501  0.00000000000E+00  0.00000000000E+00  0.23324906182E+04  0.23324906182E+04  0.50400001928E-02 0.  1.
        1   -1    0    0  501    0  0.00000000000E+00  0.00000000000E+00 -0.11548189907E+04  0.11548189908E+04  0.50400001928E-02 0. -1.
    10030    2    1    2    0    0  0.00000000000E+00  0.00000000000E+00  0.11776716275E+04  0.34873096090E+04  0.32824408367E+04 0.  0.
        2    1    3    3  502    0  0.28710955386E+03  0.94573663831E+03 -0.80319141908E+03  0.12735643449E+04  0.25500000920E-02 0. -1.
       -2    1    3    3    0  502 -0.28710955386E+03 -0.94573663831E+03  0.19808630465E+04  0.22137452641E+04  0.25500000920E-02 0.  1.
</event>
<event>
 5   0  0.2730981E-06  0.3409169E+04  0.7818609E-02  0.8135660E-01
        1   -1    0    0  501    0  0.00000000000E+00  0.00000000000E+00  0.26312560512E+04  0.26312560512E+04  0.50400001928E-02 0. -1.
       -1   -1    0    0    0  501  0.00000000000E+00  0.00000000000E+00 -0.11042664115E+04  0.11042664116E+04  0.50400001928E-02 0.  1.
    10030    2    1    2    0    0  0.00000000000E+00  0.00000000000E+00  0.15269896397E+04  0.37355224628E+04  0.34091686245E+04 0.  0.
        3    1    3    3  502    0  0.14987489146E+03 -0.15325882787E+04 -0.37450586608E+02  0.15403544631E+04  0.10100000352E+00 0.  1.
       -3    1    3    3    0  502 -0.14987489146E+03  0.15325882787E+04  0.15644402263E+04  0.21951679997E+04  0.10100000352E+00 0. -1.
</event>
<event>
 5   0  0.5622811E-06  0.3305505E+04  0.7818609E-02  0.8161496E-01
       -2   -1    0    0    0  501  0.00000000000E+00  0.00000000000E+00  0.16090216595E+04  0.16090216595E+04  0.25500000920E-02 0. -1.
        2   -1    0    0  501    0  0.00000000000E+00  0.00000000000E+00 -0.16976714657E+04  0.16976714657E+04  0.25500000920E-02 0.  1.
    10030    2    1    2    0    0  0.00000000000E+00  0.00000000000E+00 -0.88649806156E+02  0.33066931252E+04  0.33055045963E+04 0.  0.
        1    1    3    3  502    0 -0.96585979892E+03  0.10429193847E+04  0.79920077474E+03  0.16307323117E+04  0.50400001928E-02 0. -1.
       -1    1    3    3    0  502  0.96585979892E+03 -0.10429193847E+04 -0.88785058090E+03  0.16759608134E+04  0.50400001928E-02 0.  1.
</event>
<event>
 5   0  0.2097842E-06  0.2374462E+04  0.7818609E-02  0.8449127E-01
       -1   -1    0    0    0  501  0.00000000000E+00  0.00000000000E+00  0.11798904064E+04  0.11798904065E+04  0.50400001928E-02 0. -1.
        1   -1    0    0  501    0  0.00000000000E+00  0.00000000000E+00 -0.11946172023E+04  0.11946172024E+04  0.50400001928E-02 0.  1.
    10030    2    1    2    0    0  0.00000000000E+00  0.00000000000E+00 -0.14726795901E+02  0.23745076088E+04  0.23744619403E+04 0.  0.
        4    1    3    3  502    0  0.99815896479E+03 -0.56471512589E+03 -0.31443814165E+03  0.11891582949E+04  0.12699999809E+01 0.  1.
       -4    1    3    3    0  502 -0.99815896479E+03  0.56471512589E+03  0.29971134575E+03  0.11853493139E+04  0.12699999809E+01 0. -1.
</event>
<event>
 5   0  0.2097842E-06  0.3414683E+04  0.7818609E-02  0.8134312E-01
       -1   -1    0    0    0  501  0.00000000000E+00  0.00000000000E+00  0.15401308289E+04  0.15401308289E+04  0.50400001928E-02 0. -1.
        1   -1    0    0  501    0  0.00000000000E+00  0.00000000000E+00 -0.18927062951E+04  0.18927062951E+04  0.50400001928E-02 0.  1.
    10030    2    1    2    0    0  0.00000000000E+00  0.00000000000E+00 -0.35257546623E+03  0.34328371240E+04  0.34146831859E+04 0.  0.
        4    1    3    3  502    0  0.24440609550E+03  0.34855549034E+03  0.14859197491E+04  0.15456986715E+04  0.12699999809E+01 0. -1.
       -4    1    3    3    0  502 -0.24440609550E+03 -0.34855549034E+03 -0.18384952153E+04  0.18871384525E+04  0.12699999809E+01 0.  1.
</event>
<event>
 5   0  0.1999849E-06  0.3209369E+04  0.7818609E-02  0.8186347E-01
        1   -1    0    0  501    0  0.00000000000E+00  0.00000000000E+00  0.17178646012E+04  0.17178646012E+04  0.50400001928E-02 0.  1.
       -1   -1    0    0    0  501  0.00000000000E+00  0.00000000000E+00 -0.14989609634E+04  0.14989609634E+04  0.50400001928E-02 0. -1.
    10030    2    1    2    0    0  0.00000000000E+00  0.00000000000E+00  0.21890363784E+03  0.32168255646E+04  0.32093687713E+04 0.  0.
        5    1    3    3  502    0  0.11858333696E+04  0.32859816027E+03 -0.92289868466E+03  0.15381617612E+04  0.46999998093E+01 0. -1.
       -5    1    3    3    0  502 -0.11858333696E+04 -0.32859816027E+03  0.11418023225E+04  0.16786638035E+04  0.46999998093E+01 0.  1.
</event>
<event>
 5   0  0.5637538E-06  0.3262080E+04  0.7818609E-02  0.8172612E-01
       -2   -1    0    0    0  501  0.00000000000E+00  0.00000000000E+00  0.16429376465E+04  0.16429376465E+04  0.25500000920E-02 0. -1.
        2   -1    0    0  501    0  0.00000000000E+00  0.00000000000E+00 -0.16192286647E+04  0.16192286647E+04  0.25500000920E-02 0.  1.
    10030    2    1    2    0    0  0.00000000000E+00  0.00000000000E+00  0.23708981811E+02  0.32621663112E+04  0.32620801532E+04 0.  0.
        2    1    3    3  502    0  0.38311625149E+03  0.14559461128E+04  0.63935380153E+03  0.16356437354E+04  0.25500000920E-02 0. -1.
       -2    1    3    3    0  502 -0.38311625149E+03 -0.14559461128E+04 -0.61564481972E+03  0.16265225758E+04  0.25500000920E-02 0.  1.
</event>
<event>
 5   0  0.5300268E-06  0.3308949E+04  0.7818609E-02  0.8160622E-01
       -2   -1    0    0    0  501  0.00000000000E+00  0.00000000000E+00  0.12410114173E+04  0.12410114173E+04  0.25500000920E-02 0. -1.
        2   -1    0    0  501    0  0.00000000000E+00  0.00000000000E+00 -0.22056889673E+04  0.22056889673E+04  0.25500000920E-02 0.  1.
    10030    2    1    2    0    0  0.00000000000E+00  0.00000000000E+00 -0.96467754998E+03  0.34467003845E+04  0.33089485891E+04 0.  0.
        4    1    3    3  502    0  0.12989684127E+04  0.68851275282E+03  0.30814442445E+03  0.15021063036E+04  0.12699999809E+01 0. -1.
       -4    1    3    3    0  502 -0.12989684127E+04 -0.68851275282E+03 -0.12728219744E+04  0.19445940809E+04  0.12699999809E+01 0.  1.
</event>
<event>
 5   0  0.5755250E-06  0.3363065E+04  0.7818609E-02  0.8147031E-01
        2   -1    0    0  501    0  0.00000000000E+00  0.00000000000E+00  0.23542963408E+04  0.23542963408E+04  0.25500000920E-02 0. -1.
       -2   -1    0    0    0  501  0.00000000000E+00  0.00000000000E+00 -0.12010174949E+04  0.12010174949E+04  0.25500000920E-02 0.  1.
    10030    2    1    2    0    0  0.00000000000E+00  0.00000000000E+00  0.11532788459E+04  0.35553138357E+04  0.33630647294E+04 0.  0.
        5    1    3    3  502    0 -0.12663350278E+04 -0.70674583251E+03 -0.32315315718E+03  0.14857806458E+04  0.46999998093E+01 0.  1.
       -5    1    3    3    0  502  0.12663350278E+04  0.70674583251E+03  0.14764320030E+04  0.20695331899E+04  0.46999998093E+01 0. -1.
</event>
<event>
 5   0  0.5855568E-06  0.3049932E+04  0.7818609E-02  0.8229614E-01
        2   -1    0    0  501    0  0.00000000000E+00  0.00000000000E+00  0.15111845103E+04  0.15111845103E+04  0.25500000920E-02 0. -1.
       -2   -1    0    0    0  501  0.00000000000E+00  0.00000000000E+00 -0.15388735743E+04  0.15388735743E+04  0.25500000920E-02 0.  1.
    10030    2    1    2    0    0  0.00000000000E+00  0.00000000000E+00 -0.27689064010E+02  0.30500580847E+04  0.30499323985E+04 0.  0.
        3    1    3    3  502    0 -0.14257705498E+04 -0.48687532349E+03  0.22207334398E+03  0.15228873306E+04  0.10100000352E+00 0.  1.
       -3    1    3    3    0  502  0.14257705498E+04  0.48687532349E+03 -0.24976240799E+03  0.15271707541E+04  0.10100000352E+00 0. -1.
</event>
<event>
 5   0  0.5755250E-06  0.2820016E+04  0.7818609E-02  0.8297081E-01
        2   -1    0    0  501    0  0.00000000000E+00  0.00000000000E+00  0.13158876188E+04  0.13158876188E+04  0.25500000920E-02 0. -1.
       -2   -1    0    0    0  501  0.00000000000E+00  0.00000000000E+00 -0.15108604310E+04  0.15108604310E+04  0.25500000920E-02 0.  1.
    10030    2    1    2    0    0  0.00000000000E+00  0.00000000000E+00 -0.19497281226E+03  0.28267480498E+04  0.28200159821E+04 0.  0.
        5    1    3    3  502    0 -0.86731474505E+02  0.10090031572E+04  0.88592175510E+03  0.13455441895E+04  0.46999998093E+01 0. -1.
       -5    1    3    3    0  502  0.86731474505E+02 -0.10090031572E+04 -0.10808945674E+04  0.14812038603E+04  0.46999998093E+01 0.  1.
</event>
<event>
 5   0  0.5637538E-06  0.3049290E+04  0.7818609E-02  0.8229794E-01
       -2   -1    0    0    0  501  0.00000000000E+00  0.00000000000E+00  0.76783032253E+03  0.76783032253E+03  0.25500000920E-02 0.  1.
        2   -1    0    0  501    0  0.00000000000E+00  0.00000000000E+00 -0.30274166283E+04  0.30274166283E+04  0.25500000920E-02 0. -1.
    10030    2    1    2    0    0  0.00000000000E+00  0.00000000000E+00 -0.22595863058E+04  0.37952469509E+04  0.30492899411E+04 0.  0.
        2    1    3    3  502    0 -0.27739666192E+03  0.42208956040E+03  0.66067700104E+03  0.83162648151E+03  0.25500000920E-02 0.  1.
       -2    1    3    3    0  502  0.27739666192E+03 -0.42208956040E+03 -0.29202633068E+04  0.29636204693E+04  0.25500000920E-02 0. -1.
</event>
<event>
 5   0  0.1925906E-06  0.2318545E+04  0.7818609E-02  0.8470645E-01
       -1   -1    0    0    0  501  0.00000000000E+00  0.00000000000E+00  0.16409856346E+04  0.16409856346E+04  0.50400001928E-02 0. -1.
        1   -1    0    0  501    0  0.00000000000E+00  0.00000000000E+00 -0.81896643529E+03  0.81896643531E+03  0.50400001928E-02 0.  1.
    10030    2    1    2    0    0  0.00000000000E+00  0.00000000000E+00  0.82201919932E+03  0.24599520699E+04  0.23185445051E+04 0.  0.
        1    1    3    3  502    0 -0.85872306784E+03 -0.74969616804E+03  0.18728787073E+03  0.11552170351E+04  0.50400001928E-02 0.  1.
       -1    1    3    3    0  502  0.85872306784E+03  0.74969616804E+03  0.63473132859E+03  0.13047350348E+04  0.50400001928E-02 0. -1.
</event>
<event>
 5   0  0.2097842E-06  0.2736118E+04  0.7818609E-02  0.8323380E-01
       -1   -1    0    0    0  501  0.00000000000E+00  0.00000000000E+00  0.11487505995E+04  0.11487505995E+04  0.50400001928E-02 0.  1.
        1   -1    0    0  501    0  0.00000000000E+00  0.00000000000E+00 -0.16292362215E+04  0.16292362215E+04  0.50400001928E-02 0. -1.
    10030    2    1    2    0    0  0.00000000000E+00  0.00000000000E+00 -0.48048562200E+03  0.27779868210E+04  0.27361184814E+04 0.  0.
        4    1    3    3  502    0  0.43406990031E+03  0.10587933161E+04  0.52097955820E+03  0.12573310135E+04  0.12699999809E+01 0.  1.
       -4    1    3    3    0  502 -0.43406990031E+03 -0.10587933161E+04 -0.10014651802E+04  0.15206558074E+04  0.12699999809E+01 0. -1.
</event>
<event>
 5   0  0.5300268E-06  0.3320280E+04  0.7818609E-02  0.8157754E-01
       -2   -1    0    0    0  501  0.00000000000E+00  0.00000000000E+00  0.16003807284E+04  0.16003807284E+04  0.25500000920E-02 0. -1.
        2   -1    0    0  501    0  0.00000000000E+00  0.00000000000E+00 -0.17221309350E+04  0.17221309350E+04  0.25500000920E-02 0.  1.
    10030    2    1    2    0    0  0.00000000000E+00  0.00000000000E+00 -0.12175020660E+03  0.33225116633E+04  0.33202802051E+04 0.  0.
        4    1    3    3  502    0  0.14563154376E+04  0.54258917065E+03 -0.64505326930E+03  0.16826624721E+04  0.12699999809E+01 0.  1.
       -4    1    3    3    0  502 -0.14563154376E+04 -0.54258917065E+03  0.52330306270E+03  0.16398491913E+04  0.12699999809E+01 0. -1.
</event>
<event>
 5   0  0.5300268E-06  0.3403391E+04  0.7818609E-02  0.8137074E-01
        2   -1    0    0  501    0  0.00000000000E+00  0.00000000000E+00  0.11610721867E+04  0.11610721867E+04  0.25500000920E-02 0.  1.
       -2   -1    0    0    0  501  0.00000000000E+00  0.00000000000E+00 -0.24940465449E+04  0.24940465449E+04  0.25500000920E-02 0. -1.
    10030    2    1    2    0    0  0.00000000000E+00  0.00000000000E+00 -0.13329743582E+04  0.36551187316E+04  0.34033912943E+04 0.  0.
        4    1    3    3  502    0 -0.45446638793E+03 -0.66606468148E+03 -0.22758513057E+04  0.24144735733E+04  0.12699999809E+01 0. -1.
       -4    1    3    3    0  502  0.45446638793E+03  0.66606468148E+03  0.94287694750E+03  0.12406451583E+04  0.12699999809E+01 0.  1.
</event>
<event>
 5   0  0.2037109E-06  0.3282210E+04  0.7818609E-02  0.8167437E-01
       -1   -1    0    0    0  501  0.00000000000E+00  0.00000000000E+00  0.11265554261E+04  0.11265554261E+04  0.50400001928E-02 0. -1.
        1   -1    0    0  501    0  0.00000000000E+00  0.00000000000E+00 -0.23906727502E+04  0.23906727502E+04  0.50400001928E-02 0.  1.
    10030    2    1    2    0    0  0.00000000000E+00  0.00000000000E+00 -0.12641173242E+04  0.35172281763E+04  0.32822098402E+04 0.  0.
        2    1    3    3  502    0 -0.28867048385E+03 -0.12620259996E+04  0.44871360632E+03  0.13701766938E+04  0.25500000920E-02 0. -1.
       -2    1    3    3    0  502  0.28867048385E+03  0.12620259996E+04 -0.17128309305E+04  0.21470514825E+04  0.25500000920E-02 0.  1.
</event>
<event>
 5   0  0.2037109E-06  0.1839687E+04  0.7818609E-02  0.8685475E-01
        1   -1    0    0  501    0  0.00000000000E+00  0.00000000000E+00  0.57363528946E+03  0.57363528948E+03  0.50400001928E-02 0. -1.
       -1   -1    0    0    0  501  0.00000000000E+00  0.00000000000E+00 -0.14749995870E+04  0.14749995870E+04  0.50400001928E-02 0.  1.
    10030    2    1    2    0    0  0.00000000000E+00  0.00000000000E+00 -0.90136429758E+03  0.20486348765E+04  0.18396867289E+04 0.  0.
        2    1    3    3  502    0  0.36943943023E+03 -0.68260302032E+03 -0.10003877089E+04  0.12661784803E+04  0.25500000920E-02 0.  1.
       -2    1    3    3    0  502 -0.36943943023E+03  0.68260302032E+03  0.99023411303E+02  0.78245639620E+03  0.25500000920E-02 0. -1.
</event>
<event>
 5   0  0.5637538E-06  0.1686809E+04  0.7818609E-02  0.8768924E-01
       -2   -1    0    0    0  501  0.00000000000E+00  0.00000000000E+00  0.93017791587E+03  0.93017791587E+03  0.25500000920E-02 0. -1.
        2   -1    0    0  501    0  0.00000000000E+00  0.00000000000E+00 -0.76472578223E+03  0.76472578223E+03  0.25500000920E-02 0.  1.
    10030    2    1    2    0    0  0.00000000000E+00  0.00000000000E+00  0.16545213364E+03  0.16949036981E+04  0.16868088621E+04 0.  0.
        2    1    3    3  502    0  0.35062659558E+03  0.64312269513E+02  0.85076056469E+03  0.92242539860E+03  0.25500000920E-02 0. -1.
       -2    1    3    3    0  502 -0.35062659558E+03 -0.64312269513E+02 -0.68530843105E+03  0.77247829951E+03  0.25500000920E-02 0.  1.
</event>
<event>
 5   0  0.5855568E-06  0.3175364E+04  0.7818609E-02  0.8195354E-01
       -2   -1    0    0    0  501  0.00000000000E+00  0.00000000000E+00  0.10582547746E+04  0.10582547746E+04  0.25500000920E-02 0.  1.
        2   -1    0    0  501    0  0.00000000000E+00  0.00000000000E+00 -0.23819723828E+04  0.23819723828E+04  0.25500000920E-02 0. -1.
    10030    2    1    2    0    0  0.00000000000E+00  0.00000000000E+00 -0.13237176083E+04  0.34402271574E+04  0.31753636938E+04 0.  0.
        3    1    3    3  502    0 -0.12424850027E+04  0.44999896244E+03  0.29158413726E+03  0.13532514059E+04  0.10100000352E+00 0.  1.
       -3    1    3    3    0  502  0.12424850027E+04 -0.44999896244E+03 -0.16153017455E+04  0.20869757515E+04  0.10100000352E+00 0. -1.
</event>
<event>
 5   0  0.5637538E-06  0.1751011E+04  0.7818609E-02  0.8732794E-01
        2   -1    0    0  501    0  0.00000000000E+00  0.00000000000E+00  0.18614469601E+04  0.18614469601E+04  0.25500000920E-02 0. -1.
       -2   -1    0    0    0  501  0.00000000000E+00  0.00000000000E+00 -0.41178194716E+03  0.41178194717E+03  0.25500000920E-02 0.  1.
    10030    2    1    2    0    0  0.00000000000E+00  0.00000000000E+00  0.14496650129E+04  0.22732289072E+04  0.17510114263E+04 0.  0.
        2    1    3    3  502    0 -0.22137319278E+03  0.83094574106E+02 -0.36954365667E+03  0.43871780556E+03  0.25500000920E-02 0.  1.
       -2    1    3    3    0  502  0.22137319278E+03 -0.83094574106E+02  0.18192086696E+04  0.18345111017E+04  0.25500000920E-02 0. -1.
</event>
<event>
 5   0  0.5622811E-06  0.3309415E+04  0.7818609E-02  0.8160504E-01
       -2   -1    0    0    0  501  0.00000000000E+00  0.00000000000E+00  0.96100096059E+03  0.96100096060E+03  0.25500000920E-02 0.  1.
        2   -1    0    0  501    0  0.00000000000E+00  0.00000000000E+00 -0.28491717578E+04  0.28491717578E+04  0.25500000920E-02 0. -1.
    10030    2    1    2    0    0  0.00000000000E+00  0.00000000000E+00 -0.18881707972E+04  0.38101727184E+04  0.33094149309E+04 0.  0.
        1    1    3    3  502    0  0.96226168615E+03 -0.12896390799E+04 -0.49976164188E+03  0.16848970912E+04  0.50400001928E-02 0.  1.
       -1    1    3    3    0  502 -0.96226168615E+03  0.12896390799E+04 -0.13884091554E+04  0.21252756273E+04  0.50400001928E-02 0. -1.
</event>
<event>
 5   0  0.1999849E-06  0.2206182E+04  0.7818609E-02  0.8515860E-01
       -1   -1    0    0    0  501  0.00000000000E+00  0.00000000000E+00  0.96565601583E+03  0.96565601584E+03  0.50400001928E-02 0.  1.
        1   -1    0    0  501    0  0.00000000000E+00  0.00000000000E+00 -0.12600859338E+04  0.12600859338E+04  0.50400001928E-02 0. -1.
    10030    2    1    2    0    0  0.00000000000E+00  0.00000000000E+00 -0.29442991793E+03  0.22257419496E+04  0.22061818261E+04 0.  0.
        5    1    3    3  502    0  0.41564666577E+03 -0.67647410867E+03  0.62534730230E+03  0.10106733938E+04  0.46999998093E+01 0.  1.
       -5    1    3    3    0  502 -0.41564666577E+03  0.67647410867E+03 -0.91977722023E+03  0.12150685558E+04  0.46999998093E+01 0. -1.
</event>
<event>
 5   0  0.5755250E-06  0.3361743E+04  0.7818609E-02  0.8147360E-01
        2   -1    0    0  501    0  0.00000000000E+00  0.00000000000E+00  0.29047985771E+04  0.29047985771E+04  0.25500000920E-02 0. -1.
       -2   -1    0    0    0  501  0.00000000000E+00  0.00000000000E+00 -0.97264189791E+03  0.97264189791E+03  0.25500000920E-02 0.  1.
    10030    2    1    2    0    0  0.00000000000E+00  0.00000000000E+00  0.19321566792E+04  0.38774404750E+04  0.33617428819E+04 0.  0.
        5    1    3    3  502    0  0.55282826424E+03 -0.10187052473E+04  0.23701655583E+04  0.26383870707E+04  0.46999998093E+01 0. -1.
       -5    1    3    3    0  502 -0.55282826424E+03  0.10187052473E+04 -0.43800887916E+03  0.12390534044E+04  0.46999998093E+01 0.  1.
</event>
<event>
 5   0  0.5300268E-06  0.3128607E+04  0.7818609E-02  0.8207931E-01
       -2   -1    0    0    0  501  0.00000000000E+00  0.00000000000E+00  0.12613374996E+04  0.12613374996E+04  0.25500000920E-02 0.  1.
        2   -1    0    0  501    0  0.00000000000E+00  0.00000000000E+00 -0.19400399057E+04  0.19400399057E+04  0.25500000920E-02 0. -1.
    10030    2    1    2    0    0  0.00000000000E+00  0.00000000000E+00 -0.67870240616E+03  0.32013774053E+04  0.31286067722E+04 0.  0.
        4    1    3    3  502    0 -0.38810050937E+03 -0.29997360350E+03  0.11806071555E+04  0.12784525947E+04  0.12699999809E+01 0.  1.
       -4    1    3    3    0  502  0.38810050937E+03  0.29997360350E+03 -0.18593095617E+04  0.19229248106E+04  0.12699999809E+01 0. -1.
</event>
<event>
 5   0  0.5637538E-06  0.3279266E+04  0.7818609E-02  0.8168191E-01
        2   -1    0    0  501    0  0.00000000000E+00  0.00000000000E+00  0.90413802478E+03  0.90413802479E+03  0.25500000920E-02 0. -1.
       -2   -1    0    0    0  501  0.00000000000E+00  0.00000000000E+00 -0.29734353394E+04  0.29734353394E+04  0.25500000920E-02 0.  1.
    10030    2    1    2    0    0  0.00000000000E+00  0.00000000000E+00 -0.20692973146E+04  0.38775733642E+04  0.32792657438E+04 0.  0.
        2    1    3    3  502    0  0.70596359460E+02 -0.24810213244E+03  0.87999495928E+03  0.91702216028E+03  0.25500000920E-02 0. -1.
       -2    1    3    3    0  502 -0.70596359460E+02  0.24810213244E+03 -0.29492922739E+04  0.29605512039E+04  0.25500000920E-02 0.  1.
</event>
<event>
 5   0  0.1999849E-06  0.3254834E+04  0.7818609E-02  0.8174484E-01
        1   -1    0    0  501    0  0.00000000000E+00  0.00000000000E+00  0.17217402333E+04  0.17217402333E+04  0.50400001928E-02 0. -1.
       -1   -1    0    0    0  501  0.00000000000E+00  0.00000000000E+00 -0.15382610479E+04  0.15382610479E+04  0.50400001928E-02 0.  1.
    10030    2    1    2    0    0  0.00000000000E+00  0.00000000000E+00  0.18347918534E+03  0.32600012812E+04  0.32548339039E+04 0.  0.
        5    1    3    3  502    0  0.14307987814E+04 -0.57131079619E+03 -0.43338531404E+03  0.16004455939E+04  0.46999998093E+01 0. -1.
       -5    1    3    3    0  502 -0.14307987814E+04  0.57131079619E+03  0.61686449938E+03  0.16595556873E+04  0.46999998093E+01 0.  1.
</event>
<event>
 5   0  0.1999849E-06  0.2289903E+04  0.7818609E-02  0.8481913E-01
        1   -1    0    0  501    0  0.00000000000E+00  0.00000000000E+00  0.91107784395E+03  0.91107784396E+03  0.50400001928E-02 0. -1.
       -1   -1    0    0    0  501  0.00000000000E+00  0.00000000000E+00 -0.14388599101E+04  0.14388599101E+04  0.50400001928E-02 0.  1.
    10030    2    1    2    0    0  0.00000000000E+00  0.00000000000E+00 -0.52778206618E+03  0.23499377541E+04  0.22899025173E+04 0.  0.
        5    1    3    3  502    0 -0.51396438802E+03  0.75541934971E+03 -0.97196132276E+03  0.13339972597E+04  0.46999998093E+01 0. -1.
       -5    1    3    3    0  502  0.51396438802E+03 -0.75541934971E+03  0.44417925659E+03  0.10159404943E+04  0.46999998093E+01 0.  1.
</event>
<event>
 5   0  0.5622811E-06  0.3249837E+04  0.7818609E-02  0.8175778E-01
        2   -1    0    0  501    0  0.00000000000E+00  0.00000000000E+00  0.16964328203E+04  0.16964328203E+04  0.25500000920E-02 0.  1.
       -2   -1    0    0    0  501  0.00000000000E+00  0.00000000000E+00 -0.15564186320E+04  0.15564186320E+04  0.25500000920E-02 0. -1.
    10030    2    1    2    0    0  0.00000000000E+00  0.00000000000E+00  0.14001418828E+03  0.32528514523E+04  0.32498367033E+04 0.  0.
        1    1    3    3  502    0  0.62020139498E+02 -0.10302370761E+04 -0.11861968861E+04  0.15723542805E+04  0.50400001928E-02 0. -1.
       -1    1    3    3    0  502 -0.62020139498E+02  0.10302370761E+04  0.13262110744E+04  0.16804971718E+04  0.50400001928E-02 0.  1.
</event>
<event>
 5   0  0.5755250E-06  0.3177918E+04  0.7818609E-02  0.8194673E-01
        2   -1    0    0  501    0  0.00000000000E+00  0.00000000000E+00  0.22348971618E+04  0.22348971618E+04  0.25500000920E-02 0.  1.
       -2   -1    0    0    0  501  0.00000000000E+00  0.00000000000E+00 -0.11297124408E+04  0.11297124408E+04  0.25500000920E-02 0. -1.
    10030    2    1    2    0    0  0.00000000000E+00  0.00000000000E+00  0.11051847210E+04  0.33646096026E+04  0.31779182668E+04 0.  0.
        5    1    3    3  502    0 -0.14139165084E+03 -0.71644596740E+03 -0.94150953394E+03  0.11915320875E+04  0.46999998093E+01 0. -1.
       -5    1    3    3    0  502  0.14139165084E+03  0.71644596740E+03  0.20466942550E+04  0.21730775150E+04  0.46999998093E+01 0.  1.
</event>
<event>
 5   0  0.5755250E-06  0.3326907E+04  0.7818609E-02  0.8156082E-01
        2   -1    0    0  501    0  0.00000000000E+00  0.00000000000E+00  0.19317620485E+04  0.19317620485E+04  0.25500000920E-02 0. -1.
       -2   -1    0    0    0  501  0.00000000000E+00  0.00000000000E+00 -0.14324110534E+04  0.14324110534E+04  0.25500000920E-02 0.  1.
    10030    2    1    2    0    0  0.00000000000E+00  0.00000000000E+00  0.49935099505E+03  0.33641731019E+04  0.33269068582E+04 0.  0.
        5    1    3    3  502    0  0.13781694365E+03  0.50594418990E+03 -0.13466405234E+04  0.14451421461E+04  0.46999998093E+01 0.  1.
       -5    1    3    3    0  502 -0.13781694365E+03 -0.50594418990E+03  0.18459915184E+04  0.19190309558E+04  0.46999998093E+01 0. -1.
</event>
<event>
 5   0  0.2097842E-06  0.3085520E+04  0.7818609E-02  0.8219723E-01
       -1   -1    0    0    0  501  0.00000000000E+00  0.00000000000E+00  0.13987014745E+04  0.13987014746E+04  0.50400001928E-02 0. -1.
        1   -1    0    0  501    0  0.00000000000E+00  0.00000000000E+00 -0.17016560691E+04  0.17016560691E+04  0.50400001928E-02 0.  1.
    10030    2    1    2    0    0  0.00000000000E+00  0.00000000000E+00 -0.30295459455E+03  0.31003575436E+04  0.30855202822E+04 0.  0.
        4    1    3    3  502    0  0.73991696636E+03  0.96945649111E+03 -0.11008934841E+04  0.16429519413E+04  0.12699999809E+01 0.  1.
       -4    1    3    3    0  502 -0.73991696636E+03 -0.96945649111E+03  0.79793888957E+03  0.14574056023E+04  0.12699999809E+01 0. -1.
</event>
<event>
 5   0  0.2097842E-06  0.3302499E+04  0.7818609E-02  0.8162260E-01
        1   -1    0    0  501    0  0.00000000000E+00  0.00000000000E+00  0.26020520079E+04  0.26020520079E+04  0.50400001928E-02 0. -1.
       -1   -1    0    0    0  501  0.00000000000E+00  0.00000000000E+00 -0.10478748324E+04  0.10478748324E+04  0.50400001928E-02 0.  1.
    10030    2    1    2    0    0  0.00000000000E+00  0.00000000000E+00  0.15541771755E+04  0.36499268403E+04  0.33024989397E+04 0.  0.
        4    1    3    3  502    0 -0.55010994161E+03  0.14368783775E+04  0.14396407934E+04  0.21070851066E+04  0.12699999809E+01 0. -1.
       -4    1    3    3    0  502  0.55010994161E+03 -0.14368783775E+04  0.11453638206E+03  0.15428417337E+04  0.12699999809E+01 0.  1.
</event>
<event>
 5   0  0.2037109E-06  0.3212882E+04  0.7818609E-02  0.8185423E-01
       -1   -1    0    0    0  501  0.00000000000E+00  0.00000000000E+00  0.12297041776E+04  0.12297041776E+04  0.50400001928E-02 0.  1.
        1   -1    0    0  501    0  0.00000000000E+00  0.00000000000E+00 -0.20985961859E+04  0.20985961859E+04  0.50400001928E-02 0. -1.
    10030    2    1    2    0    0  0.00000000000E+00  0.00000000000E+00 -0.86889200835E+03  0.33283003635E+04  0.32128818820E+04 0.  0.
        2    1    3    3  502    0  0.80447333141E+03 -0.12879214712E+04 -0.97742560623E+03  0.18059014017E+04  0.25500000920E-02 0.  1.
       -2    1    3    3    0  502 -0.80447333141E+03  0.12879214712E+04  0.10853359788E+03  0.15223989618E+04  0.25500000920E-02 0. -1.
</event>
<event>
 5   0  0.5622811E-06  0.3239131E+04  0.7818609E-02  0.8178559E-01
       -2   -1    0    0    0  501  0.00000000000E+00  0.00000000000E+00  0.18412177336E+04  0.18412177336E+04  0.25500000920E-02 0.  1.
        2   -1    0    0  501    0  0.00000000000E+00  0.00000000000E+00 -0.14245965877E+04  0.14245965877E+04  0.25500000920E-02 0. -1.
    10030    2    1    2    0    0  0.00000000000E+00  0.00000000000E+00  0.41662114589E+03  0.32658143213E+04  0.32391310566E+04 0.  0.
        1    1    3    3  502    0  0.19875531822E+03  0.14943825681E+04 -0.38843467110E+03  0.15567801482E+04  0.50400001928E-02 0. -1.
       -1    1    3    3    0  502 -0.19875531822E+03 -0.14943825681E+04  0.80505581699E+03  0.17090341731E+04  0.50400001928E-02 0.  1.
</event>
<event>
 5   0  0.5755250E-06  0.3362481E+04  0.7818609E-02  0.8147176E-01
       -2   -1    0    0    0  501  0.00000000000E+00  0.00000000000E+00  0.12300870530E+04  0.12300870530E+04  0.25500000920E-02 0. -1.
        2   -1    0    0  501    0  0.00000000000E+00  0.00000000000E+00 -0.22978619200E+04  0.22978619200E+04  0.25500000920E-02 0.  1.
    10030    2    1    2    0    0  0.00000000000E+00  0.00000000000E+00 -0.10677748670E+04  0.35279489730E+04  0.33624813441E+04 0.  0.
        5    1    3    3  502    0 -0.63042314799E+03  0.35486235280E+03  0.10584204907E+04  0.12820439384E+04  0.46999998093E+01 0. -1.
       -5    1    3    3    0  502  0.63042314799E+03 -0.35486235280E+03 -0.21261953577E+04  0.22459050345E+04  0.46999998093E+01 0.  1.
</event>
<event>
 5   0  0.5855568E-06  0.3129440E+04  0.7818609E-02  0.8207704E-01
        2   -1    0    0  501    0  0.00000000000E+00  0.00000000000E+00  0.28412451644E+04  0.28412451644E+04  0.25500000920E-02 0. -1.
       -2   -1    0    0    0  501  0.00000000000E+00  0.00000000000E+00 -0.86171686712E+03  0.86171686712E+03  0.25500000920E-02 0.  1.
    10030    2    1    2    0    0  0.00000000000E+00  0.00000000000E+00  0.19795282973E+04  0.37029620315E+04  0.31294401300E+04 0.  0.
        3    1    3    3  502    0 -0.59706251359E+03 -0.21456755357E+03  0.26822184757E+04  0.27562327263E+04  0.10100000352E+00 0. -1.
       -3    1    3    3    0  502  0.59706251359E+03  0.21456755357E+03 -0.70269017844E+03  0.94672930516E+03  0.10100000352E+00 0.  1.
</event>
<event>
 5   0  0.2097842E-06  0.3225680E+04  0.7818609E-02  0.8182068E-01
       -1   -1    0    0    0  501  0.00000000000E+00  0.00000000000E+00  0.14248163556E+04  0.14248163556E+04  0.50400001928E-02 0. -1.
        1   -1    0    0  501    0  0.00000000000E+00  0.00000000000E+00 -0.18256757189E+04  0.18256757189E+04  0.50400001928E-02 0.  1.
    10030    2    1    2    0    0  0.00000000000E+00  0.00000000000E+00 -0.40085936332E+03  0.32504920746E+04  0.32256798505E+04 0.  0.
        4    1    3    3  502    0  0.16098956117E+03  0.28508554732E+03 -0.17918366822E+04  0.18215025986E+04  0.12699999809E+01 0.  1.
       -4    1    3    3    0  502 -0.16098956117E+03 -0.28508554732E+03  0.13909773188E+04  0.14289894760E+04  0.12699999809E+01 0. -1.
</event>
<event>
 5   0  0.5622811E-06  0.3140563E+04  0.7818609E-02  0.8204693E-01
       -2   -1    0    0    0  501  0.00000000000E+00  0.00000000000E+00  0.21292399683E+04  0.21292399683E+04  0.25500000920E-02 0. -1.
        2   -1    0    0  501    0  0.00000000000E+00  0.00000000000E+00 -0.11580583465E+04  0.11580583466E+04  0.25500000920E-02 0.  1.
    10030    2    1    2    0    0  0.00000000000E+00  0.00000000000E+00  0.97118162173E+03  0.32872983148E+04  0.31405630814E+04 0.  0.
        1    1    3    3  502    0 -0.10008393363E+04 -0.12024445501E+04  0.62692488971E+03  0.16854041327E+04  0.50400001928E-02 0.  1.
       -1    1    3    3    0  502  0.10008393363E+04  0.12024445501E+04  0.34425673202E+03  0.16018941821E+04  0.50400001928E-02 0. -1.
</event>
<event>
 5   0  0.2097842E-06  0.3184960E+04  0.7818609E-02  0.8192801E-01
        1   -1    0    0  501    0  0.00000000000E+00  0.00000000000E+00  0.21258275448E+04  0.21258275448E+04  0.50400001928E-02 0. -1.
       -1   -1    0    0    0  501  0.00000000000E+00  0.00000000000E+00 -0.11929435283E+04  0.11929435283E+04  0.50400001928E-02 0.  1.
    10030    2    1    2    0    0  0.00000000000E+00  0.00000000000E+00  0.93288401650E+03  0.33187710731E+04  0.31849597874E+04 0.  0.
        4    1    3    3  502    0 -0.92847626158E+03  0.38838742382E+03 -0.81953843428E+03  0.12979051650E+04  0.12699999809E+01 0.  1.
       -4    1    3    3    0  502  0.92847626158E+03 -0.38838742382E+03  0.17524224508E+04  0.20208659080E+04  0.12699999809E+01 0. -1.
</event>
<event>
 5   0  0.5855568E-06  0.2131873E+04  0.7818609E-02  0.8547331E-01
        2   -1    0    0  501    0  0.00000000000E+00  0.00000000000E+00  0.15246626119E+04  0.15246626119E+04  0.25500000920E-02 0. -1.
       -2   -1    0    0    0  501  0.00000000000E+00  0.00000000000E+00 -0.74522782287E+03  0.74522782288E+03  0.25500000920E-02 0.  1.
    10030    2    1    2    0    0  0.00000000000E+00  0.00000000000E+00  0.77943478907E+03  0.22698904348E+04  0.21318733536E+04 0.  0.
        3    1    3    3  502    0 -0.16826609230E+02  0.59592275524E+03  0.13305606328E+04  0.14580118905E+04  0.10100000352E+00 0. -1.
       -3    1    3    3    0  502  0.16826609230E+02 -0.59592275524E+03 -0.55112584371E+03  0.81187854437E+03  0.10100000352E+00 0.  1.
</event>
<event>
 5   0  0.5300268E-06  0.3231083E+04  0.7818609E-02  0.8180656E-01
       -2   -1    0    0    0  501  0.00000000000E+00  0.00000000000E+00  0.10117812037E+04  0.10117812037E+04  0.25500000920E-02 0. -1.
        2   -1    0    0  501    0  0.00000000000E+00  0.00000000000E+00 -0.25795840730E+04  0.25795840730E+04  0.25500000920E-02 0.  1.
    10030    2    1    2    0    0  0.00000000000E+00  0.00000000000E+00 -0.15678028694E+04  0.35913652767E+04  0.32310832106E+04 0.  0.
        4    1    3    3  502    0 -0.10663852069E+04  0.12024014695E+04 -0.96662949004E+03  0.18754521821E+04  0.12699999809E+01 0.  1.
       -4    1    3    3    0  502  0.10663852069E+04 -0.12024014695E+04 -0.60117337934E+03  0.17159130946E+04  0.12699999809E+01 0. -1.
</event>
<event>
 5   0  0.1925906E-06  0.3641395E+04  0.7818609E-02  0.8081075E-01
        1   -1    0    0  501    0  0.00000000000E+00  0.00000000000E+00  0.11203295121E+04  0.11203295121E+04  0.50400001928E-02 0. -1.
       -1   -1    0    0    0  501  0.00000000000E+00  0.00000000000E+00 -0.29588973069E+04  0.29588973069E+04  0.50400001928E-02 0.  1.
    10030    2    1    2    0    0  0.00000000000E+00  0.00000000000E+00 -0.18385677948E+04  0.40792268190E+04  0.36413953239E+04 0.  0.
        1    1    3    3  502    0  0.72149457080E+03  0.10786438605E+04 -0.23499076094E+04  0.26844166529E+04  0.50400001928E-02 0.  1.
       -1    1    3    3    0  502 -0.72149457080E+03 -0.10786438605E+04  0.51133981459E+03  0.13948101662E+04  0.50400001928E-02 0. -1.
</event>
<event>
 5   0  0.5622811E-06  0.2005978E+04  0.7818609E-02  0.8603831E-01
       -2   -1    0    0    0  501  0.00000000000E+00  0.00000000000E+00  0.71133810525E+03  0.71133810525E+03  0.25500000920E-02 0. -1.
        2   -1    0    0  501    0  0.00000000000E+00  0.00000000000E+00 -0.14142180084E+04  0.14142180085E+04  0.25500000920E-02 0.  1.
    10030    2    1    2    0    0  0.00000000000E+00  0.00000000000E+00 -0.70287990320E+03  0.21255561137E+04  0.20059782238E+04 0.  0.
        1    1    3    3  502    0 -0.35859380588E+03  0.72585576424E+03  0.27590962269E+03  0.85532580226E+03  0.50400001928E-02 0. -1.
       -1    1    3    3    0  502  0.35859380588E+03 -0.72585576424E+03 -0.97878952589E+03  0.12702303114E+04  0.50400001928E-02 0.  1.
</event>
<event>
 5   0  0.1999849E-06  0.3317931E+04  0.7818609E-02  0.8158348E-01
        1   -1    0    0  501    0  0.00000000000E+00  0.00000000000E+00  0.15520996241E+04  0.15520996241E+04  0.50400001928E-02 0.  1.
       -1   -1    0    0    0  501  0.00000000000E+00  0.00000000000E+00 -0.17731890452E+04  0.17731890452E+04  0.50400001928E-02 0. -1.
    10030    2    1    2    0    0  0.00000000000E+00  0.00000000000E+00 -0.22108942108E+03  0.33252886693E+04  0.33179307108E+04 0.  0.
        5    1    3    3  502    0  0.14054055815E+04 -0.54923978260E+03  0.58041495535E+03  0.16167043012E+04  0.46999998093E+01 0.  1.
       -5    1    3    3    0  502 -0.14054055815E+04  0.54923978260E+03 -0.80150437642E+03  0.17085843680E+04  0.46999998093E+01 0. -1.
</event>
<event>
 5   0  0.1999849E-06  0.2320742E+04  0.7818609E-02  0.8469787E-01
       -1   -1    0    0    0  501  0.00000000000E+00  0.00000000000E+00  0.11070552557E+04  0.11070552557E+04  0.50400001928E-02 0. -1.
        1   -1    0    0  501    0  0.00000000000E+00  0.00000000000E+00 -0.12162544370E+04  0.12162544370E+04  0.50400001928E-02 0.  1.
    10030    2    1    2    0    0  0.00000000000E+00  0.00000000000E+00 -0.10919918130E+03  0.23233096927E+04  0.23207420078E+04 0.  0.
        5    1    3    3  502    0  0.87519492079E+03  0.76169165368E+03 -0.37304711194E+02  0.11608419600E+04  0.46999998093E+01 0. -1.
       -5    1    3    3    0  502 -0.87519492079E+03 -0.76169165368E+03 -0.71894470104E+02  0.11624677327E+04  0.46999998093E+01 0.  1.
</event>
<event>
 5   0  0.2097842E-06  0.2938336E+04  0.7818609E-02  0.8261562E-01
        1   -1    0    0  501    0  0.00000000000E+00  0.00000000000E+00  0.13378137417E+04  0.13378137417E+04  0.50400001928E-02 0.  1.
       -1   -1    0    0    0  501  0.00000000000E+00  0.00000000000E+00 -0.16134191924E+04  0.16134191924E+04  0.50400001928E-02 0. -1.
    10030    2    1    2    0    0  0.00000000000E+00  0.00000000000E+00 -0.27560545068E+03  0.29512329341E+04  0.29383358329E+04 0.  0.
        4    1    3    3  502    0 -0.10014824881E+04 -0.88659678740E+03 -0.74827950028E+03  0.15326267846E+04  0.12699999809E+01 0. -1.
       -4    1    3    3    0  502  0.10014824881E+04  0.88659678740E+03  0.47267404960E+03  0.14186061495E+04  0.12699999809E+01 0.  1.
</event>
<event>
 5   0  0.2730981E-06  0.3156779E+04  0.7818609E-02  0.8200326E-01
       -1   -1    0    0    0  501  0.00000000000E+00  0.00000000000E+00  0.17049986276E+04  0.17049986277E+04  0.50400001928E-02 0.  1.
        1   -1    0    0  501    0  0.00000000000E+00  0.00000000000E+00 -0.14611821334E+04  0.14611821334E+04  0.50400001928E-02 0. -1.
    10030    2    1    2    0    0  0.00000000000E+00  0.00000000000E+00  0.24381649426E+03  0.31661807611E+04  0.31567790751E+04 0.  0.
        3    1    3    3  502    0 -0.77685868140E+02  0.15500344940E+04 -0.16647459184E+03  0.15608830279E+04  0.10100000352E+00 0. -1.
       -3    1    3    3    0  502  0.77685868140E+02 -0.15500344940E+04  0.41029108610E+03  0.16052977332E+04  0.10100000352E+00 0.  1.
</event>
<event>
 5   0  0.2730981E-06  0.2528618E+04  0.7818609E-02  0.8392861E-01
        1   -1    0    0  501    0  0.00000000000E+00  0.00000000000E+00  0.12061310874E+04  0.12061310874E+04  0.50400001928E-02 0. -1.
       -1   -1    0    0    0  501  0.00000000000E+00  0.00000000000E+00 -0.13252927134E+04  0.13252927134E+04  0.50400001928E-02 0.  1.
    10030    2    1    2    0    0  0.00000000000E+00  0.00000000000E+00 -0.11916162600E+03  0.25314238008E+04  0.25286175998E+04 0.  0.
        3    1    3    3  502    0 -0.85746299919E+03 -0.83743603024E+03 -0.46243867134E+03  0.12846756146E+04  0.10100000352E+00 0.  1.
       -3    1    3    3    0  502  0.85746299919E+03  0.83743603024E+03  0.34327704534E+03  0.12467481862E+04  0.10100000352E+00 0. -1.
</event>
<event>
 5   0  0.2097842E-06  0.1812707E+04  0.7818609E-02  0.8699571E-01
        1   -1    0    0  501    0  0.00000000000E+00  0.00000000000E+00  0.83521086849E+03  0.83521086851E+03  0.50400001928E-02 0.  1.
       -1   -1    0    0    0  501  0.00000000000E+00  0.00000000000E+00 -0.98355630529E+03  0.98355630530E+03  0.50400001928E-02 0. -1.
    10030    2    1    2    0    0  0.00000000000E+00  0.00000000000E+00 -0.14834543680E+03  0.18187671738E+04  0.18127072747E+04 0.  0.
        4    1    3    3  502    0 -0.36739838578E+03 -0.15394162064E+03 -0.89101699951E+03  0.97600845425E+03  0.12699999809E+01 0. -1.
       -4    1    3    3    0  502  0.36739838578E+03  0.15394162064E+03  0.74267156271E+03  0.84275871956E+03  0.12699999809E+01 0.  1.
</event>
<event>
 5   0  0.2730981E-06  0.1947883E+04  0.7818609E-02  0.8631382E-01
       -1   -1    0    0    0  501  0.00000000000E+00  0.00000000000E+00  0.36300456660E+03  0.36300456663E+03  0.50400001928E-02 0. -1.
        1   -1    0    0  501    0  0.00000000000E+00  0.00000000000E+00 -0.26130859279E+04  0.26130859279E+04  0.50400001928E-02 0.  1.
    10030    2    1    2    0    0  0.00000000000E+00  0.00000000000E+00 -0.22500813613E+04  0.29760904945E+04  0.19478830815E+04 0.  0.
        3    1    3    3  502    0  0.72144516529E+01  0.70555292607E+03 -0.21507622784E+04  0.22635448677E+04  0.10100000352E+00 0.  1.
       -3    1    3    3    0  502 -0.72144516529E+01 -0.70555292607E+03 -0.99319082837E+02  0.71254562676E+03  0.10100000352E+00 0. -1.
</event>
<event>
 5   0  0.1925906E-06  0.1900238E+04  0.7818609E-02  0.8654738E-01
       -1   -1    0    0    0  501  0.00000000000E+00  0.00000000000E+00  0.84964727397E+03  0.84964727399E+03  0.50400001928E-02 0.  1.
        1   -1    0    0  501    0  0.00000000000E+00  0.00000000000E+00 -0.10624716613E+04  0.10624716613E+04  0.50400001928E-02 0. -1.
    10030    2    1    2    0    0  0.00000000000E+00  0.00000000000E+00 -0.21282438730E+03  0.19121189353E+04  0.19002380385E+04 0.  0.
        1    1    3    3  502    0  0.69859048358E+03 -0.39655009601E+03 -0.61697544707E+03  0.10128866396E+04  0.50400001928E-02 0. -1.
       -1    1    3    3    0  502 -0.69859048358E+03  0.39655009601E+03  0.40415105978E+03  0.89923229565E+03  0.50400001928E-02 0.  1.
</event>
<event>
 5   0  0.1999849E-06  0.3274913E+04  0.7818609E-02  0.8169308E-01
       -1   -1    0    0    0  501  0.00000000000E+00  0.00000000000E+00  0.15328069178E+04  0.15328069179E+04  0.50400001928E-02 0. -1.
        1   -1    0    0  501    0  0.00000000000E+00  0.00000000000E+00 -0.17492505391E+04  0.17492505392E+04  0.50400001928E-02 0.  1.
    10030    2    1    2    0    0  0.00000000000E+00  0.00000000000E+00 -0.21644362130E+03  0.32820574570E+04  0.32749127179E+04 0.  0.
        5    1    3    3  502    0  0.12806685067E+04  0.11430728728E+03 -0.11243684119E+04  0.17080410990E+04  0.46999998093E+01 0.  1.
       -5    1    3    3    0  502 -0.12806685067E+04 -0.11430728728E+03  0.90792479059E+03  0.15740163581E+04  0.46999998093E+01 0. -1.
</event>
<event>
 5   0  0.5855568E-06  0.2067374E+04  0.7818609E-02  0.8575753E-01
        2   -1    0    0  501    0  0.00000000000E+00  0.00000000000E+00  0.20489940420E+04  0.20489940420E+04  0.25500000920E-02 0.  1.
       -2   -1    0    0    0  501  0.00000000000E+00  0.00000000000E+00 -0.52147966236E+03  0.52147966236E+03  0.25500000920E-02 0. -1.
    10030    2    1    2    0    0  0.00000000000E+00  0.00000000000E+00  0.15275143796E+04  0.25704737043E+04  0.20673739102E+04 0.  0.
        3    1    3    3  502    0  0.91023477132E+03 -0.43858781300E+03  0.49242681409E+03  0.11239976806E+04  0.10100000352E+00 0. -1.
       -3    1    3    3    0  502 -0.91023477132E+03  0.43858781300E+03  0.10350875655E+04  0.14464760237E+04  0.10100000352E+00 0.  1.
</event>
<event>
 5   0  0.5637538E-06  0.1964839E+04  0.7818609E-02  0.8623238E-01
       -2   -1    0    0    0  501  0.00000000000E+00  0.00000000000E+00  0.81437173130E+03  0.81437173130E+03  0.25500000920E-02 0.  1.
        2   -1    0    0  501    0  0.00000000000E+00  0.00000000000E+00 -0.11851439987E+04  0.11851439987E+04  0.25500000920E-02 0. -1.
    10030    2    1    2    0    0  0.00000000000E+00  0.00000000000E+00 -0.37077226745E+03  0.19995157300E+04  0.19648386907E+04 0.  0.
        2    1    3    3  502    0 -0.38732356309E+03 -0.59734234902E+02  0.73137934924E+03  0.82976109444E+03  0.25500000920E-02 0.  1.
       -2    1    3    3    0  502  0.38732356309E+03  0.59734234902E+02 -0.11021516167E+04  0.11697546356E+04  0.25500000920E-02 0. -1.
</event>
<event>
 5   0  0.1999849E-06  0.3347903E+04  0.7818609E-02  0.8150812E-01
        1   -1    0    0  501    0  0.00000000000E+00  0.00000000000E+00  0.20235605103E+04  0.20235605103E+04  0.50400001928E-02 0.  1.
       -1   -1    0    0    0  501  0.00000000000E+00  0.00000000000E+00 -0.13847444917E+04  0.13847444917E+04  0.50400001928E-02 0. -1.
    10030    2    1    2    0    0  0.00000000000E+00  0.00000000000E+00  0.63881601861E+03  0.34083050020E+04  0.33479033859E+04 0.  0.
        5    1    3    3  502    0  0.92747776582E+03 -0.35381465164E+03  0.16915726728E+04  0.19613362820E+04  0.46999998093E+01 0.  1.
       -5    1    3    3    0  502 -0.92747776582E+03  0.35381465164E+03 -0.10527566542E+04  0.14469687200E+04  0.46999998093E+01 0. -1.
</event>
<event>
 5   0  0.5855568E-06  0.2920469E+04  0.7818609E-02  0.8266813E-01
        2   -1    0    0  501    0  0.00000000000E+00  0.00000000000E+00  0.25220838459E+04  0.25220838459E+04  0.25500000920E-02 0.  1.
       -2   -1    0    0    0  501  0.00000000000E+00  0.00000000000E+00 -0.84544570815E+03  0.84544570816E+03  0.25500000920E-02 0. -1.
    10030    2    1    2    0    0  0.00000000000E+00  0.00000000000E+00  0.16766381378E+04  0.33675295541E+04  0.29204691152E+04 0.  0.
        3    1    3    3  502    0  0.51628685252E+02 -0.14577135267E+04  0.75934620240E+03  0.16444454726E+04  0.10100000352E+00 0. -1.
       -3    1    3    3    0  502 -0.51628685252E+02  0.14577135267E+04  0.91729193538E+03  0.17230840815E+04  0.10100000352E+00 0.  1.
</event>
<event>
 5   0  0.5622811E-06  0.3265657E+04  0.7818609E-02  0.8171689E-01
       -2   -1    0    0    0  501  0.00000000000E+00  0.00000000000E+00  0.10079928084E+04  0.10079928084E+04  0.25500000920E-02 0. -1.
        2   -1    0    0  501    0  0.00000000000E+00  0.00000000000E+00 -0.26449882912E+04  0.26449882912E+04  0.25500000920E-02 0.  1.
    10030    2    1    2    0    0  0.00000000000E+00  0.00000000000E+00 -0.16369954827E+04  0.36529810996E+04  0.32656571626E+04 0.  0.
        1    1    3    3  502    0 -0.94999997103E+03 -0.10158047643E+04 -0.17753923553E+04  0.22552998203E+04  0.50400001928E-02 0.  1.
       -1    1    3    3    0  502  0.94999997103E+03  0.10158047643E+04  0.13839687254E+03  0.13976812793E+04  0.50400001928E-02 0. -1.
</event>
<event>
 5   0  0.5300268E-06  0.3279273E+04  0.7818609E-02  0.8168190E-01
       -2   -1    0    0    0  501  0.00000000000E+00  0.00000000000E+00  0.17564356796E+04  0.17564356796E+04  0.25500000920E-02 0.  1.
        2   -1    0    0  501    0  0.00000000000E+00  0.00000000000E+00 -0.15306039856E+04  0.15306039856E+04  0.25500000920E-02 0. -1.
    10030    2    1    2    0    0  0.00000000000E+00  0.00000000000E+00  0.22583169402E+03  0.32870396652E+04  0.32792727557E+04 0.  0.
        4    1    3    3  502    0  0.16395329221E+04 -0.84316848498E+01  0.96551043069E+02  0.16423955105E+04  0.12699999809E+01 0. -1.
       -4    1    3    3    0  502 -0.16395329221E+04  0.84316848498E+01  0.12928065095E+03  0.16446441547E+04  0.12699999809E+01 0.  1.
</event>
<event>
 5   0  0.5637538E-06  0.3285746E+04  0.7818609E-02  0.8166532E-01
        2   -1    0    0  501    0  0.00000000000E+00  0.00000000000E+00  0.21800441827E+04  0.21800441827E+04  0.25500000920E-02 0. -1.
       -2   -1    0    0    0  501  0.00000000000E+00  0.00000000000E+00 -0.12380628703E+04  0.12380628703E+04  0.25500000920E-02 0.  1.
    10030    2    1    2    0    0  0.00000000000E+00  0.00000000000E+00  0.94198131240E+03  0.34181070530E+04  0.32857460390E+04 0.  0.
        2    1    3    3  502    0  0.83294147249E+03 -0.14112236925E+04  0.59269915190E+03  0.17425946435E+04  0.25500000920E-02 0.  1.
       -2    1    3    3    0  502 -0.83294147249E+03  0.14112236925E+04  0.34928216051E+03  0.16755124095E+04  0.25500000920E-02 0. -1.
</event>
<event>
 5   0  0.1999849E-06  0.3320892E+04  0.7818609E-02  0.8157600E-01
       -1   -1    0    0    0  501  0.00000000000E+00  0.00000000000E+00  0.13552574594E+04  0.13552574594E+04  0.50400001928E-02 0.  1.
        1   -1    0    0  501    0  0.00000000000E+00  0.00000000000E+00 -0.20343589113E+04  0.20343589113E+04  0.50400001928E-02 0. -1.
    10030    2    1    2    0    0  0.00000000000E+00  0.00000000000E+00 -0.67910145188E+03  0.33896163707E+04  0.33208915006E+04 0.  0.
        5    1    3    3  502    0  0.61764659588E+03 -0.11509248205E+04  0.70681953738E+03  0.14851704307E+04  0.46999998093E+01 0.  1.
       -5    1    3    3    0  502 -0.61764659588E+03  0.11509248205E+04 -0.13859209893E+04  0.19044459400E+04  0.46999998093E+01 0. -1.
</event>
<event>
 5   0  0.5637538E-06  0.3403457E+04  0.7818609E-02  0.8137058E-01
       -2   -1    0    0    0  501  0.00000000000E+00  0.00000000000E+00  0.10606047880E+04  0.10606047880E+04  0.25500000920E-02 0. -1.
        2   -1    0    0  501    0  0.00000000000E+00  0.00000000000E+00 -0.27304051147E+04  0.27304051147E+04  0.25500000920E-02 0.  1.
    10030    2    1    2    0    0  0.00000000000E+00  0.00000000000E+00 -0.16698003266E+04  0.37910099027E+04  0.34034574996E+04 0.  0.
        2    1    3    3  502    0 -0.37820760277E+03  0.15906093762E+03  0.10046858578E+04  0.10852350186E+04  0.25500000920E-02 0. -1.
       -2    1    3    3    0  502  0.37820760277E+03 -0.15906093762E+03 -0.26744861845E+04  0.27057748841E+04  0.25500000920E-02 0.  1.
</event>
<event>
 5   0  0.1999849E-06  0.1788871E+04  0.7818609E-02  0.8712240E-01
       -1   -1    0    0    0  501  0.00000000000E+00  0.00000000000E+00  0.77925027032E+03  0.77925027034E+03  0.50400001928E-02 0.  1.
        1   -1    0    0  501    0  0.00000000000E+00  0.00000000000E+00 -0.10266472694E+04  0.10266472694E+04  0.50400001928E-02 0. -1.
    10030    2    1    2    0    0  0.00000000000E+00  0.00000000000E+00 -0.24739699905E+03  0.18058975397E+04  0.17888713338E+04 0.  0.
        5    1    3    3  502    0 -0.77968337882E+03 -0.38046319013E+03 -0.34333455812E+03  0.93303757645E+03  0.46999998093E+01 0. -1.
       -5    1    3    3    0  502  0.77968337882E+03  0.38046319013E+03  0.95937559073E+02  0.87285996328E+03  0.46999998093E+01 0.  1.
</event>
<event>
 5   0  0.2097842E-06  0.3230691E+04  0.7818609E-02  0.8180759E-01
        1   -1    0    0  501    0  0.00000000000E+00  0.00000000000E+00  0.21637683454E+04  0.21637683455E+04  0.50400001928E-02 0.  1.
       -1   -1    0    0    0  501  0.00000000000E+00  0.00000000000E+00 -0.12059240998E+04  0.12059240998E+04  0.50400001928E-02 0. -1.
    10030    2    1    2    0    0  0.00000000000E+00  0.00000000000E+00  0.95784424564E+03  0.33696924453E+04  0.32306905728E+04 0.  0.
        4    1    3    3  502    0 -0.72662377825E+03  0.45178952551E+03  0.19079974920E+04  0.20910647845E+04  0.12699999809E+01 0.  1.
       -4    1    3    3    0  502  0.72662377825E+03 -0.45178952551E+03 -0.95015324637E+03  0.12786276608E+04  0.12699999809E+01 0. -1.
</event>
<event>
 5   0  0.2037109E-06  0.3288753E+04  0.7818609E-02  0.8165763E-01
        1   -1    0    0  501    0  0.00000000000E+00  0.00000000000E+00  0.11034824828E+04  0.11034824828E+04  0.50400001928E-02 0.  1.
       -1   -1    0    0    0  501  0.00000000000E+00  0.00000000000E+00 -0.24504012815E+04  0.24504012815E+04  0.50400001928E-02 0. -1.
    10030    2    1    2    0    0  0.00000000000E+00  0.00000000000E+00 -0.13469187986E+04  0.35538837643E+04  0.32887534964E+04 0.  0.
        2    1    3    3  502    0  0.45776869400E+03  0.15711824296E+04 -0.49985802505E+03  0.17111471151E+04  0.25500000920E-02 0. -1.
       -2    1    3    3    0  502 -0.45776869400E+03 -0.15711824296E+04 -0.84706077360E+03  0.18427366492E+04  0.25500000920E-02 0.  1.
</event>
<event>
 5   0  0.2097842E-06  0.3323154E+04  0.7818609E-02  0.8157029E-01
        1   -1    0    0  501    0  0.00000000000E+00  0.00000000000E+00  0.22830208380E+04  0.22830208380E+04  0.50400001928E-02 0. -1.
       -1   -1    0    0    0  501  0.00000000000E+00  0.00000000000E+00 -0.12092915909E+04  0.12092915909E+04  0.50400001928E-02 0.  1.
    10030    2    1    2    0    0  0.00000000000E+00  0.00000000000E+00  0.10737292470E+04  0.34923124289E+04  0.33231538642E+04 0.  0.
        4    1    3    3  502    0  0.31732472998E+03  0.48343942639E+03 -0.11001264478E+04  0.12428549703E+04  0.12699999809E+01 0.  1.
       -4    1    3    3    0  502 -0.31732472998E+03 -0.48343942639E+03  0.21738556948E+04  0.22494574586E+04  0.12699999809E+01 0. -1.
</event>
<event>
 5   0  0.5622811E-06  0.3295398E+04  0.7818609E-02  0.8164067E-01
       -2   -1    0    0    0  501  0.00000000000E+00  0.00000000000E+00  0.12701575102E+04  0.12701575102E+04  0.25500000920E-02 0.  1.
        2   -1    0    0  501    0  0.00000000000E+00  0.00000000000E+00 -0.21374606488E+04  0.21374606488E+04  0.25500000920E-02 0. -1.
    10030    2    1    2    0    0  0.00000000000E+00  0.00000000000E+00 -0.86730313855E+03  0.34076181590E+04  0.32953978187E+04 0.  0.
        1    1    3    3  502    0 -0.14110523403E+03 -0.28886635875E+03 -0.21047146649E+04  0.21291261778E+04  0.50400001928E-02 0. -1.
       -1    1    3    3    0  502  0.14110523403E+03  0.28886635875E+03  0.12374115264E+04  0.12784919812E+04  0.50400001928E-02 0.  1.
</event>
<event>
 5   0  0.5300268E-06  0.3164899E+04  0.7818609E-02  0.8198149E-01
       -2   -1    0    0    0  501  0.00000000000E+00  0.00000000000E+00  0.12974051787E+04  0.12974051787E+04  0.25500000920E-02 0. -1.
        2   -1    0    0  501    0  0.00000000000E+00  0.00000000000E+00 -0.19301184305E+04  0.19301184305E+04  0.25500000920E-02 0.  1.
    10030    2    1    2    0    0  0.00000000000E+00  0.00000000000E+00 -0.63271325181E+03  0.32275236092E+04  0.31648985117E+04 0.  0.
        4    1    3    3  502    0  0.31919995283E+02  0.85742874938E+03  0.10395929334E+04  0.13479458544E+04  0.12699999809E+01 0. -1.
       -4    1    3    3    0  502 -0.31919995283E+02 -0.85742874938E+03 -0.16723061852E+04  0.18795777548E+04  0.12699999809E+01 0.  1.
</event>
<event>
 5   0  0.2730981E-06  0.3402822E+04  0.7818609E-02  0.8137214E-01
        1   -1    0    0  501    0  0.00000000000E+00  0.00000000000E+00  0.22804204444E+04  0.22804204444E+04  0.50400001928E-02 0. -1.
       -1   -1    0    0    0  501  0.00000000000E+00  0.00000000000E+00 -0.12694144952E+04  0.12694144952E+04  0.50400001928E-02 0.  1.
    10030    2    1    2    0    0  0.00000000000E+00  0.00000000000E+00  0.10110059492E+04  0.35498349396E+04  0.34028216334E+04 0.  0.
        3    1    3    3  502    0  0.10980360127E+04  0.11986786043E+04 -0.18477285938E+02  0.16256859788E+04  0.10100000352E+00 0.  1.
       -3    1    3    3    0  502 -0.10980360127E+04 -0.11986786043E+04  0.10294832352E+04  0.19241489607E+04  0.10100000352E+00 0. -1.
</event>
<event>
 5   0  0.5855568E-06  0.3270104E+04  0.7818609E-02  0.8170544E-01
       -2   -1    0    0    0  501  0.00000000000E+00  0.00000000000E+00  0.12312622460E+04  0.12312622460E+04  0.25500000920E-02 0. -1.
        2   -1    0    0  501    0  0.00000000000E+00  0.00000000000E+00 -0.21712635708E+04  0.21712635708E+04  0.25500000920E-02 0.  1.
    10030    2    1    2    0    0  0.00000000000E+00  0.00000000000E+00 -0.94000132486E+03  0.34025258168E+04  0.32701038888E+04 0.  0.
        3    1    3    3  502    0  0.10378738255E+04 -0.12144541050E+04 -0.10759469534E+03  0.16011425544E+04  0.10100000352E+00 0. -1.
       -3    1    3    3    0  502 -0.10378738255E+04  0.12144541050E+04 -0.83240662953E+03  0.18013832624E+04  0.10100000352E+00 0.  1.
</event>
<event>
 5   0  0.2730981E-06  0.3300311E+04  0.7818609E-02  0.8162816E-01
        1   -1    0    0  501    0  0.00000000000E+00  0.00000000000E+00  0.13210529413E+04  0.13210529413E+04  0.50400001928E-02 0.  1.
       -1   -1    0    0    0  501  0.00000000000E+00  0.00000000000E+00 -0.20612450740E+04  0.20612450741E+04  0.50400001928E-02 0. -1.
    10030    2    1    2    0    0  0.00000000000E+00  0.00000000000E+00 -0.74019213275E+03  0.33822980154E+04  0.33003114204E+04 0.  0.
        3    1    3    3  502    0 -0.74551027442E+03 -0.12022255062E+04 -0.12408392657E+04  0.18817050329E+04  0.10100000352E+00 0. -1.
       -3    1    3    3    0  502  0.74551027442E+03  0.12022255062E+04  0.50064713298E+03  0.15005929825E+04  0.10100000352E+00 0.  1.
</event>
<event>
 5   0  0.2037109E-06  0.2813057E+04  0.7818609E-02  0.8299226E-01
       -1   -1    0    0    0  501  0.00000000000E+00  0.00000000000E+00  0.90638217519E+03  0.90638217521E+03  0.50400001928E-02 0. -1.
        1   -1    0    0  501    0  0.00000000000E+00  0.00000000000E+00 -0.21826584357E+04  0.21826584357E+04  0.50400001928E-02 0.  1.
    10030    2    1    2    0    0  0.00000000000E+00  0.00000000000E+00 -0.12762762605E+04  0.30890406109E+04  0.28130571986E+04 0.  0.
        2    1    3    3  502    0 -0.18613556551E+03  0.10692402866E+04  0.34428593317E+03  0.11386193583E+04  0.25500000920E-02 0. -1.
       -2    1    3    3    0  502  0.18613556551E+03 -0.10692402866E+04 -0.16205621937E+04  0.19504212527E+04  0.25500000920E-02 0.  1.
</event>
<event>
 5   0  0.5637538E-06  0.3281220E+04  0.7818609E-02  0.8167690E-01
       -2   -1    0    0    0  501  0.00000000000E+00  0.00000000000E+00  0.22088645892E+04  0.22088645892E+04  0.25500000920E-02 0.  1.
        2   -1    0    0  501    0  0.00000000000E+00  0.00000000000E+00 -0.12185452354E+04  0.12185452354E+04  0.25500000920E-02 0. -1.
    10030    2    1    2    0    0  0.00000000000E+00  0.00000000000E+00  0.99031935383E+03  0.34274098247E+04  0.32812201517E+04 0.  0.
        2    1    3    3  502    0  0.14727832203E+03  0.62373947685E+03 -0.10823787315E+04  0.12578893265E+04  0.25500000920E-02 0. -1.
       -2    1    3    3    0  502 -0.14727832203E+03 -0.62373947685E+03  0.20726980854E+04  0.21695204982E+04  0.25500000920E-02 0.  1.
</event>
<event>
 5   0  0.1878000E-06  0.3183391E+04  0.7818609E-02  0.8193217E-01
       -3   -1    0    0    0  501  0.00000000000E+00  0.00000000000E+00  0.83461323586E+03  0.83461324197E+03  0.10100000352E+00 0.  1.
        3   -1    0    0  501    0  0.00000000000E+00  0.00000000000E+00 -0.30355308304E+04  0.30355308321E+04  0.10100000352E+00 0. -1.
    10030    2    1    2    0    0  0.00000000000E+00  0.00000000000E+00 -0.22009175946E+04  0.38701440741E+04  0.31833907860E+04 0.  0.
        2    1    3    3  502    0  0.95198222666E+03 -0.34201041598E+03  0.39358050691E+03  0.10854247555E+04  0.25500000920E-02 0.  1.
       -2    1    3    3    0  502 -0.95198222666E+03  0.34201041598E+03 -0.25944981015E+04  0.27847193185E+04  0.25500000920E-02 0. -1.
</event>
<event>
 5   0  0.1925906E-06  0.3312593E+04  0.7818609E-02  0.8159699E-01
        1   -1    0    0  501    0  0.00000000000E+00  0.00000000000E+00  0.16317860192E+04  0.16317860192E+04  0.50400001928E-02 0. -1.
       -1   -1    0    0    0  501  0.00000000000E+00  0.00000000000E+00 -0.16811748012E+04  0.16811748012E+04  0.50400001928E-02 0.  1.
    10030    2    1    2    0    0  0.00000000000E+00  0.00000000000E+00 -0.49388781997E+02  0.33129608204E+04  0.33125926622E+04 0.  0.
        1    1    3    3  502    0 -0.31245984087E+03 -0.62723986863E+03 -0.15256131717E+04  0.16788557278E+04  0.50400001928E-02 0.  1.
       -1    1    3    3    0  502  0.31245984087E+03  0.62723986863E+03  0.14762243897E+04  0.16341050926E+04  0.50400001928E-02 0. -1.
</event>
<event>
 5   0  0.5300268E-06  0.3259644E+04  0.7818609E-02  0.8173241E-01
       -2   -1    0    0    0  501  0.00000000000E+00  0.00000000000E+00  0.14286568776E+04  0.14286568776E+04  0.25500000920E-02 0. -1.
        2   -1    0    0  501    0  0.00000000000E+00  0.00000000000E+00 -0.18593120587E+04  0.18593120587E+04  0.25500000920E-02 0.  1.
    10030    2    1    2    0    0  0.00000000000E+00  0.00000000000E+00 -0.43065518110E+03  0.32879689363E+04  0.32596435145E+04 0.  0.
        4    1    3    3  502    0 -0.93119814183E+03  0.41846857071E+03  0.10661734800E+04  0.14761346234E+04  0.12699999809E+01 0. -1.
       -4    1    3    3    0  502  0.93119814183E+03 -0.41846857071E+03 -0.14968286611E+04  0.18118343130E+04  0.12699999809E+01 0.  1.
</event>
<event>
 5   0  0.1925906E-06  0.2318073E+04  0.7818609E-02  0.8470829E-01
        1   -1    0    0  501    0  0.00000000000E+00  0.00000000000E+00  0.12932591503E+04  0.12932591503E+04  0.50400001928E-02 0.  1.
       -1   -1    0    0    0  501  0.00000000000E+00  0.00000000000E+00 -0.10387441550E+04  0.10387441550E+04  0.50400001928E-02 0. -1.
    10030    2    1    2    0    0  0.00000000000E+00  0.00000000000E+00  0.25451499528E+03  0.23320033054E+04  0.23180728059E+04 0.  0.
        1    1    3    3  502    0 -0.49659923721E+03 -0.48537131396E+03  0.10608263451E+04  0.12678914186E+04  0.50400001928E-02 0.  1.
       -1    1    3    3    0  502  0.49659923721E+03  0.48537131396E+03 -0.80631134980E+03  0.10641118868E+04  0.50400001928E-02 0. -1.
</event>
<event>
 5   0  0.5300268E-06  0.3712817E+04  0.7818609E-02  0.8065127E-01
        2   -1    0    0  501    0  0.00000000000E+00  0.00000000000E+00  0.25612575101E+04  0.25612575101E+04  0.25500000920E-02 0. -1.
       -2   -1    0    0    0  501  0.00000000000E+00  0.00000000000E+00 -0.13455312350E+04  0.13455312350E+04  0.25500000920E-02 0.  1.
    10030    2    1    2    0    0  0.00000000000E+00  0.00000000000E+00  0.12157262751E+04  0.39067887450E+04  0.37128167100E+04 0.  0.
        4    1    3    3  502    0 -0.12487932667E+04 -0.50740120913E+03  0.19509937484E+04  0.23713537968E+04  0.12699999809E+01 0. -1.
       -4    1    3    3    0  502  0.12487932667E+04  0.50740120913E+03 -0.73526747335E+03  0.15354349483E+04  0.12699999809E+01 0.  1.
</event>
<event>
 5   0  0.5755250E-06  0.2952987E+04  0.7818609E-02  0.8257285E-01
        2   -1    0    0  501    0  0.00000000000E+00  0.00000000000E+00  0.20251515059E+04  0.20251515059E+04  0.25500000920E-02 0. -1.
       -2   -1    0    0    0  501  0.00000000000E+00  0.00000000000E+00 -0.10764790998E+04  0.10764790998E+04  0.25500000920E-02 0.  1.
    10030    2    1    2    0    0  0.00000000000E+00  0.00000000000E+00  0.94867240608E+03  0.31016306057E+04  0.29529871453E+04 0.  0.
        5    1    3    3  502    0 -0.11284561161E+04 -0.30800743472E+03 -0.47197537450E+03  0.12613741039E+04  0.46999998093E+01 0.  1.
       -5    1    3    3    0  502  0.11284561161E+04  0.30800743472E+03  0.14206477806E+04  0.18402565018E+04  0.46999998093E+01 0. -1.
</event>
<event>
 5   0  0.2097842E-06  0.1665004E+04  0.7818609E-02  0.8781580E-01
       -1   -1    0    0    0  501  0.00000000000E+00  0.00000000000E+00  0.82707798255E+03  0.82707798256E+03  0.50400001928E-02 0. -1.
        1   -1    0    0  501    0  0.00000000000E+00  0.00000000000E+00 -0.83796117725E+03  0.83796117726E+03  0.50400001928E-02 0.  1.
    10030    2    1    2    0    0  0.00000000000E+00  0.00000000000E+00 -0.10883194697E+02  0.16650391598E+04  0.16650035915E+04 0.  0.
        4    1    3    3  502    0  0.49752012734E+03  0.36948240809E+03 -0.56134383939E+03  0.83615312348E+03  0.12699999809E+01 0.  1.
       -4    1    3    3    0  502 -0.49752012734E+03 -0.36948240809E+03  0.55046064469E+03  0.82888603634E+03  0.12699999809E+01 0. -1.
</event>
<event>
 5   0  0.5755250E-06  0.3307182E+04  0.7818609E-02  0.8161070E-01
        2   -1    0    0  501    0  0.00000000000E+00  0.00000000000E+00  0.11569106792E+04  0.11569106792E+04  0.25500000920E-02 0.  1.
       -2   -1    0    0    0  501  0.00000000000E+00  0.00000000000E+00 -0.23635045924E+04  0.23635045924E+04  0.25500000920E-02 0. -1.
    10030    2    1    2    0    0  0.00000000000E+00  0.00000000000E+00 -0.12065939132E+04  0.35204152716E+04  0.33071823072E+04 0.  0.
        5    1    3    3  502    0 -0.11230043409E+04 -0.84593745621E+02 -0.18921686091E+04  0.22019579893E+04  0.46999998093E+01 0. -1.
       -5    1    3    3    0  502  0.11230043409E+04  0.84593745621E+02  0.68557469589E+03  0.13184572823E+04  0.46999998093E+01 0.  1.
</event>
<event>
 5   0  0.2037109E-06  0.3160655E+04  0.7818609E-02  0.8199286E-01
        1   -1    0    0  501    0  0.00000000000E+00  0.00000000000E+00  0.19152535963E+04  0.19152535963E+04  0.50400001928E-02 0. -1.
       -1   -1    0    0    0  501  0.00000000000E+00  0.00000000000E+00 -0.13039708982E+04  0.13039708982E+04  0.50400001928E-02 0.  1.
    10030    2    1    2    0    0  0.00000000000E+00  0.00000000000E+00  0.61128269808E+03  0.32192244944E+04  0.31606549651E+04 0.  0.
        2    1    3    3  502    0 -0.20545637974E+03 -0.10596731329E+04 -0.87000774091E+03  0.13863740267E+04  0.25500000920E-02 0.  1.
       -2    1    3    3    0  502  0.20545637974E+03  0.10596731329E+04  0.14812904390E+04  0.18328504678E+04  0.25500000920E-02 0. -1.
</event>
<event>
 5   0  0.5637538E-06  0.3388262E+04  0.7818609E-02  0.8140793E-01
        2   -1    0    0  501    0  0.00000000000E+00  0.00000000000E+00  0.17735504297E+04  0.17735504297E+04  0.25500000920E-02 0.  1.
       -2   -1    0    0    0  501  0.00000000000E+00  0.00000000000E+00 -0.16182677146E+04  0.16182677146E+04  0.25500000920E-02 0. -1.
    10030    2    1    2    0    0  0.00000000000E+00  0.00000000000E+00  0.15528271505E+03  0.33918181443E+04  0.33882617376E+04 0.  0.
        2    1    3    3  502    0  0.12353881041E+03 -0.58523172456E+03  0.16643354533E+04  0.17685503980E+04  0.25500000920E-02 0.  1.
       -2    1    3    3    0  502 -0.12353881041E+03  0.58523172456E+03 -0.15090527383E+04  0.16232677463E+04  0.25500000920E-02 0. -1.
</event>
<event>
 5   0  0.1999849E-06  0.3290791E+04  0.7818609E-02  0.8165242E-01
        1   -1    0    0  501    0  0.00000000000E+00  0.00000000000E+00  0.17939998552E+04  0.17939998552E+04  0.50400001928E-02 0. -1.
       -1   -1    0    0    0  501  0.00000000000E+00  0.00000000000E+00 -0.15091010348E+04  0.15091010348E+04  0.50400001928E-02 0.  1.
    10030    2    1    2    0    0  0.00000000000E+00  0.00000000000E+00  0.28489882040E+03  0.33031008900E+04  0.32907914173E+04 0.  0.
        5    1    3    3  502    0  0.11056759520E+04 -0.18923513097E+03  0.13506861416E+04  0.17557631927E+04  0.46999998093E+01 0. -1.
       -5    1    3    3    0  502 -0.11056759520E+04  0.18923513097E+03 -0.10657873212E+04  0.15473376974E+04  0.46999998093E+01 0.  1.
</event>
</LesHouchesEvents>
